 Entering Gaussian System, Link 0=g16
 Input=pg2T_TT_-145.gjf
 Output=pg2T_TT_-145.log
 Initial command:
 /apps/gaussian/g16-c01-avx/g16/l1.exe "/tmp/pbs.4730634[30].pbs/Gau-1525588.inp" -scrdir="/tmp/pbs.4730634[30].pbs/"
 Entering Link 1 = /apps/gaussian/g16-c01-avx/g16/l1.exe PID=   1525589.
  
 Copyright (c) 1988-2019, Gaussian, Inc.  All Rights Reserved.
  
 This is part of the Gaussian(R) 16 program.  It is based on
 the Gaussian(R) 09 system (copyright 2009, Gaussian, Inc.),
 the Gaussian(R) 03 system (copyright 2003, Gaussian, Inc.),
 the Gaussian(R) 98 system (copyright 1998, Gaussian, Inc.),
 the Gaussian(R) 94 system (copyright 1995, Gaussian, Inc.),
 the Gaussian 92(TM) system (copyright 1992, Gaussian, Inc.),
 the Gaussian 90(TM) system (copyright 1990, Gaussian, Inc.),
 the Gaussian 88(TM) system (copyright 1988, Gaussian, Inc.),
 the Gaussian 86(TM) system (copyright 1986, Carnegie Mellon
 University), and the Gaussian 82(TM) system (copyright 1983,
 Carnegie Mellon University). Gaussian is a federally registered
 trademark of Gaussian, Inc.
  
 This software contains proprietary and confidential information,
 including trade secrets, belonging to Gaussian, Inc.
  
 This software is provided under written license and may be
 used, copied, transmitted, or stored only in accord with that
 written license.
  
 The following legend is applicable only to US Government
 contracts under FAR:
  
                    RESTRICTED RIGHTS LEGEND
  
 Use, reproduction and disclosure by the US Government is
 subject to restrictions as set forth in subparagraphs (a)
 and (c) of the Commercial Computer Software - Restricted
 Rights clause in FAR 52.227-19.
  
 Gaussian, Inc.
 340 Quinnipiac St., Bldg. 40, Wallingford CT 06492
  
  
 ---------------------------------------------------------------
 Warning -- This program may not be used in any manner that
 competes with the business of Gaussian, Inc. or will provide
 assistance to any competitor of Gaussian, Inc.  The licensee
 of this program is prohibited from giving any competitor of
 Gaussian, Inc. access to this program.  By using this program,
 the user acknowledges that Gaussian, Inc. is engaged in the
 business of creating and licensing software in the field of
 computational chemistry and represents and warrants to the
 licensee that it is not a competitor of Gaussian, Inc. and that
 it will not use this program in any manner prohibited above.
 ---------------------------------------------------------------
  

 Cite this work as:
 Gaussian 16, Revision C.01,
 M. J. Frisch, G. W. Trucks, H. B. Schlegel, G. E. Scuseria, 
 M. A. Robb, J. R. Cheeseman, G. Scalmani, V. Barone, 
 G. A. Petersson, H. Nakatsuji, X. Li, M. Caricato, A. V. Marenich, 
 J. Bloino, B. G. Janesko, R. Gomperts, B. Mennucci, H. P. Hratchian, 
 J. V. Ortiz, A. F. Izmaylov, J. L. Sonnenberg, D. Williams-Young, 
 F. Ding, F. Lipparini, F. Egidi, J. Goings, B. Peng, A. Petrone, 
 T. Henderson, D. Ranasinghe, V. G. Zakrzewski, J. Gao, N. Rega, 
 G. Zheng, W. Liang, M. Hada, M. Ehara, K. Toyota, R. Fukuda, 
 J. Hasegawa, M. Ishida, T. Nakajima, Y. Honda, O. Kitao, H. Nakai, 
 T. Vreven, K. Throssell, J. A. Montgomery, Jr., J. E. Peralta, 
 F. Ogliaro, M. J. Bearpark, J. J. Heyd, E. N. Brothers, K. N. Kudin, 
 V. N. Staroverov, T. A. Keith, R. Kobayashi, J. Normand, 
 K. Raghavachari, A. P. Rendell, J. C. Burant, S. S. Iyengar, 
 J. Tomasi, M. Cossi, J. M. Millam, M. Klene, C. Adamo, R. Cammi, 
 J. W. Ochterski, R. L. Martin, K. Morokuma, O. Farkas, 
 J. B. Foresman, and D. J. Fox, Gaussian, Inc., Wallingford CT, 2019.
 
 ******************************************
 Gaussian 16:  ES64L-G16RevC.01  3-Jul-2019
                17-Oct-2021 
 ******************************************
 %mem=10GB
 %nprocshared=8
 Will use up to    8 processors via shared memory.
 -------------------------------------
 # opt=modredundant b3lyp/6-311+g(d,p)
 -------------------------------------
 1/18=120,19=15,26=3,38=1/1,3;
 2/9=110,12=2,17=6,18=5,40=1/2;
 3/5=4,6=6,7=111,11=2,25=1,30=1,71=1,74=-5/1,2,3;
 4//1;
 5/5=2,38=5/2;
 6/7=2,8=2,9=2,10=2,28=1/1;
 7//1,2,3,16;
 1/18=20,19=15,26=3/3(2);
 2/9=110/2;
 99//99;
 2/9=110/2;
 3/5=4,6=6,7=111,11=2,25=1,30=1,71=1,74=-5/1,2,3;
 4/5=5,16=3,69=1/1;
 5/5=2,38=5/2;
 7//1,2,3,16;
 1/18=20,19=15,26=3/3(-5);
 2/9=110/2;
 6/7=2,8=2,9=2,10=2,19=2,28=1/1;
 99/9=1/99;
 ----------------
 pg2T_TT_-145.pdb
 ----------------
 Symbolic Z-matrix:
 Charge =  0 Multiplicity = 1
 C                    -4.25     -1.36     -0.21 
 C                    -2.93     -0.95     -0.61 
 C                    -1.97     -2.05     -0.62 
 C                    -4.33     -2.76      0.1 
 S                    -2.8      -3.56     -0.11 
 H                    -5.23     -3.27      0.41 
 C                    -0.56     -2.13     -0.97 
 S                     0.141    -3.577    -1.757 
 C                     1.724    -2.882    -1.815 
 C                     1.757    -1.546    -1.275 
 C                     0.475    -1.106    -0.812 
 H                     0.271    -0.085    -0.529 
 S                     3.044    -0.591    -1.935 
 C                     3.585    -1.94     -2.936 
 C                     2.754    -3.111    -2.774 
 H                     4.331    -1.824    -3.709 
 H                     2.751    -3.932    -3.487 
 H                    -2.89      0.24     -0.97 
 O                    -5.6      -0.36     -0.4 
 H                    -5.76      0.85     -0.75 
 
 Add virtual bond connecting atoms H20        and O19        Dist= 2.40D+00.
 Add virtual bond connecting atoms O19        and C1         Dist= 3.20D+00.
 The following ModRedundant input section has been read:
 D       2       3       7       8 F                                           
 

 GradGradGradGradGradGradGradGradGradGradGradGradGradGradGradGradGradGrad
 Berny optimization.
 Initialization pass.
                           ----------------------------
                           !    Initial Parameters    !
                           ! (Angstroms and Degrees)  !
 --------------------------                            --------------------------
 ! Name  Definition              Value          Derivative Info.                !
 --------------------------------------------------------------------------------
 ! R1    R(1,2)                  1.4389         estimate D2E/DX2                !
 ! R2    R(1,4)                  1.4361         estimate D2E/DX2                !
 ! R3    R(1,19)                 1.6907         estimate D2E/DX2                !
 ! R4    R(2,3)                  1.46           estimate D2E/DX2                !
 ! R5    R(2,18)                 1.2439         estimate D2E/DX2                !
 ! R6    R(3,5)                  1.797          estimate D2E/DX2                !
 ! R7    R(3,7)                  1.455          estimate D2E/DX2                !
 ! R8    R(4,5)                  1.7393         estimate D2E/DX2                !
 ! R9    R(4,6)                  1.0799         estimate D2E/DX2                !
 ! R10   R(7,8)                  1.7901         estimate D2E/DX2                !
 ! R11   R(7,11)                 1.4645         estimate D2E/DX2                !
 ! R12   R(8,9)                  1.7298         estimate D2E/DX2                !
 ! R13   R(9,10)                 1.4414         estimate D2E/DX2                !
 ! R14   R(9,15)                 1.4258         estimate D2E/DX2                !
 ! R15   R(10,11)                1.4323         estimate D2E/DX2                !
 ! R16   R(10,13)                1.7332         estimate D2E/DX2                !
 ! R17   R(11,12)                1.079          estimate D2E/DX2                !
 ! R18   R(13,14)                1.7648         estimate D2E/DX2                !
 ! R19   R(14,15)                1.445          estimate D2E/DX2                !
 ! R20   R(14,16)                1.0805         estimate D2E/DX2                !
 ! R21   R(15,17)                1.0874         estimate D2E/DX2                !
 ! R22   R(19,20)                1.2697         estimate D2E/DX2                !
 ! A1    A(2,1,4)              112.8843         estimate D2E/DX2                !
 ! A2    A(2,1,19)             122.1887         estimate D2E/DX2                !
 ! A3    A(4,1,19)             123.8039         estimate D2E/DX2                !
 ! A4    A(1,2,3)              112.9799         estimate D2E/DX2                !
 ! A5    A(1,2,18)             112.491          estimate D2E/DX2                !
 ! A6    A(3,2,18)             134.2373         estimate D2E/DX2                !
 ! A7    A(2,3,5)              109.1138         estimate D2E/DX2                !
 ! A8    A(2,3,7)              132.8639         estimate D2E/DX2                !
 ! A9    A(5,3,7)              118.0132         estimate D2E/DX2                !
 ! A10   A(1,4,5)              111.9209         estimate D2E/DX2                !
 ! A11   A(1,4,6)              124.6643         estimate D2E/DX2                !
 ! A12   A(5,4,6)              123.4062         estimate D2E/DX2                !
 ! A13   A(3,5,4)               93.0997         estimate D2E/DX2                !
 ! A14   A(3,7,8)              121.9838         estimate D2E/DX2                !
 ! A15   A(3,7,11)             128.3508         estimate D2E/DX2                !
 ! A16   A(8,7,11)             109.6255         estimate D2E/DX2                !
 ! A17   A(7,8,9)               92.7703         estimate D2E/DX2                !
 ! A18   A(8,9,10)             112.3827         estimate D2E/DX2                !
 ! A19   A(8,9,15)             128.2498         estimate D2E/DX2                !
 ! A20   A(10,9,15)            112.6005         estimate D2E/DX2                !
 ! A21   A(9,10,11)            112.6655         estimate D2E/DX2                !
 ! A22   A(9,10,13)            112.6472         estimate D2E/DX2                !
 ! A23   A(11,10,13)           128.2039         estimate D2E/DX2                !
 ! A24   A(7,11,10)            112.5129         estimate D2E/DX2                !
 ! A25   A(7,11,12)            123.8025         estimate D2E/DX2                !
 ! A26   A(10,11,12)           123.0051         estimate D2E/DX2                !
 ! A27   A(10,13,14)            91.2857         estimate D2E/DX2                !
 ! A28   A(13,14,15)           112.3068         estimate D2E/DX2                !
 ! A29   A(13,14,16)           122.3688         estimate D2E/DX2                !
 ! A30   A(15,14,16)           124.3502         estimate D2E/DX2                !
 ! A31   A(9,15,14)            111.142          estimate D2E/DX2                !
 ! A32   A(9,15,17)            124.0752         estimate D2E/DX2                !
 ! A33   A(14,15,17)           122.6786         estimate D2E/DX2                !
 ! A34   A(1,19,20)            134.0455         estimate D2E/DX2                !
 ! D1    D(4,1,2,3)              0.3915         estimate D2E/DX2                !
 ! D2    D(4,1,2,18)           175.0898         estimate D2E/DX2                !
 ! D3    D(19,1,2,3)          -167.9154         estimate D2E/DX2                !
 ! D4    D(19,1,2,18)            6.7829         estimate D2E/DX2                !
 ! D5    D(2,1,4,5)             -0.3845         estimate D2E/DX2                !
 ! D6    D(2,1,4,6)           -179.3471         estimate D2E/DX2                !
 ! D7    D(19,1,4,5)           167.7032         estimate D2E/DX2                !
 ! D8    D(19,1,4,6)           -11.2593         estimate D2E/DX2                !
 ! D9    D(2,1,19,20)           -7.6334         estimate D2E/DX2                !
 ! D10   D(4,1,19,20)         -174.6479         estimate D2E/DX2                !
 ! D11   D(1,2,3,5)             -0.2224         estimate D2E/DX2                !
 ! D12   D(1,2,3,7)            178.6265         estimate D2E/DX2                !
 ! D13   D(18,2,3,5)          -173.3787         estimate D2E/DX2                !
 ! D14   D(18,2,3,7)             5.4701         estimate D2E/DX2                !
 ! D15   D(2,3,5,4)              0.0033         estimate D2E/DX2                !
 ! D16   D(7,3,5,4)           -179.041          estimate D2E/DX2                !
 ! D17   D(2,3,7,8)           -144.9827         Frozen                          !
 ! D18   D(2,3,7,11)            32.4749         estimate D2E/DX2                !
 ! D19   D(5,3,7,8)             33.7852         estimate D2E/DX2                !
 ! D20   D(5,3,7,11)          -148.7571         estimate D2E/DX2                !
 ! D21   D(1,4,5,3)              0.2153         estimate D2E/DX2                !
 ! D22   D(6,4,5,3)            179.1932         estimate D2E/DX2                !
 ! D23   D(3,7,8,9)            179.7937         estimate D2E/DX2                !
 ! D24   D(11,7,8,9)             1.9103         estimate D2E/DX2                !
 ! D25   D(3,7,11,10)         -179.8405         estimate D2E/DX2                !
 ! D26   D(3,7,11,12)           -9.0557         estimate D2E/DX2                !
 ! D27   D(8,7,11,10)           -2.1297         estimate D2E/DX2                !
 ! D28   D(8,7,11,12)          168.655          estimate D2E/DX2                !
 ! D29   D(7,8,9,10)            -1.2408         estimate D2E/DX2                !
 ! D30   D(7,8,9,15)          -149.877          estimate D2E/DX2                !
 ! D31   D(8,9,10,11)            0.2094         estimate D2E/DX2                !
 ! D32   D(8,9,10,13)         -154.0083         estimate D2E/DX2                !
 ! D33   D(15,9,10,11)         153.9309         estimate D2E/DX2                !
 ! D34   D(15,9,10,13)          -0.2868         estimate D2E/DX2                !
 ! D35   D(8,9,15,14)          149.6885         estimate D2E/DX2                !
 ! D36   D(8,9,15,17)          -14.1473         estimate D2E/DX2                !
 ! D37   D(10,9,15,14)           1.1073         estimate D2E/DX2                !
 ! D38   D(10,9,15,17)        -162.7284         estimate D2E/DX2                !
 ! D39   D(9,10,11,7)            1.2746         estimate D2E/DX2                !
 ! D40   D(9,10,11,12)        -169.5951         estimate D2E/DX2                !
 ! D41   D(13,10,11,7)         150.5557         estimate D2E/DX2                !
 ! D42   D(13,10,11,12)        -20.314          estimate D2E/DX2                !
 ! D43   D(9,10,13,14)          -0.4695         estimate D2E/DX2                !
 ! D44   D(11,10,13,14)       -149.7551         estimate D2E/DX2                !
 ! D45   D(10,13,14,15)          1.1051         estimate D2E/DX2                !
 ! D46   D(10,13,14,16)        170.2604         estimate D2E/DX2                !
 ! D47   D(13,14,15,9)          -1.4564         estimate D2E/DX2                !
 ! D48   D(13,14,15,17)        162.6438         estimate D2E/DX2                !
 ! D49   D(16,14,15,9)        -170.3588         estimate D2E/DX2                !
 ! D50   D(16,14,15,17)         -6.2586         estimate D2E/DX2                !
 --------------------------------------------------------------------------------
 Trust Radius=3.00D-01 FncErr=1.00D-07 GrdErr=1.00D-06 EigMax=2.50D+02 EigMin=1.00D-04
 Number of steps in this run=    116 maximum allowed number of steps=    120.
 GradGradGradGradGradGradGradGradGradGradGradGradGradGradGradGradGradGrad

                          Input orientation:                          
 ---------------------------------------------------------------------
 Center     Atomic      Atomic             Coordinates (Angstroms)
 Number     Number       Type             X           Y           Z
 ---------------------------------------------------------------------
      1          6           0       -4.250000   -1.360000   -0.210000
      2          6           0       -2.930000   -0.950000   -0.610000
      3          6           0       -1.970000   -2.050000   -0.620000
      4          6           0       -4.330000   -2.760000    0.100000
      5         16           0       -2.800000   -3.560000   -0.110000
      6          1           0       -5.230000   -3.270000    0.410000
      7          6           0       -0.560000   -2.130000   -0.970000
      8         16           0        0.141000   -3.577000   -1.757000
      9          6           0        1.724000   -2.882000   -1.815000
     10          6           0        1.757000   -1.546000   -1.275000
     11          6           0        0.475000   -1.106000   -0.812000
     12          1           0        0.271000   -0.085000   -0.529000
     13         16           0        3.044000   -0.591000   -1.935000
     14          6           0        3.585000   -1.940000   -2.936000
     15          6           0        2.754000   -3.111000   -2.774000
     16          1           0        4.331000   -1.824000   -3.709000
     17          1           0        2.751000   -3.932000   -3.487000
     18          1           0       -2.890000    0.240000   -0.970000
     19          8           0       -5.600000   -0.360000   -0.400000
     20          1           0       -5.760000    0.850000   -0.750000
 ---------------------------------------------------------------------
                    Distance matrix (angstroms):
                    1          2          3          4          5
     1  C    0.000000
     2  C    1.438923   0.000000
     3  C    2.417147   1.460034   0.000000
     4  C    1.436141   2.395871   2.567509   0.000000
     5  S    2.636759   2.660639   1.796970   1.739253   0.000000
     6  H    2.234480   3.422397   3.630000   1.079907   2.501879
     7  C    3.845335   2.671872   1.454991   3.969219   2.793224
     8  S    5.156470   4.200926   2.842678   4.909764   3.370813
     9  C    6.370336   5.181155   3.970628   6.350829   4.881935
    10  C    6.103513   4.771311   3.817535   6.357357   5.116607
    11  C    4.769963   3.414552   2.627932   5.162895   4.152174
    12  H    4.708166   3.316804   2.981876   5.359148   4.656418
    13  S    7.534549   6.129697   5.384989   7.951205   6.804258
    14  C    8.315931   6.988247   6.019467   8.516861   7.167908
    15  C    7.661339   6.454508   5.299209   7.652851   6.176197
    16  H    9.278570   7.942909   7.021082   9.507760   8.174207
    17  H    8.146650   7.031587   5.835191   8.023759   6.508157
    18  H    2.233204   1.243905   2.492589   3.495497   3.897140
    19  O    1.690739   2.742462   4.010162   2.760960   4.261936
    20  H    2.730531   3.356859   4.773992   3.974858   5.349701
                    6          7          8          9         10
     6  H    0.000000
     7  C    5.001290   0.000000
     8  S    5.799809   1.790134   0.000000
     9  C    7.311586   2.548761   1.729820   0.000000
    10  C    7.391182   2.408852   2.639837   1.441383   0.000000
    11  C    6.222797   1.464502   2.666537   2.391691   1.432303
    12  H    6.425492   2.251015   3.703910   3.404147   2.213421
    13  S    9.007505   4.035909   4.168368   2.646787   1.733203
    14  C    9.522019   4.591545   3.991359   2.367979   2.501148
    15  C    8.596941   3.898637   2.842396   1.425841   2.385421
    16  H   10.510461   5.614057   4.943623   3.391615   3.553465
    17  H    8.906246   4.532683   3.151353   2.225492   3.402055
    18  H    4.438479   3.323522   4.937187   5.634705   4.987728
    19  O    3.043206   5.372095   6.719347   7.874242   7.503177
    20  H    4.312876   5.997399   7.445413   8.430439   7.907068
                   11         12         13         14         15
    11  C    0.000000
    12  H    1.078956   0.000000
    13  S    2.850634   3.149984   0.000000
    14  C    3.857335   4.496362   1.764790   0.000000
    15  C    3.614320   4.512426   2.671782   1.445007   0.000000
    16  H    4.876153   5.442437   2.514704   1.080510   2.239983
    17  H    4.508001   5.449731   3.695515   2.228726   1.087391
    18  H    3.627658   3.208119   6.069114   7.109373   6.807228
    19  O    6.134483   5.878853   8.782273   9.658774   9.110060
    20  H    6.534907   6.107047   8.999507   9.994585   9.605951
                   16         17         18         19         20
    16  H    0.000000
    17  H    2.643738   0.000000
    18  H    7.994064   7.453976   0.000000
    19  O   10.569652   9.593120   2.833549   0.000000
    20  H   10.850541  10.138827   2.942346   1.269724   0.000000
 Stoichiometry    C10H6OS3
 Framework group  C1[X(C10H6OS3)]
 Deg. of freedom    54
 Full point group                 C1      NOp   1
 Largest Abelian subgroup         C1      NOp   1
 Largest concise Abelian subgroup C1      NOp   1
                         Standard orientation:                         
 ---------------------------------------------------------------------
 Center     Atomic      Atomic             Coordinates (Angstroms)
 Number     Number       Type             X           Y           Z
 ---------------------------------------------------------------------
      1          6           0        3.819151    0.725877    0.108432
      2          6           0        2.438961    1.132141    0.131413
      3          6           0        1.517039    0.034751   -0.146969
      4          6           0        3.985947   -0.668484   -0.192292
      5         16           0        2.460119   -1.468002   -0.432332
      6          1           0        4.937956   -1.175222   -0.247931
      7          6           0        0.065590   -0.047752   -0.206019
      8         16           0       -0.823691   -1.506874    0.327574
      9          6           0       -2.361648   -0.808743   -0.046032
     10          6           0       -2.245864    0.536913   -0.549411
     11          6           0       -0.886663    0.981752   -0.628042
     12          1           0       -0.614275    2.007157   -0.824243
     13         16           0       -3.668286    1.483281   -0.257698
     14          6           0       -4.463911    0.117828    0.527797
     15          6           0       -3.617853   -1.052294    0.582977
     16          1           0       -5.396330    0.221820    1.063783
     17          1           0       -3.812004   -1.886092    1.253430
     18          1           0        2.297131    2.315523    0.487491
     19          8           0        5.059978    1.718598    0.685885
     20          1           0        5.112938    2.921615    1.088559
 ---------------------------------------------------------------------
 Rotational constants (GHZ):           1.3071893           0.2302595           0.2022418
 Standard basis: 6-311+G(d,p) (5D, 7F)
 There are   382 symmetry adapted cartesian basis functions of A   symmetry.
 There are   368 symmetry adapted basis functions of A   symmetry.
   368 basis functions,   594 primitive gaussians,   382 cartesian basis functions
    61 alpha electrons       61 beta electrons
       nuclear repulsion energy      1078.8107957832 Hartrees.
 NAtoms=   20 NActive=   20 NUniq=   20 SFac= 1.00D+00 NAtFMM=   60 NAOKFM=F Big=F
 Integral buffers will be    131072 words long.
 Raffenetti 2 integral format.
 Two-electron integral symmetry is turned on.
 One-electron integrals computed using PRISM.
 NBasis=   368 RedAO= T EigKep=  3.43D-06  NBF=   368
 NBsUse=   367 1.00D-06 EigRej=  5.20D-07 NBFU=   367
 ExpMin= 4.05D-02 ExpMax= 9.34D+04 ExpMxC= 3.17D+03 IAcc=3 IRadAn=         5 AccDes= 0.00D+00
 Harris functional with IExCor=  402 and IRadAn=       5 diagonalized for initial guess.
 HarFok:  IExCor=  402 AccDes= 0.00D+00 IRadAn=         5 IDoV= 1 UseB2=F ITyADJ=14
 ICtDFT=  3500011 ScaDFX=  1.000000  1.000000  1.000000  1.000000
 FoFCou: FMM=F IPFlag=           0 FMFlag=      100000 FMFlg1=           0
         NFxFlg=           0 DoJE=T BraDBF=F KetDBF=T FulRan=T
         wScrn=  0.000000 ICntrl=       500 IOpCl=  0 I1Cent=   200000004 NGrid=           0
         NMat0=    1 NMatS0=      1 NMatT0=    0 NMatD0=    1 NMtDS0=    0 NMtDT0=    0
 Petite list used in FoFCou.
 Requested convergence on RMS density matrix=1.00D-08 within 128 cycles.
 Requested convergence on MAX density matrix=1.00D-06.
 Requested convergence on             energy=1.00D-06.
 No special actions if energy rises.
 SCF Done:  E(RB3LYP) =  -1654.46187149     A.U. after   17 cycles
            NFock= 17  Conv=0.35D-08     -V/T= 2.0032

 **********************************************************************

            Population analysis using the SCF Density.

 **********************************************************************

 Orbital symmetries:
       Occupied  (A) (A) (A) (A) (A) (A) (A) (A) (A) (A) (A) (A)
                 (A) (A) (A) (A) (A) (A) (A) (A) (A) (A) (A) (A)
                 (A) (A) (A) (A) (A) (A) (A) (A) (A) (A) (A) (A)
                 (A) (A) (A) (A) (A) (A) (A) (A) (A) (A) (A) (A)
                 (A) (A) (A) (A) (A) (A) (A) (A) (A) (A) (A) (A)
                 (A)
       Virtual   (A) (A) (A) (A) (A) (A) (A) (A) (A) (A) (A) (A)
                 (A) (A) (A) (A) (A) (A) (A) (A) (A) (A) (A) (A)
                 (A) (A) (A) (A) (A) (A) (A) (A) (A) (A) (A) (A)
                 (A) (A) (A) (A) (A) (A) (A) (A) (A) (A) (A) (A)
                 (A) (A) (A) (A) (A) (A) (A) (A) (A) (A) (A) (A)
                 (A) (A) (A) (A) (A) (A) (A) (A) (A) (A) (A) (A)
                 (A) (A) (A) (A) (A) (A) (A) (A) (A) (A) (A) (A)
                 (A) (A) (A) (A) (A) (A) (A) (A) (A) (A) (A) (A)
                 (A) (A) (A) (A) (A) (A) (A) (A) (A) (A) (A) (A)
                 (A) (A) (A) (A) (A) (A) (A) (A) (A) (A) (A) (A)
                 (A) (A) (A) (A) (A) (A) (A) (A) (A) (A) (A) (A)
                 (A) (A) (A) (A) (A) (A) (A) (A) (A) (A) (A) (A)
                 (A) (A) (A) (A) (A) (A) (A) (A) (A) (A) (A) (A)
                 (A) (A) (A) (A) (A) (A) (A) (A) (A) (A) (A) (A)
                 (A) (A) (A) (A) (A) (A) (A) (A) (A) (A) (A) (A)
                 (A) (A) (A) (A) (A) (A) (A) (A) (A) (A) (A) (A)
                 (A) (A) (A) (A) (A) (A) (A) (A) (A) (A) (A) (A)
                 (A) (A) (A) (A) (A) (A) (A) (A) (A) (A) (A) (A)
                 (A) (A) (A) (A) (A) (A) (A) (A) (A) (A) (A) (A)
                 (A) (A) (A) (A) (A) (A) (A) (A) (A) (A) (A) (A)
                 (A) (A) (A) (A) (A) (A) (A) (A) (A) (A) (A) (A)
                 (A) (A) (A) (A) (A) (A) (A) (A) (A) (A) (A) (A)
                 (A) (A) (A) (A) (A) (A) (A) (A) (A) (A) (A) (A)
                 (A) (A) (A) (A) (A) (A) (A) (A) (A) (A) (A) (A)
                 (A) (A) (A) (A) (A) (A) (A) (A) (A) (A) (A) (A)
                 (A) (A) (A) (A) (A) (A)
 The electronic state is 1-A.
 Alpha  occ. eigenvalues --  -88.90484 -88.89734 -88.89663 -19.15480 -10.27257
 Alpha  occ. eigenvalues --  -10.25088 -10.24569 -10.22719 -10.22712 -10.22672
 Alpha  occ. eigenvalues --  -10.22605 -10.22518 -10.21175 -10.20974  -7.98921
 Alpha  occ. eigenvalues --   -7.98255  -7.98196  -5.95232  -5.94875  -5.94567
 Alpha  occ. eigenvalues --   -5.94521  -5.94490  -5.94209  -5.94156  -5.93809
 Alpha  occ. eigenvalues --   -5.93722  -0.93458  -0.91370  -0.88375  -0.84357
 Alpha  occ. eigenvalues --   -0.78133  -0.75648  -0.74580  -0.71712  -0.69196
 Alpha  occ. eigenvalues --   -0.62482  -0.58335  -0.56130  -0.54526  -0.53378
 Alpha  occ. eigenvalues --   -0.50418  -0.49620  -0.45811  -0.44056  -0.42613
 Alpha  occ. eigenvalues --   -0.41298  -0.40717  -0.40378  -0.39974  -0.39146
 Alpha  occ. eigenvalues --   -0.38268  -0.36898  -0.35235  -0.34496  -0.32363
 Alpha  occ. eigenvalues --   -0.31737  -0.30009  -0.26969  -0.25487  -0.24275
 Alpha  occ. eigenvalues --   -0.20665
 Alpha virt. eigenvalues --   -0.08488  -0.08041  -0.04282  -0.02707  -0.01664
 Alpha virt. eigenvalues --   -0.00660  -0.00025   0.00122   0.00661   0.00945
 Alpha virt. eigenvalues --    0.02008   0.02443   0.03032   0.03412   0.03776
 Alpha virt. eigenvalues --    0.04132   0.04773   0.05376   0.05491   0.06044
 Alpha virt. eigenvalues --    0.06607   0.07073   0.07558   0.08079   0.08660
 Alpha virt. eigenvalues --    0.08993   0.09246   0.09478   0.10192   0.10864
 Alpha virt. eigenvalues --    0.11386   0.11487   0.11711   0.12433   0.12633
 Alpha virt. eigenvalues --    0.13230   0.13704   0.14034   0.14271   0.15146
 Alpha virt. eigenvalues --    0.15518   0.16139   0.16186   0.16595   0.17026
 Alpha virt. eigenvalues --    0.17489   0.17999   0.18105   0.18597   0.19019
 Alpha virt. eigenvalues --    0.19109   0.19580   0.20025   0.20183   0.20388
 Alpha virt. eigenvalues --    0.20819   0.21444   0.21741   0.22162   0.22611
 Alpha virt. eigenvalues --    0.22977   0.24084   0.24326   0.24850   0.25173
 Alpha virt. eigenvalues --    0.25634   0.25792   0.25928   0.26514   0.28207
 Alpha virt. eigenvalues --    0.28407   0.29229   0.29685   0.30690   0.31000
 Alpha virt. eigenvalues --    0.31778   0.32291   0.33196   0.33685   0.33983
 Alpha virt. eigenvalues --    0.34762   0.35090   0.36113   0.36426   0.37666
 Alpha virt. eigenvalues --    0.39091   0.39958   0.40142   0.42085   0.42664
 Alpha virt. eigenvalues --    0.43922   0.45387   0.47632   0.48693   0.51617
 Alpha virt. eigenvalues --    0.52874   0.54198   0.54544   0.55330   0.55707
 Alpha virt. eigenvalues --    0.56348   0.56929   0.57508   0.58640   0.59976
 Alpha virt. eigenvalues --    0.60984   0.61445   0.62534   0.62730   0.63686
 Alpha virt. eigenvalues --    0.64978   0.66499   0.67610   0.68272   0.68773
 Alpha virt. eigenvalues --    0.69559   0.70406   0.71150   0.72393   0.72748
 Alpha virt. eigenvalues --    0.73074   0.73751   0.74859   0.75634   0.76269
 Alpha virt. eigenvalues --    0.76645   0.77595   0.79258   0.80594   0.80930
 Alpha virt. eigenvalues --    0.82592   0.82712   0.83695   0.84908   0.85886
 Alpha virt. eigenvalues --    0.86168   0.86999   0.87975   0.88260   0.89664
 Alpha virt. eigenvalues --    0.91166   0.92331   0.92815   0.93358   0.94806
 Alpha virt. eigenvalues --    0.95557   0.96610   0.98203   0.98783   1.00023
 Alpha virt. eigenvalues --    1.01065   1.02631   1.04327   1.07226   1.08582
 Alpha virt. eigenvalues --    1.09675   1.10997   1.13282   1.14026   1.17857
 Alpha virt. eigenvalues --    1.20631   1.22400   1.24820   1.26382   1.28025
 Alpha virt. eigenvalues --    1.33815   1.34806   1.35033   1.36821   1.38978
 Alpha virt. eigenvalues --    1.41590   1.44026   1.47444   1.48933   1.49846
 Alpha virt. eigenvalues --    1.51487   1.52722   1.53967   1.56744   1.58432
 Alpha virt. eigenvalues --    1.59288   1.59806   1.62316   1.63016   1.65020
 Alpha virt. eigenvalues --    1.65602   1.66142   1.67500   1.68730   1.69779
 Alpha virt. eigenvalues --    1.70257   1.71806   1.73583   1.74512   1.76512
 Alpha virt. eigenvalues --    1.78235   1.79339   1.80373   1.82192   1.82880
 Alpha virt. eigenvalues --    1.84765   1.86456   1.89201   1.90964   1.92954
 Alpha virt. eigenvalues --    1.93384   1.93901   1.95383   1.97858   1.97986
 Alpha virt. eigenvalues --    1.99035   1.99431   2.01081   2.01993   2.03532
 Alpha virt. eigenvalues --    2.05243   2.08016   2.09216   2.12442   2.13520
 Alpha virt. eigenvalues --    2.14487   2.17295   2.21980   2.24450   2.28946
 Alpha virt. eigenvalues --    2.32828   2.33869   2.35528   2.41748   2.45551
 Alpha virt. eigenvalues --    2.47704   2.51924   2.54130   2.57492   2.62430
 Alpha virt. eigenvalues --    2.64409   2.65438   2.67869   2.69499   2.70881
 Alpha virt. eigenvalues --    2.71530   2.73215   2.74306   2.77619   2.79310
 Alpha virt. eigenvalues --    2.81544   2.83832   2.87207   2.89090   2.91530
 Alpha virt. eigenvalues --    2.92645   2.94018   2.95130   2.96367   2.99873
 Alpha virt. eigenvalues --    3.01318   3.03312   3.03683   3.08683   3.15704
 Alpha virt. eigenvalues --    3.19836   3.24317   3.26252   3.30181   3.35417
 Alpha virt. eigenvalues --    3.39037   3.46660   3.49072   3.57887   3.59750
 Alpha virt. eigenvalues --    3.76656   3.82283   3.92274   4.03069   4.11063
 Alpha virt. eigenvalues --    4.29382   4.47750   5.01612   5.12124   5.25000
 Alpha virt. eigenvalues --    7.92640   7.94868   7.97156  17.26922  17.27956
 Alpha virt. eigenvalues --   17.29140  17.41627  17.42467  17.45129  17.46891
 Alpha virt. eigenvalues --   17.49411  17.51914  23.41143  23.56184  23.65914
 Alpha virt. eigenvalues --   23.75429  23.79307  23.84621  23.86230  23.87997
 Alpha virt. eigenvalues --   23.93409  23.95346  49.84305 189.08914 189.11213
 Alpha virt. eigenvalues --  189.13870
          Condensed to atoms (all electrons):
               1          2          3          4          5          6
     1  C    6.966782  -0.970569   0.070171  -1.030277   1.002202   0.049912
     2  C   -0.970569  12.259659  -2.873262   0.744433  -2.786859  -0.033227
     3  C    0.070171  -2.873262   8.985290  -0.389346   0.496296   0.022917
     4  C   -1.030277   0.744433  -0.389346   7.290174  -0.900472   0.346247
     5  S    1.002202  -2.786859   0.496296  -0.900472  17.765100  -0.020452
     6  H    0.049912  -0.033227   0.022917   0.346247  -0.020452   0.459779
     7  C    0.169560  -0.747137  -0.376609  -0.176159   0.744483  -0.001983
     8  S   -0.022564   0.344401   0.480638   0.052782  -0.174554  -0.000391
     9  C   -0.077919   0.160242  -0.412788   0.020816  -0.123778  -0.000081
    10  C   -0.028567  -0.945892   0.630264  -0.015174   0.353107  -0.000236
    11  C   -0.002266   0.082540  -0.773975  -0.057327   0.064949  -0.000383
    12  H    0.002668   0.025848   0.001278   0.000226  -0.004414   0.000000
    13  S   -0.009612  -0.037473   0.017245  -0.001227   0.015931   0.000000
    14  C   -0.001097  -0.008121  -0.013848   0.000229  -0.003712  -0.000000
    15  C   -0.002317   0.130431   0.089695   0.001166  -0.062484  -0.000013
    16  H   -0.000001  -0.000097  -0.000146  -0.000000   0.000047   0.000000
    17  H    0.000002  -0.000041  -0.001097  -0.000006   0.000167   0.000000
    18  H   -0.065818   0.277163   0.100419  -0.028269   0.011314  -0.000093
    19  O    0.348590  -0.093180   0.009166  -0.136719   0.018794  -0.000704
    20  H   -0.067627  -0.017586   0.029683   0.056026  -0.003910  -0.000190
               7          8          9         10         11         12
     1  C    0.169560  -0.022564  -0.077919  -0.028567  -0.002266   0.002668
     2  C   -0.747137   0.344401   0.160242  -0.945892   0.082540   0.025848
     3  C   -0.376609   0.480638  -0.412788   0.630264  -0.773975   0.001278
     4  C   -0.176159   0.052782   0.020816  -0.015174  -0.057327   0.000226
     5  S    0.744483  -0.174554  -0.123778   0.353107   0.064949  -0.004414
     6  H   -0.001983  -0.000391  -0.000081  -0.000236  -0.000383   0.000000
     7  C    8.759693   0.136243  -1.101977   0.528289  -1.727321   0.082763
     8  S    0.136243  17.849123  -0.955432   1.162023  -2.494507   0.015222
     9  C   -1.101977  -0.955432  14.212879  -4.726972   0.654537  -0.056315
    10  C    0.528289   1.162023  -4.726972  14.904555  -4.400305   0.060973
    11  C   -1.727321  -2.494507   0.654537  -4.400305  13.585945   0.219546
    12  H    0.082763   0.015222  -0.056315   0.060973   0.219546   0.518655
    13  S   -0.334249   0.172476   0.924206  -0.625036  -0.218455   0.005231
    14  C    0.017626   0.016497   0.721767  -0.432159  -0.378907   0.001102
    15  C    0.014713  -0.106009  -3.453015  -0.409170   0.967239  -0.012145
    16  H   -0.001901  -0.000095  -0.013753   0.008791   0.017421  -0.000003
    17  H    0.006061   0.017101   0.021823  -0.027930  -0.002546   0.000015
    18  H    0.005272  -0.001460  -0.000246   0.005379   0.018592  -0.000168
    19  O    0.009660  -0.001536   0.000028   0.001974   0.005684  -0.000008
    20  H   -0.000520  -0.000025  -0.000033   0.000467   0.001556  -0.000002
              13         14         15         16         17         18
     1  C   -0.009612  -0.001097  -0.002317  -0.000001   0.000002  -0.065818
     2  C   -0.037473  -0.008121   0.130431  -0.000097  -0.000041   0.277163
     3  C    0.017245  -0.013848   0.089695  -0.000146  -0.001097   0.100419
     4  C   -0.001227   0.000229   0.001166  -0.000000  -0.000006  -0.028269
     5  S    0.015931  -0.003712  -0.062484   0.000047   0.000167   0.011314
     6  H    0.000000  -0.000000  -0.000013   0.000000   0.000000  -0.000093
     7  C   -0.334249   0.017626   0.014713  -0.001901   0.006061   0.005272
     8  S    0.172476   0.016497  -0.106009  -0.000095   0.017101  -0.001460
     9  C    0.924206   0.721767  -3.453015  -0.013753   0.021823  -0.000246
    10  C   -0.625036  -0.432159  -0.409170   0.008791  -0.027930   0.005379
    11  C   -0.218455  -0.378907   0.967239   0.017421  -0.002546   0.018592
    12  H    0.005231   0.001102  -0.012145  -0.000003   0.000015  -0.000168
    13  S   16.546381   0.443738  -0.740153  -0.022205   0.003400   0.000193
    14  C    0.443738   5.666813  -0.089742   0.362305   0.006435   0.000093
    15  C   -0.740153  -0.089742   9.509540   0.004730   0.324468  -0.000378
    16  H   -0.022205   0.362305   0.004730   0.470977  -0.003593   0.000000
    17  H    0.003400   0.006435   0.324468  -0.003593   0.512542   0.000000
    18  H    0.000193   0.000093  -0.000378   0.000000   0.000000   0.538823
    19  O   -0.000003   0.000004   0.000004   0.000000   0.000000  -0.001576
    20  H   -0.000003   0.000001  -0.000004  -0.000000   0.000000   0.001128
              19         20
     1  C    0.348590  -0.067627
     2  C   -0.093180  -0.017586
     3  C    0.009166   0.029683
     4  C   -0.136719   0.056026
     5  S    0.018794  -0.003910
     6  H   -0.000704  -0.000190
     7  C    0.009660  -0.000520
     8  S   -0.001536  -0.000025
     9  C    0.000028  -0.000033
    10  C    0.001974   0.000467
    11  C    0.005684   0.001556
    12  H   -0.000008  -0.000002
    13  S   -0.000003  -0.000003
    14  C    0.000004   0.000001
    15  C    0.000004  -0.000004
    16  H    0.000000  -0.000000
    17  H    0.000000   0.000000
    18  H   -0.001576   0.001128
    19  O    8.101475   0.185462
    20  H    0.185462   0.531057
 Mulliken charges:
               1
     1  C   -0.331252
     2  C    0.488727
     3  C   -0.091993
     4  C    0.222876
     5  S   -0.391754
     6  H    0.178897
     7  C   -0.006506
     8  S   -0.489934
     9  C    0.206011
    10  C   -0.044381
    11  C    0.437983
    12  H    0.139530
    13  S   -0.140384
    14  C   -0.309025
    15  C   -0.166553
    16  H    0.177523
    17  H    0.143201
    18  H    0.139632
    19  O   -0.447116
    20  H    0.284520
 Sum of Mulliken charges =  -0.00000
 Mulliken charges with hydrogens summed into heavy atoms:
               1
     1  C   -0.331252
     2  C    0.628359
     3  C   -0.091993
     4  C    0.401773
     5  S   -0.391754
     7  C   -0.006506
     8  S   -0.489934
     9  C    0.206011
    10  C   -0.044381
    11  C    0.577513
    13  S   -0.140384
    14  C   -0.131502
    15  C   -0.023352
    19  O   -0.162596
 Electronic spatial extent (au):  <R**2>=           4987.2687
 Charge=             -0.0000 electrons
 Dipole moment (field-independent basis, Debye):
    X=             -1.6933    Y=              1.1326    Z=              1.2644  Tot=              2.3976
 Quadrupole moment (field-independent basis, Debye-Ang):
   XX=           -103.1167   YY=            -90.6744   ZZ=           -107.2158
   XY=              2.4561   XZ=             -4.7590   YZ=              1.1793
 Traceless Quadrupole moment (field-independent basis, Debye-Ang):
   XX=             -2.7810   YY=              9.6612   ZZ=             -6.8802
   XY=              2.4561   XZ=             -4.7590   YZ=              1.1793
 Octapole moment (field-independent basis, Debye-Ang**2):
  XXX=            -71.4540  YYY=             37.4138  ZZZ=              6.4260  XYY=             44.8003
  XXY=              3.0874  XXZ=             33.5029  XZZ=             -0.9954  YZZ=              2.4356
  YYZ=             15.6943  XYZ=             23.5343
 Hexadecapole moment (field-independent basis, Debye-Ang**3):
 XXXX=          -5717.4402 YYYY=           -871.5541 ZZZZ=           -254.5126 XXXY=            -23.4159
 XXXZ=           -141.7432 YYYX=            170.6063 YYYZ=             36.8350 ZZZX=              5.8420
 ZZZY=              5.2468 XXYY=           -884.8972 XXZZ=          -1007.0473 YYZZ=           -194.7469
 XXYZ=             72.9266 YYXZ=             52.7023 ZZXY=             28.8256
 N-N= 1.078810795783D+03 E-N=-6.066947915247D+03  KE= 1.649109723210D+03
 Calling FoFJK, ICntrl=      2127 FMM=F ISym2X=0 I1Cent= 0 IOpClX= 0 NMat=1 NMatS=1 NMatT=0.
 ***** Axes restored to original set *****
 -------------------------------------------------------------------
 Center     Atomic                   Forces (Hartrees/Bohr)
 Number     Number              X              Y              Z
 -------------------------------------------------------------------
      1        6          -0.012634706    0.009178459   -0.019141445
      2        6           0.002656000    0.026049975   -0.014744780
      3        6          -0.033846009    0.026458993    0.001838934
      4        6          -0.015572808    0.056259914   -0.009622611
      5       16          -0.004903724    0.027436738   -0.000054419
      6        1           0.002844926   -0.003842738   -0.001358700
      7        6           0.040180814    0.042352692    0.004329204
      8       16          -0.008366485    0.004958753    0.013539907
      9        6           0.011648808    0.033800634   -0.007091468
     10        6          -0.033816336   -0.021668265   -0.011768226
     11        6          -0.027034515   -0.043650794   -0.011425655
     12        1          -0.003337924   -0.000974604    0.006369381
     13       16           0.012358377   -0.013512675   -0.004735731
     14        6          -0.038808564   -0.043529182    0.006892038
     15        6           0.022844104    0.048889060   -0.006838055
     16        1           0.004034785    0.002284076    0.005579531
     17        1           0.006564358   -0.000129167    0.006780830
     18        1           0.014061694   -0.069920979    0.018209724
     19        8           0.018629866    0.025929587   -0.006826608
     20        1           0.042497339   -0.106370478    0.030068149
 -------------------------------------------------------------------
 Cartesian Forces:  Max     0.106370478 RMS     0.027289878

 GradGradGradGradGradGradGradGradGradGradGradGradGradGradGradGradGradGrad
 Berny optimization.
 FormGI is forming the generalized inverse of G from B-inverse, IUseBI=4.
 Internal  Forces:  Max     0.115010634 RMS     0.022702318
 Search for a local minimum.
 Step number   1 out of a maximum of  116
 All quantities printed in internal units (Hartrees-Bohrs-Radians)
 Mixed Optimization -- RFO/linear search
 Second derivative matrix not updated -- first step.
 ITU=  0
     Eigenvalues ---    0.00230   0.00983   0.01057   0.01222   0.01274
     Eigenvalues ---    0.01298   0.01386   0.01417   0.01420   0.01464
     Eigenvalues ---    0.01495   0.01554   0.01595   0.01771   0.02200
     Eigenvalues ---    0.02654   0.15078   0.15685   0.15739   0.15872
     Eigenvalues ---    0.15997   0.16000   0.17982   0.18458   0.20203
     Eigenvalues ---    0.21719   0.22442   0.23319   0.23380   0.23776
     Eigenvalues ---    0.23976   0.24292   0.24978   0.24995   0.26219
     Eigenvalues ---    0.26562   0.28415   0.30834   0.31242   0.31590
     Eigenvalues ---    0.34803   0.35116   0.35849   0.35933   0.36006
     Eigenvalues ---    0.36121   0.36301   0.37598   0.38268   0.38494
     Eigenvalues ---    0.39449   0.39735   0.406521000.000001000.00000
     Eigenvalues --- 1000.000001000.000001000.000001000.000001000.00000
     Eigenvalues --- 1000.000001000.000001000.000001000.000001000.00000
     Eigenvalues --- 1000.000001000.000001000.000001000.000001000.00000
     Eigenvalues --- 1000.000001000.000001000.000001000.000001000.00000
     Eigenvalues --- 1000.000001000.000001000.000001000.000001000.00000
     Eigenvalues --- 1000.000001000.000001000.000001000.000001000.00000
     Eigenvalues --- 1000.000001000.000001000.000001000.000001000.00000
     Eigenvalues --- 1000.000001000.000001000.000001000.000001000.00000
     Eigenvalues --- 1000.000001000.000001000.000001000.000001000.00000
     Eigenvalues --- 1000.000001000.000001000.000001000.000001000.00000
     Eigenvalues --- 1000.00000
 RFO step:  Lambda=-1.44384395D-01 EMin= 2.30000000D-03
 Linear search not attempted -- first point.
 Maximum step size (   0.300) exceeded in Quadratic search.
    -- Step size scaled by   0.486
 Iteration  1 RMS(Cart)=  0.06116762 RMS(Int)=  0.00157154
 Iteration  2 RMS(Cart)=  0.00183431 RMS(Int)=  0.00007157
 Iteration  3 RMS(Cart)=  0.00000988 RMS(Int)=  0.00007129
 Iteration  4 RMS(Cart)=  0.00000000 RMS(Int)=  0.00007129
 Iteration  1 RMS(Cart)=  0.00000321 RMS(Int)=  0.00000122
 Iteration  2 RMS(Cart)=  0.00000175 RMS(Int)=  0.00000136
 Iteration  3 RMS(Cart)=  0.00000095 RMS(Int)=  0.00000154
 Variable       Old X    -DE/DX   Delta X   Delta X   Delta X     New X
                                 (Linear)    (Quad)   (Total)
    R1        2.71917  -0.02223   0.00000  -0.02094  -0.02086   2.69831
    R2        2.71391  -0.06280   0.00000  -0.05635  -0.05631   2.65760
    R3        3.19503  -0.09900   0.00000  -0.14613  -0.14613   3.04890
    R4        2.75906  -0.06618   0.00000  -0.06287  -0.06285   2.69622
    R5        2.35064  -0.07171   0.00000  -0.09630  -0.09630   2.25434
    R6        3.39578  -0.01677   0.00000  -0.01889  -0.01896   3.37682
    R7        2.74954  -0.01419   0.00000  -0.01324  -0.01324   2.73630
    R8        3.28671  -0.01487   0.00000  -0.01492  -0.01496   3.27175
    R9        2.04073  -0.00095   0.00000  -0.00091  -0.00091   2.03982
   R10        3.38286  -0.01186   0.00000  -0.01297  -0.01302   3.36984
   R11        2.76751  -0.06097   0.00000  -0.05848  -0.05851   2.70900
   R12        3.26889   0.00042   0.00000   0.00108   0.00108   3.26997
   R13        2.72382  -0.03102   0.00000  -0.02857  -0.02845   2.69536
   R14        2.69445  -0.00325   0.00000  -0.00361  -0.00355   2.69089
   R15        2.70666  -0.01301   0.00000  -0.01236  -0.01232   2.69434
   R16        3.27528   0.00131   0.00000   0.00220   0.00219   3.27747
   R17        2.03893   0.00138   0.00000   0.00132   0.00132   2.04026
   R18        3.33497  -0.01220   0.00000  -0.01303  -0.01310   3.32187
   R19        2.73067  -0.05763   0.00000  -0.05294  -0.05296   2.67770
   R20        2.04187  -0.00096   0.00000  -0.00093  -0.00093   2.04094
   R21        2.05487  -0.00437   0.00000  -0.00428  -0.00428   2.05059
   R22        2.39943  -0.11501   0.00000  -0.16121  -0.16121   2.23822
    A1        1.97020   0.02049   0.00000   0.02374   0.02386   1.99406
    A2        2.13260   0.00460   0.00000   0.00713   0.00709   2.13969
    A3        2.16079  -0.02457   0.00000  -0.02942  -0.02951   2.13127
    A4        1.97187  -0.00263   0.00000  -0.00529  -0.00519   1.96668
    A5        1.96334   0.02061   0.00000   0.03356   0.03351   1.99685
    A6        2.34288  -0.01787   0.00000  -0.02783  -0.02789   2.31500
    A7        1.90440  -0.00061   0.00000  -0.00005  -0.00009   1.90431
    A8        2.31891  -0.01092   0.00000  -0.01380  -0.01379   2.30512
    A9        2.05972   0.01155   0.00000   0.01387   0.01389   2.07361
   A10        1.95339  -0.01515   0.00000  -0.01980  -0.01980   1.93359
   A11        2.17580   0.01234   0.00000   0.01752   0.01751   2.19332
   A12        2.15384   0.00284   0.00000   0.00237   0.00236   2.15621
   A13        1.62490  -0.00209   0.00000   0.00143   0.00124   1.62613
   A14        2.12902  -0.00314   0.00000  -0.00365  -0.00366   2.12536
   A15        2.24014  -0.00437   0.00000  -0.00519  -0.00519   2.23495
   A16        1.91333   0.00757   0.00000   0.00893   0.00893   1.92226
   A17        1.61915  -0.00681   0.00000  -0.00650  -0.00648   1.61267
   A18        1.96145  -0.01044   0.00000  -0.01128  -0.01138   1.95007
   A19        2.23838   0.00788   0.00000   0.01354   0.01337   2.25175
   A20        1.96525   0.00623   0.00000   0.00748   0.00754   1.97279
   A21        1.96638   0.00783   0.00000   0.00891   0.00892   1.97531
   A22        1.96606  -0.01337   0.00000  -0.01467  -0.01476   1.95130
   A23        2.23758   0.00924   0.00000   0.01554   0.01539   2.25297
   A24        1.96372   0.00187   0.00000  -0.00007  -0.00000   1.96372
   A25        2.16076  -0.00472   0.00000  -0.00548  -0.00556   2.15520
   A26        2.14684   0.00347   0.00000   0.00749   0.00741   2.15426
   A27        1.59324   0.00028   0.00000   0.00166   0.00167   1.59490
   A28        1.96012   0.00166   0.00000   0.00121   0.00118   1.96130
   A29        2.13574  -0.00469   0.00000  -0.00616  -0.00622   2.12952
   A30        2.17032   0.00406   0.00000   0.00796   0.00792   2.17824
   A31        1.93979   0.00518   0.00000   0.00430   0.00436   1.94415
   A32        2.16552   0.00018   0.00000   0.00358   0.00346   2.16898
   A33        2.14114  -0.00348   0.00000  -0.00245  -0.00259   2.13856
   A34        2.33954  -0.06765   0.00000  -0.10793  -0.10793   2.23161
    D1        0.00683  -0.00116   0.00000  -0.00357  -0.00360   0.00323
    D2        3.05589  -0.00130   0.00000  -0.00143  -0.00134   3.05456
    D3       -2.93068  -0.00090   0.00000  -0.00760  -0.00780  -2.93847
    D4        0.11838  -0.00103   0.00000  -0.00546  -0.00553   0.11285
    D5       -0.00671   0.00175   0.00000   0.00503   0.00503  -0.00168
    D6       -3.13020  -0.00031   0.00000  -0.00022  -0.00019  -3.13039
    D7        2.92697   0.00556   0.00000   0.01424   0.01412   2.94110
    D8       -0.19651   0.00351   0.00000   0.00899   0.00891  -0.18760
    D9       -0.13323   0.00142   0.00000   0.00126   0.00121  -0.13202
   D10       -3.04818  -0.00408   0.00000  -0.01008  -0.01003  -3.05821
   D11       -0.00388   0.00024   0.00000   0.00075   0.00070  -0.00319
   D12        3.11762   0.00145   0.00000   0.00194   0.00189   3.11952
   D13       -3.02603  -0.00270   0.00000  -0.00693  -0.00693  -3.03296
   D14        0.09547  -0.00149   0.00000  -0.00574  -0.00573   0.08974
   D15        0.00006   0.00069   0.00000   0.00184   0.00187   0.00192
   D16       -3.12486  -0.00004   0.00000   0.00119   0.00119  -3.12367
   D17       -2.53043  -0.00198   0.00000   0.00000  -0.00000  -2.53043
   D18        0.56679  -0.00002   0.00000   0.00313   0.00314   0.56993
   D19        0.58966  -0.00082   0.00000   0.00111   0.00113   0.59079
   D20       -2.59630   0.00113   0.00000   0.00425   0.00427  -2.59204
   D21        0.00376  -0.00141   0.00000  -0.00395  -0.00393  -0.00017
   D22        3.12751   0.00073   0.00000   0.00140   0.00134   3.12885
   D23        3.13799   0.00110   0.00000   0.00230   0.00229   3.14029
   D24        0.03334  -0.00030   0.00000  -0.00004  -0.00007   0.03327
   D25       -3.13881  -0.00163   0.00000  -0.00313  -0.00310   3.14127
   D26       -0.15805   0.00298   0.00000   0.01065   0.01065  -0.14740
   D27       -0.03717  -0.00006   0.00000  -0.00053  -0.00048  -0.03765
   D28        2.94359   0.00456   0.00000   0.01326   0.01327   2.95685
   D29       -0.02166   0.00095   0.00000   0.00102   0.00101  -0.02064
   D30       -2.61585  -0.00782   0.00000  -0.02078  -0.02078  -2.63663
   D31        0.00365  -0.00076   0.00000  -0.00113  -0.00110   0.00255
   D32       -2.68795  -0.01026   0.00000  -0.02359  -0.02335  -2.71131
   D33        2.68660   0.00813   0.00000   0.02026   0.02012   2.70672
   D34       -0.00501  -0.00137   0.00000  -0.00219  -0.00213  -0.00714
   D35        2.61256   0.00578   0.00000   0.01910   0.01926   2.63181
   D36       -0.24692  -0.00080   0.00000  -0.00082  -0.00075  -0.24766
   D37        0.01933   0.00121   0.00000   0.00200   0.00196   0.02129
   D38       -2.84015  -0.00538   0.00000  -0.01793  -0.01804  -2.85819
   D39        0.02225   0.00055   0.00000   0.00105   0.00102   0.02326
   D40       -2.95999  -0.00316   0.00000  -0.01123  -0.01134  -2.97133
   D41        2.62769   0.00460   0.00000   0.01778   0.01797   2.64566
   D42       -0.35455   0.00090   0.00000   0.00550   0.00561  -0.34894
   D43       -0.00819   0.00115   0.00000   0.00160   0.00156  -0.00663
   D44       -2.61372  -0.00816   0.00000  -0.02097  -0.02095  -2.63467
   D45        0.01929  -0.00036   0.00000  -0.00037  -0.00037   0.01892
   D46        2.97160   0.00587   0.00000   0.01720   0.01712   2.98872
   D47       -0.02542  -0.00031   0.00000  -0.00075  -0.00072  -0.02614
   D48        2.83867   0.00683   0.00000   0.01997   0.02000   2.85867
   D49       -2.97332  -0.00557   0.00000  -0.01690  -0.01694  -2.99026
   D50       -0.10923   0.00157   0.00000   0.00382   0.00377  -0.10546
         Item               Value     Threshold  Converged?
 Maximum Force            0.115011     0.000450     NO 
 RMS     Force            0.022808     0.000300     NO 
 Maximum Displacement     0.413635     0.001800     NO 
 RMS     Displacement     0.060647     0.001200     NO 
 Predicted change in Energy=-5.994045D-02
 GradGradGradGradGradGradGradGradGradGradGradGradGradGradGradGradGradGrad

                          Input orientation:                          
 ---------------------------------------------------------------------
 Center     Atomic      Atomic             Coordinates (Angstroms)
 Number     Number       Type             X           Y           Z
 ---------------------------------------------------------------------
      1          6           0       -4.224114   -1.357601   -0.219450
      2          6           0       -2.914670   -0.958390   -0.625453
      3          6           0       -1.985692   -2.041292   -0.629099
      4          6           0       -4.339476   -2.722879    0.097568
      5         16           0       -2.822279   -3.531466   -0.106936
      6          1           0       -5.242976   -3.221267    0.414514
      7          6           0       -0.583899   -2.115945   -0.984160
      8         16           0        0.111202   -3.560284   -1.765619
      9          6           0        1.690331   -2.855566   -1.828781
     10          6           0        1.700403   -1.533472   -1.293646
     11          6           0        0.421085   -1.104972   -0.832571
     12          1           0        0.204272   -0.088803   -0.539222
     13         16           0        3.003648   -0.587709   -1.937926
     14          6           0        3.557210   -1.939231   -2.916200
     15          6           0        2.737699   -3.085352   -2.765735
     16          1           0        4.328772   -1.826914   -3.663542
     17          1           0        2.761666   -3.915589   -3.464041
     18          1           0       -2.834324    0.176429   -0.984405
     19          8           0       -5.514744   -0.404173   -0.387802
     20          1           0       -5.541114    0.730477   -0.726493
 ---------------------------------------------------------------------
                    Distance matrix (angstroms):
                    1          2          3          4          5
     1  C    0.000000
     2  C    1.427883   0.000000
     3  C    2.376084   1.426776   0.000000
     4  C    1.406340   2.380389   2.555954   0.000000
     5  S    2.589110   2.626427   1.786939   1.731335   0.000000
     6  H    2.216584   3.409275   3.618199   1.079425   2.495578
     7  C    3.796186   2.626994   1.447987   3.955105   2.789904
     8  S    5.102687   4.150390   2.827717   4.897065   3.370070
     9  C    6.309874   5.123798   3.951636   6.331429   4.877012
    10  C    6.023680   4.698521   3.779789   6.311125   5.084772
    11  C    4.692292   3.345392   2.590497   5.113288   4.115074
    12  H    4.617651   3.239045   2.935342   5.290510   4.604216
    13  S    7.469031   6.073424   5.359053   7.913510   6.779355
    14  C    8.255892   6.935042   5.997084   8.488495   7.150179
    15  C    7.611538   6.407343   5.288260   7.643054   6.179124
    16  H    9.232220   7.902643   7.009013   9.491429   8.166546
    17  H    8.116144   7.001671   5.838433   8.033295   6.526726
    18  H    2.206789   1.192944   2.400980   3.441240   3.810326
    19  O    1.613411   2.669086   3.897767   2.644474   4.136209
    20  H    2.520248   3.124210   4.509236   3.748157   5.093140
                    6          7          8          9         10
     6  H    0.000000
     7  C    4.988489   0.000000
     8  S    5.790954   1.783244   0.000000
     9  C    7.296360   2.536247   1.730394   0.000000
    10  C    7.346902   2.377623   2.618450   1.426325   0.000000
    11  C    6.173777   1.433541   2.644837   2.380757   1.425783
    12  H    6.355663   2.220020   3.682919   3.395042   2.212381
    13  S    8.970865   4.014433   4.151160   2.622954   1.734362
    14  C    9.496345   4.573051   3.978269   2.346783   2.499011
    15  C    8.592068   3.891885   2.850311   1.423960   2.377258
    16  H   10.497292   5.603300   4.939087   3.374292   3.551175
    17  H    8.921859   4.536665   3.167939   2.223844   3.392842
    18  H    4.393509   3.212381   4.821768   5.511667   4.856248
    19  O    2.941699   5.253478   6.596263   7.745893   7.358955
    20  H    4.123962   5.722105   7.172105   8.146689   7.608330
                   11         12         13         14         15
    11  C    0.000000
    12  H    1.079657   0.000000
    13  S    2.856397   3.168878   0.000000
    14  C    3.856525   4.507361   1.757858   0.000000
    15  C    3.609117   4.511642   2.644658   1.416980   0.000000
    16  H    4.879100   5.458379   2.503864   1.080020   2.218387
    17  H    4.505832   5.453358   3.669110   2.199775   1.085127
    18  H    3.501818   3.082467   5.964480   7.004253   6.697745
    19  O    5.993580   5.729706   8.660229   9.541989   8.997005
    20  H    6.239226   5.806526   8.730300   9.731478   9.341188
                   16         17         18         19         20
    16  H    0.000000
    17  H    2.618814   0.000000
    18  H    7.905764   7.362629   0.000000
    19  O   10.471364   9.502223   2.806721   0.000000
    20  H   10.610427   9.900316   2.774923   1.184414   0.000000
 Stoichiometry    C10H6OS3
 Framework group  C1[X(C10H6OS3)]
 Deg. of freedom    54
 Full point group                 C1      NOp   1
 Largest Abelian subgroup         C1      NOp   1
 Largest concise Abelian subgroup C1      NOp   1
                         Standard orientation:                         
 ---------------------------------------------------------------------
 Center     Atomic      Atomic             Coordinates (Angstroms)
 Number     Number       Type             X           Y           Z
 ---------------------------------------------------------------------
      1          6           0        3.775364    0.734453    0.120840
      2          6           0        2.401966    1.124019    0.150304
      3          6           0        1.516915    0.042089   -0.135705
      4          6           0        3.984533   -0.622254   -0.184754
      5         16           0        2.476691   -1.434711   -0.437432
      6          1           0        4.944023   -1.112961   -0.245962
      7          6           0        0.072432   -0.040662   -0.193038
      8         16           0       -0.805532   -1.504206    0.323853
      9          6           0       -2.342830   -0.800162   -0.043980
     10          6           0       -2.210078    0.535341   -0.526902
     11          6           0       -0.855474    0.974656   -0.596968
     12          1           0       -0.571340    1.997909   -0.791599
     13         16           0       -3.648411    1.465107   -0.253509
     14          6           0       -4.446788    0.089150    0.494420
     15          6           0       -3.610617   -1.053316    0.552922
     16          1           0       -5.398708    0.182680    0.995961
     17          1           0       -3.825336   -1.901322    1.195014
     18          1           0        2.216062    2.249233    0.500232
     19          8           0        4.959624    1.682229    0.670699
     20          1           0        4.881812    2.807716    1.031336
 ---------------------------------------------------------------------
 Rotational constants (GHZ):           1.3479342           0.2341394           0.2058070
 Standard basis: 6-311+G(d,p) (5D, 7F)
 There are   382 symmetry adapted cartesian basis functions of A   symmetry.
 There are   368 symmetry adapted basis functions of A   symmetry.
   368 basis functions,   594 primitive gaussians,   382 cartesian basis functions
    61 alpha electrons       61 beta electrons
       nuclear repulsion energy      1088.8114552483 Hartrees.
 NAtoms=   20 NActive=   20 NUniq=   20 SFac= 1.00D+00 NAtFMM=   60 NAOKFM=F Big=F
 Integral buffers will be    131072 words long.
 Raffenetti 2 integral format.
 Two-electron integral symmetry is turned on.
 One-electron integrals computed using PRISM.
 NBasis=   368 RedAO= T EigKep=  2.99D-06  NBF=   368
 NBsUse=   367 1.00D-06 EigRej=  4.73D-07 NBFU=   367
 Initial guess from the checkpoint file:  "/tmp/pbs.4730634[30].pbs/Gau-1525589.chk"
 B after Tr=    -0.000000   -0.000000    0.000000
         Rot=    0.999991   -0.003391    0.001064   -0.002100 Ang=  -0.47 deg.
 ExpMin= 4.05D-02 ExpMax= 9.34D+04 ExpMxC= 3.17D+03 IAcc=3 IRadAn=         5 AccDes= 0.00D+00
 Harris functional with IExCor=  402 and IRadAn=       5 diagonalized for initial guess.
 HarFok:  IExCor=  402 AccDes= 0.00D+00 IRadAn=         5 IDoV= 1 UseB2=F ITyADJ=14
 ICtDFT=  3500011 ScaDFX=  1.000000  1.000000  1.000000  1.000000
 FoFCou: FMM=F IPFlag=           0 FMFlag=      100000 FMFlg1=           0
         NFxFlg=           0 DoJE=T BraDBF=F KetDBF=T FulRan=T
         wScrn=  0.000000 ICntrl=       500 IOpCl=  0 I1Cent=   200000004 NGrid=           0
         NMat0=    1 NMatS0=      1 NMatT0=    0 NMatD0=    1 NMtDS0=    0 NMtDT0=    0
 Petite list used in FoFCou.
 Requested convergence on RMS density matrix=1.00D-08 within 128 cycles.
 Requested convergence on MAX density matrix=1.00D-06.
 Requested convergence on             energy=1.00D-06.
 No special actions if energy rises.
 SCF Done:  E(RB3LYP) =  -1654.52681563     A.U. after   14 cycles
            NFock= 14  Conv=0.42D-08     -V/T= 2.0029
 Calling FoFJK, ICntrl=      2127 FMM=F ISym2X=0 I1Cent= 0 IOpClX= 0 NMat=1 NMatS=1 NMatT=0.
 ***** Axes restored to original set *****
 -------------------------------------------------------------------
 Center     Atomic                   Forces (Hartrees/Bohr)
 Number     Number              X              Y              Z
 -------------------------------------------------------------------
      1        6          -0.032359872    0.025076563   -0.019012992
      2        6           0.002849766    0.025656098   -0.012889142
      3        6          -0.027090824    0.016548698    0.002081955
      4        6          -0.010813132    0.041528206   -0.006351737
      5       16           0.000406736    0.016492699    0.000603999
      6        1           0.002359208   -0.003247431   -0.001483381
      7        6           0.032449423    0.031111877    0.002701764
      8       16          -0.007342807    0.001282515    0.011349630
      9        6           0.006660643    0.026045398   -0.006151000
     10        6          -0.023034038   -0.016201952   -0.012430966
     11        6          -0.021252737   -0.030507751   -0.007631224
     12        1          -0.002073165   -0.001106805    0.006089387
     13       16           0.011655182   -0.007506439   -0.001825632
     14        6          -0.028736717   -0.031788964    0.003883218
     15        6           0.016555358    0.034805627   -0.006764892
     16        1           0.003780922    0.002246667    0.005045497
     17        1           0.005488834   -0.001499086    0.006128115
     18        1           0.010922721   -0.055137975    0.014833563
     19        8           0.031620201    0.030020192   -0.008294941
     20        1           0.027954299   -0.103818138    0.030118780
 -------------------------------------------------------------------
 Cartesian Forces:  Max     0.103818138 RMS     0.023440673

 GradGradGradGradGradGradGradGradGradGradGradGradGradGradGradGradGradGrad
 Berny optimization.
 Using GEDIIS/GDIIS optimizer.
 FormGI is forming the generalized inverse of G from B-inverse, IUseBI=4.
 Internal  Forces:  Max     0.108691235 RMS     0.018824456
 Search for a local minimum.
 Step number   2 out of a maximum of  116
 All quantities printed in internal units (Hartrees-Bohrs-Radians)
 Mixed Optimization -- RFO/linear search
 Update second derivatives using D2CorX and points    1    2
 DE= -6.49D-02 DEPred=-5.99D-02 R= 1.08D+00
 TightC=F SS=  1.41D+00  RLast= 3.08D-01 DXNew= 5.0454D-01 9.2424D-01
 Trust test= 1.08D+00 RLast= 3.08D-01 DXMaxT set to 5.05D-01
 ITU=  1  0
 Use linear search instead of GDIIS.
 Linear search step of   0.600 exceeds DXMaxT=   0.505 but not scaled.
 Quartic linear search produced a step of  2.00000.
 Iteration  1 RMS(Cart)=  0.10468904 RMS(Int)=  0.01865627
 Iteration  2 RMS(Cart)=  0.02152854 RMS(Int)=  0.00042868
 Iteration  3 RMS(Cart)=  0.00009031 RMS(Int)=  0.00042606
 Iteration  4 RMS(Cart)=  0.00000002 RMS(Int)=  0.00042606
 Iteration  1 RMS(Cart)=  0.00001838 RMS(Int)=  0.00000728
 Iteration  2 RMS(Cart)=  0.00001001 RMS(Int)=  0.00000813
 Iteration  3 RMS(Cart)=  0.00000545 RMS(Int)=  0.00000918
 Iteration  4 RMS(Cart)=  0.00000297 RMS(Int)=  0.00000988
 Iteration  5 RMS(Cart)=  0.00000162 RMS(Int)=  0.00001028
 Iteration  6 RMS(Cart)=  0.00000088 RMS(Int)=  0.00001051
 Variable       Old X    -DE/DX   Delta X   Delta X   Delta X     New X
                                 (Linear)    (Quad)   (Total)
    R1        2.69831  -0.01192  -0.04173   0.00000  -0.04124   2.65707
    R2        2.65760  -0.04218  -0.11263   0.00000  -0.11237   2.54523
    R3        3.04890  -0.09354  -0.29226   0.00000  -0.29226   2.75664
    R4        2.69622  -0.04445  -0.12570   0.00000  -0.12556   2.57066
    R5        2.25434  -0.05618  -0.19260   0.00000  -0.19260   2.06173
    R6        3.37682  -0.01258  -0.03791   0.00000  -0.03830   3.33852
    R7        2.73630  -0.00611  -0.02647   0.00000  -0.02647   2.70982
    R8        3.27175  -0.00696  -0.02992   0.00000  -0.03023   3.24152
    R9        2.03982  -0.00091  -0.00182   0.00000  -0.00182   2.03800
   R10        3.36984  -0.00821  -0.02604   0.00000  -0.02637   3.34348
   R11        2.70900  -0.04329  -0.11701   0.00000  -0.11714   2.59186
   R12        3.26997   0.00232   0.00217   0.00000   0.00217   3.27214
   R13        2.69536  -0.02151  -0.05691   0.00000  -0.05625   2.63911
   R14        2.69089  -0.00078  -0.00711   0.00000  -0.00680   2.68410
   R15        2.69434  -0.00672  -0.02464   0.00000  -0.02442   2.66992
   R16        3.27747   0.00280   0.00438   0.00000   0.00433   3.28180
   R17        2.04026   0.00103   0.00265   0.00000   0.00265   2.04291
   R18        3.32187  -0.00806  -0.02620   0.00000  -0.02660   3.29527
   R19        2.67770  -0.04016  -0.10593   0.00000  -0.10604   2.57166
   R20        2.04094  -0.00056  -0.00185   0.00000  -0.00185   2.03909
   R21        2.05059  -0.00268  -0.00856   0.00000  -0.00856   2.04203
   R22        2.23822  -0.10869  -0.32243   0.00000  -0.32243   1.91579
    A1        1.99406   0.01153   0.04772   0.00000   0.04841   2.04248
    A2        2.13969   0.00606   0.01419   0.00000   0.01392   2.15361
    A3        2.13127  -0.01705  -0.05903   0.00000  -0.05959   2.07168
    A4        1.96668  -0.00132  -0.01038   0.00000  -0.00976   1.95692
    A5        1.99685   0.01728   0.06702   0.00000   0.06671   2.06356
    A6        2.31500  -0.01584  -0.05577   0.00000  -0.05611   2.25889
    A7        1.90431   0.00121  -0.00017   0.00000  -0.00034   1.90397
    A8        2.30512  -0.00954  -0.02758   0.00000  -0.02749   2.27763
    A9        2.07361   0.00835   0.02778   0.00000   0.02786   2.10147
   A10        1.93359  -0.00821  -0.03960   0.00000  -0.03962   1.89397
   A11        2.19332   0.00807   0.03503   0.00000   0.03500   2.22831
   A12        2.15621   0.00016   0.00472   0.00000   0.00469   2.16090
   A13        1.62613  -0.00321   0.00248   0.00000   0.00127   1.62740
   A14        2.12536  -0.00259  -0.00731   0.00000  -0.00734   2.11802
   A15        2.23495  -0.00317  -0.01038   0.00000  -0.01041   2.22455
   A16        1.92226   0.00581   0.01787   0.00000   0.01791   1.94017
   A17        1.61267  -0.00502  -0.01296   0.00000  -0.01286   1.59980
   A18        1.95007  -0.00720  -0.02275   0.00000  -0.02332   1.92675
   A19        2.25175   0.00640   0.02673   0.00000   0.02566   2.27741
   A20        1.97279   0.00405   0.01508   0.00000   0.01542   1.98820
   A21        1.97531   0.00479   0.01784   0.00000   0.01788   1.99318
   A22        1.95130  -0.00883  -0.02952   0.00000  -0.03002   1.92129
   A23        2.25297   0.00734   0.03078   0.00000   0.02985   2.28282
   A24        1.96372   0.00164  -0.00000   0.00000   0.00040   1.96412
   A25        2.15520  -0.00340  -0.01111   0.00000  -0.01155   2.14366
   A26        2.15426   0.00232   0.01483   0.00000   0.01440   2.16866
   A27        1.59490  -0.00068   0.00334   0.00000   0.00333   1.59824
   A28        1.96130   0.00207   0.00236   0.00000   0.00217   1.96348
   A29        2.12952  -0.00472  -0.01244   0.00000  -0.01280   2.11672
   A30        2.17824   0.00355   0.01583   0.00000   0.01557   2.19380
   A31        1.94415   0.00339   0.00871   0.00000   0.00906   1.95321
   A32        2.16898  -0.00001   0.00692   0.00000   0.00619   2.17517
   A33        2.13856  -0.00177  -0.00518   0.00000  -0.00597   2.13259
   A34        2.23161  -0.05711  -0.21585   0.00000  -0.21585   2.01576
    D1        0.00323  -0.00090  -0.00720   0.00000  -0.00738  -0.00415
    D2        3.05456  -0.00069  -0.00267   0.00000  -0.00211   3.05245
    D3       -2.93847  -0.00186  -0.01559   0.00000  -0.01670  -2.95517
    D4        0.11285  -0.00165  -0.01106   0.00000  -0.01143   0.10142
    D5       -0.00168   0.00140   0.01005   0.00000   0.01007   0.00838
    D6       -3.13039  -0.00036  -0.00038   0.00000  -0.00020  -3.13059
    D7        2.94110   0.00530   0.02825   0.00000   0.02760   2.96869
    D8       -0.18760   0.00354   0.01782   0.00000   0.01733  -0.17028
    D9       -0.13202   0.00102   0.00242   0.00000   0.00210  -0.12992
   D10       -3.05821  -0.00350  -0.02006   0.00000  -0.01974  -3.07795
   D11       -0.00319   0.00002   0.00139   0.00000   0.00104  -0.00215
   D12        3.11952   0.00132   0.00379   0.00000   0.00348   3.12300
   D13       -3.03296  -0.00276  -0.01386   0.00000  -0.01381  -3.04676
   D14        0.08974  -0.00146  -0.01146   0.00000  -0.01136   0.07838
   D15        0.00192   0.00067   0.00373   0.00000   0.00389   0.00582
   D16       -3.12367  -0.00022   0.00238   0.00000   0.00239  -3.12128
   D17       -2.53043  -0.00194  -0.00001   0.00000   0.00000  -2.53043
   D18        0.56993  -0.00004   0.00627   0.00000   0.00628   0.57621
   D19        0.59079  -0.00063   0.00226   0.00000   0.00235   0.59314
   D20       -2.59204   0.00127   0.00853   0.00000   0.00864  -2.58340
   D21       -0.00017  -0.00116  -0.00786   0.00000  -0.00771  -0.00788
   D22        3.12885   0.00063   0.00269   0.00000   0.00236   3.13121
   D23        3.14029   0.00094   0.00459   0.00000   0.00457  -3.13833
   D24        0.03327  -0.00050  -0.00013   0.00000  -0.00026   0.03301
   D25        3.14127  -0.00128  -0.00621   0.00000  -0.00605   3.13522
   D26       -0.14740   0.00302   0.02129   0.00000   0.02125  -0.12616
   D27       -0.03765   0.00030  -0.00096   0.00000  -0.00072  -0.03837
   D28        2.95685   0.00460   0.02654   0.00000   0.02658   2.98343
   D29       -0.02064   0.00082   0.00203   0.00000   0.00201  -0.01863
   D30       -2.63663  -0.00693  -0.04156   0.00000  -0.04153  -2.67815
   D31        0.00255  -0.00051  -0.00220   0.00000  -0.00205   0.00050
   D32       -2.71131  -0.00886  -0.04671   0.00000  -0.04531  -2.75662
   D33        2.70672   0.00736   0.04025   0.00000   0.03938   2.74610
   D34       -0.00714  -0.00099  -0.00426   0.00000  -0.00388  -0.01102
   D35        2.63181   0.00589   0.03851   0.00000   0.03939   2.67121
   D36       -0.24766  -0.00041  -0.00150   0.00000  -0.00108  -0.24875
   D37        0.02129   0.00074   0.00392   0.00000   0.00370   0.02499
   D38       -2.85819  -0.00557  -0.03609   0.00000  -0.03677  -2.89496
   D39        0.02326   0.00015   0.00204   0.00000   0.00183   0.02510
   D40       -2.97133  -0.00359  -0.02268   0.00000  -0.02336  -2.99469
   D41        2.64566   0.00519   0.03594   0.00000   0.03703   2.68269
   D42       -0.34894   0.00145   0.01122   0.00000   0.01184  -0.33710
   D43       -0.00663   0.00095   0.00312   0.00000   0.00290  -0.00373
   D44       -2.63467  -0.00718  -0.04190   0.00000  -0.04175  -2.67643
   D45        0.01892  -0.00046  -0.00073   0.00000  -0.00073   0.01819
   D46        2.98872   0.00540   0.03423   0.00000   0.03373   3.02245
   D47       -0.02614   0.00000  -0.00143   0.00000  -0.00123  -0.02737
   D48        2.85867   0.00647   0.04000   0.00000   0.04016   2.89883
   D49       -2.99026  -0.00508  -0.03389   0.00000  -0.03412  -3.02439
   D50       -0.10546   0.00139   0.00754   0.00000   0.00727  -0.09820
         Item               Value     Threshold  Converged?
 Maximum Force            0.108691     0.000450     NO 
 RMS     Force            0.018912     0.000300     NO 
 Maximum Displacement     0.742177     0.001800     NO 
 RMS     Displacement     0.117605     0.001200     NO 
 Predicted change in Energy=-9.558043D-02
 GradGradGradGradGradGradGradGradGradGradGradGradGradGradGradGradGradGrad

                          Input orientation:                          
 ---------------------------------------------------------------------
 Center     Atomic      Atomic             Coordinates (Angstroms)
 Number     Number       Type             X           Y           Z
 ---------------------------------------------------------------------
      1          6           0       -4.169467   -1.347688   -0.239387
      2          6           0       -2.880136   -0.972205   -0.656090
      3          6           0       -2.013450   -2.020679   -0.647843
      4          6           0       -4.353981   -2.640650    0.089680
      5         16           0       -2.864635   -3.469628   -0.102729
      6          1           0       -5.265586   -3.113230    0.419412
      7          6           0       -0.628286   -2.086817   -1.012860
      8         16           0        0.052898   -3.526337   -1.783680
      9          6           0        1.625235   -2.804792   -1.856950
     10          6           0        1.592274   -1.511618   -1.330653
     11          6           0        0.318970   -1.104816   -0.873062
     12          1           0        0.078281   -0.099044   -0.558131
     13         16           0        2.927737   -0.584853   -1.941889
     14          6           0        3.502014   -1.939755   -2.877424
     15          6           0        2.705031   -3.035491   -2.750398
     16          1           0        4.321257   -1.834181   -3.571702
     17          1           0        2.779623   -3.882040   -3.417842
     18          1           0       -2.728500    0.049329   -1.007949
     19          8           0       -5.337908   -0.483753   -0.367151
     20          1           0       -5.148371    0.464247   -0.672351
 ---------------------------------------------------------------------
                    Distance matrix (angstroms):
                    1          2          3          4          5
     1  C    0.000000
     2  C    1.406060   0.000000
     3  C    2.295248   1.360334   0.000000
     4  C    1.346878   2.347786   2.531085   0.000000
     5  S    2.494773   2.558040   1.766669   1.715336   0.000000
     6  H    2.180053   3.380986   3.592922   1.078461   2.482784
     7  C    3.699261   2.537808   1.433977   3.924682   2.782402
     8  S    4.995970   4.049411   2.797664   4.869754   3.367612
     9  C    6.190172   5.009870   3.913669   6.290257   4.866028
    10  C    5.866463   4.555047   3.704945   6.216913   5.020521
    11  C    4.539449   3.209196   2.515892   5.012198   4.039937
    12  H    4.438926   3.086135   2.841842   5.150181   4.497663
    13  S    7.338306   5.961099   5.305797   7.834347   6.727258
    14  C    8.133966   6.826589   5.949616   8.426840   7.111517
    15  C    7.510831   6.311685   5.264470   7.619160   6.182217
    16  H    9.134188   7.816895   6.979416   9.450707   8.145275
    17  H    8.050800   6.937383   5.840472   8.045625   6.558789
    18  H    2.149123   1.091023   2.219438   3.329109   3.636071
    19  O    1.458754   2.522443   3.673275   2.414334   3.886187
    20  H    2.104476   2.684875   4.000398   3.294257   4.584244
                    6          7          8          9         10
     6  H    0.000000
     7  C    4.960794   0.000000
     8  S    5.771529   1.769292   0.000000
     9  C    7.263634   2.511242   1.731543   0.000000
    10  C    7.256592   2.315758   2.575656   1.396558   0.000000
    11  C    6.073836   1.371556   2.600728   2.358873   1.412862
    12  H    6.212714   2.158067   3.639911   3.376547   2.210052
    13  S    8.893760   3.970427   4.116073   2.575239   1.736653
    14  C    9.440180   4.534050   3.950940   2.304769   2.494576
    15  C    8.578140   3.876858   2.865185   1.420363   2.361375
    16  H   10.462912   5.577587   4.927403   3.339310   3.545941
    17  H    8.946563   4.540993   3.198757   2.220239   3.374175
    18  H    4.298365   2.995670   4.596012   5.274639   4.605408
    19  O    2.745552   5.016701   6.350170   7.489465   7.071936
    20  H    3.742195   5.201445   6.649286   7.613910   7.055048
                   11         12         13         14         15
    11  C    0.000000
    12  H    1.081059   0.000000
    13  S    2.866778   3.204715   0.000000
    14  C    3.853097   4.526509   1.743783   0.000000
    15  C    3.597941   4.508721   2.590156   1.360866   0.000000
    16  H    4.881898   5.485905   2.481735   1.079039   2.174827
    17  H    4.499299   5.457678   3.615497   2.141582   1.080598
    18  H    3.261491   2.846466   5.767794   6.802257   6.486564
    19  O    5.713313   5.433192   8.414922   9.304066   8.768130
    20  H    5.691578   5.258158   8.242321   9.245038   8.845472
                   16         17         18         19         20
    16  H    0.000000
    17  H    2.567885   0.000000
    18  H    7.734308   7.183500   0.000000
    19  O   10.266074   9.313935   2.739308   0.000000
    20  H   10.166752   9.448864   2.478015   1.013793   0.000000
 Stoichiometry    C10H6OS3
 Framework group  C1[X(C10H6OS3)]
 Deg. of freedom    54
 Full point group                 C1      NOp   1
 Largest Abelian subgroup         C1      NOp   1
 Largest concise Abelian subgroup C1      NOp   1
                         Standard orientation:                         
 ---------------------------------------------------------------------
 Center     Atomic      Atomic             Coordinates (Angstroms)
 Number     Number       Type             X           Y           Z
 ---------------------------------------------------------------------
      1          6           0        3.688553    0.748552    0.144544
      2          6           0        2.328944    1.104571    0.185992
      3          6           0        1.515502    0.056292   -0.113893
      4          6           0        3.977331   -0.529197   -0.168576
      5         16           0        2.506950   -1.367390   -0.447480
      6          1           0        4.951509   -0.986356   -0.239729
      7          6           0        0.084930   -0.026865   -0.167170
      8         16           0       -0.770325   -1.498374    0.316144
      9          6           0       -2.306484   -0.782511   -0.038816
[...]
 ---------------------------------------------------------------------
 Center     Atomic      Atomic             Coordinates (Angstroms)
 Number     Number       Type             X           Y           Z
 ---------------------------------------------------------------------
      1          6           0        3.762341    0.749015    0.166034
      2          6           0        2.379007    1.049249    0.329087
      3          6           0        1.556578    0.003051   -0.018507
      4          6           0        3.991514   -0.519023   -0.290767
      5         16           0        2.502712   -1.366470   -0.554543
      6          1           0        4.941386   -0.991700   -0.481025
      7          6           0        0.106431   -0.024347   -0.001929
      8         16           0       -0.768321   -1.502958    0.424808
      9          6           0       -2.298774   -0.694644    0.226639
     10          6           0       -2.109832    0.636091   -0.125089
     11          6           0       -0.750343    1.018557   -0.263361
     12          1           0       -0.407742    1.996330   -0.571951
     13         16           0       -3.643398    1.441818   -0.325454
     14          6           0       -4.496367   -0.032843    0.071355
     15          6           0       -3.663864   -1.081296    0.339625
     16          1           0       -5.575569   -0.027011    0.081719
     17          1           0       -4.012409   -2.070187    0.602858
     18          1           0        2.005628    1.987047    0.721757
     19          8           0        4.787613    1.609581    0.446803
     20          1           0        4.431758    2.447770    0.756723
 ---------------------------------------------------------------------
 Rotational constants (GHZ):           1.4471540           0.2381729           0.2095925

 **********************************************************************

            Population analysis using the SCF Density.

 **********************************************************************

 Orbital symmetries:
       Occupied  (A) (A) (A) (A) (A) (A) (A) (A) (A) (A) (A) (A)
                 (A) (A) (A) (A) (A) (A) (A) (A) (A) (A) (A) (A)
                 (A) (A) (A) (A) (A) (A) (A) (A) (A) (A) (A) (A)
                 (A) (A) (A) (A) (A) (A) (A) (A) (A) (A) (A) (A)
                 (A) (A) (A) (A) (A) (A) (A) (A) (A) (A) (A) (A)
                 (A)
       Virtual   (A) (A) (A) (A) (A) (A) (A) (A) (A) (A) (A) (A)
                 (A) (A) (A) (A) (A) (A) (A) (A) (A) (A) (A) (A)
                 (A) (A) (A) (A) (A) (A) (A) (A) (A) (A) (A) (A)
                 (A) (A) (A) (A) (A) (A) (A) (A) (A) (A) (A) (A)
                 (A) (A) (A) (A) (A) (A) (A) (A) (A) (A) (A) (A)
                 (A) (A) (A) (A) (A) (A) (A) (A) (A) (A) (A) (A)
                 (A) (A) (A) (A) (A) (A) (A) (A) (A) (A) (A) (A)
                 (A) (A) (A) (A) (A) (A) (A) (A) (A) (A) (A) (A)
                 (A) (A) (A) (A) (A) (A) (A) (A) (A) (A) (A) (A)
                 (A) (A) (A) (A) (A) (A) (A) (A) (A) (A) (A) (A)
                 (A) (A) (A) (A) (A) (A) (A) (A) (A) (A) (A) (A)
                 (A) (A) (A) (A) (A) (A) (A) (A) (A) (A) (A) (A)
                 (A) (A) (A) (A) (A) (A) (A) (A) (A) (A) (A) (A)
                 (A) (A) (A) (A) (A) (A) (A) (A) (A) (A) (A) (A)
                 (A) (A) (A) (A) (A) (A) (A) (A) (A) (A) (A) (A)
                 (A) (A) (A) (A) (A) (A) (A) (A) (A) (A) (A) (A)
                 (A) (A) (A) (A) (A) (A) (A) (A) (A) (A) (A) (A)
                 (A) (A) (A) (A) (A) (A) (A) (A) (A) (A) (A) (A)
                 (A) (A) (A) (A) (A) (A) (A) (A) (A) (A) (A) (A)
                 (A) (A) (A) (A) (A) (A) (A) (A) (A) (A) (A) (A)
                 (A) (A) (A) (A) (A) (A) (A) (A) (A) (A) (A) (A)
                 (A) (A) (A) (A) (A) (A) (A) (A) (A) (A) (A) (A)
                 (A) (A) (A) (A) (A) (A) (A) (A) (A) (A) (A) (A)
                 (A) (A) (A) (A) (A) (A) (A) (A) (A) (A) (A) (A)
                 (A) (A) (A) (A) (A) (A) (A) (A) (A) (A) (A) (A)
                 (A) (A) (A) (A) (A)
 The electronic state is 1-A.
 Alpha  occ. eigenvalues --  -88.88778 -88.88759 -88.88567 -19.16586 -10.24664
 Alpha  occ. eigenvalues --  -10.22878 -10.22729 -10.21566 -10.21505 -10.21364
 Alpha  occ. eigenvalues --  -10.19753 -10.19738 -10.19669 -10.19119  -7.97352
 Alpha  occ. eigenvalues --   -7.97334  -7.97161  -5.93665  -5.93655  -5.93466
 Alpha  occ. eigenvalues --   -5.93300  -5.93293  -5.93090  -5.92900  -5.92859
 Alpha  occ. eigenvalues --   -5.92730  -1.07583  -0.92104  -0.89477  -0.85304
 Alpha  occ. eigenvalues --   -0.77731  -0.76327  -0.74554  -0.71778  -0.70624
 Alpha  occ. eigenvalues --   -0.63261  -0.59002  -0.57839  -0.55210  -0.54804
 Alpha  occ. eigenvalues --   -0.53858  -0.50237  -0.48569  -0.44137  -0.43806
 Alpha  occ. eigenvalues --   -0.43242  -0.42016  -0.41565  -0.40424  -0.39656
 Alpha  occ. eigenvalues --   -0.38100  -0.37645  -0.36789  -0.35740  -0.34505
 Alpha  occ. eigenvalues --   -0.33957  -0.29553  -0.26764  -0.24578  -0.23946
 Alpha  occ. eigenvalues --   -0.21026
 Alpha virt. eigenvalues --   -0.06433  -0.02346  -0.01653  -0.00840  -0.00395
 Alpha virt. eigenvalues --    0.00422   0.01071   0.01605   0.01772   0.02601
 Alpha virt. eigenvalues --    0.02925   0.03279   0.04054   0.04209   0.04510
 Alpha virt. eigenvalues --    0.04710   0.05382   0.05729   0.06536   0.07104
 Alpha virt. eigenvalues --    0.07710   0.08011   0.08258   0.08784   0.09205
 Alpha virt. eigenvalues --    0.09636   0.09718   0.10486   0.11006   0.11756
 Alpha virt. eigenvalues --    0.11948   0.12458   0.12730   0.13034   0.13611
 Alpha virt. eigenvalues --    0.13879   0.14094   0.14911   0.15196   0.15701
 Alpha virt. eigenvalues --    0.16405   0.16558   0.16914   0.17458   0.17807
 Alpha virt. eigenvalues --    0.18345   0.18438   0.18759   0.19159   0.19483
 Alpha virt. eigenvalues --    0.19740   0.20262   0.20973   0.21198   0.21465
 Alpha virt. eigenvalues --    0.22166   0.22450   0.22919   0.23244   0.23395
 Alpha virt. eigenvalues --    0.24680   0.25159   0.25257   0.26045   0.26318
 Alpha virt. eigenvalues --    0.26726   0.26962   0.27792   0.28858   0.30210
 Alpha virt. eigenvalues --    0.30590   0.31510   0.31943   0.32733   0.33099
 Alpha virt. eigenvalues --    0.33618   0.34364   0.34659   0.34951   0.36639
 Alpha virt. eigenvalues --    0.37202   0.37780   0.39089   0.39552   0.41315
 Alpha virt. eigenvalues --    0.42684   0.43890   0.44072   0.45196   0.48105
 Alpha virt. eigenvalues --    0.50267   0.50375   0.52593   0.53531   0.54444
 Alpha virt. eigenvalues --    0.55365   0.55601   0.55995   0.57359   0.57648
 Alpha virt. eigenvalues --    0.58401   0.58483   0.60325   0.60515   0.62024
 Alpha virt. eigenvalues --    0.62582   0.62933   0.63628   0.66259   0.66702
 Alpha virt. eigenvalues --    0.69232   0.69943   0.70366   0.71287   0.71907
 Alpha virt. eigenvalues --    0.72703   0.73772   0.74189   0.74984   0.75994
 Alpha virt. eigenvalues --    0.76986   0.77904   0.78541   0.78857   0.79761
 Alpha virt. eigenvalues --    0.81256   0.81512   0.82290   0.82953   0.84012
 Alpha virt. eigenvalues --    0.84647   0.85135   0.86417   0.87109   0.87883
 Alpha virt. eigenvalues --    0.88283   0.88736   0.89306   0.90768   0.93133
 Alpha virt. eigenvalues --    0.94002   0.95734   0.96146   0.96922   0.98985
 Alpha virt. eigenvalues --    1.00888   1.02812   1.03655   1.03839   1.04639
 Alpha virt. eigenvalues --    1.05443   1.06503   1.08013   1.08738   1.11411
 Alpha virt. eigenvalues --    1.12283   1.13571   1.14741   1.17449   1.18143
 Alpha virt. eigenvalues --    1.20382   1.22136   1.26450   1.26980   1.33753
 Alpha virt. eigenvalues --    1.34732   1.36227   1.38747   1.39221   1.41914
 Alpha virt. eigenvalues --    1.43522   1.51539   1.52391   1.54823   1.55856
 Alpha virt. eigenvalues --    1.57185   1.58197   1.58981   1.60274   1.61051
 Alpha virt. eigenvalues --    1.61608   1.63468   1.65356   1.67498   1.68392
 Alpha virt. eigenvalues --    1.70786   1.71779   1.72677   1.74525   1.75347
 Alpha virt. eigenvalues --    1.75679   1.77987   1.80971   1.81555   1.84098
 Alpha virt. eigenvalues --    1.84691   1.86033   1.88939   1.89922   1.92779
 Alpha virt. eigenvalues --    1.93511   1.95648   1.96408   1.97301   1.98950
 Alpha virt. eigenvalues --    2.00665   2.01202   2.02458   2.03519   2.05707
 Alpha virt. eigenvalues --    2.06610   2.07148   2.08289   2.09308   2.11366
 Alpha virt. eigenvalues --    2.11502   2.15302   2.16448   2.17612   2.20491
 Alpha virt. eigenvalues --    2.23649   2.27698   2.30406   2.35027   2.40030
 Alpha virt. eigenvalues --    2.41236   2.41825   2.49515   2.52288   2.57787
 Alpha virt. eigenvalues --    2.61766   2.65039   2.66989   2.67627   2.69592
 Alpha virt. eigenvalues --    2.70089   2.71245   2.72764   2.73491   2.75282
 Alpha virt. eigenvalues --    2.76744   2.79063   2.81618   2.84526   2.87504
 Alpha virt. eigenvalues --    2.91449   2.93968   2.94612   2.97593   3.00870
 Alpha virt. eigenvalues --    3.05078   3.07951   3.10735   3.12541   3.16747
 Alpha virt. eigenvalues --    3.16993   3.19155   3.24527   3.28856   3.29337
 Alpha virt. eigenvalues --    3.34063   3.35066   3.43558   3.45518   3.47500
 Alpha virt. eigenvalues --    3.56113   3.61746   3.64896   3.82443   3.87506
 Alpha virt. eigenvalues --    3.96164   4.08763   4.11430   4.20942   4.36039
 Alpha virt. eigenvalues --    4.56643   4.99746   5.41981   5.73855   7.96788
 Alpha virt. eigenvalues --    7.98870   7.99979  17.27689  17.28856  17.29876
 Alpha virt. eigenvalues --   17.44875  17.45898  17.50303  17.51245  17.54203
 Alpha virt. eigenvalues --   17.56463  23.47074  23.63346  23.75752  23.80991
 Alpha virt. eigenvalues --   23.85901  24.01498  24.08543  24.10484  24.11658
 Alpha virt. eigenvalues --   24.14667  49.93071 189.13556 189.15635 189.16921
          Condensed to atoms (all electrons):
               1          2          3          4          5          6
     1  C    7.702432  -1.746386   0.068224  -0.712097   0.899676   0.053625
     2  C   -1.746386  12.975105  -2.329312   1.088825  -2.875975  -0.035017
     3  C    0.068224  -2.329312   9.244471  -0.693487   0.424193   0.025309
     4  C   -0.712097   1.088825  -0.693487   6.707685  -0.713945   0.359259
     5  S    0.899676  -2.875975   0.424193  -0.713945  17.582060  -0.028507
     6  H    0.053625  -0.035017   0.025309   0.359259  -0.028507   0.476493
     7  C    0.163829  -0.873628  -0.558576  -0.163555   0.799601  -0.003150
     8  S   -0.055193   0.589285   0.396367   0.046254  -0.187987  -0.000427
     9  C    0.027062   0.074713  -0.604848   0.014908  -0.020494   0.000001
    10  C    0.073057  -0.336022   0.167182  -0.013208   0.098245  -0.000203
    11  C    0.019822  -1.190978  -0.740116  -0.072262   0.419116  -0.000619
    12  H    0.005829   0.031114   0.000841   0.000770  -0.003627   0.000000
    13  S   -0.000702  -0.033461  -0.027620   0.001218   0.005099  -0.000002
    14  C    0.001703  -0.004504  -0.028884  -0.000488  -0.001709  -0.000000
    15  C    0.008185   0.071343   0.303866   0.001553  -0.052883  -0.000001
    16  H   -0.000001  -0.000001  -0.000101  -0.000000  -0.000002   0.000000
    17  H   -0.000006   0.000010  -0.000815   0.000007   0.000085   0.000000
    18  H   -0.048164   0.296141   0.084605  -0.054047   0.023579  -0.000019
    19  O    0.213363  -0.018546   0.026466  -0.238437   0.023235  -0.006084
    20  H    0.012857  -0.068580  -0.009669   0.085352  -0.008683   0.000302
               7          8          9         10         11         12
     1  C    0.163829  -0.055193   0.027062   0.073057   0.019822   0.005829
     2  C   -0.873628   0.589285   0.074713  -0.336022  -1.190978   0.031114
     3  C   -0.558576   0.396367  -0.604848   0.167182  -0.740116   0.000841
     4  C   -0.163555   0.046254   0.014908  -0.013208  -0.072262   0.000770
     5  S    0.799601  -0.187987  -0.020494   0.098245   0.419116  -0.003627
     6  H   -0.003150  -0.000427   0.000001  -0.000203  -0.000619   0.000000
     7  C   10.218278  -0.141000  -0.800427  -1.799372  -0.075851  -0.013598
     8  S   -0.141000  17.958458  -0.631356  -0.358514  -1.318295   0.015491
     9  C   -0.800427  -0.631356  13.770953  -4.450474   0.563870  -0.073160
    10  C   -1.799372  -0.358514  -4.450474  11.812084   0.328421   0.002206
    11  C   -0.075851  -1.318295   0.563870   0.328421   8.928749   0.355150
    12  H   -0.013598   0.015491  -0.073160   0.002206   0.355150   0.525417
    13  S   -0.873868   0.135958   0.393571  -0.527423  -0.168526   0.014321
    14  C   -0.163608  -0.038529   0.380804  -0.642667   0.064583  -0.002503
    15  C    0.038580   0.072305  -3.045867   1.532439  -1.092257   0.010184
    16  H    0.005654  -0.001224   0.033683   0.021064   0.001682  -0.000005
    17  H   -0.009207   0.017759   0.010837  -0.066227   0.000433   0.000006
    18  H   -0.008301  -0.006048  -0.001933   0.006764   0.050851  -0.000006
    19  O    0.004050  -0.000901  -0.000780  -0.000298   0.004630  -0.000059
    20  H    0.000195   0.000054  -0.000008  -0.000368  -0.000325   0.000006
              13         14         15         16         17         18
     1  C   -0.000702   0.001703   0.008185  -0.000001  -0.000006  -0.048164
     2  C   -0.033461  -0.004504   0.071343  -0.000001   0.000010   0.296141
     3  C   -0.027620  -0.028884   0.303866  -0.000101  -0.000815   0.084605
     4  C    0.001218  -0.000488   0.001553  -0.000000   0.000007  -0.054047
     5  S    0.005099  -0.001709  -0.052883  -0.000002   0.000085   0.023579
     6  H   -0.000002  -0.000000  -0.000001   0.000000   0.000000  -0.000019
     7  C   -0.873868  -0.163608   0.038580   0.005654  -0.009207  -0.008301
     8  S    0.135958  -0.038529   0.072305  -0.001224   0.017759  -0.006048
     9  C    0.393571   0.380804  -3.045867   0.033683   0.010837  -0.001933
    10  C   -0.527423  -0.642667   1.532439   0.021064  -0.066227   0.006764
    11  C   -0.168526   0.064583  -1.092257   0.001682   0.000433   0.050851
    12  H    0.014321  -0.002503   0.010184  -0.000005   0.000006  -0.000006
    13  S   17.358818   0.395133  -0.243968  -0.042328   0.012929   0.000555
    14  C    0.395133   5.578589   0.189093   0.384809   0.022395   0.000025
    15  C   -0.243968   0.189093   8.170657  -0.043404   0.360716  -0.000579
    16  H   -0.042328   0.384809  -0.043404   0.476319  -0.004840   0.000000
    17  H    0.012929   0.022395   0.360716  -0.004840   0.519257   0.000000
    18  H    0.000555   0.000025  -0.000579   0.000000   0.000000   0.541440
    19  O    0.000005  -0.000003  -0.000104   0.000000   0.000000  -0.005452
    20  H   -0.000008  -0.000000   0.000000   0.000000  -0.000000   0.003126
              19         20
     1  C    0.213363   0.012857
     2  C   -0.018546  -0.068580
     3  C    0.026466  -0.009669
     4  C   -0.238437   0.085352
     5  S    0.023235  -0.008683
     6  H   -0.006084   0.000302
     7  C    0.004050   0.000195
     8  S   -0.000901   0.000054
     9  C   -0.000780  -0.000008
    10  C   -0.000298  -0.000368
    11  C    0.004630  -0.000325
    12  H   -0.000059   0.000006
    13  S    0.000005  -0.000008
    14  C   -0.000003  -0.000000
    15  C   -0.000104   0.000000
    16  H    0.000000   0.000000
    17  H    0.000000  -0.000000
    18  H   -0.005452   0.003126
    19  O    8.025492   0.245902
    20  H    0.245902   0.488007
 Mulliken charges:
               1
     1  C   -0.687118
     2  C    0.385872
     3  C    0.251905
     4  C    0.355698
     5  S   -0.381077
     6  H    0.159041
     7  C    0.253953
     8  S   -0.492458
     9  C    0.358946
    10  C    0.153315
    11  C   -0.078078
    12  H    0.131623
    13  S   -0.399701
    14  C   -0.134239
    15  C   -0.279859
    16  H    0.168696
    17  H    0.136663
    18  H    0.117463
    19  O   -0.272482
    20  H    0.251839
 Sum of Mulliken charges =  -0.00000
 Mulliken charges with hydrogens summed into heavy atoms:
               1
     1  C   -0.687118
     2  C    0.503335
     3  C    0.251905
     4  C    0.514739
     5  S   -0.381077
     7  C    0.253953
     8  S   -0.492458
     9  C    0.358946
    10  C    0.153315
    11  C    0.053545
    13  S   -0.399701
    14  C    0.034457
    15  C   -0.143197
    19  O   -0.020642
 Electronic spatial extent (au):  <R**2>=           4788.8442
 Charge=             -0.0000 electrons
 Dipole moment (field-independent basis, Debye):
    X=             -1.2305    Y=              1.2978    Z=              0.5085  Tot=              1.8594
 Quadrupole moment (field-independent basis, Debye-Ang):
   XX=            -98.1283   YY=            -92.9171   ZZ=           -107.1467
   XY=              5.4350   XZ=             -0.0097   YZ=              1.4914
 Traceless Quadrupole moment (field-independent basis, Debye-Ang):
   XX=              1.2691   YY=              6.4803   ZZ=             -7.7493
   XY=              5.4350   XZ=             -0.0097   YZ=              1.4914
 Octapole moment (field-independent basis, Debye-Ang**2):
  XXX=            -79.9097  YYY=             25.3347  ZZZ=              2.0757  XYY=             25.5630
  XXY=            -18.2153  XXZ=              3.5240  XZZ=             11.0586  YZZ=              3.9187
  YYZ=              7.7799  XYZ=             17.0691
 Hexadecapole moment (field-independent basis, Debye-Ang**3):
 XXXX=          -5298.0448 YYYY=           -845.0718 ZZZZ=           -215.7289 XXXY=            -31.0600
 XXXZ=            -36.8678 YYYX=            125.8203 YYYZ=             16.9222 ZZZX=             15.1034
 ZZZY=              6.6593 XXYY=           -949.1423 XXZZ=           -997.6632 YYZZ=           -186.5518
 XXYZ=             33.3506 YYXZ=             22.5477 ZZXY=             17.3129
 N-N= 1.105826633145D+03 E-N=-6.122830637659D+03  KE= 1.651071037913D+03
 Unable to Open any file for archive entry.
 1\1\GINC-CX3-12-21\FOpt\RB3LYP\6-311+G(d,p)\C10H6O1S3\NS5018\17-Oct-20
 21\0\\# opt=modredundant b3lyp/6-311+g(d,p)\\pg2T_TT_-145.pdb\\0,1\C,-
 4.2469041205,-1.3222496783,-0.192405605\C,-2.9736707971,-0.9892497503,
 -0.7385983332\C,-2.101609778,-2.0526725453,-0.7581816824\C,-4.34711980
 74,-2.6310444722,0.1898528641\S,-2.8624459849,-3.479681248,-0.09270011
 91\H,-5.2019430488,-3.1324497464,0.6138197004\C,-0.7255716265,-2.05885
 25159,-1.2169135469\S,-0.0457365575,-3.4781175819,-2.0275287014\C,1.48
 5546267,-2.6718738512,-2.2277127992\C,1.4338948575,-1.383417016,-1.710
 5309631\C,0.1869238605,-1.0342072619,-1.1302492466\H,-0.0299312562,-0.
 0950230761,-0.6408100699\S,2.9687677473,-0.5799155997,-1.9098231959\C,
 3.6370001406,-1.9983964471,-2.6850764733\C,2.7454605734,-3.0275863336,
 -2.7861199511\H,4.6620742101,-1.9770848179,-3.0221046297\H,2.981567476
 1,-3.9820824269,-3.2354214485\H,-2.72195959,-0.0133361744,-1.135211310
 9\O,-5.294931943,-0.4526993791,-0.0654924648\H,-5.0364106224,0.4159399
 222,-0.3877920233\\Version=ES64L-G16RevC.01\State=1-A\HF=-1654.6318612
 \RMSD=5.258e-09\RMSF=1.823e-05\Dipole=0.4087626,0.5338245,-0.2882288\Q
 uadrupole=0.1867501,4.8232989,-5.010049,-3.9085694,-2.3241308,1.152226
 9\PG=C01 [X(C10H6O1S3)]\\@
 The archive entry for this job was punched.


 BUT 'GLORY' DOESN'T MEAN 'A NICE KNOCK DOWN ARGUMENT', ALICE OBJECTED.
 WHEN I USE A WORD, HUMPTY DUMPTY SAID, IN A RATHER SCORNFUL TONE,
 IT MEANS JUST WHAT I CHOOSE IT TO MEAN....
 NEITHER MORE NOR LESS....
 THE QUESTION IS, SAID ALICE,
 WHETHER YOU CAN MAKE WORDS MEAN SO MANY DIFFERENT THINGS...
 THE QUESTION IS, SAID HUMPTY DUMPTY,
 WHICH IS TO BE MASTER....
 THAT IS ALL.....

 ALICE THROUGH THE LOOKING GLASS
 Job cpu time:       0 days  2 hours 13 minutes 10.6 seconds.
 Elapsed time:       0 days  0 hours 16 minutes 56.8 seconds.
 File lengths (MBytes):  RWF=     86 Int=      0 D2E=      0 Chk=     11 Scr=      1
 Normal termination of Gaussian 16 at Sun Oct 17 19:32:03 2021.
