 Entering Gaussian System, Link 0=g16
 Input=pg2T_TT_-10.gjf
 Output=pg2T_TT_-10.log
 Initial command:
 /apps/gaussian/g16-c01-avx/g16/l1.exe "/tmp/pbs.4730634[165].pbs/Gau-1306372.inp" -scrdir="/tmp/pbs.4730634[165].pbs/"
 Entering Link 1 = /apps/gaussian/g16-c01-avx/g16/l1.exe PID=   1306375.
  
 Copyright (c) 1988-2019, Gaussian, Inc.  All Rights Reserved.
  
 This is part of the Gaussian(R) 16 program.  It is based on
 the Gaussian(R) 09 system (copyright 2009, Gaussian, Inc.),
 the Gaussian(R) 03 system (copyright 2003, Gaussian, Inc.),
 the Gaussian(R) 98 system (copyright 1998, Gaussian, Inc.),
 the Gaussian(R) 94 system (copyright 1995, Gaussian, Inc.),
 the Gaussian 92(TM) system (copyright 1992, Gaussian, Inc.),
 the Gaussian 90(TM) system (copyright 1990, Gaussian, Inc.),
 the Gaussian 88(TM) system (copyright 1988, Gaussian, Inc.),
 the Gaussian 86(TM) system (copyright 1986, Carnegie Mellon
 University), and the Gaussian 82(TM) system (copyright 1983,
 Carnegie Mellon University). Gaussian is a federally registered
 trademark of Gaussian, Inc.
  
 This software contains proprietary and confidential information,
 including trade secrets, belonging to Gaussian, Inc.
  
 This software is provided under written license and may be
 used, copied, transmitted, or stored only in accord with that
 written license.
  
 The following legend is applicable only to US Government
 contracts under FAR:
  
                    RESTRICTED RIGHTS LEGEND
  
 Use, reproduction and disclosure by the US Government is
 subject to restrictions as set forth in subparagraphs (a)
 and (c) of the Commercial Computer Software - Restricted
 Rights clause in FAR 52.227-19.
  
 Gaussian, Inc.
 340 Quinnipiac St., Bldg. 40, Wallingford CT 06492
  
  
 ---------------------------------------------------------------
 Warning -- This program may not be used in any manner that
 competes with the business of Gaussian, Inc. or will provide
 assistance to any competitor of Gaussian, Inc.  The licensee
 of this program is prohibited from giving any competitor of
 Gaussian, Inc. access to this program.  By using this program,
 the user acknowledges that Gaussian, Inc. is engaged in the
 business of creating and licensing software in the field of
 computational chemistry and represents and warrants to the
 licensee that it is not a competitor of Gaussian, Inc. and that
 it will not use this program in any manner prohibited above.
 ---------------------------------------------------------------
  

 Cite this work as:
 Gaussian 16, Revision C.01,
 M. J. Frisch, G. W. Trucks, H. B. Schlegel, G. E. Scuseria, 
 M. A. Robb, J. R. Cheeseman, G. Scalmani, V. Barone, 
 G. A. Petersson, H. Nakatsuji, X. Li, M. Caricato, A. V. Marenich, 
 J. Bloino, B. G. Janesko, R. Gomperts, B. Mennucci, H. P. Hratchian, 
 J. V. Ortiz, A. F. Izmaylov, J. L. Sonnenberg, D. Williams-Young, 
 F. Ding, F. Lipparini, F. Egidi, J. Goings, B. Peng, A. Petrone, 
 T. Henderson, D. Ranasinghe, V. G. Zakrzewski, J. Gao, N. Rega, 
 G. Zheng, W. Liang, M. Hada, M. Ehara, K. Toyota, R. Fukuda, 
 J. Hasegawa, M. Ishida, T. Nakajima, Y. Honda, O. Kitao, H. Nakai, 
 T. Vreven, K. Throssell, J. A. Montgomery, Jr., J. E. Peralta, 
 F. Ogliaro, M. J. Bearpark, J. J. Heyd, E. N. Brothers, K. N. Kudin, 
 V. N. Staroverov, T. A. Keith, R. Kobayashi, J. Normand, 
 K. Raghavachari, A. P. Rendell, J. C. Burant, S. S. Iyengar, 
 J. Tomasi, M. Cossi, J. M. Millam, M. Klene, C. Adamo, R. Cammi, 
 J. W. Ochterski, R. L. Martin, K. Morokuma, O. Farkas, 
 J. B. Foresman, and D. J. Fox, Gaussian, Inc., Wallingford CT, 2019.
 
 ******************************************
 Gaussian 16:  ES64L-G16RevC.01  3-Jul-2019
                17-Oct-2021 
 ******************************************
 %mem=10GB
 %nprocshared=8
 Will use up to    8 processors via shared memory.
 -------------------------------------
 # opt=modredundant b3lyp/6-311+g(d,p)
 -------------------------------------
 1/18=120,19=15,26=3,38=1/1,3;
 2/9=110,12=2,17=6,18=5,40=1/2;
 3/5=4,6=6,7=111,11=2,25=1,30=1,71=1,74=-5/1,2,3;
 4//1;
 5/5=2,38=5/2;
 6/7=2,8=2,9=2,10=2,28=1/1;
 7//1,2,3,16;
 1/18=20,19=15,26=3/3(2);
 2/9=110/2;
 99//99;
 2/9=110/2;
 3/5=4,6=6,7=111,11=2,25=1,30=1,71=1,74=-5/1,2,3;
 4/5=5,16=3,69=1/1;
 5/5=2,38=5/2;
 7//1,2,3,16;
 1/18=20,19=15,26=3/3(-5);
 2/9=110/2;
 6/7=2,8=2,9=2,10=2,19=2,28=1/1;
 99/9=1/99;
 ---------------
 pg2T_TT_-10.pdb
 ---------------
 Symbolic Z-matrix:
 Charge =  0 Multiplicity = 1
 C                    -4.25     -1.36     -0.21 
 C                    -2.93     -0.95     -0.61 
 C                    -1.97     -2.05     -0.62 
 C                    -4.33     -2.76      0.1 
 S                    -2.8      -3.56     -0.11 
 H                    -5.23     -3.27      0.41 
 C                    -0.56     -2.13     -0.97 
 S                     0.297    -0.776    -1.768 
 C                     1.797    -1.638    -1.808 
 C                     1.696    -2.942    -1.203 
 C                     0.38     -3.223    -0.713 
 H                     0.154    -4.074    -0.089 
 S                     3.212    -3.511    -0.588 
 C                     4.028    -2.043    -1.128 
 C                     3.12     -1.11     -1.757 
 H                     5.044    -1.806    -0.844 
 H                     3.364    -0.062    -1.903 
 H                    -2.89      0.24     -0.97 
 O                    -5.6      -0.36     -0.4 
 H                    -5.76      0.85     -0.75 
 
 Add virtual bond connecting atoms H20        and O19        Dist= 2.40D+00.
 Add virtual bond connecting atoms O19        and C1         Dist= 3.20D+00.
 The following ModRedundant input section has been read:
 D       2       3       7       8 F                                           
 

 GradGradGradGradGradGradGradGradGradGradGradGradGradGradGradGradGradGrad
 Berny optimization.
 Initialization pass.
                           ----------------------------
                           !    Initial Parameters    !
                           ! (Angstroms and Degrees)  !
 --------------------------                            --------------------------
 ! Name  Definition              Value          Derivative Info.                !
 --------------------------------------------------------------------------------
 ! R1    R(1,2)                  1.4389         estimate D2E/DX2                !
 ! R2    R(1,4)                  1.4361         estimate D2E/DX2                !
 ! R3    R(1,19)                 1.6907         estimate D2E/DX2                !
 ! R4    R(2,3)                  1.46           estimate D2E/DX2                !
 ! R5    R(2,18)                 1.2439         estimate D2E/DX2                !
 ! R6    R(3,5)                  1.797          estimate D2E/DX2                !
 ! R7    R(3,7)                  1.455          estimate D2E/DX2                !
 ! R8    R(4,5)                  1.7393         estimate D2E/DX2                !
 ! R9    R(4,6)                  1.0799         estimate D2E/DX2                !
 ! R10   R(7,8)                  1.7901         estimate D2E/DX2                !
 ! R11   R(7,11)                 1.4643         estimate D2E/DX2                !
 ! R12   R(8,9)                  1.7305         estimate D2E/DX2                !
 ! R13   R(9,10)                 1.4411         estimate D2E/DX2                !
 ! R14   R(9,15)                 1.4254         estimate D2E/DX2                !
 ! R15   R(10,11)                1.4321         estimate D2E/DX2                !
 ! R16   R(10,13)                1.7321         estimate D2E/DX2                !
 ! R17   R(11,12)                1.0792         estimate D2E/DX2                !
 ! R18   R(13,14)                1.7642         estimate D2E/DX2                !
 ! R19   R(14,15)                1.4459         estimate D2E/DX2                !
 ! R20   R(14,16)                1.0812         estimate D2E/DX2                !
 ! R21   R(15,17)                1.0859         estimate D2E/DX2                !
 ! R22   R(19,20)                1.2697         estimate D2E/DX2                !
 ! A1    A(2,1,4)              112.8843         estimate D2E/DX2                !
 ! A2    A(2,1,19)             122.1887         estimate D2E/DX2                !
 ! A3    A(4,1,19)             123.8039         estimate D2E/DX2                !
 ! A4    A(1,2,3)              112.9799         estimate D2E/DX2                !
 ! A5    A(1,2,18)             112.491          estimate D2E/DX2                !
 ! A6    A(3,2,18)             134.2373         estimate D2E/DX2                !
 ! A7    A(2,3,5)              109.1138         estimate D2E/DX2                !
 ! A8    A(2,3,7)              132.8639         estimate D2E/DX2                !
 ! A9    A(5,3,7)              118.0132         estimate D2E/DX2                !
 ! A10   A(1,4,5)              111.9209         estimate D2E/DX2                !
 ! A11   A(1,4,6)              124.6643         estimate D2E/DX2                !
 ! A12   A(5,4,6)              123.4062         estimate D2E/DX2                !
 ! A13   A(3,5,4)               93.0997         estimate D2E/DX2                !
 ! A14   A(3,7,8)              121.9769         estimate D2E/DX2                !
 ! A15   A(3,7,11)             128.3818         estimate D2E/DX2                !
 ! A16   A(8,7,11)             109.602          estimate D2E/DX2                !
 ! A17   A(7,8,9)               92.7804         estimate D2E/DX2                !
 ! A18   A(8,9,10)             112.3516         estimate D2E/DX2                !
 ! A19   A(8,9,15)             128.2574         estimate D2E/DX2                !
 ! A20   A(10,9,15)            112.6579         estimate D2E/DX2                !
 ! A21   A(9,10,11)            112.6814         estimate D2E/DX2                !
 ! A22   A(9,10,13)            112.6423         estimate D2E/DX2                !
 ! A23   A(11,10,13)           128.1944         estimate D2E/DX2                !
 ! A24   A(7,11,10)            112.5431         estimate D2E/DX2                !
 ! A25   A(7,11,12)            123.7544         estimate D2E/DX2                !
 ! A26   A(10,11,12)           123.0248         estimate D2E/DX2                !
 ! A27   A(10,13,14)            91.3063         estimate D2E/DX2                !
 ! A28   A(13,14,15)           112.3105         estimate D2E/DX2                !
 ! A29   A(13,14,16)           122.4532         estimate D2E/DX2                !
 ! A30   A(15,14,16)           124.258          estimate D2E/DX2                !
 ! A31   A(9,15,14)            111.0644         estimate D2E/DX2                !
 ! A32   A(9,15,17)            124.1424         estimate D2E/DX2                !
 ! A33   A(14,15,17)           122.6934         estimate D2E/DX2                !
 ! A34   A(1,19,20)            134.0455         estimate D2E/DX2                !
 ! D1    D(4,1,2,3)              0.3915         estimate D2E/DX2                !
 ! D2    D(4,1,2,18)           175.0898         estimate D2E/DX2                !
 ! D3    D(19,1,2,3)          -167.9154         estimate D2E/DX2                !
 ! D4    D(19,1,2,18)            6.7829         estimate D2E/DX2                !
 ! D5    D(2,1,4,5)             -0.3845         estimate D2E/DX2                !
 ! D6    D(2,1,4,6)           -179.3471         estimate D2E/DX2                !
 ! D7    D(19,1,4,5)           167.7032         estimate D2E/DX2                !
 ! D8    D(19,1,4,6)           -11.2593         estimate D2E/DX2                !
 ! D9    D(2,1,19,20)           -7.6334         estimate D2E/DX2                !
 ! D10   D(4,1,19,20)         -174.6479         estimate D2E/DX2                !
 ! D11   D(1,2,3,5)             -0.2224         estimate D2E/DX2                !
 ! D12   D(1,2,3,7)            178.6265         estimate D2E/DX2                !
 ! D13   D(18,2,3,5)          -173.3787         estimate D2E/DX2                !
 ! D14   D(18,2,3,7)             5.4701         estimate D2E/DX2                !
 ! D15   D(2,3,5,4)              0.0033         estimate D2E/DX2                !
 ! D16   D(7,3,5,4)           -179.041          estimate D2E/DX2                !
 ! D17   D(2,3,7,8)            -10.0178         Frozen                          !
 ! D18   D(2,3,7,11)           167.4564         estimate D2E/DX2                !
 ! D19   D(5,3,7,8)            168.7502         estimate D2E/DX2                !
 ! D20   D(5,3,7,11)           -13.7756         estimate D2E/DX2                !
 ! D21   D(1,4,5,3)              0.2153         estimate D2E/DX2                !
 ! D22   D(6,4,5,3)            179.1932         estimate D2E/DX2                !
 ! D23   D(3,7,8,9)            179.7576         estimate D2E/DX2                !
 ! D24   D(11,7,8,9)             1.8592         estimate D2E/DX2                !
 ! D25   D(3,7,11,10)         -179.8324         estimate D2E/DX2                !
 ! D26   D(3,7,11,12)           -9.033          estimate D2E/DX2                !
 ! D27   D(8,7,11,10)           -2.1067         estimate D2E/DX2                !
 ! D28   D(8,7,11,12)          168.6928         estimate D2E/DX2                !
 ! D29   D(7,8,9,10)            -1.1749         estimate D2E/DX2                !
 ! D30   D(7,8,9,15)          -149.899          estimate D2E/DX2                !
 ! D31   D(8,9,10,11)            0.1452         estimate D2E/DX2                !
 ! D32   D(8,9,10,13)         -154.0725         estimate D2E/DX2                !
 ! D33   D(15,9,10,11)         153.9291         estimate D2E/DX2                !
 ! D34   D(15,9,10,13)          -0.2886         estimate D2E/DX2                !
 ! D35   D(8,9,15,14)          149.7767         estimate D2E/DX2                !
 ! D36   D(8,9,15,17)          -14.0752         estimate D2E/DX2                !
 ! D37   D(10,9,15,14)           1.1298         estimate D2E/DX2                !
 ! D38   D(10,9,15,17)        -162.7221         estimate D2E/DX2                !
 ! D39   D(9,10,11,7)            1.2999         estimate D2E/DX2                !
 ! D40   D(9,10,11,12)        -169.5771         estimate D2E/DX2                !
 ! D41   D(13,10,11,7)         150.5842         estimate D2E/DX2                !
 ! D42   D(13,10,11,12)        -20.2928         estimate D2E/DX2                !
 ! D43   D(9,10,13,14)          -0.4855         estimate D2E/DX2                !
 ! D44   D(11,10,13,14)       -149.7795         estimate D2E/DX2                !
 ! D45   D(10,13,14,15)          1.1343         estimate D2E/DX2                !
 ! D46   D(10,13,14,16)        170.2557         estimate D2E/DX2                !
 ! D47   D(13,14,15,9)          -1.4902         estimate D2E/DX2                !
 ! D48   D(13,14,15,17)        162.636          estimate D2E/DX2                !
 ! D49   D(16,14,15,9)        -170.3808         estimate D2E/DX2                !
 ! D50   D(16,14,15,17)         -6.2546         estimate D2E/DX2                !
 --------------------------------------------------------------------------------
 Trust Radius=3.00D-01 FncErr=1.00D-07 GrdErr=1.00D-06 EigMax=2.50D+02 EigMin=1.00D-04
 Number of steps in this run=    116 maximum allowed number of steps=    120.
 GradGradGradGradGradGradGradGradGradGradGradGradGradGradGradGradGradGrad

                          Input orientation:                          
 ---------------------------------------------------------------------
 Center     Atomic      Atomic             Coordinates (Angstroms)
 Number     Number       Type             X           Y           Z
 ---------------------------------------------------------------------
      1          6           0       -4.250000   -1.360000   -0.210000
      2          6           0       -2.930000   -0.950000   -0.610000
      3          6           0       -1.970000   -2.050000   -0.620000
      4          6           0       -4.330000   -2.760000    0.100000
      5         16           0       -2.800000   -3.560000   -0.110000
      6          1           0       -5.230000   -3.270000    0.410000
      7          6           0       -0.560000   -2.130000   -0.970000
      8         16           0        0.297000   -0.776000   -1.768000
      9          6           0        1.797000   -1.638000   -1.808000
     10          6           0        1.696000   -2.942000   -1.203000
     11          6           0        0.380000   -3.223000   -0.713000
     12          1           0        0.154000   -4.074000   -0.089000
     13         16           0        3.212000   -3.511000   -0.588000
     14          6           0        4.028000   -2.043000   -1.128000
     15          6           0        3.120000   -1.110000   -1.757000
     16          1           0        5.044000   -1.806000   -0.844000
     17          1           0        3.364000   -0.062000   -1.903000
     18          1           0       -2.890000    0.240000   -0.970000
     19          8           0       -5.600000   -0.360000   -0.400000
     20          1           0       -5.760000    0.850000   -0.750000
 ---------------------------------------------------------------------
                    Distance matrix (angstroms):
                    1          2          3          4          5
     1  C    0.000000
     2  C    1.438923   0.000000
     3  C    2.417147   1.460034   0.000000
     4  C    1.436141   2.395871   2.567509   0.000000
     5  S    2.636759   2.660639   1.796970   1.739253   0.000000
     6  H    2.234480   3.422397   3.630000   1.079907   2.501879
     7  C    3.845335   2.671872   1.454991   3.969219   2.793224
     8  S    4.841862   3.432895   2.842581   5.369805   4.482302
     9  C    6.260759   4.924741   3.971319   6.514559   5.264000
    10  C    6.232471   5.071448   3.817736   6.167950   4.668039
    11  C    5.016042   4.016620   2.628132   4.802024   3.254163
    12  H    5.174520   4.420619   2.981596   4.676385   2.998458
    13  S    7.775032   6.654575   5.384113   7.610460   6.031171
    14  C    8.356704   7.062346   6.019478   8.478103   7.068182
    15  C    7.534760   6.159847   5.299478   7.853244   6.615248
    16  H    9.326270   8.023227   7.021817   9.469590   8.071159
    17  H    7.907215   6.486511   5.835220   8.395764   7.310660
    18  H    2.233204   1.243905   2.492589   3.495497   3.897140
    19  O    1.690739   2.742462   4.010162   2.760960   4.261936
    20  H    2.730531   3.356859   4.773992   3.974858   5.349701
                    6          7          8          9         10
     6  H    0.000000
     7  C    5.001290   0.000000
     8  S    6.442938   1.790131   0.000000
     9  C    7.547296   2.549462   1.730504   0.000000
    10  C    7.118906   2.408977   2.639694   1.441056   0.000000
    11  C    5.721489   1.464342   2.666031   2.391472   1.432102
    12  H    5.466523   2.250576   3.703552   3.404189   2.213636
    13  S    8.504202   4.034981   4.167715   2.645516   1.732121
    14  C    9.464752   4.591544   3.991898   2.367232   2.500410
    15  C    8.892918   3.898996   2.842711   1.425382   2.385564
    16  H   10.453272   5.614772   4.944561   3.391243   3.553657
    17  H    9.460342   4.532647   3.151906   2.224475   3.400974
    18  H    4.438479   3.323522   3.438899   5.118310   5.586663
    19  O    3.043206   5.372095   6.067874   7.637497   7.780948
    20  H    4.312876   5.997399   6.353538   8.026067   8.377136
                   11         12         13         14         15
    11  C    0.000000
    12  H    1.079191   0.000000
    13  S    2.849350   3.149180   0.000000
    14  C    3.856492   4.495816   1.764222   0.000000
    15  C    3.614181   4.512724   2.672045   1.445889   0.000000
    16  H    4.876264   5.442972   2.515708   1.081240   2.240482
    17  H    4.506914   5.448930   3.694310   2.228426   1.085889
    18  H    4.769834   5.352821   7.172888   7.286685   6.209828
    19  O    6.637404   6.855584   9.360315   9.801064   8.856769
    20  H    7.368195   7.723865   9.977041  10.213583   9.149320
                   16         17         18         19         20
    16  H    0.000000
    17  H    2.642994   0.000000
    18  H    8.194532   6.330419   0.000000
    19  O   10.750944   9.094015   2.833549   0.000000
    20  H   11.126077   9.241673   2.942346   1.269724   0.000000
 Stoichiometry    C10H6OS3
 Framework group  C1[X(C10H6OS3)]
 Deg. of freedom    54
 Full point group                 C1      NOp   1
 Largest Abelian subgroup         C1      NOp   1
 Largest concise Abelian subgroup C1      NOp   1
                         Standard orientation:                         
 ---------------------------------------------------------------------
 Center     Atomic      Atomic             Coordinates (Angstroms)
 Number     Number       Type             X           Y           Z
 ---------------------------------------------------------------------
      1          6           0       -3.883931    0.310819    0.277156
      2          6           0       -2.569861    0.896224    0.245234
      3          6           0       -1.516323   -0.081566   -0.011057
      4          6           0       -3.868477   -1.108512    0.058614
      5         16           0       -2.255795   -1.709158   -0.193340
      6          1           0       -4.747217   -1.735722    0.033618
      7          6           0       -0.073176    0.033513   -0.156259
      8         16           0        0.742424    1.621328   -0.291200
      9          6           0        2.310791    0.900069   -0.412262
     10          6           0        2.260854   -0.537617   -0.327375
     11          6           0        0.927723   -1.035318   -0.166219
     12          1           0        0.709283   -2.063670    0.077562
     13         16           0        3.738396   -1.222494    0.262588
     14          6           0        4.471609    0.376229    0.400290
     15          6           0        3.562292    1.432194    0.014706
     16          1           0        5.419036    0.539364    0.895114
     17          1           0        3.722285    2.471714    0.284809
     18          1           0       -2.599024    2.136345    0.337697
     19          8           0       -5.289319    1.250526    0.256225
     20          1           0       -5.519215    2.496733    0.335688
 ---------------------------------------------------------------------
 Rotational constants (GHZ):           1.3708257           0.2307491           0.1999745
 Standard basis: 6-311+G(d,p) (5D, 7F)
 There are   382 symmetry adapted cartesian basis functions of A   symmetry.
 There are   368 symmetry adapted basis functions of A   symmetry.
   368 basis functions,   594 primitive gaussians,   382 cartesian basis functions
    61 alpha electrons       61 beta electrons
       nuclear repulsion energy      1076.9597149098 Hartrees.
 NAtoms=   20 NActive=   20 NUniq=   20 SFac= 1.00D+00 NAtFMM=   60 NAOKFM=F Big=F
 Integral buffers will be    131072 words long.
 Raffenetti 2 integral format.
 Two-electron integral symmetry is turned on.
 One-electron integrals computed using PRISM.
 NBasis=   368 RedAO= T EigKep=  2.78D-06  NBF=   368
 NBsUse=   367 1.00D-06 EigRej=  4.19D-07 NBFU=   367
 ExpMin= 4.05D-02 ExpMax= 9.34D+04 ExpMxC= 3.17D+03 IAcc=3 IRadAn=         5 AccDes= 0.00D+00
 Harris functional with IExCor=  402 and IRadAn=       5 diagonalized for initial guess.
 HarFok:  IExCor=  402 AccDes= 0.00D+00 IRadAn=         5 IDoV= 1 UseB2=F ITyADJ=14
 ICtDFT=  3500011 ScaDFX=  1.000000  1.000000  1.000000  1.000000
 FoFCou: FMM=F IPFlag=           0 FMFlag=      100000 FMFlg1=           0
         NFxFlg=           0 DoJE=T BraDBF=F KetDBF=T FulRan=T
         wScrn=  0.000000 ICntrl=       500 IOpCl=  0 I1Cent=   200000004 NGrid=           0
         NMat0=    1 NMatS0=      1 NMatT0=    0 NMatD0=    1 NMtDS0=    0 NMtDT0=    0
 Petite list used in FoFCou.
 Requested convergence on RMS density matrix=1.00D-08 within 128 cycles.
 Requested convergence on MAX density matrix=1.00D-06.
 Requested convergence on             energy=1.00D-06.
 No special actions if energy rises.
 SCF Done:  E(RB3LYP) =  -1654.46425460     A.U. after   17 cycles
            NFock= 17  Conv=0.67D-08     -V/T= 2.0032

 **********************************************************************

            Population analysis using the SCF Density.

 **********************************************************************

 Orbital symmetries:
       Occupied  (A) (A) (A) (A) (A) (A) (A) (A) (A) (A) (A) (A)
                 (A) (A) (A) (A) (A) (A) (A) (A) (A) (A) (A) (A)
                 (A) (A) (A) (A) (A) (A) (A) (A) (A) (A) (A) (A)
                 (A) (A) (A) (A) (A) (A) (A) (A) (A) (A) (A) (A)
                 (A) (A) (A) (A) (A) (A) (A) (A) (A) (A) (A) (A)
                 (A)
       Virtual   (A) (A) (A) (A) (A) (A) (A) (A) (A) (A) (A) (A)
                 (A) (A) (A) (A) (A) (A) (A) (A) (A) (A) (A) (A)
                 (A) (A) (A) (A) (A) (A) (A) (A) (A) (A) (A) (A)
                 (A) (A) (A) (A) (A) (A) (A) (A) (A) (A) (A) (A)
                 (A) (A) (A) (A) (A) (A) (A) (A) (A) (A) (A) (A)
                 (A) (A) (A) (A) (A) (A) (A) (A) (A) (A) (A) (A)
                 (A) (A) (A) (A) (A) (A) (A) (A) (A) (A) (A) (A)
                 (A) (A) (A) (A) (A) (A) (A) (A) (A) (A) (A) (A)
                 (A) (A) (A) (A) (A) (A) (A) (A) (A) (A) (A) (A)
                 (A) (A) (A) (A) (A) (A) (A) (A) (A) (A) (A) (A)
                 (A) (A) (A) (A) (A) (A) (A) (A) (A) (A) (A) (A)
                 (A) (A) (A) (A) (A) (A) (A) (A) (A) (A) (A) (A)
                 (A) (A) (A) (A) (A) (A) (A) (A) (A) (A) (A) (A)
                 (A) (A) (A) (A) (A) (A) (A) (A) (A) (A) (A) (A)
                 (A) (A) (A) (A) (A) (A) (A) (A) (A) (A) (A) (A)
                 (A) (A) (A) (A) (A) (A) (A) (A) (A) (A) (A) (A)
                 (A) (A) (A) (A) (A) (A) (A) (A) (A) (A) (A) (A)
                 (A) (A) (A) (A) (A) (A) (A) (A) (A) (A) (A) (A)
                 (A) (A) (A) (A) (A) (A) (A) (A) (A) (A) (A) (A)
                 (A) (A) (A) (A) (A) (A) (A) (A) (A) (A) (A) (A)
                 (A) (A) (A) (A) (A) (A) (A) (A) (A) (A) (A) (A)
                 (A) (A) (A) (A) (A) (A) (A) (A) (A) (A) (A) (A)
                 (A) (A) (A) (A) (A) (A) (A) (A) (A) (A) (A) (A)
                 (A) (A) (A) (A) (A) (A) (A) (A) (A) (A) (A) (A)
                 (A) (A) (A) (A) (A) (A) (A) (A) (A) (A) (A) (A)
                 (A) (A) (A) (A) (A) (A)
 The electronic state is 1-A.
 Alpha  occ. eigenvalues --  -88.90587 -88.89690 -88.89445 -19.15519 -10.27351
 Alpha  occ. eigenvalues --  -10.25246 -10.24693 -10.22806 -10.22704 -10.22654
 Alpha  occ. eigenvalues --  -10.22567 -10.22556 -10.21239 -10.20875  -7.99027
 Alpha  occ. eigenvalues --   -7.98213  -7.97976  -5.95344  -5.94987  -5.94583
 Alpha  occ. eigenvalues --   -5.94525  -5.94306  -5.94166  -5.93938  -5.93766
 Alpha  occ. eigenvalues --   -5.93496  -0.93507  -0.91322  -0.88462  -0.84339
 Alpha  occ. eigenvalues --   -0.78154  -0.75696  -0.74673  -0.71704  -0.69190
 Alpha  occ. eigenvalues --   -0.62566  -0.58412  -0.56362  -0.54286  -0.53395
 Alpha  occ. eigenvalues --   -0.50465  -0.49674  -0.45787  -0.44207  -0.42222
 Alpha  occ. eigenvalues --   -0.41674  -0.40587  -0.40397  -0.39951  -0.39676
 Alpha  occ. eigenvalues --   -0.38322  -0.36599  -0.35116  -0.34654  -0.32445
 Alpha  occ. eigenvalues --   -0.31841  -0.30002  -0.27295  -0.25527  -0.24189
 Alpha  occ. eigenvalues --   -0.20460
 Alpha virt. eigenvalues --   -0.08755  -0.08287  -0.03908  -0.01603  -0.01400
 Alpha virt. eigenvalues --   -0.01106  -0.00198   0.00203   0.00493   0.00951
 Alpha virt. eigenvalues --    0.01895   0.02691   0.02936   0.03483   0.03667
 Alpha virt. eigenvalues --    0.03914   0.04893   0.05173   0.05403   0.05716
 Alpha virt. eigenvalues --    0.06514   0.06664   0.07595   0.08383   0.08596
 Alpha virt. eigenvalues --    0.08879   0.09202   0.09766   0.10084   0.11042
 Alpha virt. eigenvalues --    0.11246   0.11799   0.11856   0.12311   0.12633
 Alpha virt. eigenvalues --    0.12897   0.13689   0.14392   0.14842   0.15124
 Alpha virt. eigenvalues --    0.15590   0.15664   0.16499   0.16749   0.17101
 Alpha virt. eigenvalues --    0.17687   0.18092   0.18510   0.18941   0.19049
 Alpha virt. eigenvalues --    0.19541   0.19734   0.20167   0.20459   0.20526
 Alpha virt. eigenvalues --    0.21151   0.21207   0.21545   0.22098   0.22373
 Alpha virt. eigenvalues --    0.22827   0.23457   0.23778   0.24193   0.24480
 Alpha virt. eigenvalues --    0.25121   0.25995   0.26207   0.27078   0.28408
 Alpha virt. eigenvalues --    0.28880   0.29179   0.29652   0.30529   0.30980
 Alpha virt. eigenvalues --    0.31739   0.32692   0.33208   0.33594   0.34000
 Alpha virt. eigenvalues --    0.34244   0.35378   0.35441   0.36440   0.38096
 Alpha virt. eigenvalues --    0.39216   0.39842   0.41148   0.42748   0.43011
 Alpha virt. eigenvalues --    0.44300   0.45193   0.48289   0.49039   0.51632
 Alpha virt. eigenvalues --    0.53380   0.53994   0.54830   0.55541   0.55679
 Alpha virt. eigenvalues --    0.56314   0.56967   0.57665   0.59606   0.60195
 Alpha virt. eigenvalues --    0.61311   0.61429   0.62449   0.62711   0.63459
 Alpha virt. eigenvalues --    0.65863   0.66596   0.66802   0.68215   0.69211
 Alpha virt. eigenvalues --    0.69840   0.70741   0.71044   0.72396   0.73127
 Alpha virt. eigenvalues --    0.73590   0.73838   0.74537   0.75575   0.76739
 Alpha virt. eigenvalues --    0.77638   0.78202   0.79373   0.79846   0.80813
 Alpha virt. eigenvalues --    0.82049   0.82549   0.83544   0.84054   0.85461
 Alpha virt. eigenvalues --    0.86270   0.87639   0.88120   0.89974   0.90863
 Alpha virt. eigenvalues --    0.91525   0.92303   0.92536   0.93203   0.94681
 Alpha virt. eigenvalues --    0.96035   0.97870   0.98714   1.00060   1.00435
 Alpha virt. eigenvalues --    1.01188   1.04660   1.04801   1.06405   1.07490
 Alpha virt. eigenvalues --    1.10199   1.11234   1.13825   1.14776   1.17352
 Alpha virt. eigenvalues --    1.20224   1.20461   1.23547   1.25426   1.28541
 Alpha virt. eigenvalues --    1.34102   1.34816   1.35368   1.37026   1.39120
 Alpha virt. eigenvalues --    1.41498   1.45686   1.46071   1.49135   1.50181
 Alpha virt. eigenvalues --    1.50463   1.52018   1.54353   1.56285   1.58538
 Alpha virt. eigenvalues --    1.60124   1.60863   1.61185   1.62388   1.64389
 Alpha virt. eigenvalues --    1.65349   1.66300   1.67570   1.68012   1.69856
 Alpha virt. eigenvalues --    1.71054   1.71867   1.73979   1.74982   1.75609
 Alpha virt. eigenvalues --    1.77692   1.78729   1.80581   1.83275   1.83650
 Alpha virt. eigenvalues --    1.85103   1.86796   1.88900   1.89695   1.91199
 Alpha virt. eigenvalues --    1.93511   1.95121   1.96279   1.97373   1.98112
 Alpha virt. eigenvalues --    1.98787   1.99123   2.02187   2.03317   2.05552
 Alpha virt. eigenvalues --    2.07388   2.07779   2.10422   2.11660   2.13548
 Alpha virt. eigenvalues --    2.14829   2.17104   2.21175   2.23967   2.30980
 Alpha virt. eigenvalues --    2.33294   2.33875   2.35596   2.41853   2.45936
 Alpha virt. eigenvalues --    2.47959   2.53155   2.55083   2.59406   2.63077
 Alpha virt. eigenvalues --    2.64544   2.64740   2.68522   2.69260   2.70197
 Alpha virt. eigenvalues --    2.70754   2.73461   2.74232   2.76402   2.79120
 Alpha virt. eigenvalues --    2.79905   2.83384   2.87161   2.89798   2.91346
 Alpha virt. eigenvalues --    2.92344   2.94064   2.95006   2.96999   3.00277
 Alpha virt. eigenvalues --    3.01612   3.02814   3.04309   3.09465   3.18473
 Alpha virt. eigenvalues --    3.19271   3.24165   3.26019   3.30474   3.35837
 Alpha virt. eigenvalues --    3.38677   3.46832   3.48032   3.57875   3.59244
 Alpha virt. eigenvalues --    3.77516   3.82390   3.92398   4.03123   4.11991
 Alpha virt. eigenvalues --    4.30382   4.47278   5.01418   5.11921   5.25028
 Alpha virt. eigenvalues --    7.93026   7.95381   7.97357  17.26251  17.27874
 Alpha virt. eigenvalues --   17.28907  17.41998  17.44225  17.45905  17.46924
 Alpha virt. eigenvalues --   17.50122  17.52123  23.40966  23.55713  23.66322
 Alpha virt. eigenvalues --   23.75319  23.79539  23.84720  23.85729  23.88023
 Alpha virt. eigenvalues --   23.93746  23.95442  49.84415 189.09216 189.11800
 Alpha virt. eigenvalues --  189.14276
          Condensed to atoms (all electrons):
               1          2          3          4          5          6
     1  C    7.460062  -1.110992   0.230318  -1.040923   0.728661   0.065506
     2  C   -1.110992  13.075198  -3.683567   0.310395  -2.572108  -0.035598
     3  C    0.230318  -3.683567   9.455015  -0.231633   0.786040   0.025300
     4  C   -1.040923   0.310395  -0.231633   7.198428  -0.507068   0.328710
     5  S    0.728661  -2.572108   0.786040  -0.507068  17.464929  -0.022488
     6  H    0.065506  -0.035598   0.025300   0.328710  -0.022488   0.460467
     7  C   -0.015403  -0.533282  -0.481407  -0.032145   0.733943  -0.002222
     8  S   -0.052936  -0.402942   0.585368   0.080296   0.084304  -0.000719
     9  C   -0.080460  -0.472283  -0.292909  -0.007074   0.231814  -0.000046
    10  C    0.136941   0.061689   0.388632  -0.083581  -0.374114   0.000095
    11  C   -0.122438   0.301615  -0.719257  -0.103197  -0.090279   0.002064
    12  H   -0.003315   0.002345   0.012225   0.003867   0.009180   0.000003
    13  S   -0.002040   0.033698   0.018604   0.001934  -0.019956   0.000002
    14  C   -0.000027  -0.009180  -0.018696  -0.000156   0.002014  -0.000000
    15  C   -0.013953  -0.064040   0.023257   0.006910   0.011643  -0.000007
    16  H    0.000000  -0.000031   0.000007  -0.000001   0.000015   0.000000
    17  H    0.000075   0.000260  -0.001113  -0.000014  -0.000014   0.000000
    18  H   -0.106474   0.270519   0.144364  -0.028978   0.011931  -0.000110
    19  O    0.323833  -0.027558  -0.018685  -0.145314   0.013428  -0.001210
    20  H   -0.075393  -0.010995   0.031046   0.054291  -0.002836  -0.000186
               7          8          9         10         11         12
     1  C   -0.015403  -0.052936  -0.080460   0.136941  -0.122438  -0.003315
     2  C   -0.533282  -0.402942  -0.472283   0.061689   0.301615   0.002345
     3  C   -0.481407   0.585368  -0.292909   0.388632  -0.719257   0.012225
     4  C   -0.032145   0.080296  -0.007074  -0.083581  -0.103197   0.003867
     5  S    0.733943   0.084304   0.231814  -0.374114  -0.090279   0.009180
     6  H   -0.002222  -0.000719  -0.000046   0.000095   0.002064   0.000003
     7  C   10.514637   0.802289  -0.415402   1.431414  -4.807792   0.139049
     8  S    0.802289  17.735825  -0.745384   1.318443  -2.726936   0.015740
     9  C   -0.415402  -0.745384  14.013356  -6.883048   2.127034  -0.050506
    10  C    1.431414   1.318443  -6.883048  22.286845 -10.939586   0.078559
    11  C   -4.807792  -2.726936   2.127034 -10.939586  20.664713   0.141109
    12  H    0.139049   0.015740  -0.050506   0.078559   0.141109   0.512787
    13  S   -0.535742   0.085422   0.454410  -1.124044   0.779085   0.005862
    14  C    0.216792   0.007457   0.681195  -0.339710  -0.473457   0.002429
    15  C   -0.508729  -0.198633  -2.600664  -0.208977   1.368834  -0.016169
    16  H   -0.003494   0.000265  -0.023424   0.007252   0.012227  -0.000002
    17  H    0.011750   0.024629   0.032409  -0.037575  -0.013659   0.000017
    18  H    0.008313   0.018161   0.005738  -0.002273  -0.000913   0.000004
    19  O    0.013644   0.002767   0.000030   0.000151  -0.000091   0.000000
    20  H    0.000332   0.001494  -0.000009   0.000102  -0.000072  -0.000000
              13         14         15         16         17         18
     1  C   -0.002040  -0.000027  -0.013953   0.000000   0.000075  -0.106474
     2  C    0.033698  -0.009180  -0.064040  -0.000031   0.000260   0.270519
     3  C    0.018604  -0.018696   0.023257   0.000007  -0.001113   0.144364
     4  C    0.001934  -0.000156   0.006910  -0.000001  -0.000014  -0.028978
     5  S   -0.019956   0.002014   0.011643   0.000015  -0.000014   0.011931
     6  H    0.000002  -0.000000  -0.000007   0.000000   0.000000  -0.000110
     7  C   -0.535742   0.216792  -0.508729  -0.003494   0.011750   0.008313
     8  S    0.085422   0.007457  -0.198633   0.000265   0.024629   0.018161
     9  C    0.454410   0.681195  -2.600664  -0.023424   0.032409   0.005738
    10  C   -1.124044  -0.339710  -0.208977   0.007252  -0.037575  -0.002273
    11  C    0.779085  -0.473457   1.368834   0.012227  -0.013659  -0.000913
    12  H    0.005862   0.002429  -0.016169  -0.000002   0.000017   0.000004
    13  S   16.598132   0.290553  -0.458213  -0.021794   0.003791  -0.000069
    14  C    0.290553   5.561343  -0.025782   0.367549   0.008541   0.000084
    15  C   -0.458213  -0.025782   8.334273   0.016785   0.318210  -0.000308
    16  H   -0.021794   0.367549   0.016785   0.471475  -0.003625  -0.000000
    17  H    0.003791   0.008541   0.318210  -0.003625   0.513822  -0.000000
    18  H   -0.000069   0.000084  -0.000308  -0.000000  -0.000000   0.535134
    19  O   -0.000007   0.000003   0.000015  -0.000000   0.000000  -0.001365
    20  H    0.000000   0.000000  -0.000000  -0.000000   0.000000   0.001218
              19         20
     1  C    0.323833  -0.075393
     2  C   -0.027558  -0.010995
     3  C   -0.018685   0.031046
     4  C   -0.145314   0.054291
     5  S    0.013428  -0.002836
     6  H   -0.001210  -0.000186
     7  C    0.013644   0.000332
     8  S    0.002767   0.001494
     9  C    0.000030  -0.000009
    10  C    0.000151   0.000102
    11  C   -0.000091  -0.000072
    12  H    0.000000  -0.000000
    13  S   -0.000007   0.000000
    14  C    0.000003   0.000000
    15  C    0.000015  -0.000000
    16  H   -0.000000  -0.000000
    17  H    0.000000   0.000000
    18  H   -0.001365   0.001218
    19  O    8.102901   0.186536
    20  H    0.186536   0.528600
 Mulliken charges:
               1
     1  C   -0.321043
     2  C    0.866856
     3  C   -0.252908
     4  C    0.195251
     5  S   -0.489038
     6  H    0.180439
     7  C   -0.536545
     8  S   -0.634911
     9  C    0.025224
    10  C    0.282784
    11  C    0.600996
    12  H    0.146815
    13  S   -0.109629
    14  C   -0.270952
    15  C    0.015549
    16  H    0.176796
    17  H    0.142497
    18  H    0.145026
    19  O   -0.449077
    20  H    0.285871
 Sum of Mulliken charges =  -0.00000
 Mulliken charges with hydrogens summed into heavy atoms:
               1
     1  C   -0.321043
     2  C    1.011882
     3  C   -0.252908
     4  C    0.375690
     5  S   -0.489038
     7  C   -0.536545
     8  S   -0.634911
     9  C    0.025224
    10  C    0.282784
    11  C    0.747811
    13  S   -0.109629
    14  C   -0.094156
    15  C    0.158046
    19  O   -0.163206
 Electronic spatial extent (au):  <R**2>=           4994.5109
 Charge=              0.0000 electrons
 Dipole moment (field-independent basis, Debye):
    X=              1.4470    Y=              0.9629    Z=              0.9989  Tot=              2.0047
 Quadrupole moment (field-independent basis, Debye-Ang):
   XX=           -101.7343   YY=            -88.8604   ZZ=           -109.8904
   XY=             -1.6643   XZ=              4.5308   YZ=              1.7450
 Traceless Quadrupole moment (field-independent basis, Debye-Ang):
   XX=             -1.5726   YY=             11.3013   ZZ=             -9.7287
   XY=             -1.6643   XZ=              4.5308   YZ=              1.7450
 Octapole moment (field-independent basis, Debye-Ang**2):
  XXX=             64.0192  YYY=             24.8807  ZZZ=              1.2254  XYY=            -47.1976
  XXY=             37.4997  XXZ=             25.7869  XZZ=              1.2561  YZZ=             -0.4909
  YYZ=              6.1239  XYZ=             -2.9279
 Hexadecapole moment (field-independent basis, Debye-Ang**3):
 XXXX=          -5703.5121 YYYY=           -913.7476 ZZZZ=           -185.5277 XXXY=           -109.3544
 XXXZ=            148.8929 YYYX=           -112.2541 YYYZ=             15.9815 ZZZX=             11.6730
 ZZZY=              0.0759 XXYY=           -825.5546 XXZZ=          -1050.6034 YYZZ=           -213.8701
 XXYZ=             39.3946 YYXZ=             -3.3961 ZZXY=             -8.8512
 N-N= 1.076959714910D+03 E-N=-6.063234655124D+03  KE= 1.649108889650D+03
 Calling FoFJK, ICntrl=      2127 FMM=F ISym2X=0 I1Cent= 0 IOpClX= 0 NMat=1 NMatS=1 NMatT=0.
 ***** Axes restored to original set *****
 -------------------------------------------------------------------
 Center     Atomic                   Forces (Hartrees/Bohr)
 Number     Number              X              Y              Z
 -------------------------------------------------------------------
      1        6          -0.013384936    0.009408532   -0.020504439
      2        6           0.001286988    0.025643691   -0.016079498
      3        6          -0.030222672    0.027060416    0.000111158
      4        6          -0.015302488    0.057596402   -0.008226002
      5       16          -0.004176847    0.026478746   -0.002600289
      6        1           0.003106192   -0.003768944   -0.000520984
      7        6           0.033133403   -0.030388445    0.009011109
      8       16          -0.014366829   -0.010177948   -0.002425895
      9        6           0.016307200   -0.020849900    0.024849572
     10        6          -0.027936990    0.030643131    0.002416423
     11        6          -0.022362238    0.044037268   -0.015788924
     12        1          -0.004365924   -0.001987791   -0.001858419
     13       16           0.012340245    0.008866684   -0.010917483
     14        6          -0.040630034    0.036921910   -0.021246680
     15        6           0.027347201   -0.037418613    0.031585300
     16        1           0.000915916   -0.006639239   -0.003267365
     17        1           0.003069958   -0.005180650   -0.006673687
     18        1           0.014035314   -0.069565015    0.018833652
     19        8           0.018664872    0.025733063   -0.006672256
     20        1           0.042541668   -0.106413299    0.029974707
 -------------------------------------------------------------------
 Cartesian Forces:  Max     0.106413299 RMS     0.026886458

 GradGradGradGradGradGradGradGradGradGradGradGradGradGradGradGradGradGrad
 Berny optimization.
 FormGI is forming the generalized inverse of G from B-inverse, IUseBI=4.
 Internal  Forces:  Max     0.115031168 RMS     0.022646539
 Search for a local minimum.
 Step number   1 out of a maximum of  116
 All quantities printed in internal units (Hartrees-Bohrs-Radians)
 Mixed Optimization -- RFO/linear search
 Second derivative matrix not updated -- first step.
 ITU=  0
     Eigenvalues ---    0.00230   0.00983   0.01057   0.01222   0.01274
     Eigenvalues ---    0.01297   0.01386   0.01417   0.01419   0.01464
     Eigenvalues ---    0.01497   0.01554   0.01597   0.01769   0.02202
     Eigenvalues ---    0.02653   0.15077   0.15686   0.15738   0.15872
     Eigenvalues ---    0.15997   0.16000   0.17997   0.18458   0.20203
     Eigenvalues ---    0.21719   0.22443   0.23319   0.23380   0.23776
     Eigenvalues ---    0.23980   0.24292   0.24978   0.24995   0.26219
     Eigenvalues ---    0.26564   0.28459   0.30834   0.31335   0.31535
     Eigenvalues ---    0.34817   0.35292   0.35845   0.35849   0.36006
     Eigenvalues ---    0.36092   0.36304   0.37598   0.38204   0.38494
     Eigenvalues ---    0.39449   0.39763   0.407101000.000001000.00000
     Eigenvalues --- 1000.000001000.000001000.000001000.000001000.00000
     Eigenvalues --- 1000.000001000.000001000.000001000.000001000.00000
     Eigenvalues --- 1000.000001000.000001000.000001000.000001000.00000
     Eigenvalues --- 1000.000001000.000001000.000001000.000001000.00000
     Eigenvalues --- 1000.000001000.000001000.000001000.000001000.00000
     Eigenvalues --- 1000.000001000.000001000.000001000.000001000.00000
     Eigenvalues --- 1000.000001000.000001000.000001000.000001000.00000
     Eigenvalues --- 1000.000001000.000001000.000001000.000001000.00000
     Eigenvalues --- 1000.000001000.000001000.000001000.000001000.00000
     Eigenvalues --- 1000.000001000.000001000.000001000.000001000.00000
     Eigenvalues --- 1000.00000
 RFO step:  Lambda=-1.43886400D-01 EMin= 2.30000000D-03
 Linear search not attempted -- first point.
 Maximum step size (   0.300) exceeded in Quadratic search.
    -- Step size scaled by   0.486
 Iteration  1 RMS(Cart)=  0.06111496 RMS(Int)=  0.00159221
 Iteration  2 RMS(Cart)=  0.00187716 RMS(Int)=  0.00007213
 Iteration  3 RMS(Cart)=  0.00001031 RMS(Int)=  0.00007183
 Iteration  4 RMS(Cart)=  0.00000000 RMS(Int)=  0.00007183
 Iteration  1 RMS(Cart)=  0.00000108 RMS(Int)=  0.00000056
 Iteration  2 RMS(Cart)=  0.00000059 RMS(Int)=  0.00000063
 Variable       Old X    -DE/DX   Delta X   Delta X   Delta X     New X
                                 (Linear)    (Quad)   (Total)
    R1        2.71917  -0.02249   0.00000  -0.02121  -0.02114   2.69803
    R2        2.71391  -0.06306   0.00000  -0.05667  -0.05663   2.65728
    R3        3.19503  -0.09921   0.00000  -0.14668  -0.14668   3.04835
    R4        2.75906  -0.06502   0.00000  -0.06182  -0.06180   2.69726
    R5        2.35064  -0.07155   0.00000  -0.09623  -0.09623   2.25441
    R6        3.39578  -0.01739   0.00000  -0.01962  -0.01968   3.37610
    R7        2.74954  -0.01783   0.00000  -0.01666  -0.01666   2.73288
    R8        3.28671  -0.01410   0.00000  -0.01413  -0.01417   3.27254
    R9        2.04073  -0.00096   0.00000  -0.00092  -0.00092   2.03981
   R10        3.38286  -0.01214   0.00000  -0.01332  -0.01337   3.36948
   R11        2.76721  -0.05953   0.00000  -0.05715  -0.05717   2.71004
   R12        3.27018   0.00089   0.00000   0.00157   0.00157   3.27175
   R13        2.72320  -0.03062   0.00000  -0.02818  -0.02807   2.69513
   R14        2.69358  -0.00303   0.00000  -0.00341  -0.00336   2.69022
   R15        2.70628  -0.01383   0.00000  -0.01307  -0.01304   2.69324
   R16        3.27323   0.00172   0.00000   0.00265   0.00264   3.27587
   R17        2.03938   0.00141   0.00000   0.00135   0.00135   2.04073
   R18        3.33390  -0.01208   0.00000  -0.01293  -0.01299   3.32090
   R19        2.73233  -0.05785   0.00000  -0.05334  -0.05336   2.67897
   R20        2.04325  -0.00145   0.00000  -0.00140  -0.00140   2.04184
   R21        2.05203  -0.00341   0.00000  -0.00334  -0.00334   2.04870
   R22        2.39943  -0.11503   0.00000  -0.16149  -0.16149   2.23794
    A1        1.97020   0.02007   0.00000   0.02323   0.02334   1.99355
    A2        2.13260   0.00509   0.00000   0.00786   0.00782   2.14041
    A3        2.16079  -0.02455   0.00000  -0.02932  -0.02943   2.13136
    A4        1.97187  -0.00255   0.00000  -0.00518  -0.00508   1.96679
    A5        1.96334   0.02038   0.00000   0.03333   0.03328   1.99662
    A6        2.34288  -0.01765   0.00000  -0.02747  -0.02753   2.31535
    A7        1.90440  -0.00048   0.00000   0.00014   0.00011   1.90450
    A8        2.31891  -0.00958   0.00000  -0.01218  -0.01217   2.30675
    A9        2.05972   0.01007   0.00000   0.01205   0.01206   2.07178
   A10        1.95339  -0.01458   0.00000  -0.01916  -0.01916   1.93423
   A11        2.17580   0.01216   0.00000   0.01738   0.01738   2.19318
   A12        2.15384   0.00244   0.00000   0.00184   0.00183   2.15568
   A13        1.62490  -0.00245   0.00000   0.00099   0.00080   1.62570
   A14        2.12890  -0.00524   0.00000  -0.00625  -0.00625   2.12264
   A15        2.24068  -0.00235   0.00000  -0.00271  -0.00271   2.23798
   A16        1.91292   0.00765   0.00000   0.00908   0.00908   1.92200
   A17        1.61932  -0.00705   0.00000  -0.00679  -0.00676   1.61256
   A18        1.96091  -0.01016   0.00000  -0.01091  -0.01102   1.94989
   A19        2.23851   0.00825   0.00000   0.01410   0.01394   2.25245
   A20        1.96625   0.00564   0.00000   0.00680   0.00684   1.97310
   A21        1.96666   0.00777   0.00000   0.00874   0.00876   1.97542
   A22        1.96598  -0.01313   0.00000  -0.01445  -0.01452   1.95146
   A23        2.23741   0.00877   0.00000   0.01464   0.01450   2.25191
   A24        1.96425   0.00181   0.00000  -0.00011  -0.00005   1.96420
   A25        2.15992  -0.00371   0.00000  -0.00396  -0.00402   2.15590
   A26        2.14719   0.00243   0.00000   0.00573   0.00567   2.15286
   A27        1.59360   0.00018   0.00000   0.00158   0.00157   1.59517
   A28        1.96019   0.00161   0.00000   0.00108   0.00105   1.96124
   A29        2.13721  -0.00486   0.00000  -0.00643  -0.00649   2.13072
   A30        2.16871   0.00428   0.00000   0.00835   0.00831   2.17702
   A31        1.93844   0.00569   0.00000   0.00497   0.00503   1.94347
   A32        2.16669  -0.00012   0.00000   0.00321   0.00308   2.16977
   A33        2.14140  -0.00366   0.00000  -0.00265  -0.00278   2.13862
   A34        2.33954  -0.06777   0.00000  -0.10831  -0.10831   2.23123
    D1        0.00683  -0.00109   0.00000  -0.00339  -0.00340   0.00343
    D2        3.05589  -0.00050   0.00000   0.00103   0.00120   3.05709
    D3       -2.93068  -0.00131   0.00000  -0.00898  -0.00921  -2.93988
    D4        0.11838  -0.00073   0.00000  -0.00457  -0.00461   0.11378
    D5       -0.00671   0.00063   0.00000   0.00157   0.00158  -0.00513
    D6       -3.13020  -0.00088   0.00000  -0.00196  -0.00194  -3.13214
    D7        2.92697   0.00500   0.00000   0.01246   0.01236   2.93934
    D8       -0.19651   0.00349   0.00000   0.00893   0.00884  -0.18767
    D9       -0.13323   0.00175   0.00000   0.00237   0.00231  -0.13091
   D10       -3.04818  -0.00425   0.00000  -0.01066  -0.01060  -3.05878
   D11       -0.00388   0.00119   0.00000   0.00375   0.00370  -0.00018
   D12        3.11762   0.00203   0.00000   0.00387   0.00382   3.12144
   D13       -3.02603  -0.00265   0.00000  -0.00682  -0.00677  -3.03280
   D14        0.09547  -0.00181   0.00000  -0.00671  -0.00666   0.08881
   D15        0.00006  -0.00065   0.00000  -0.00237  -0.00236  -0.00230
   D16       -3.12486  -0.00112   0.00000  -0.00217  -0.00216  -3.12701
   D17       -0.17484  -0.00197   0.00000   0.00000  -0.00000  -0.17485
   D18        2.92267   0.00034   0.00000   0.00428   0.00428   2.92695
   D19        2.94525  -0.00118   0.00000  -0.00002  -0.00002   2.94523
   D20       -0.24043   0.00113   0.00000   0.00426   0.00427  -0.23616
   D21        0.00376   0.00001   0.00000   0.00047   0.00045   0.00421
   D22        3.12751   0.00162   0.00000   0.00415   0.00408   3.13159
   D23        3.13736   0.00108   0.00000   0.00222   0.00222   3.13958
   D24        0.03245  -0.00067   0.00000  -0.00114  -0.00117   0.03128
   D25       -3.13867  -0.00197   0.00000  -0.00423  -0.00421   3.14031
   D26       -0.15765   0.00195   0.00000   0.00751   0.00751  -0.15014
   D27       -0.03677  -0.00012   0.00000  -0.00066  -0.00061  -0.03738
   D28        2.94424   0.00379   0.00000   0.01108   0.01111   2.95536
   D29       -0.02051   0.00164   0.00000   0.00306   0.00304  -0.01747
   D30       -2.61623  -0.00711   0.00000  -0.01911  -0.01913  -2.63536
   D31        0.00253  -0.00163   0.00000  -0.00363  -0.00360  -0.00107
   D32       -2.68907  -0.01045   0.00000  -0.02428  -0.02405  -2.71312
   D33        2.68657   0.00751   0.00000   0.01841   0.01827   2.70484
   D34       -0.00504  -0.00132   0.00000  -0.00224  -0.00218  -0.00722
   D35        2.61410   0.00601   0.00000   0.01995   0.02011   2.63421
   D36       -0.24566  -0.00066   0.00000  -0.00035  -0.00028  -0.24594
   D37        0.01972   0.00122   0.00000   0.00219   0.00216   0.02188
   D38       -2.84004  -0.00545   0.00000  -0.01812  -0.01823  -2.85827
   D39        0.02269   0.00113   0.00000   0.00272   0.00269   0.02538
   D40       -2.95968  -0.00210   0.00000  -0.00790  -0.00798  -2.96766
   D41        2.62819   0.00464   0.00000   0.01769   0.01785   2.64604
   D42       -0.35418   0.00141   0.00000   0.00707   0.00718  -0.34700
   D43       -0.00847   0.00108   0.00000   0.00152   0.00149  -0.00699
   D44       -2.61415  -0.00760   0.00000  -0.01920  -0.01916  -2.63331
   D45        0.01980  -0.00028   0.00000  -0.00018  -0.00018   0.01962
   D46        2.97152   0.00594   0.00000   0.01738   0.01730   2.98882
   D47       -0.02601  -0.00039   0.00000  -0.00101  -0.00097  -0.02698
   D48        2.83853   0.00681   0.00000   0.02004   0.02007   2.85861
   D49       -2.97371  -0.00557   0.00000  -0.01703  -0.01708  -2.99078
   D50       -0.10916   0.00163   0.00000   0.00402   0.00397  -0.10519
         Item               Value     Threshold  Converged?
 Maximum Force            0.115031     0.000450     NO 
 RMS     Force            0.022752     0.000300     NO 
 Maximum Displacement     0.415178     0.001800     NO 
 RMS     Displacement     0.060619     0.001200     NO 
 Predicted change in Energy=-5.972092D-02
 GradGradGradGradGradGradGradGradGradGradGradGradGradGradGradGradGradGrad

                          Input orientation:                          
 ---------------------------------------------------------------------
 Center     Atomic      Atomic             Coordinates (Angstroms)
 Number     Number       Type             X           Y           Z
 ---------------------------------------------------------------------
      1          6           0       -4.225554   -1.365639   -0.227672
      2          6           0       -2.912813   -0.963763   -0.619643
      3          6           0       -1.982096   -2.045905   -0.617485
      4          6           0       -4.341626   -2.731869    0.084204
      5         16           0       -2.822493   -3.539541   -0.112951
      6          1           0       -5.247041   -3.232275    0.392362
      7          6           0       -0.578077   -2.119502   -0.956212
      8         16           0        0.265455   -0.761497   -1.745867
      9          6           0        1.768807   -1.619611   -1.778911
     10          6           0        1.653342   -2.909777   -1.182095
     11          6           0        0.341461   -3.189926   -0.700757
     12          1           0        0.104893   -4.045386   -0.085597
     13         16           0        3.178447   -3.485465   -0.592420
     14          6           0        3.990059   -2.026645   -1.141416
     15          6           0        3.095937   -1.105706   -1.743208
     16          1           0        5.016306   -1.808945   -0.882771
     17          1           0        3.353104   -0.065272   -1.906569
     18          1           0       -2.830073    0.172991   -0.971994
     19          8           0       -5.515741   -0.413462   -0.403539
     20          1           0       -5.540297    0.722194   -0.738458
 ---------------------------------------------------------------------
                    Distance matrix (angstroms):
                    1          2          3          4          5
     1  C    0.000000
     2  C    1.427737   0.000000
     3  C    2.376513   1.427329   0.000000
     4  C    1.406173   2.379728   2.555444   0.000000
     5  S    2.589901   2.626696   1.786553   1.731753   0.000000
     6  H    2.216350   3.408654   3.617614   1.079419   2.495634
     7  C    3.795151   2.626786   1.446176   3.952438   2.786576
     8  S    4.779023   3.377970   2.823905   5.334485   4.463113
     9  C    6.197032   4.867403   3.949673   6.484267   5.248009
    10  C    6.152780   4.995308   3.779084   6.129830   4.644650
    11  C    4.940592   3.943689   2.591262   4.770460   3.237029
    12  H    5.094506   4.346051   2.938768   4.639579   2.970895
    13  S    7.710118   6.592660   5.357627   7.587966   6.020307
    14  C    8.292656   7.003685   5.995124   8.450826   7.053897
    15  C    7.481219   6.114542   5.285608   7.829507   6.603720
    16  H    9.275648   7.978377   7.007436   9.452921   8.064389
    17  H    7.870559   6.459504   5.835153   8.383483   7.309283
    18  H    2.206528   1.192982   2.401715   3.440720   3.810631
    19  O    1.613120   2.669226   3.898370   2.644135   4.136472
    20  H    2.519623   3.124138   4.509745   3.747550   5.093143
                    6          7          8          9         10
     6  H    0.000000
     7  C    4.985594   0.000000
     8  S    6.408150   1.783054   0.000000
     9  C    7.519126   2.536650   1.731335   0.000000
    10  C    7.085070   2.377980   2.619003   1.426201   0.000000
    11  C    5.694564   1.434089   2.644863   2.380257   1.425202
    12  H    5.434408   2.221136   3.683233   3.394159   2.211247
    13  S    8.486622   4.013685   4.151621   2.622262   1.733516
    14  C    9.440871   4.572831   3.979778   2.346494   2.498364
    15  C    8.870640   3.891725   2.851335   1.423603   2.377099
    16  H   10.439738   5.603477   4.940918   3.374191   3.551190
    17  H    9.448677   4.536213   3.169247   2.223120   3.391941
    18  H    4.393067   3.213606   3.324822   5.001423   5.445054
    19  O    2.941321   5.253242   5.945183   7.510732   7.631087
    20  H    4.123418   5.722437   6.076428   7.745296   8.070717
                   11         12         13         14         15
    11  C    0.000000
    12  H    1.079907   0.000000
    13  S    2.854395   3.164983   0.000000
    14  C    3.854824   4.503841   1.757346   0.000000
    15  C    3.608021   4.509517   2.644688   1.417651   0.000000
    16  H    4.877952   5.455193   2.504545   1.080497   2.218719
    17  H    4.504158   5.450517   3.668135   2.199581   1.084124
    18  H    4.630486   5.214828   7.044905   7.168075   6.111254
    19  O    6.488752   6.699514   9.222894   9.669904   8.742706
    20  H    7.064077   7.417831   9.682057   9.927043   8.884553
                   16         17         18         19         20
    16  H    0.000000
    17  H    2.618168   0.000000
    18  H    8.093312   6.257945   0.000000
    19  O   10.634898   9.002042   2.807113   0.000000
    20  H   10.856766   9.004287   2.775154   1.184267   0.000000
 Stoichiometry    C10H6OS3
 Framework group  C1[X(C10H6OS3)]
 Deg. of freedom    54
 Full point group                 C1      NOp   1
 Largest Abelian subgroup         C1      NOp   1
 Largest concise Abelian subgroup C1      NOp   1
                         Standard orientation:                         
 ---------------------------------------------------------------------
 Center     Atomic      Atomic             Coordinates (Angstroms)
 Number     Number       Type             X           Y           Z
 ---------------------------------------------------------------------
      1          6           0       -3.840492    0.329883    0.265947
      2          6           0       -2.530324    0.896351    0.234203
      3          6           0       -1.515409   -0.077064   -0.010095
      4          6           0       -3.873161   -1.060314    0.057126
      5         16           0       -2.276400   -1.683387   -0.190067
      6          1           0       -4.761798   -1.672687    0.035479
      7          6           0       -0.079726    0.030598   -0.146653
      8         16           0        0.730739    1.613401   -0.277646
      9          6           0        2.296474    0.883558   -0.393069
     10          6           0        2.223277   -0.538426   -0.311504
     11          6           0        0.892476   -1.023622   -0.154165
     12          1           0        0.659193   -2.051750    0.079783
     13         16           0        3.710446   -1.228658    0.251510
     14          6           0        4.451406    0.360131    0.373957
     15          6           0        3.559326    1.400844    0.012229
     16          1           0        5.415768    0.509394    0.837854
     17          1           0        3.742119    2.439318    0.264187
     18          1           0       -2.505593    2.085982    0.320067
     19          8           0       -5.178439    1.230914    0.251991
     20          1           0       -5.261813    2.409099    0.338107
 ---------------------------------------------------------------------
 Rotational constants (GHZ):           1.4065466           0.2349649           0.2036716
 Standard basis: 6-311+G(d,p) (5D, 7F)
 There are   382 symmetry adapted cartesian basis functions of A   symmetry.
 There are   368 symmetry adapted basis functions of A   symmetry.
   368 basis functions,   594 primitive gaussians,   382 cartesian basis functions
    61 alpha electrons       61 beta electrons
       nuclear repulsion energy      1087.2621708511 Hartrees.
 NAtoms=   20 NActive=   20 NUniq=   20 SFac= 1.00D+00 NAtFMM=   60 NAOKFM=F Big=F
 Integral buffers will be    131072 words long.
 Raffenetti 2 integral format.
 Two-electron integral symmetry is turned on.
 One-electron integrals computed using PRISM.
 NBasis=   368 RedAO= T EigKep=  2.48D-06  NBF=   368
 NBsUse=   367 1.00D-06 EigRej=  3.75D-07 NBFU=   367
 Initial guess from the checkpoint file:  "/tmp/pbs.4730634[165].pbs/Gau-1306375.chk"
 B after Tr=     0.000000    0.000000    0.000000
         Rot=    0.999996   -0.000748   -0.000499    0.002606 Ang=  -0.32 deg.
 ExpMin= 4.05D-02 ExpMax= 9.34D+04 ExpMxC= 3.17D+03 IAcc=3 IRadAn=         5 AccDes= 0.00D+00
 Harris functional with IExCor=  402 and IRadAn=       5 diagonalized for initial guess.
 HarFok:  IExCor=  402 AccDes= 0.00D+00 IRadAn=         5 IDoV= 1 UseB2=F ITyADJ=14
 ICtDFT=  3500011 ScaDFX=  1.000000  1.000000  1.000000  1.000000
 FoFCou: FMM=F IPFlag=           0 FMFlag=      100000 FMFlg1=           0
         NFxFlg=           0 DoJE=T BraDBF=F KetDBF=T FulRan=T
         wScrn=  0.000000 ICntrl=       500 IOpCl=  0 I1Cent=   200000004 NGrid=           0
         NMat0=    1 NMatS0=      1 NMatT0=    0 NMatD0=    1 NMtDS0=    0 NMtDT0=    0
 Petite list used in FoFCou.
 Requested convergence on RMS density matrix=1.00D-08 within 128 cycles.
 Requested convergence on MAX density matrix=1.00D-06.
 Requested convergence on             energy=1.00D-06.
 No special actions if energy rises.
 SCF Done:  E(RB3LYP) =  -1654.52898653     A.U. after   14 cycles
            NFock= 14  Conv=0.61D-08     -V/T= 2.0029
 Calling FoFJK, ICntrl=      2127 FMM=F ISym2X=0 I1Cent= 0 IOpClX= 0 NMat=1 NMatS=1 NMatT=0.
 ***** Axes restored to original set *****
 -------------------------------------------------------------------
 Center     Atomic                   Forces (Hartrees/Bohr)
 Number     Number              X              Y              Z
 -------------------------------------------------------------------
      1        6          -0.032844923    0.025252114   -0.020628248
      2        6           0.001612840    0.025157818   -0.013974317
      3        6          -0.024396457    0.018126909    0.000681809
      4        6          -0.010667743    0.042513321   -0.004947387
      5       16           0.000661038    0.015641419   -0.001386743
      6        1           0.002591211   -0.003190960   -0.000767523
      7        6           0.027439511   -0.022686363    0.006246481
      8       16          -0.012274217   -0.006401429   -0.004059205
      9        6           0.011203035   -0.015103925    0.020370787
     10        6          -0.017451222    0.024569499    0.003066416
     11        6          -0.017950926    0.031179755   -0.010873869
     12        1          -0.003406556   -0.001952234   -0.002232269
     13       16           0.010808240    0.003172178   -0.008247352
     14        6          -0.029689120    0.027800821   -0.014508757
     15        6           0.020554322   -0.025427521    0.023451757
     16        1           0.001094890   -0.006082544   -0.002902017
     17        1           0.002256935   -0.003747824   -0.006858068
     18        1           0.010851944   -0.054804891    0.015418291
     19        8           0.031785306    0.029883284   -0.007770616
     20        1           0.027821892   -0.103899427    0.029920829
 -------------------------------------------------------------------
 Cartesian Forces:  Max     0.103899427 RMS     0.023209153

 GradGradGradGradGradGradGradGradGradGradGradGradGradGradGradGradGradGrad
 Berny optimization.
 Using GEDIIS/GDIIS optimizer.
 FormGI is forming the generalized inverse of G from B-inverse, IUseBI=4.
 Internal  Forces:  Max     0.108673221 RMS     0.018780124
 Search for a local minimum.
 Step number   2 out of a maximum of  116
 All quantities printed in internal units (Hartrees-Bohrs-Radians)
 Mixed Optimization -- RFO/linear search
 Update second derivatives using D2CorX and points    1    2
 DE= -6.47D-02 DEPred=-5.97D-02 R= 1.08D+00
 TightC=F SS=  1.41D+00  RLast= 3.08D-01 DXNew= 5.0454D-01 9.2311D-01
 Trust test= 1.08D+00 RLast= 3.08D-01 DXMaxT set to 5.05D-01
 ITU=  1  0
 Use linear search instead of GDIIS.
 Linear search step of   0.600 exceeds DXMaxT=   0.505 but not scaled.
 Quartic linear search produced a step of  2.00000.
 Iteration  1 RMS(Cart)=  0.10402866 RMS(Int)=  0.01880030
 Iteration  2 RMS(Cart)=  0.02187110 RMS(Int)=  0.00043100
 Iteration  3 RMS(Cart)=  0.00007772 RMS(Int)=  0.00042998
 Iteration  4 RMS(Cart)=  0.00000001 RMS(Int)=  0.00042998
 Iteration  1 RMS(Cart)=  0.00000590 RMS(Int)=  0.00000316
 Iteration  2 RMS(Cart)=  0.00000321 RMS(Int)=  0.00000353
 Iteration  3 RMS(Cart)=  0.00000175 RMS(Int)=  0.00000399
 Iteration  4 RMS(Cart)=  0.00000095 RMS(Int)=  0.00000429
 Variable       Old X    -DE/DX   Delta X   Delta X   Delta X     New X
                                 (Linear)    (Quad)   (Total)
    R1        2.69803  -0.01211  -0.04228   0.00000  -0.04179   2.65624
    R2        2.65728  -0.04238  -0.11326   0.00000  -0.11300   2.54428
    R3        3.04835  -0.09378  -0.29336   0.00000  -0.29336   2.75499
    R4        2.69726  -0.04347  -0.12361   0.00000  -0.12346   2.57380
    R5        2.25441  -0.05602  -0.19246   0.00000  -0.19246   2.06195
    R6        3.37610  -0.01276  -0.03937   0.00000  -0.03976   3.33634
    R7        2.73288  -0.00828  -0.03332   0.00000  -0.03332   2.69956
    R8        3.27254  -0.00643  -0.02834   0.00000  -0.02865   3.24389
    R9        2.03981  -0.00091  -0.00185   0.00000  -0.00185   2.03796
   R10        3.36948  -0.00812  -0.02675   0.00000  -0.02705   3.34244
   R11        2.71004  -0.04231  -0.11434   0.00000  -0.11447   2.59557
   R12        3.27175   0.00260   0.00314   0.00000   0.00315   3.27490
   R13        2.69513  -0.02131  -0.05614   0.00000  -0.05552   2.63961
   R14        2.69022  -0.00071  -0.00672   0.00000  -0.00640   2.68382
   R15        2.69324  -0.00716  -0.02608   0.00000  -0.02588   2.66736
   R16        3.27587   0.00307   0.00527   0.00000   0.00520   3.28107
   R17        2.04073   0.00102   0.00271   0.00000   0.00271   2.04344
   R18        3.32090  -0.00796  -0.02599   0.00000  -0.02638   3.29452
   R19        2.67897  -0.04033  -0.10672   0.00000  -0.10681   2.57216
   R20        2.04184  -0.00088  -0.00281   0.00000  -0.00281   2.03903
   R21        2.04870  -0.00203  -0.00667   0.00000  -0.00667   2.04203
   R22        2.23794  -0.10867  -0.32298   0.00000  -0.32298   1.91496
    A1        1.99355   0.01130   0.04669   0.00000   0.04737   2.04091
    A2        2.14041   0.00639   0.01563   0.00000   0.01534   2.15575
    A3        2.13136  -0.01706  -0.05885   0.00000  -0.05943   2.07193
    A4        1.96679  -0.00114  -0.01016   0.00000  -0.00954   1.95725
    A5        1.99662   0.01702   0.06655   0.00000   0.06624   2.06285
    A6        2.31535  -0.01570  -0.05506   0.00000  -0.05546   2.25989
    A7        1.90450   0.00104   0.00021   0.00000   0.00006   1.90456
    A8        2.30675  -0.00817  -0.02434   0.00000  -0.02426   2.28249
    A9        2.07178   0.00713   0.02412   0.00000   0.02420   2.09598
   A10        1.93423  -0.00790  -0.03833   0.00000  -0.03832   1.89591
   A11        2.19318   0.00802   0.03476   0.00000   0.03474   2.22793
   A12        2.15568  -0.00011   0.00367   0.00000   0.00364   2.15932
   A13        1.62570  -0.00330   0.00161   0.00000   0.00042   1.62612
   A14        2.12264  -0.00467  -0.01251   0.00000  -0.01254   2.11011
   A15        2.23798  -0.00084  -0.00542   0.00000  -0.00545   2.23253
   A16        1.92200   0.00557   0.01817   0.00000   0.01820   1.94020
   A17        1.61256  -0.00497  -0.01352   0.00000  -0.01340   1.59916
   A18        1.94989  -0.00716  -0.02204   0.00000  -0.02268   1.92721
   A19        2.25245   0.00668   0.02787   0.00000   0.02687   2.27931
   A20        1.97310   0.00377   0.01369   0.00000   0.01396   1.98706
   A21        1.97542   0.00483   0.01751   0.00000   0.01760   1.99301
   A22        1.95146  -0.00875  -0.02904   0.00000  -0.02944   1.92202
   A23        2.25191   0.00698   0.02899   0.00000   0.02813   2.28004
   A24        1.96420   0.00175  -0.00009   0.00000   0.00029   1.96449
   A25        2.15590  -0.00277  -0.00804   0.00000  -0.00839   2.14751
   A26        2.15286   0.00150   0.01134   0.00000   0.01096   2.16382
   A27        1.59517  -0.00073   0.00315   0.00000   0.00308   1.59825
   A28        1.96124   0.00203   0.00210   0.00000   0.00194   1.96318
   A29        2.13072  -0.00485  -0.01298   0.00000  -0.01335   2.11738
   A30        2.17702   0.00372   0.01662   0.00000   0.01635   2.19337
   A31        1.94347   0.00368   0.01006   0.00000   0.01041   1.95387
   A32        2.16977  -0.00019   0.00616   0.00000   0.00539   2.17517
   A33        2.13862  -0.00188  -0.00557   0.00000  -0.00639   2.13223
   A34        2.23123  -0.05718  -0.21661   0.00000  -0.21661   2.01462
    D1        0.00343  -0.00077  -0.00680   0.00000  -0.00690  -0.00347
    D2        3.05709   0.00015   0.00240   0.00000   0.00340   3.06050
    D3       -2.93988  -0.00226  -0.01842   0.00000  -0.01971  -2.95959
    D4        0.11378  -0.00134  -0.00921   0.00000  -0.00940   0.10437
    D5       -0.00513   0.00042   0.00316   0.00000   0.00322  -0.00191
    D6       -3.13214  -0.00088  -0.00388   0.00000  -0.00376  -3.13589
    D7        2.93934   0.00486   0.02473   0.00000   0.02413   2.96347
    D8       -0.18767   0.00356   0.01768   0.00000   0.01715  -0.17052
    D9       -0.13091   0.00134   0.00463   0.00000   0.00429  -0.12662
   D10       -3.05878  -0.00370  -0.02120   0.00000  -0.02086  -3.07965
   D11       -0.00018   0.00080   0.00740   0.00000   0.00709   0.00691
   D12        3.12144   0.00171   0.00764   0.00000   0.00733   3.12877
   D13       -3.03280  -0.00277  -0.01355   0.00000  -0.01321  -3.04601
   D14        0.08881  -0.00186  -0.01332   0.00000  -0.01297   0.07585
   D15       -0.00230  -0.00047  -0.00472   0.00000  -0.00462  -0.00692
   D16       -3.12701  -0.00105  -0.00432   0.00000  -0.00422  -3.13124
   D17       -0.17485  -0.00199  -0.00000   0.00000  -0.00000  -0.17485
   D18        2.92695   0.00028   0.00857   0.00000   0.00861   2.93556
   D19        2.94523  -0.00109  -0.00003   0.00000  -0.00003   2.94520
   D20       -0.23616   0.00118   0.00854   0.00000   0.00858  -0.22758
   D21        0.00421   0.00002   0.00090   0.00000   0.00075   0.00496
   D22        3.13159   0.00137   0.00815   0.00000   0.00772   3.13931
   D23        3.13958   0.00101   0.00443   0.00000   0.00444  -3.13916
   D24        0.03128  -0.00079  -0.00234   0.00000  -0.00247   0.02881
   D25        3.14031  -0.00165  -0.00843   0.00000  -0.00832   3.13199
   D26       -0.15014   0.00199   0.01503   0.00000   0.01502  -0.13512
   D27       -0.03738   0.00023  -0.00122   0.00000  -0.00092  -0.03830
   D28        2.95536   0.00387   0.02223   0.00000   0.02242   2.97778
   D29       -0.01747   0.00139   0.00607   0.00000   0.00594  -0.01153
   D30       -2.63536  -0.00639  -0.03825   0.00000  -0.03835  -2.67371
   D31       -0.00107  -0.00125  -0.00720   0.00000  -0.00699  -0.00806
   D32       -2.71312  -0.00902  -0.04810   0.00000  -0.04672  -2.75985
   D33        2.70484   0.00680   0.03655   0.00000   0.03571   2.74055
   D34       -0.00722  -0.00097  -0.00436   0.00000  -0.00402  -0.01124
   D35        2.63421   0.00605   0.04022   0.00000   0.04114   2.67535
   D36       -0.24594  -0.00032  -0.00056   0.00000  -0.00015  -0.24609
   D37        0.02188   0.00079   0.00432   0.00000   0.00415   0.02603
   D38       -2.85827  -0.00559  -0.03647   0.00000  -0.03714  -2.89541
   D39        0.02538   0.00068   0.00538   0.00000   0.00523   0.03060
   D40       -2.96766  -0.00253  -0.01597   0.00000  -0.01644  -2.98410
   D41        2.64604   0.00516   0.03571   0.00000   0.03665   2.68269
   D42       -0.34700   0.00195   0.01436   0.00000   0.01498  -0.33202
   D43       -0.00699   0.00090   0.00298   0.00000   0.00280  -0.00418
   D44       -2.63331  -0.00668  -0.03832   0.00000  -0.03809  -2.67140
   D45        0.01962  -0.00038  -0.00036   0.00000  -0.00037   0.01925
   D46        2.98882   0.00545   0.03459   0.00000   0.03406   3.02288
   D47       -0.02698  -0.00008  -0.00195   0.00000  -0.00177  -0.02875
   D48        2.85861   0.00644   0.04015   0.00000   0.04032   2.89893
   D49       -2.99078  -0.00509  -0.03415   0.00000  -0.03442  -3.02521
   D50       -0.10519   0.00143   0.00794   0.00000   0.00766  -0.09753
         Item               Value     Threshold  Converged?
 Maximum Force            0.108673     0.000450     NO 
 RMS     Force            0.018867     0.000300     NO 
 Maximum Displacement     0.742837     0.001800     NO 
 RMS     Displacement     0.117697     0.001200     NO 
 Predicted change in Energy=-9.528459D-02
 GradGradGradGradGradGradGradGradGradGradGradGradGradGradGradGradGradGrad

                          Input orientation:                          
 ---------------------------------------------------------------------
 Center     Atomic      Atomic             Coordinates (Angstroms)
 Number     Number       Type             X           Y           Z
 ---------------------------------------------------------------------
      1          6           0       -4.173350   -1.371595   -0.263712
      2          6           0       -2.874268   -0.988044   -0.639272
      3          6           0       -2.002584   -2.034251   -0.613845
      4          6           0       -4.359951   -2.667556    0.049957
      5         16           0       -2.864861   -3.493651   -0.120219
      6          1           0       -5.277328   -3.146363    0.353602
      7          6           0       -0.610859   -2.096992   -0.929916
      8         16           0        0.207173   -0.733173   -1.704039
      9          6           0        1.716291   -1.584954   -1.722247
     10          6           0        1.570782   -2.846767   -1.141070
     11          6           0        0.266597   -3.123045   -0.677255
     12          1           0        0.007886   -3.986496   -0.079913
     13         16           0        3.111729   -3.436924   -0.600871
     14          6           0        3.915353   -1.996727   -1.166045
     15          6           0        3.051213   -1.100225   -1.715793
     16          1           0        4.958908   -1.818339   -0.957636
     17          1           0        3.333630   -0.076251   -1.914289
     18          1           0       -2.715873    0.039049   -0.971792
     19          8           0       -5.341283   -0.511873   -0.412793
     20          1           0       -5.147205    0.439177   -0.703854
 ---------------------------------------------------------------------
                    Distance matrix (angstroms):
                    1          2          3          4          5
     1  C    0.000000
     2  C    1.405621   0.000000
     3  C    2.296504   1.361995   0.000000
     4  C    1.346374   2.345859   2.529602   0.000000
     5  S    2.497170   2.558823   1.765513   1.716592   0.000000
     6  H    2.179368   3.379177   3.591196   1.078441   2.482964
     7  C    3.696129   2.537176   1.428544   3.916809   2.772506
     8  S    4.655223   3.270163   2.786459   5.260890   4.423360
     9  C    6.071303   4.754195   3.906464   6.421328   5.215033
    10  C    5.995076   4.844081   3.702309   6.051798   4.597339
    11  C    4.790795   3.797987   2.517672   4.705449   3.202134
    12  H    4.935000   4.196476   2.852777   4.564480   2.914995
    13  S    7.579686   6.467662   5.303194   7.539331   5.996155
    14  C    8.162849   6.884322   5.943762   8.391027   7.021811
    15  C    7.374042   6.023522   5.256193   7.778159   6.578318
    16  H    9.169473   7.883489   6.973320   9.411565   8.044830
    17  H    7.794681   6.402736   5.830960   8.352503   7.301958
    18  H    2.148379   1.091136   2.221594   3.327562   3.636941
    19  O    1.457880   2.522735   3.674910   2.413321   3.887064
    20  H    2.102621   2.684655   4.001823   3.292384   4.584416
                    6          7          8          9         10
     6  H    0.000000
     7  C    4.952225   0.000000
     8  S    6.335386   1.768741   0.000000
     9  C    7.460419   2.511095   1.733004   0.000000
    10  C    7.015726   2.316528   2.577527   1.396822   0.000000
    11  C    5.638999   1.373517   2.601789   2.357826   1.411507
    12  H    5.369101   2.162308   3.641649   3.373916   2.206281
    13  S    8.448179   3.970056   4.118701   2.575757   1.736266
    14  C    9.388097   4.533475   3.954315   2.305383   2.494034
    15  C    8.822339   3.875812   2.867653   1.420218   2.360591
    16  H   10.404975   5.576802   4.930892   3.339710   3.545520
    17  H    9.418997   4.539975   3.201638   2.220101   3.373612
    18  H    4.297041   2.999252   3.110741   4.779608   5.170300
    19  O    2.744446   5.015669   5.701022   7.257791   7.332036
    20  H    3.740487   5.202086   5.571727   7.227850   7.491324
                   11         12         13         14         15
    11  C    0.000000
    12  H    1.081340   0.000000
    13  S    2.863413   3.194881   0.000000
    14  C    3.849796   4.517428   1.743387   0.000000
    15  C    3.595059   4.502055   2.589763   1.361130   0.000000
    16  H    4.878387   5.475757   2.481766   1.079011   2.174808
    17  H    4.496654   5.451194   3.615028   2.141611   1.080593
    18  H    4.356686   4.941591   6.795654   6.939400   5.925434
    19  O    6.191645   6.387286   8.946771   9.405184   8.513399
    20  H    6.480693   6.822819   9.123857   9.395595   8.402848
                   16         17         18         19         20
    16  H    0.000000
    17  H    2.567408   0.000000
    18  H    7.896351   6.123567   0.000000
    19  O   10.397002   8.814667   2.740214   0.000000
    20  H   10.358297   8.582271   2.478562   1.013351   0.000000
 Stoichiometry    C10H6OS3
 Framework group  C1[X(C10H6OS3)]
 Deg. of freedom    54
 Full point group                 C1      NOp   1
 Largest Abelian subgroup         C1      NOp   1
 Largest concise Abelian subgroup C1      NOp   1
                         Standard orientation:                         
 ---------------------------------------------------------------------
 Center     Atomic      Atomic             Coordinates (Angstroms)
 Number     Number       Type             X           Y           Z
 ---------------------------------------------------------------------
      1          6           0       -3.753763    0.365183    0.243927
      2          6           0       -2.451635    0.893648    0.212984
      3          6           0       -1.512567   -0.067749   -0.008141
      4          6           0       -3.878076   -0.961862    0.053609
      5         16           0       -2.315013   -1.630505   -0.183958
      6          1           0       -4.786475   -1.542901    0.038105
      7          6           0       -0.092075    0.025442   -0.127543
      8         16           0        0.707835    1.598116   -0.251170
      9          6           0        2.268313    0.851514   -0.355072
     10          6           0        2.149653   -0.538231   -0.279962
     11          6           0        0.823633   -0.998287   -0.130394
     12          1           0        0.560733   -2.025135    0.083529
[...]
 Stoichiometry    C10H6OS3
 Framework group  C1[X(C10H6OS3)]
 Deg. of freedom    54
 Full point group                 C1      NOp   1
 Largest Abelian subgroup         C1      NOp   1
 Largest concise Abelian subgroup C1      NOp   1
                         Standard orientation:                         
 ---------------------------------------------------------------------
 Center     Atomic      Atomic             Coordinates (Angstroms)
 Number     Number       Type             X           Y           Z
 ---------------------------------------------------------------------
      1          6           0       -3.827852    0.419401    0.080430
      2          6           0       -2.485334    0.894685    0.115683
      3          6           0       -1.551290   -0.110164    0.004957
      4          6           0       -3.919072   -0.936819   -0.057780
      5         16           0       -2.346063   -1.661456   -0.159948
      6          1           0       -4.811005   -1.540014   -0.105374
      7          6           0       -0.107966   -0.004445   -0.007628
      8         16           0        0.660454    1.587475   -0.136046
      9          6           0        2.246103    0.868017   -0.057986
     10          6           0        2.152734   -0.513547    0.049205
     11          6           0        0.825370   -1.011145    0.082973
     12          1           0        0.561699   -2.055276    0.182397
     13         16           0        3.739762   -1.231417    0.126848
     14          6           0        4.484673    0.346523    0.011013
     15          6           0        3.578643    1.364762   -0.080559
     16          1           0        5.561440    0.419330    0.017310
     17          1           0        3.855432    2.406767   -0.159727
     18          1           0       -2.223973    1.939145    0.236346
     19          8           0       -4.938835    1.210062    0.180025
     20          1           0       -4.675420    2.132309    0.253340
 ---------------------------------------------------------------------
 Rotational constants (GHZ):           1.5062626           0.2395377           0.2072037

 **********************************************************************

            Population analysis using the SCF Density.

 **********************************************************************

 Orbital symmetries:
       Occupied  (A) (A) (A) (A) (A) (A) (A) (A) (A) (A) (A) (A)
                 (A) (A) (A) (A) (A) (A) (A) (A) (A) (A) (A) (A)
                 (A) (A) (A) (A) (A) (A) (A) (A) (A) (A) (A) (A)
                 (A) (A) (A) (A) (A) (A) (A) (A) (A) (A) (A) (A)
                 (A) (A) (A) (A) (A) (A) (A) (A) (A) (A) (A) (A)
                 (A)
       Virtual   (A) (A) (A) (A) (A) (A) (A) (A) (A) (A) (A) (A)
                 (A) (A) (A) (A) (A) (A) (A) (A) (A) (A) (A) (A)
                 (A) (A) (A) (A) (A) (A) (A) (A) (A) (A) (A) (A)
                 (A) (A) (A) (A) (A) (A) (A) (A) (A) (A) (A) (A)
                 (A) (A) (A) (A) (A) (A) (A) (A) (A) (A) (A) (A)
                 (A) (A) (A) (A) (A) (A) (A) (A) (A) (A) (A) (A)
                 (A) (A) (A) (A) (A) (A) (A) (A) (A) (A) (A) (A)
                 (A) (A) (A) (A) (A) (A) (A) (A) (A) (A) (A) (A)
                 (A) (A) (A) (A) (A) (A) (A) (A) (A) (A) (A) (A)
                 (A) (A) (A) (A) (A) (A) (A) (A) (A) (A) (A) (A)
                 (A) (A) (A) (A) (A) (A) (A) (A) (A) (A) (A) (A)
                 (A) (A) (A) (A) (A) (A) (A) (A) (A) (A) (A) (A)
                 (A) (A) (A) (A) (A) (A) (A) (A) (A) (A) (A) (A)
                 (A) (A) (A) (A) (A) (A) (A) (A) (A) (A) (A) (A)
                 (A) (A) (A) (A) (A) (A) (A) (A) (A) (A) (A) (A)
                 (A) (A) (A) (A) (A) (A) (A) (A) (A) (A) (A) (A)
                 (A) (A) (A) (A) (A) (A) (A) (A) (A) (A) (A) (A)
                 (A) (A) (A) (A) (A) (A) (A) (A) (A) (A) (A) (A)
                 (A) (A) (A) (A) (A) (A) (A) (A) (A) (A) (A) (A)
                 (A) (A) (A) (A) (A) (A) (A) (A) (A) (A) (A) (A)
                 (A) (A) (A) (A) (A) (A) (A) (A) (A) (A) (A) (A)
                 (A) (A) (A) (A) (A) (A) (A) (A) (A) (A) (A) (A)
                 (A) (A) (A) (A) (A) (A) (A) (A) (A) (A) (A) (A)
                 (A) (A) (A) (A) (A) (A) (A) (A) (A) (A) (A) (A)
                 (A) (A) (A) (A) (A) (A) (A) (A) (A) (A) (A) (A)
                 (A) (A) (A) (A) (A)
 The electronic state is 1-A.
 Alpha  occ. eigenvalues --  -88.88825 -88.88819 -88.88553 -19.16576 -10.24684
 Alpha  occ. eigenvalues --  -10.23043 -10.22881 -10.21644 -10.21586 -10.21405
 Alpha  occ. eigenvalues --  -10.19784 -10.19776 -10.19736 -10.19126  -7.97409
 Alpha  occ. eigenvalues --   -7.97392  -7.97153  -5.93736  -5.93704  -5.93466
 Alpha  occ. eigenvalues --   -5.93375  -5.93339  -5.93089  -5.92940  -5.92922
 Alpha  occ. eigenvalues --   -5.92708  -1.07588  -0.92182  -0.89512  -0.85365
 Alpha  occ. eigenvalues --   -0.77739  -0.76546  -0.74601  -0.71805  -0.70669
 Alpha  occ. eigenvalues --   -0.63360  -0.58954  -0.58067  -0.55822  -0.54847
 Alpha  occ. eigenvalues --   -0.53255  -0.50235  -0.48570  -0.44319  -0.43822
 Alpha  occ. eigenvalues --   -0.43316  -0.42027  -0.41904  -0.40157  -0.39839
 Alpha  occ. eigenvalues --   -0.38032  -0.37657  -0.37393  -0.35636  -0.34544
 Alpha  occ. eigenvalues --   -0.33946  -0.29635  -0.27186  -0.24518  -0.24190
 Alpha  occ. eigenvalues --   -0.20591
 Alpha virt. eigenvalues --   -0.06969  -0.01721  -0.01559  -0.00930  -0.00541
 Alpha virt. eigenvalues --    0.00784   0.01065   0.01675   0.01813   0.02207
 Alpha virt. eigenvalues --    0.02987   0.03262   0.04024   0.04124   0.04418
 Alpha virt. eigenvalues --    0.05081   0.05418   0.05727   0.06477   0.06894
 Alpha virt. eigenvalues --    0.07473   0.07864   0.07933   0.08709   0.09196
 Alpha virt. eigenvalues --    0.09515   0.09911   0.11050   0.11436   0.11598
 Alpha virt. eigenvalues --    0.12009   0.12168   0.12405   0.12965   0.13417
 Alpha virt. eigenvalues --    0.13772   0.14648   0.15089   0.15941   0.15982
 Alpha virt. eigenvalues --    0.16499   0.16645   0.17067   0.17553   0.17665
 Alpha virt. eigenvalues --    0.18271   0.18471   0.18955   0.19524   0.19728
 Alpha virt. eigenvalues --    0.20073   0.20246   0.20679   0.21329   0.21813
 Alpha virt. eigenvalues --    0.22005   0.22439   0.22792   0.23093   0.23580
 Alpha virt. eigenvalues --    0.23824   0.24872   0.25934   0.26649   0.27030
 Alpha virt. eigenvalues --    0.27781   0.28175   0.29082   0.29627   0.30433
 Alpha virt. eigenvalues --    0.30725   0.32164   0.32360   0.33060   0.33289
 Alpha virt. eigenvalues --    0.33730   0.34331   0.34467   0.34952   0.36853
 Alpha virt. eigenvalues --    0.37610   0.38522   0.39867   0.40483   0.41488
 Alpha virt. eigenvalues --    0.42876   0.44039   0.45570   0.46651   0.47167
 Alpha virt. eigenvalues --    0.48913   0.51970   0.53451   0.54112   0.54340
 Alpha virt. eigenvalues --    0.55243   0.55450   0.55905   0.56330   0.57099
 Alpha virt. eigenvalues --    0.58490   0.59562   0.60469   0.61651   0.62264
 Alpha virt. eigenvalues --    0.62643   0.63169   0.64322   0.67177   0.67453
 Alpha virt. eigenvalues --    0.68173   0.70586   0.71044   0.71441   0.72373
 Alpha virt. eigenvalues --    0.72824   0.73404   0.74463   0.75154   0.75754
 Alpha virt. eigenvalues --    0.77373   0.77963   0.78454   0.78608   0.79764
 Alpha virt. eigenvalues --    0.81774   0.82202   0.82755   0.83107   0.84110
 Alpha virt. eigenvalues --    0.84713   0.84888   0.87022   0.87675   0.88438
 Alpha virt. eigenvalues --    0.88739   0.90173   0.90862   0.92367   0.93287
 Alpha virt. eigenvalues --    0.94589   0.95768   0.97171   0.98878   1.00037
 Alpha virt. eigenvalues --    1.02136   1.02713   1.03098   1.03885   1.05387
 Alpha virt. eigenvalues --    1.05718   1.06050   1.07521   1.08552   1.12254
 Alpha virt. eigenvalues --    1.13171   1.13811   1.14919   1.15945   1.17843
 Alpha virt. eigenvalues --    1.20493   1.21151   1.25035   1.26963   1.33654
 Alpha virt. eigenvalues --    1.34560   1.35816   1.37934   1.40650   1.41486
 Alpha virt. eigenvalues --    1.43455   1.52078   1.52483   1.54570   1.55846
 Alpha virt. eigenvalues --    1.56580   1.58063   1.59448   1.59735   1.60214
 Alpha virt. eigenvalues --    1.62229   1.64766   1.66063   1.67784   1.68127
 Alpha virt. eigenvalues --    1.68852   1.71723   1.72092   1.73236   1.75314
 Alpha virt. eigenvalues --    1.76239   1.77971   1.80189   1.81311   1.84555
 Alpha virt. eigenvalues --    1.85768   1.86601   1.87942   1.90493   1.91895
 Alpha virt. eigenvalues --    1.95351   1.96043   1.96855   1.97691   1.98752
 Alpha virt. eigenvalues --    2.00850   2.02027   2.03493   2.04986   2.05092
 Alpha virt. eigenvalues --    2.06966   2.07701   2.08677   2.10291   2.11995
 Alpha virt. eigenvalues --    2.12582   2.14701   2.17760   2.19170   2.19902
 Alpha virt. eigenvalues --    2.22575   2.29106   2.31547   2.36554   2.40559
 Alpha virt. eigenvalues --    2.41635   2.44704   2.49646   2.52703   2.58748
 Alpha virt. eigenvalues --    2.62147   2.65927   2.68091   2.68537   2.69566
 Alpha virt. eigenvalues --    2.70108   2.70982   2.72600   2.73657   2.74370
 Alpha virt. eigenvalues --    2.76050   2.77563   2.81362   2.83969   2.89096
 Alpha virt. eigenvalues --    2.90713   2.92967   2.93381   2.97079   3.00999
 Alpha virt. eigenvalues --    3.05160   3.07924   3.10816   3.12767   3.16885
 Alpha virt. eigenvalues --    3.18331   3.21992   3.26448   3.28024   3.29090
 Alpha virt. eigenvalues --    3.33423   3.36242   3.43664   3.45973   3.46839
 Alpha virt. eigenvalues --    3.55659   3.60763   3.64313   3.84951   3.87591
 Alpha virt. eigenvalues --    3.96038   4.08289   4.11639   4.21449   4.37312
 Alpha virt. eigenvalues --    4.57908   4.99494   5.42218   5.73991   7.97313
 Alpha virt. eigenvalues --    7.99743   8.00185  17.27243  17.28145  17.29122
 Alpha virt. eigenvalues --   17.45129  17.47493  17.50090  17.53472  17.54882
 Alpha virt. eigenvalues --   17.57568  23.47133  23.62906  23.75349  23.81279
 Alpha virt. eigenvalues --   23.86807  24.01615  24.08614  24.10619  24.12195
 Alpha virt. eigenvalues --   24.14560  49.93318 189.13978 189.16860 189.17205
          Condensed to atoms (all electrons):
               1          2          3          4          5          6
     1  C   10.075538  -3.003972  -0.022288  -0.958903   0.608935   0.079843
     2  C   -3.003972  14.379218  -3.047641   1.148815  -2.881924  -0.044937
     3  C   -0.022288  -3.047641   9.690569  -0.697810   0.847847   0.032938
     4  C   -0.958903   1.148815  -0.697810   6.875829  -0.463368   0.330836
     5  S    0.608935  -2.881924   0.847847  -0.463368  17.595475  -0.029822
     6  H    0.079843  -0.044937   0.032938   0.330836  -0.029822   0.477865
     7  C   -0.079528  -0.316757  -0.360047  -0.039243   0.788587  -0.002589
     8  S   -0.276891  -0.044607   0.455903   0.103635   0.097416  -0.000993
     9  C   -0.026766  -1.014846  -0.410070  -0.067392   0.260480  -0.000196
    10  C    0.019508   0.136686  -0.123404  -0.061830  -0.147703   0.000418
    11  C    0.159228  -0.310981  -0.784568  -0.287239  -0.196476   0.003500
    12  H   -0.003452   0.007409   0.024986   0.004890   0.015164   0.000000
    13  S   -0.002734   0.044450   0.006506   0.000432  -0.029746   0.000009
    14  C   -0.004759  -0.029769  -0.043047   0.000184   0.006855  -0.000001
    15  C    0.022033  -0.094706   0.217588  -0.003963   0.023228  -0.000011
    16  H    0.000000   0.000034   0.000072  -0.000000  -0.000002   0.000000
    17  H    0.000027  -0.000251  -0.001110  -0.000006   0.000026   0.000000
    18  H   -0.116563   0.290565   0.136906  -0.056620   0.025952  -0.000065
    19  O    0.220957  -0.037092   0.044393  -0.242489   0.026896  -0.006194
    20  H   -0.017442  -0.032234  -0.023199   0.091421  -0.008712   0.000247
               7          8          9         10         11         12
     1  C   -0.079528  -0.276891  -0.026766   0.019508   0.159228  -0.003452
     2  C   -0.316757  -0.044607  -1.014846   0.136686  -0.310981   0.007409
     3  C   -0.360047   0.455903  -0.410070  -0.123404  -0.784568   0.024986
     4  C   -0.039243   0.103635  -0.067392  -0.061830  -0.287239   0.004890
     5  S    0.788587   0.097416   0.260480  -0.147703  -0.196476   0.015164
     6  H   -0.002589  -0.000993  -0.000196   0.000418   0.003500   0.000000
     7  C   10.565128   0.843592  -1.017479  -2.397264  -0.752651   0.062733
     8  S    0.843592  17.805544  -0.042315  -1.155708  -0.892585   0.021104
     9  C   -1.017479  -0.042315  14.688258  -4.082557   0.092705  -0.090789
    10  C   -2.397264  -1.155708  -4.082557  12.094772   0.905645  -0.078823
    11  C   -0.752651  -0.892585   0.092705   0.905645   8.377203   0.366073
    12  H    0.062733   0.021104  -0.090789  -0.078823   0.366073   0.519632
    13  S   -1.096601   0.049857   0.059944  -0.295824   0.160385   0.011148
    14  C   -0.207150  -0.044183   0.755480  -0.783317   0.089623  -0.003097
    15  C    0.074141  -0.358958  -3.319761   1.619499  -1.104245   0.003699
    16  H    0.006307  -0.001226   0.027353   0.024730   0.000824  -0.000004
    17  H   -0.008580   0.021713   0.013949  -0.076010  -0.001693   0.000006
    18  H    0.020457   0.030012   0.009257   0.002491  -0.001333   0.000033
    19  O   -0.004047   0.006140   0.001242  -0.001731  -0.002490  -0.000003
    20  H   -0.000077   0.002347  -0.000313   0.000161  -0.000759   0.000000
              13         14         15         16         17         18
     1  C   -0.002734  -0.004759   0.022033   0.000000   0.000027  -0.116563
     2  C    0.044450  -0.029769  -0.094706   0.000034  -0.000251   0.290565
     3  C    0.006506  -0.043047   0.217588   0.000072  -0.001110   0.136906
     4  C    0.000432   0.000184  -0.003963  -0.000000  -0.000006  -0.056620
     5  S   -0.029746   0.006855   0.023228  -0.000002   0.000026   0.025952
     6  H    0.000009  -0.000001  -0.000011   0.000000   0.000000  -0.000065
     7  C   -1.096601  -0.207150   0.074141   0.006307  -0.008580   0.020457
     8  S    0.049857  -0.044183  -0.358958  -0.001226   0.021713   0.030012
     9  C    0.059944   0.755480  -3.319761   0.027353   0.013949   0.009257
    10  C   -0.295824  -0.783317   1.619499   0.024730  -0.076010   0.002491
    11  C    0.160385   0.089623  -1.104245   0.000824  -0.001693  -0.001333
    12  H    0.011148  -0.003097   0.003699  -0.000004   0.000006   0.000033
    13  S   17.541182   0.413589  -0.415186  -0.040687   0.011802  -0.000013
    14  C    0.413589   5.623309  -0.036260   0.383469   0.026094   0.000153
    15  C   -0.415186  -0.036260   9.249864  -0.041122   0.362669  -0.000392
    16  H   -0.040687   0.383469  -0.041122   0.476260  -0.004856  -0.000000
    17  H    0.011802   0.026094   0.362669  -0.004856   0.520947   0.000000
    18  H   -0.000013   0.000153  -0.000392  -0.000000   0.000000   0.541526
    19  O   -0.000047   0.000005   0.000062   0.000000   0.000000  -0.004790
    20  H    0.000001   0.000000   0.000007   0.000000  -0.000000   0.003669
              19         20
     1  C    0.220957  -0.017442
     2  C   -0.037092  -0.032234
     3  C    0.044393  -0.023199
     4  C   -0.242489   0.091421
     5  S    0.026896  -0.008712
     6  H   -0.006194   0.000247
     7  C   -0.004047  -0.000077
     8  S    0.006140   0.002347
     9  C    0.001242  -0.000313
    10  C   -0.001731   0.000161
    11  C   -0.002490  -0.000759
    12  H   -0.000003   0.000000
    13  S   -0.000047   0.000001
    14  C    0.000005   0.000000
    15  C    0.000062   0.000007
    16  H    0.000000   0.000000
    17  H    0.000000  -0.000000
    18  H   -0.004790   0.003669
    19  O    8.026612   0.246327
    20  H    0.246327   0.486428
 Mulliken charges:
               1
     1  C   -0.672770
     2  C    0.852540
     3  C    0.055474
     4  C    0.322821
     5  S   -0.539106
     6  H    0.159148
     7  C   -0.078931
     8  S   -0.619798
     9  C    0.163816
    10  C    0.400261
    11  C    0.179834
    12  H    0.139290
    13  S   -0.418467
    14  C   -0.147179
    15  C   -0.198187
    16  H    0.168848
    17  H    0.135272
    18  H    0.118755
    19  O   -0.273751
    20  H    0.252128
 Sum of Mulliken charges =  -0.00000
 Mulliken charges with hydrogens summed into heavy atoms:
               1
     1  C   -0.672770
     2  C    0.971295
     3  C    0.055474
     4  C    0.481969
     5  S   -0.539106
     7  C   -0.078931
     8  S   -0.619798
     9  C    0.163816
    10  C    0.400261
    11  C    0.319124
    13  S   -0.418467
    14  C    0.021670
    15  C   -0.062915
    19  O   -0.021623
 Electronic spatial extent (au):  <R**2>=           4791.3146
 Charge=             -0.0000 electrons
 Dipole moment (field-independent basis, Debye):
    X=              1.1378    Y=              1.4925    Z=              0.1611  Tot=              1.8837
 Quadrupole moment (field-independent basis, Debye-Ang):
   XX=            -97.6655   YY=            -91.4993   ZZ=           -108.8281
   XY=             -0.4635   XZ=             -0.4031   YZ=              0.4066
 Traceless Quadrupole moment (field-independent basis, Debye-Ang):
   XX=              1.6654   YY=              7.8317   ZZ=             -9.4971
   XY=             -0.4635   XZ=             -0.4031   YZ=              0.4066
 Octapole moment (field-independent basis, Debye-Ang**2):
  XXX=             77.0081  YYY=             21.5437  ZZZ=              0.6573  XYY=            -29.1704
  XXY=             22.4952  XXZ=             -0.8486  XZZ=             -8.0002  YZZ=              1.2218
  YYZ=              1.7551  XYZ=             -5.3398
 Hexadecapole moment (field-independent basis, Debye-Ang**3):
 XXXX=          -5359.8107 YYYY=           -887.1176 ZZZZ=           -145.0118 XXXY=             66.3148
 XXXZ=              5.9748 YYYX=            -64.6899 YYYZ=              3.8061 ZZZX=             -3.0828
 ZZZY=              1.3758 XXYY=           -905.5433 XXZZ=          -1012.1198 YYZZ=           -196.6715
 XXYZ=             11.3599 YYXZ=            -10.0436 ZZXY=            -15.6075
 N-N= 1.105099851958D+03 E-N=-6.121311738576D+03  KE= 1.651071346207D+03
 Unable to Open any file for archive entry.
 1\1\GINC-CX3-12-15\FOpt\RB3LYP\6-311+G(d,p)\C10H6O1S3\NS5018\17-Oct-20
 21\0\\# opt=modredundant b3lyp/6-311+g(d,p)\\pg2T_TT_-10.pdb\\0,1\C,-4
 .2851394532,-1.3711321782,-0.4137446038\C,-2.9342246827,-1.0039608378,
 -0.6777689015\C,-2.0538067023,-2.0554689881,-0.5610885052\C,-4.4360968
 532,-2.6922410669,-0.0996752188\S,-2.9120197374,-3.520447088,-0.133684
 9698\H,-5.3457905906,-3.2159124185,0.1450272961\C,-0.6206783291,-2.060
 280318,-0.7626798663\S,0.1761303255,-0.6471297408,-1.4763116581\C,1.73
 53753151,-1.4147042516,-1.3437211029\C,1.6120696677,-2.6825738385,-0.7
 903409245\C,0.2840768086,-3.0502516926,-0.4558484021\H,0.0016820363,-3
 .989165876,0.0005621691\S,3.1726809522,-3.4488722002,-0.6588007083\C,3
 .9472993058,-2.0433600437,-1.3535736533\C,3.0698700823,-1.0446789545,-
 1.6679641148\H,5.0182215039,-2.0477629798,-1.4872633307\H,3.3677308747
 ,-0.1023321904,-2.1060457572\H,-2.6266745792,0.0045595358,-0.926896989
 6\O,-5.3492460673,-0.5135383226,-0.4532019156\H,-5.0494598771,0.364253
 4504,-0.7079788428\\Version=ES64L-G16RevC.01\State=1-A\HF=-1654.632717
 3\RMSD=7.988e-09\RMSF=2.538e-04\Dipole=0.4705523,0.5445725,-0.1767254\
 Quadrupole=1.0204029,4.767657,-5.78806,-0.5613627,-1.1886249,-3.547073
 9\PG=C01 [X(C10H6O1S3)]\\@
 The archive entry for this job was punched.


 THE MOLECULE ALSO HAS A BODY.  WHEN THIS BODY IS HIT, THE MOLECULE
 FEELS HURT ALL OVER -- A. KITAIGORODSKI
 Job cpu time:       0 days  1 hours 58 minutes 59.9 seconds.
 Elapsed time:       0 days  0 hours 15 minutes 14.4 seconds.
 File lengths (MBytes):  RWF=     86 Int=      0 D2E=      0 Chk=     11 Scr=      1
 Normal termination of Gaussian 16 at Sun Oct 17 19:44:13 2021.
