 Entering Gaussian System, Link 0=g16
 Input=NDI_-130.gjf
 Output=NDI_-130.log
 Initial command:
 /apps/gaussian/g16-c01-avx/g16/l1.exe "/tmp/pbs.2610759[10].pbs/Gau-3700441.inp" -scrdir="/tmp/pbs.2610759[10].pbs/"
 Entering Link 1 = /apps/gaussian/g16-c01-avx/g16/l1.exe PID=   3700442.
  
 Copyright (c) 1988-2019, Gaussian, Inc.  All Rights Reserved.
  
 This is part of the Gaussian(R) 16 program.  It is based on
 the Gaussian(R) 09 system (copyright 2009, Gaussian, Inc.),
 the Gaussian(R) 03 system (copyright 2003, Gaussian, Inc.),
 the Gaussian(R) 98 system (copyright 1998, Gaussian, Inc.),
 the Gaussian(R) 94 system (copyright 1995, Gaussian, Inc.),
 the Gaussian 92(TM) system (copyright 1992, Gaussian, Inc.),
 the Gaussian 90(TM) system (copyright 1990, Gaussian, Inc.),
 the Gaussian 88(TM) system (copyright 1988, Gaussian, Inc.),
 the Gaussian 86(TM) system (copyright 1986, Carnegie Mellon
 University), and the Gaussian 82(TM) system (copyright 1983,
 Carnegie Mellon University). Gaussian is a federally registered
 trademark of Gaussian, Inc.
  
 This software contains proprietary and confidential information,
 including trade secrets, belonging to Gaussian, Inc.
  
 This software is provided under written license and may be
 used, copied, transmitted, or stored only in accord with that
 written license.
  
 The following legend is applicable only to US Government
 contracts under FAR:
  
                    RESTRICTED RIGHTS LEGEND
  
 Use, reproduction and disclosure by the US Government is
 subject to restrictions as set forth in subparagraphs (a)
 and (c) of the Commercial Computer Software - Restricted
 Rights clause in FAR 52.227-19.
  
 Gaussian, Inc.
 340 Quinnipiac St., Bldg. 40, Wallingford CT 06492
  
  
 ---------------------------------------------------------------
 Warning -- This program may not be used in any manner that
 competes with the business of Gaussian, Inc. or will provide
 assistance to any competitor of Gaussian, Inc.  The licensee
 of this program is prohibited from giving any competitor of
 Gaussian, Inc. access to this program.  By using this program,
 the user acknowledges that Gaussian, Inc. is engaged in the
 business of creating and licensing software in the field of
 computational chemistry and represents and warrants to the
 licensee that it is not a competitor of Gaussian, Inc. and that
 it will not use this program in any manner prohibited above.
 ---------------------------------------------------------------
  

 Cite this work as:
 Gaussian 16, Revision C.01,
 M. J. Frisch, G. W. Trucks, H. B. Schlegel, G. E. Scuseria, 
 M. A. Robb, J. R. Cheeseman, G. Scalmani, V. Barone, 
 G. A. Petersson, H. Nakatsuji, X. Li, M. Caricato, A. V. Marenich, 
 J. Bloino, B. G. Janesko, R. Gomperts, B. Mennucci, H. P. Hratchian, 
 J. V. Ortiz, A. F. Izmaylov, J. L. Sonnenberg, D. Williams-Young, 
 F. Ding, F. Lipparini, F. Egidi, J. Goings, B. Peng, A. Petrone, 
 T. Henderson, D. Ranasinghe, V. G. Zakrzewski, J. Gao, N. Rega, 
 G. Zheng, W. Liang, M. Hada, M. Ehara, K. Toyota, R. Fukuda, 
 J. Hasegawa, M. Ishida, T. Nakajima, Y. Honda, O. Kitao, H. Nakai, 
 T. Vreven, K. Throssell, J. A. Montgomery, Jr., J. E. Peralta, 
 F. Ogliaro, M. J. Bearpark, J. J. Heyd, E. N. Brothers, K. N. Kudin, 
 V. N. Staroverov, T. A. Keith, R. Kobayashi, J. Normand, 
 K. Raghavachari, A. P. Rendell, J. C. Burant, S. S. Iyengar, 
 J. Tomasi, M. Cossi, J. M. Millam, M. Klene, C. Adamo, R. Cammi, 
 J. W. Ochterski, R. L. Martin, K. Morokuma, O. Farkas, 
 J. B. Foresman, and D. J. Fox, Gaussian, Inc., Wallingford CT, 2019.
 
 ******************************************
 Gaussian 16:  ES64L-G16RevC.01  3-Jul-2019
                26-Nov-2020 
 ******************************************
 %mem=10GB
 %nprocshared=16
 Will use up to   16 processors via shared memory.
 --------------------------------------
 # opt=modredundant wb97xd/6-311+g(d,p)
 --------------------------------------
 1/18=120,19=15,26=3,38=1/1,3;
 2/9=110,12=2,17=6,18=5,40=1/2;
 3/5=4,6=6,7=111,11=2,25=1,30=1,71=1,74=-58/1,2,3;
 4//1;
 5/5=2,38=5/2;
 6/7=2,8=2,9=2,10=2,28=1/1;
 7//1,2,3,16;
 1/18=20,19=15,26=3/3(2);
 2/9=110/2;
 99//99;
 2/9=110/2;
 3/5=4,6=6,7=111,11=2,25=1,30=1,71=1,74=-58/1,2,3;
 4/5=5,16=3,69=1/1;
 5/5=2,38=5/2;
 7//1,2,3,16;
 1/18=20,19=15,26=3/3(-5);
 2/9=110/2;
 6/7=2,8=2,9=2,10=2,19=2,28=1/1;
 99/9=1/99;
 ------------
 NDI_-130.pdb
 ------------
 Symbolic Z-matrix:
 Charge =  0 Multiplicity = 1
 C                    -2.563    -2.994    -0.409 
 C                    -2.257    -1.551    -0.224 
 C                    -3.301    -0.607    -0.083 
 C                    -4.65     -1.024    -0.115 
 C                    -4.992    -2.459    -0.304 
 C                    -0.949    -1.137    -0.215 
 C                    -2.962     0.764     0.102 
 C                    -1.595     1.188     0.123 
 C                    -0.561     0.232    -0.072 
 C                    -1.328     2.616     0.446 
 C                    -3.777     3.115     0.508 
 C                    -4.035     1.679     0.268 
 C                    -5.356     1.252     0.23 
 C                    -5.672    -0.098     0.036 
 H                    -6.699    -0.442     0.008 
 H                    -6.133     1.997     0.361 
 H                    -0.19     -1.895    -0.369 
 N                    -2.432     3.476     0.608 
 N                    -3.916    -3.353    -0.438 
 O                    -1.695    -3.847    -0.532 
 O                    -6.149    -2.85     -0.34 
 O                    -4.676     3.938     0.629 
 O                    -0.212     3.097     0.596 
 C                    -2.111     4.875     0.912 
 H                    -1.54      4.931     1.84 
 H                    -1.5       5.299     0.111 
 H                    -3.05      5.414     1.003 
 C                    -4.206    -4.779    -0.625 
 H                    -3.759    -5.126    -1.559 
 H                    -3.775    -5.355     0.196 
 H                    -5.286    -4.897    -0.649 
 C                     0.876     0.482    -0.178 
 C                     1.8       0.062    -1.115 
 S                     1.69      1.331     1.136 
 C                     3.126     0.413    -0.795 
 H                     1.524    -0.476    -2.008 
 C                     3.263     1.124     0.402 
 O                     4.237     0.129    -1.525 
 C                     4.468     1.656     0.973 
 C                     4.048    -0.469    -2.804 
 C                     4.606     2.344     2.177 
 S                     6.044     1.512     0.2 
 H                     5.039    -0.538    -3.253 
 H                     3.62     -1.475    -2.713 
 H                     3.398     0.146    -3.437 
 C                     5.94      2.746     2.47 
 O                     3.506     2.572     2.942 
 C                     6.815     2.362     1.49 
 H                     6.236     3.288     3.357 
 C                     3.683     3.247     4.182 
 H                     7.883     2.534     1.457 
 H                     4.081     4.258     4.032 
 H                     2.694     3.311     4.634 
 H                     4.352     2.687     4.847 
 
 The following ModRedundant input section has been read:
 D       8       9      32      33 F                                           
 

 GradGradGradGradGradGradGradGradGradGradGradGradGradGradGradGradGradGrad
 Berny optimization.
 Initialization pass.
                           ----------------------------
                           !    Initial Parameters    !
                           ! (Angstroms and Degrees)  !
 --------------------------                            --------------------------
 ! Name  Definition              Value          Derivative Info.                !
 --------------------------------------------------------------------------------
 ! R1    R(1,2)                  1.4866         estimate D2E/DX2                !
 ! R2    R(1,19)                 1.4001         estimate D2E/DX2                !
 ! R3    R(1,20)                 1.2232         estimate D2E/DX2                !
 ! R4    R(2,3)                  1.4146         estimate D2E/DX2                !
 ! R5    R(2,6)                  1.372          estimate D2E/DX2                !
 ! R6    R(3,4)                  1.4123         estimate D2E/DX2                !
 ! R7    R(3,7)                  1.4244         estimate D2E/DX2                !
 ! R8    R(4,5)                  1.4872         estimate D2E/DX2                !
 ! R9    R(4,14)                 1.3874         estimate D2E/DX2                !
 ! R10   R(5,19)                 1.4053         estimate D2E/DX2                !
 ! R11   R(5,21)                 1.2218         estimate D2E/DX2                !
 ! R12   R(6,9)                  1.4301         estimate D2E/DX2                !
 ! R13   R(6,17)                 1.0837         estimate D2E/DX2                !
 ! R14   R(7,8)                  1.4314         estimate D2E/DX2                !
 ! R15   R(7,12)                 1.4199         estimate D2E/DX2                !
 ! R16   R(8,9)                  1.4217         estimate D2E/DX2                !
 ! R17   R(8,10)                 1.4882         estimate D2E/DX2                !
 ! R18   R(9,32)                 1.4624         estimate D2E/DX2                !
 ! R19   R(10,18)                1.4088         estimate D2E/DX2                !
 ! R20   R(10,23)                1.2245         estimate D2E/DX2                !
 ! R21   R(11,12)                1.4786         estimate D2E/DX2                !
 ! R22   R(11,18)                1.3962         estimate D2E/DX2                !
 ! R23   R(11,22)                1.2248         estimate D2E/DX2                !
 ! R24   R(12,13)                1.3888         estimate D2E/DX2                !
 ! R25   R(13,14)                1.4            estimate D2E/DX2                !
 ! R26   R(13,16)                1.0844         estimate D2E/DX2                !
 ! R27   R(14,15)                1.0834         estimate D2E/DX2                !
 ! R28   R(18,24)                1.4672         estimate D2E/DX2                !
 ! R29   R(19,28)                1.4672         estimate D2E/DX2                !
 ! R30   R(24,25)                1.091          estimate D2E/DX2                !
 ! R31   R(24,26)                1.093          estimate D2E/DX2                !
 ! R32   R(24,27)                1.0865         estimate D2E/DX2                !
 ! R33   R(28,29)                1.0921         estimate D2E/DX2                !
 ! R34   R(28,30)                1.0916         estimate D2E/DX2                !
 ! R35   R(28,31)                1.0867         estimate D2E/DX2                !
 ! R36   R(32,33)                1.3814         estimate D2E/DX2                !
 ! R37   R(32,34)                1.7635         estimate D2E/DX2                !
 ! R38   R(33,35)                1.4085         estimate D2E/DX2                !
 ! R39   R(33,36)                1.0785         estimate D2E/DX2                !
 ! R40   R(34,37)                1.7481         estimate D2E/DX2                !
 ! R41   R(35,37)                1.399          estimate D2E/DX2                !
 ! R42   R(35,38)                1.3594         estimate D2E/DX2                !
 ! R43   R(37,39)                1.4356         estimate D2E/DX2                !
 ! R44   R(38,40)                1.4245         estimate D2E/DX2                !
 ! R45   R(39,41)                1.3936         estimate D2E/DX2                !
 ! R46   R(39,42)                1.7613         estimate D2E/DX2                !
 ! R47   R(40,43)                1.0902         estimate D2E/DX2                !
 ! R48   R(40,44)                1.097          estimate D2E/DX2                !
 ! R49   R(40,45)                1.0961         estimate D2E/DX2                !
 ! R50   R(41,46)                1.4237         estimate D2E/DX2                !
 ! R51   R(41,47)                1.3591         estimate D2E/DX2                !
 ! R52   R(42,48)                1.7266         estimate D2E/DX2                !
 ! R53   R(46,48)                1.3688         estimate D2E/DX2                !
 ! R54   R(46,49)                1.0808         estimate D2E/DX2                !
 ! R55   R(47,50)                1.4229         estimate D2E/DX2                !
 ! R56   R(48,51)                1.0823         estimate D2E/DX2                !
 ! R57   R(50,52)                1.0968         estimate D2E/DX2                !
 ! R58   R(50,53)                1.0893         estimate D2E/DX2                !
 ! R59   R(50,54)                1.097          estimate D2E/DX2                !
 ! A1    A(2,1,19)             116.767          estimate D2E/DX2                !
 ! A2    A(2,1,20)             122.9113         estimate D2E/DX2                !
 ! A3    A(19,1,20)            120.3217         estimate D2E/DX2                !
 ! A4    A(1,2,3)              120.5473         estimate D2E/DX2                !
 ! A5    A(1,2,6)              119.3369         estimate D2E/DX2                !
 ! A6    A(3,2,6)              120.1056         estimate D2E/DX2                !
 ! A7    A(2,3,4)              120.3743         estimate D2E/DX2                !
 ! A8    A(2,3,7)              118.662          estimate D2E/DX2                !
 ! A9    A(4,3,7)              120.9617         estimate D2E/DX2                !
 ! A10   A(3,4,5)              120.4909         estimate D2E/DX2                !
 ! A11   A(3,4,14)             120.2702         estimate D2E/DX2                !
 ! A12   A(5,4,14)             119.2382         estimate D2E/DX2                !
 ! A13   A(4,5,19)             116.7341         estimate D2E/DX2                !
 ! A14   A(4,5,21)             122.024          estimate D2E/DX2                !
 ! A15   A(19,5,21)            121.2418         estimate D2E/DX2                !
 ! A16   A(2,6,9)              123.2421         estimate D2E/DX2                !
 ! A17   A(2,6,17)             117.1119         estimate D2E/DX2                !
 ! A18   A(9,6,17)             119.589          estimate D2E/DX2                !
 ! A19   A(3,7,8)              120.9519         estimate D2E/DX2                !
 ! A20   A(3,7,12)             117.1037         estimate D2E/DX2                !
 ! A21   A(8,7,12)             121.944          estimate D2E/DX2                !
 ! A22   A(7,8,9)              119.5639         estimate D2E/DX2                !
 ! A23   A(7,8,10)             117.3064         estimate D2E/DX2                !
 ! A24   A(9,8,10)             122.9922         estimate D2E/DX2                !
 ! A25   A(6,9,8)              117.3944         estimate D2E/DX2                !
 ! A26   A(6,9,32)             115.0236         estimate D2E/DX2                !
 ! A27   A(8,9,32)             127.5648         estimate D2E/DX2                !
 ! A28   A(8,10,18)            118.042          estimate D2E/DX2                !
 ! A29   A(8,10,23)            124.5436         estimate D2E/DX2                !
 ! A30   A(18,10,23)           117.4097         estimate D2E/DX2                !
 ! A31   A(12,11,18)           115.5202         estimate D2E/DX2                !
 ! A32   A(12,11,22)           122.7205         estimate D2E/DX2                !
 ! A33   A(18,11,22)           121.7534         estimate D2E/DX2                !
 ! A34   A(7,12,11)            120.8614         estimate D2E/DX2                !
 ! A35   A(7,12,13)            121.162          estimate D2E/DX2                !
 ! A36   A(11,12,13)           117.9699         estimate D2E/DX2                !
 ! A37   A(12,13,14)           120.9948         estimate D2E/DX2                !
 ! A38   A(12,13,16)           117.8401         estimate D2E/DX2                !
 ! A39   A(14,13,16)           121.1642         estimate D2E/DX2                !
 ! A40   A(4,14,13)            119.5003         estimate D2E/DX2                !
 ! A41   A(4,14,15)            118.9169         estimate D2E/DX2                !
 ! A42   A(13,14,15)           121.5811         estimate D2E/DX2                !
 ! A43   A(10,18,11)           126.0753         estimate D2E/DX2                !
 ! A44   A(10,18,24)           115.7508         estimate D2E/DX2                !
 ! A45   A(11,18,24)           118.1737         estimate D2E/DX2                !
 ! A46   A(1,19,5)             125.0856         estimate D2E/DX2                !
 ! A47   A(1,19,28)            116.2868         estimate D2E/DX2                !
 ! A48   A(5,19,28)            118.6276         estimate D2E/DX2                !
 ! A49   A(18,24,25)           109.8574         estimate D2E/DX2                !
 ! A50   A(18,24,26)           109.8979         estimate D2E/DX2                !
 ! A51   A(18,24,27)           107.5355         estimate D2E/DX2                !
 ! A52   A(25,24,26)           108.1108         estimate D2E/DX2                !
 ! A53   A(25,24,27)           110.8301         estimate D2E/DX2                !
 ! A54   A(26,24,27)           110.6124         estimate D2E/DX2                !
 ! A55   A(19,28,29)           109.6906         estimate D2E/DX2                !
 ! A56   A(19,28,30)           109.8136         estimate D2E/DX2                !
 ! A57   A(19,28,31)           107.7461         estimate D2E/DX2                !
 ! A58   A(29,28,30)           108.2991         estimate D2E/DX2                !
 ! A59   A(29,28,31)           110.6959         estimate D2E/DX2                !
 ! A60   A(30,28,31)           110.5924         estimate D2E/DX2                !
 ! A61   A(9,32,33)            130.8791         estimate D2E/DX2                !
 ! A62   A(9,32,34)            118.8058         estimate D2E/DX2                !
 ! A63   A(33,32,34)           110.0622         estimate D2E/DX2                !
 ! A64   A(32,33,35)           113.5688         estimate D2E/DX2                !
 ! A65   A(32,33,36)           122.831          estimate D2E/DX2                !
 ! A66   A(35,33,36)           123.5985         estimate D2E/DX2                !
 ! A67   A(32,34,37)            92.6066         estimate D2E/DX2                !
 ! A68   A(33,35,37)           114.4084         estimate D2E/DX2                !
 ! A69   A(33,35,38)           126.5377         estimate D2E/DX2                !
 ! A70   A(37,35,38)           119.0538         estimate D2E/DX2                !
 ! A71   A(34,37,35)           109.3492         estimate D2E/DX2                !
 ! A72   A(34,37,39)           122.9823         estimate D2E/DX2                !
 ! A73   A(35,37,39)           127.6503         estimate D2E/DX2                !
 ! A74   A(35,38,40)           117.4797         estimate D2E/DX2                !
 ! A75   A(37,39,41)           127.5673         estimate D2E/DX2                !
 ! A76   A(37,39,42)           123.1065         estimate D2E/DX2                !
 ! A77   A(41,39,42)           109.3261         estimate D2E/DX2                !
 ! A78   A(38,40,43)           106.0074         estimate D2E/DX2                !
 ! A79   A(38,40,44)           111.2382         estimate D2E/DX2                !
 ! A80   A(38,40,45)           111.2023         estimate D2E/DX2                !
 ! A81   A(43,40,44)           109.316          estimate D2E/DX2                !
 ! A82   A(43,40,45)           109.6781         estimate D2E/DX2                !
 ! A83   A(44,40,45)           109.3335         estimate D2E/DX2                !
 ! A84   A(39,41,46)           114.2042         estimate D2E/DX2                !
 ! A85   A(39,41,47)           119.2732         estimate D2E/DX2                !
 ! A86   A(46,41,47)           126.5222         estimate D2E/DX2                !
 ! A87   A(39,42,48)            91.8001         estimate D2E/DX2                !
 ! A88   A(41,46,48)           111.8648         estimate D2E/DX2                !
 ! A89   A(41,46,49)           124.5481         estimate D2E/DX2                !
 ! A90   A(48,46,49)           123.5871         estimate D2E/DX2                !
 ! A91   A(41,47,50)           117.9971         estimate D2E/DX2                !
 ! A92   A(42,48,46)           112.8048         estimate D2E/DX2                !
 ! A93   A(42,48,51)           119.7438         estimate D2E/DX2                !
 ! A94   A(46,48,51)           127.4514         estimate D2E/DX2                !
 ! A95   A(47,50,52)           111.2987         estimate D2E/DX2                !
 ! A96   A(47,50,53)           106.0545         estimate D2E/DX2                !
 ! A97   A(47,50,54)           111.2222         estimate D2E/DX2                !
 ! A98   A(52,50,53)           109.3934         estimate D2E/DX2                !
 ! A99   A(52,50,54)           109.3995         estimate D2E/DX2                !
 ! A100  A(53,50,54)           109.3997         estimate D2E/DX2                !
 ! D1    D(19,1,2,3)             0.1578         estimate D2E/DX2                !
 ! D2    D(19,1,2,6)          -178.6792         estimate D2E/DX2                !
 ! D3    D(20,1,2,3)          -179.8231         estimate D2E/DX2                !
 ! D4    D(20,1,2,6)             1.3399         estimate D2E/DX2                !
 ! D5    D(2,1,19,5)            -0.124          estimate D2E/DX2                !
 ! D6    D(2,1,19,28)          179.8267         estimate D2E/DX2                !
 ! D7    D(20,1,19,5)          179.8575         estimate D2E/DX2                !
 ! D8    D(20,1,19,28)          -0.1919         estimate D2E/DX2                !
 ! D9    D(1,2,3,4)              0.0571         estimate D2E/DX2                !
 ! D10   D(1,2,3,7)            179.5453         estimate D2E/DX2                !
 ! D11   D(6,2,3,4)            178.8851         estimate D2E/DX2                !
 ! D12   D(6,2,3,7)             -1.6266         estimate D2E/DX2                !
 ! D13   D(1,2,6,9)            178.625          estimate D2E/DX2                !
 ! D14   D(1,2,6,17)             1.3881         estimate D2E/DX2                !
 ! D15   D(3,2,6,9)             -0.2173         estimate D2E/DX2                !
 ! D16   D(3,2,6,17)          -177.4541         estimate D2E/DX2                !
 ! D17   D(2,3,4,5)             -0.3074         estimate D2E/DX2                !
 ! D18   D(2,3,4,14)           179.3968         estimate D2E/DX2                !
 ! D19   D(7,3,4,5)           -179.7837         estimate D2E/DX2                !
 ! D20   D(7,3,4,14)            -0.0795         estimate D2E/DX2                !
 ! D21   D(2,3,7,8)              1.0523         estimate D2E/DX2                !
 ! D22   D(2,3,7,12)          -178.712          estimate D2E/DX2                !
 ! D23   D(4,3,7,8)           -179.4626         estimate D2E/DX2                !
 ! D24   D(4,3,7,12)             0.7731         estimate D2E/DX2                !
 ! D25   D(3,4,5,19)             0.3343         estimate D2E/DX2                !
 ! D26   D(3,4,5,21)          -179.7799         estimate D2E/DX2                !
 ! D27   D(14,4,5,19)         -179.3729         estimate D2E/DX2                !
 ! D28   D(14,4,5,21)            0.5129         estimate D2E/DX2                !
 ! D29   D(3,4,14,13)           -0.4559         estimate D2E/DX2                !
 ! D30   D(3,4,14,15)         -179.9937         estimate D2E/DX2                !
 ! D31   D(5,4,14,13)          179.252          estimate D2E/DX2                !
 ! D32   D(5,4,14,15)           -0.2858         estimate D2E/DX2                !
 ! D33   D(4,5,19,1)            -0.1141         estimate D2E/DX2                !
 ! D34   D(4,5,19,28)          179.9364         estimate D2E/DX2                !
 ! D35   D(21,5,19,1)          179.9992         estimate D2E/DX2                !
 ! D36   D(21,5,19,28)           0.0496         estimate D2E/DX2                !
 ! D37   D(2,6,9,8)              2.5984         estimate D2E/DX2                !
 ! D38   D(2,6,9,32)          -176.0103         estimate D2E/DX2                !
 ! D39   D(17,6,9,8)           179.77           estimate D2E/DX2                !
 ! D40   D(17,6,9,32)            1.1613         estimate D2E/DX2                !
 ! D41   D(3,7,8,9)              1.3551         estimate D2E/DX2                !
 ! D42   D(3,7,8,10)          -174.5099         estimate D2E/DX2                !
 ! D43   D(12,7,8,9)          -178.8921         estimate D2E/DX2                !
 ! D44   D(12,7,8,10)            5.2428         estimate D2E/DX2                !
 ! D45   D(3,7,12,11)          178.0768         estimate D2E/DX2                !
 ! D46   D(3,7,12,13)           -0.9621         estimate D2E/DX2                !
 ! D47   D(8,7,12,11)           -1.685          estimate D2E/DX2                !
 ! D48   D(8,7,12,13)          179.2761         estimate D2E/DX2                !
 ! D49   D(7,8,9,6)             -3.0809         estimate D2E/DX2                !
 ! D50   D(7,8,9,32)           175.3285         estimate D2E/DX2                !
 ! D51   D(10,8,9,6)           172.5381         estimate D2E/DX2                !
 ! D52   D(10,8,9,32)           -9.0525         estimate D2E/DX2                !
 ! D53   D(7,8,10,18)           -4.7549         estimate D2E/DX2                !
 ! D54   D(7,8,10,23)          174.4235         estimate D2E/DX2                !
 ! D55   D(9,8,10,18)          179.5335         estimate D2E/DX2                !
 ! D56   D(9,8,10,23)           -1.2882         estimate D2E/DX2                !
 ! D57   D(6,9,32,33)           48.4704         estimate D2E/DX2                !
 ! D58   D(6,9,32,34)         -125.1197         estimate D2E/DX2                !
 ! D59   D(8,9,32,33)         -129.9711         Frozen                          !
 ! D60   D(8,9,32,34)           56.4388         estimate D2E/DX2                !
 ! D61   D(8,10,18,11)           0.7189         estimate D2E/DX2                !
 ! D62   D(8,10,18,24)        -179.4089         estimate D2E/DX2                !
 ! D63   D(23,10,18,11)       -178.5188         estimate D2E/DX2                !
 ! D64   D(23,10,18,24)          1.3535         estimate D2E/DX2                !
 ! D65   D(18,11,12,7)          -2.3856         estimate D2E/DX2                !
 ! D66   D(18,11,12,13)        176.6833         estimate D2E/DX2                !
 ! D67   D(22,11,12,7)         178.4862         estimate D2E/DX2                !
 ! D68   D(22,11,12,13)         -2.445          estimate D2E/DX2                !
 ! D69   D(12,11,18,10)          2.8444         estimate D2E/DX2                !
 ! D70   D(12,11,18,24)       -177.0251         estimate D2E/DX2                !
 ! D71   D(22,11,18,10)       -178.0181         estimate D2E/DX2                !
 ! D72   D(22,11,18,24)          2.1124         estimate D2E/DX2                !
 ! D73   D(7,12,13,14)           0.461          estimate D2E/DX2                !
 ! D74   D(7,12,13,16)        -179.8781         estimate D2E/DX2                !
 ! D75   D(11,12,13,14)       -178.6049         estimate D2E/DX2                !
 ! D76   D(11,12,13,16)          1.056          estimate D2E/DX2                !
 ! D77   D(12,13,14,4)           0.2708         estimate D2E/DX2                !
 ! D78   D(12,13,14,15)        179.7958         estimate D2E/DX2                !
 ! D79   D(16,13,14,4)        -179.3788         estimate D2E/DX2                !
 ! D80   D(16,13,14,15)          0.1463         estimate D2E/DX2                !
 ! D81   D(10,18,24,25)        -59.609          estimate D2E/DX2                !
 ! D82   D(10,18,24,26)         59.2209         estimate D2E/DX2                !
 ! D83   D(10,18,24,27)        179.6858         estimate D2E/DX2                !
 ! D84   D(11,18,24,25)        120.2739         estimate D2E/DX2                !
 ! D85   D(11,18,24,26)       -120.8962         estimate D2E/DX2                !
 ! D86   D(11,18,24,27)         -0.4313         estimate D2E/DX2                !
 ! D87   D(1,19,28,29)         -58.1407         estimate D2E/DX2                !
 ! D88   D(1,19,28,30)          60.7668         estimate D2E/DX2                !
 ! D89   D(1,19,28,31)        -178.7139         estimate D2E/DX2                !
 ! D90   D(5,19,28,29)         121.8132         estimate D2E/DX2                !
 ! D91   D(5,19,28,30)        -119.2792         estimate D2E/DX2                !
 ! D92   D(5,19,28,31)           1.2401         estimate D2E/DX2                !
 ! D93   D(9,32,33,35)        -174.2235         estimate D2E/DX2                !
 ! D94   D(9,32,33,36)           6.2413         estimate D2E/DX2                !
 ! D95   D(34,32,33,35)         -0.2014         estimate D2E/DX2                !
 ! D96   D(34,32,33,36)       -179.7366         estimate D2E/DX2                !
 ! D97   D(9,32,34,37)         175.3361         estimate D2E/DX2                !
 ! D98   D(33,32,34,37)          0.4918         estimate D2E/DX2                !
 ! D99   D(32,33,35,37)         -0.3058         estimate D2E/DX2                !
 ! D100  D(32,33,35,38)        179.7176         estimate D2E/DX2                !
 ! D101  D(36,33,35,37)        179.2253         estimate D2E/DX2                !
 ! D102  D(36,33,35,38)         -0.7512         estimate D2E/DX2                !
 ! D103  D(32,34,37,35)         -0.6486         estimate D2E/DX2                !
 ! D104  D(32,34,37,39)        177.9057         estimate D2E/DX2                !
 ! D105  D(33,35,37,34)          0.6626         estimate D2E/DX2                !
 ! D106  D(33,35,37,39)       -177.8057         estimate D2E/DX2                !
 ! D107  D(38,35,37,34)       -179.3589         estimate D2E/DX2                !
 ! D108  D(38,35,37,39)          2.1727         estimate D2E/DX2                !
 ! D109  D(33,35,38,40)          6.5037         estimate D2E/DX2                !
 ! D110  D(37,35,38,40)       -173.4719         estimate D2E/DX2                !
 ! D111  D(34,37,39,41)          2.9329         estimate D2E/DX2                !
 ! D112  D(34,37,39,42)       -177.1606         estimate D2E/DX2                !
 ! D113  D(35,37,39,41)       -178.7899         estimate D2E/DX2                !
 ! D114  D(35,37,39,42)          1.1166         estimate D2E/DX2                !
 ! D115  D(35,38,40,43)        175.4696         estimate D2E/DX2                !
 ! D116  D(35,38,40,44)        -65.7999         estimate D2E/DX2                !
 ! D117  D(35,38,40,45)         56.3232         estimate D2E/DX2                !
 ! D118  D(37,39,41,46)        179.993          estimate D2E/DX2                !
 ! D119  D(37,39,41,47)         -0.2199         estimate D2E/DX2                !
 ! D120  D(42,39,41,46)          0.076          estimate D2E/DX2                !
 ! D121  D(42,39,41,47)        179.8631         estimate D2E/DX2                !
 ! D122  D(37,39,42,48)       -179.9619         estimate D2E/DX2                !
 ! D123  D(41,39,42,48)         -0.0404         estimate D2E/DX2                !
 ! D124  D(39,41,46,48)         -0.0818         estimate D2E/DX2                !
 ! D125  D(39,41,46,49)        179.9951         estimate D2E/DX2                !
 ! D126  D(47,41,46,48)       -179.8506         estimate D2E/DX2                !
 ! D127  D(47,41,46,49)          0.2262         estimate D2E/DX2                !
 ! D128  D(39,41,47,50)        178.4323         estimate D2E/DX2                !
 ! D129  D(46,41,47,50)         -1.8094         estimate D2E/DX2                !
 ! D130  D(39,42,48,46)         -0.0047         estimate D2E/DX2                !
 ! D131  D(39,42,48,51)        179.9343         estimate D2E/DX2                !
 ! D132  D(41,46,48,42)          0.0482         estimate D2E/DX2                !
 ! D133  D(41,46,48,51)       -179.885          estimate D2E/DX2                !
 ! D134  D(49,46,48,42)        179.9723         estimate D2E/DX2                !
 ! D135  D(49,46,48,51)          0.039          estimate D2E/DX2                !
 ! D136  D(41,47,50,52)         61.9744         estimate D2E/DX2                !
 ! D137  D(41,47,50,53)       -179.1408         estimate D2E/DX2                !
 ! D138  D(41,47,50,54)        -60.29           estimate D2E/DX2                !
 --------------------------------------------------------------------------------
 Trust Radius=3.00D-01 FncErr=1.00D-07 GrdErr=1.00D-06 EigMax=2.50D+02 EigMin=1.00D-04
 Number of steps in this run=    307 maximum allowed number of steps=    324.
 GradGradGradGradGradGradGradGradGradGradGradGradGradGradGradGradGradGrad

 Stoichiometry    C26H18N2O6S2
 Framework group  C1[X(C26H18N2O6S2)]
 Deg. of freedom   156
 Full point group                 C1      NOp   1
 Largest Abelian subgroup         C1      NOp   1
 Largest concise Abelian subgroup C1      NOp   1
                         Standard orientation:                         
 ---------------------------------------------------------------------
 Center     Atomic      Atomic             Coordinates (Angstroms)
 Number     Number       Type             X           Y           Z
 ---------------------------------------------------------------------
      1          6           0       -3.544550   -2.644141    0.634266
      2          6           0       -2.790282   -1.411247    0.286183
      3          6           0       -3.468490   -0.186402    0.084336
      4          6           0       -4.873386   -0.118469    0.212274
      5          6           0       -5.659669   -1.333755    0.553957
      6          6           0       -1.427852   -1.476027    0.138101
      7          6           0       -2.705162    0.972125   -0.238047
      8          6           0       -1.282498    0.900693   -0.378871
      9          6           0       -0.624107   -0.349649   -0.223036
     10          6           0       -0.552513    2.179855   -0.592567
     11          6           0       -2.702881    3.450616   -0.699937
     12          6           0       -3.416529    2.189446   -0.405970
     13          6           0       -4.798813    2.237280   -0.280197
     14          6           0       -5.535112    1.086612    0.026102
     15          1           0       -6.613255    1.113717    0.129650
     16          1           0       -5.287326    3.195059   -0.421362
     17          1           0       -0.963165   -2.447073    0.262586
     18          7           0       -1.310498    3.357610   -0.744264
     19          7           0       -4.935060   -2.522758    0.744169
     20          8           0       -3.002290   -3.724497    0.821206
     21          8           0       -6.875899   -1.307768    0.667697
     22          8           0       -3.283845    4.514113   -0.877775
     23          8           0        0.666771    2.285229   -0.632063
     24          6           0       -0.540804    4.586940   -0.965574
     25          1           0        0.130357    4.760693   -0.123129
     26          1           0        0.066441    4.488083   -1.868999
     27          1           0       -1.250336    5.403262   -1.069041
     28          6           0       -5.669264   -3.746639    1.084179
     29          1           0       -5.469738   -4.515599    0.334870
     30          1           0       -5.337319   -4.119655    2.054875
     31          1           0       -6.727615   -3.501487    1.110494
     32          6           0        0.795494   -0.640449   -0.420195
     33          6           0        1.422400   -1.632535   -1.148823
     34         16           0        1.987065    0.282073    0.495833
     35          6           0        2.821082   -1.653800   -0.984165
     36          1           0        0.886148   -2.316821   -1.786989
     37          6           0        3.316936   -0.668453   -0.123748
     38          8           0        3.691850   -2.518012   -1.569639
     39          6           0        4.688084   -0.405451    0.210726
     40          6           0        3.171405   -3.414259   -2.546903
     41          6           0        5.178696    0.561660    1.085940
     42         16           0        6.035268   -1.314615   -0.467918
     43          1           0        4.029732   -3.954444   -2.946801
     44          1           0        2.470272   -4.128513   -2.097733
     45          1           0        2.668079   -2.870966   -3.354932
     46          6           0        6.597219    0.573578    1.207018
     47          8           0        4.305478    1.384698    1.724146
     48          6           0        7.183589   -0.385091    0.425606
     49          1           0        7.152827    1.252748    1.838031
     50          6           0        4.833374    2.339605    2.637400
     51          1           0        8.240105   -0.597928    0.326756
     52          1           0        5.500409    3.048272    2.131554
     53          1           0        3.975773    2.875735    3.041883
     54          1           0        5.375468    1.849300    3.455398
 ---------------------------------------------------------------------
 Rotational constants (GHZ):           0.1669577           0.0561466           0.0458135
 Standard basis: 6-311+G(d,p) (5D, 7F)
 There are   952 symmetry adapted cartesian basis functions of A   symmetry.
 There are   916 symmetry adapted basis functions of A   symmetry.
   916 basis functions,  1468 primitive gaussians,   952 cartesian basis functions
   134 alpha electrons      134 beta electrons
       nuclear repulsion energy      4098.5796715738 Hartrees.
 NAtoms=   54 NActive=   54 NUniq=   54 SFac= 1.00D+00 NAtFMM=   60 NAOKFM=F Big=F
 Integral buffers will be    131072 words long.
 Raffenetti 2 integral format.
 Two-electron integral symmetry is turned on.
 Nuclear repulsion after empirical dispersion term =     4098.5390695340 Hartrees.
 One-electron integrals computed using PRISM.
 NBasis=   916 RedAO= T EigKep=  1.05D-06  NBF=   916
 NBsUse=   902 1.00D-06 EigRej=  7.00D-07 NBFU=   902
 ExpMin= 4.05D-02 ExpMax= 9.34D+04 ExpMxC= 3.17D+03 IAcc=3 IRadAn=         5 AccDes= 0.00D+00
 Harris functional with IExCor= 4639 and IRadAn=       5 diagonalized for initial guess.
 HarFok:  IExCor= 4639 AccDes= 0.00D+00 IRadAn=         5 IDoV= 1 UseB2=F ITyADJ=14
 ICtDFT=  3500011 ScaDFX=  1.000000  1.000000  1.000000  1.000000
 FoFCou: FMM=F IPFlag=           0 FMFlag=      100000 FMFlg1=           0
         NFxFlg=           0 DoJE=T BraDBF=F KetDBF=T FulRan=T
         wScrn=  0.000000 ICntrl=       500 IOpCl=  0 I1Cent=   200000004 NGrid=           0
         NMat0=    1 NMatS0=      1 NMatT0=    0 NMatD0=    1 NMtDS0=    0 NMtDT0=    0
 Petite list used in FoFCou.
 Requested convergence on RMS density matrix=1.00D-08 within 128 cycles.
 Requested convergence on MAX density matrix=1.00D-06.
 Requested convergence on             energy=1.00D-06.
 No special actions if energy rises.
 Restarting incremental Fock formation.
 SCF Done:  E(RwB97XD) =  -2358.75950142     A.U. after   21 cycles
            NFock= 21  Conv=0.36D-08     -V/T= 2.0032

 **********************************************************************

            Population analysis using the SCF Density.

 **********************************************************************

 Orbital symmetries:
       Occupied  (A) (A) (A) (A) (A) (A) (A) (A) (A) (A) (A) (A)
                 (A) (A) (A) (A) (A) (A) (A) (A) (A) (A) (A) (A)
                 (A) (A) (A) (A) (A) (A) (A) (A) (A) (A) (A) (A)
                 (A) (A) (A) (A) (A) (A) (A) (A) (A) (A) (A) (A)
                 (A) (A) (A) (A) (A) (A) (A) (A) (A) (A) (A) (A)
                 (A) (A) (A) (A) (A) (A) (A) (A) (A) (A) (A) (A)
                 (A) (A) (A) (A) (A) (A) (A) (A) (A) (A) (A) (A)
                 (A) (A) (A) (A) (A) (A) (A) (A) (A) (A) (A) (A)
                 (A) (A) (A) (A) (A) (A) (A) (A) (A) (A) (A) (A)
                 (A) (A) (A) (A) (A) (A) (A) (A) (A) (A) (A) (A)
                 (A) (A) (A) (A) (A) (A) (A) (A) (A) (A) (A) (A)
                 (A) (A)
       Virtual   (A) (A) (A) (A) (A) (A) (A) (A) (A) (A) (A) (A)
                 (A) (A) (A) (A) (A) (A) (A) (A) (A) (A) (A) (A)
                 (A) (A) (A) (A) (A) (A) (A) (A) (A) (A) (A) (A)
                 (A) (A) (A) (A) (A) (A) (A) (A) (A) (A) (A) (A)
                 (A) (A) (A) (A) (A) (A) (A) (A) (A) (A) (A) (A)
                 (A) (A) (A) (A) (A) (A) (A) (A) (A) (A) (A) (A)
                 (A) (A) (A) (A) (A) (A) (A) (A) (A) (A) (A) (A)
                 (A) (A) (A) (A) (A) (A) (A) (A) (A) (A) (A) (A)
                 (A) (A) (A) (A) (A) (A) (A) (A) (A) (A) (A) (A)
                 (A) (A) (A) (A) (A) (A) (A) (A) (A) (A) (A) (A)
                 (A) (A) (A) (A) (A) (A) (A) (A) (A) (A) (A) (A)
                 (A) (A) (A) (A) (A) (A) (A) (A) (A) (A) (A) (A)
                 (A) (A) (A) (A) (A) (A) (A) (A) (A) (A) (A) (A)
                 (A) (A) (A) (A) (A) (A) (A) (A) (A) (A) (A) (A)
                 (A) (A) (A) (A) (A) (A) (A) (A) (A) (A) (A) (A)
                 (A) (A) (A) (A) (A) (A) (A) (A) (A) (A) (A) (A)
                 (A) (A) (A) (A) (A) (A) (A) (A) (A) (A) (A) (A)
                 (A) (A) (A) (A) (A) (A) (A) (A) (A) (A) (A) (A)
                 (A) (A) (A) (A) (A) (A) (A) (A) (A) (A) (A) (A)
                 (A) (A) (A) (A) (A) (A) (A) (A) (A) (A) (A) (A)
                 (A) (A) (A) (A) (A) (A) (A) (A) (A) (A) (A) (A)
                 (A) (A) (A) (A) (A) (A) (A) (A) (A) (A) (A) (A)
                 (A) (A) (A) (A) (A) (A) (A) (A) (A) (A) (A) (A)
                 (A) (A) (A) (A) (A) (A) (A) (A) (A) (A) (A) (A)
                 (A) (A) (A) (A) (A) (A) (A) (A) (A) (A) (A) (A)
                 (A) (A) (A) (A) (A) (A) (A) (A) (A) (A) (A) (A)
                 (A) (A) (A) (A) (A) (A) (A) (A) (A) (A) (A) (A)
                 (A) (A) (A) (A) (A) (A) (A) (A) (A) (A) (A) (A)
                 (A) (A) (A) (A) (A) (A) (A) (A) (A) (A) (A) (A)
                 (A) (A) (A) (A) (A) (A) (A) (A) (A) (A) (A) (A)
                 (A) (A) (A) (A) (A) (A) (A) (A) (A) (A) (A) (A)
                 (A) (A) (A) (A) (A) (A) (A) (A) (A) (A) (A) (A)
                 (A) (A) (A) (A) (A) (A) (A) (A) (A) (A) (A) (A)
                 (A) (A) (A) (A) (A) (A) (A) (A) (A) (A) (A) (A)
                 (A) (A) (A) (A) (A) (A) (A) (A) (A) (A) (A) (A)
                 (A) (A) (A) (A) (A) (A) (A) (A) (A) (A) (A) (A)
                 (A) (A) (A) (A) (A) (A) (A) (A) (A) (A) (A) (A)
                 (A) (A) (A) (A) (A) (A) (A) (A) (A) (A) (A) (A)
                 (A) (A) (A) (A) (A) (A) (A) (A) (A) (A) (A) (A)
                 (A) (A) (A) (A) (A) (A) (A) (A) (A) (A) (A) (A)
                 (A) (A) (A) (A) (A) (A) (A) (A) (A) (A) (A) (A)
                 (A) (A) (A) (A) (A) (A) (A) (A) (A) (A) (A) (A)
                 (A) (A) (A) (A) (A) (A) (A) (A) (A) (A) (A) (A)
                 (A) (A) (A) (A) (A) (A) (A) (A) (A) (A) (A) (A)
                 (A) (A) (A) (A) (A) (A) (A) (A) (A) (A) (A) (A)
                 (A) (A) (A) (A) (A) (A) (A) (A) (A) (A) (A) (A)
                 (A) (A) (A) (A) (A) (A) (A) (A) (A) (A) (A) (A)
                 (A) (A) (A) (A) (A) (A) (A) (A) (A) (A) (A) (A)
                 (A) (A) (A) (A) (A) (A) (A) (A) (A) (A) (A) (A)
                 (A) (A) (A) (A) (A) (A) (A) (A) (A) (A) (A) (A)
                 (A) (A) (A) (A) (A) (A) (A) (A) (A) (A) (A) (A)
                 (A) (A) (A) (A) (A) (A) (A) (A) (A) (A) (A) (A)
                 (A) (A) (A) (A) (A) (A) (A) (A) (A) (A) (A) (A)
                 (A) (A) (A) (A) (A) (A) (A) (A) (A) (A) (A) (A)
                 (A) (A) (A) (A) (A) (A) (A) (A) (A) (A) (A) (A)
                 (A) (A) (A) (A) (A) (A) (A) (A) (A) (A) (A) (A)
                 (A) (A) (A) (A) (A) (A) (A) (A) (A) (A) (A) (A)
                 (A) (A) (A) (A) (A) (A) (A) (A) (A) (A) (A) (A)
                 (A) (A) (A) (A) (A) (A) (A) (A) (A) (A) (A) (A)
                 (A) (A) (A) (A) (A) (A) (A) (A) (A) (A) (A) (A)
                 (A) (A) (A) (A) (A) (A) (A) (A) (A) (A) (A) (A)
                 (A) (A) (A) (A) (A) (A) (A) (A) (A) (A) (A) (A)
                 (A) (A) (A) (A) (A) (A) (A) (A) (A) (A) (A) (A)
                 (A) (A) (A) (A) (A) (A) (A) (A) (A) (A) (A) (A)
 The electronic state is 1-A.
 Alpha  occ. eigenvalues --  -89.04524 -89.04125 -19.28819 -19.28684 -19.25278
 Alpha  occ. eigenvalues --  -19.25254 -19.24649 -19.24503 -14.50937 -14.50387
 Alpha  occ. eigenvalues --  -10.43240 -10.43049 -10.42832 -10.42555 -10.36003
 Alpha  occ. eigenvalues --  -10.35444 -10.35107 -10.35061 -10.35017 -10.34586
 Alpha  occ. eigenvalues --  -10.34506 -10.34491 -10.34290 -10.34203 -10.34084
 Alpha  occ. eigenvalues --  -10.33213 -10.33137 -10.33104 -10.33070 -10.32764
 Alpha  occ. eigenvalues --  -10.32435 -10.32361 -10.31940 -10.31842 -10.30243
 Alpha  occ. eigenvalues --  -10.29655  -8.08479  -8.08061  -6.03327  -6.02936
 Alpha  occ. eigenvalues --   -6.02916  -6.02566  -6.02504  -6.02136  -1.19025
 Alpha  occ. eigenvalues --   -1.18591  -1.18018  -1.17894  -1.17062  -1.16538
 Alpha  occ. eigenvalues --   -1.06576  -1.05953  -1.02930  -0.99686  -0.98290
 Alpha  occ. eigenvalues --   -0.96703  -0.94694  -0.90425  -0.88739  -0.87088
 Alpha  occ. eigenvalues --   -0.85541  -0.85183  -0.84280  -0.82490  -0.82253
 Alpha  occ. eigenvalues --   -0.81394  -0.79494  -0.78162  -0.76722  -0.75587
 Alpha  occ. eigenvalues --   -0.74980  -0.74326  -0.69962  -0.68771  -0.67833
 Alpha  occ. eigenvalues --   -0.66734  -0.65659  -0.64582  -0.64102  -0.63203
 Alpha  occ. eigenvalues --   -0.62738  -0.60713  -0.59527  -0.58903  -0.58853
 Alpha  occ. eigenvalues --   -0.57941  -0.57642  -0.57270  -0.56910  -0.56583
 Alpha  occ. eigenvalues --   -0.56246  -0.55959  -0.55384  -0.55176  -0.54249
 Alpha  occ. eigenvalues --   -0.53952  -0.53414  -0.53273  -0.53054  -0.52404
 Alpha  occ. eigenvalues --   -0.51415  -0.51128  -0.50762  -0.50306  -0.49946
 Alpha  occ. eigenvalues --   -0.49634  -0.49565  -0.49415  -0.48829  -0.48269
 Alpha  occ. eigenvalues --   -0.48012  -0.47032  -0.46373  -0.45790  -0.45202
 Alpha  occ. eigenvalues --   -0.43980  -0.43825  -0.42081  -0.41463  -0.41168
 Alpha  occ. eigenvalues --   -0.40851  -0.40038  -0.39544  -0.38396  -0.37526
 Alpha  occ. eigenvalues --   -0.37361  -0.37065  -0.36510  -0.36393  -0.34933
 Alpha  occ. eigenvalues --   -0.33171  -0.31546  -0.30513  -0.25160
 Alpha virt. eigenvalues --   -0.07782  -0.00791   0.00079   0.01940   0.02906
 Alpha virt. eigenvalues --    0.05155   0.05790   0.06115   0.06692   0.06885
 Alpha virt. eigenvalues --    0.07097   0.07519   0.07622   0.07723   0.07918
 Alpha virt. eigenvalues --    0.08260   0.08601   0.08784   0.08942   0.09174
 Alpha virt. eigenvalues --    0.09184   0.09491   0.09979   0.10246   0.10473
 Alpha virt. eigenvalues --    0.10622   0.10989   0.11339   0.11562   0.11727
 Alpha virt. eigenvalues --    0.11910   0.12066   0.12220   0.12832   0.13132
 Alpha virt. eigenvalues --    0.13289   0.13496   0.13827   0.13956   0.14346
 Alpha virt. eigenvalues --    0.14594   0.14727   0.15197   0.15324   0.15424
 Alpha virt. eigenvalues --    0.15711   0.15832   0.16288   0.16746   0.16993
 Alpha virt. eigenvalues --    0.17316   0.17588   0.17680   0.17803   0.18055
 Alpha virt. eigenvalues --    0.18313   0.18715   0.19040   0.19354   0.19593
 Alpha virt. eigenvalues --    0.19857   0.20000   0.20247   0.20508   0.20670
 Alpha virt. eigenvalues --    0.20831   0.21032   0.21122   0.21265   0.21675
 Alpha virt. eigenvalues --    0.21772   0.22002   0.22315   0.22393   0.22782
 Alpha virt. eigenvalues --    0.23225   0.23385   0.23758   0.23809   0.24181
 Alpha virt. eigenvalues --    0.24322   0.24452   0.24570   0.24815   0.24922
 Alpha virt. eigenvalues --    0.25379   0.25430   0.25743   0.25850   0.26085
 Alpha virt. eigenvalues --    0.26319   0.26423   0.26567   0.26673   0.26889
 Alpha virt. eigenvalues --    0.27095   0.27227   0.27599   0.27633   0.27860
 Alpha virt. eigenvalues --    0.28064   0.28239   0.28431   0.28852   0.28907
 Alpha virt. eigenvalues --    0.29078   0.29268   0.29450   0.29847   0.29977
 Alpha virt. eigenvalues --    0.30088   0.30244   0.30399   0.30716   0.30893
 Alpha virt. eigenvalues --    0.31072   0.31199   0.31504   0.31690   0.31867
 Alpha virt. eigenvalues --    0.32194   0.32310   0.32395   0.32565   0.32776
 Alpha virt. eigenvalues --    0.33272   0.33386   0.33589   0.33621   0.33812
 Alpha virt. eigenvalues --    0.33891   0.34338   0.34514   0.34552   0.34902
 Alpha virt. eigenvalues --    0.35253   0.35746   0.35893   0.36026   0.36400
 Alpha virt. eigenvalues --    0.36594   0.36723   0.36890   0.37168   0.37269
 Alpha virt. eigenvalues --    0.37459   0.37829   0.38089   0.38570   0.38767
 Alpha virt. eigenvalues --    0.38915   0.38962   0.39252   0.39551   0.40051
 Alpha virt. eigenvalues --    0.40141   0.40438   0.40666   0.40985   0.41162
 Alpha virt. eigenvalues --    0.41537   0.42111   0.42267   0.42850   0.42976
 Alpha virt. eigenvalues --    0.43203   0.43439   0.43928   0.44424   0.44782
 Alpha virt. eigenvalues --    0.44940   0.45196   0.45440   0.45535   0.46754
 Alpha virt. eigenvalues --    0.47029   0.47286   0.48104   0.48427   0.49028
 Alpha virt. eigenvalues --    0.49397   0.49859   0.50117   0.50603   0.50987
 Alpha virt. eigenvalues --    0.51739   0.51766   0.52488   0.52699   0.52787
 Alpha virt. eigenvalues --    0.53026   0.53470   0.53548   0.53947   0.54232
 Alpha virt. eigenvalues --    0.54502   0.55389   0.55929   0.56084   0.56841
 Alpha virt. eigenvalues --    0.57099   0.57209   0.57986   0.58254   0.58583
 Alpha virt. eigenvalues --    0.59197   0.60125   0.60374   0.60938   0.61657
 Alpha virt. eigenvalues --    0.62060   0.62463   0.62811   0.63531   0.63825
 Alpha virt. eigenvalues --    0.64323   0.64408   0.64626   0.64897   0.65326
 Alpha virt. eigenvalues --    0.65428   0.66051   0.66902   0.67444   0.67706
 Alpha virt. eigenvalues --    0.68152   0.68387   0.68503   0.68683   0.69310
 Alpha virt. eigenvalues --    0.69561   0.70004   0.70176   0.70345   0.70994
 Alpha virt. eigenvalues --    0.71529   0.72132   0.72370   0.72621   0.72704
 Alpha virt. eigenvalues --    0.73239   0.73613   0.73947   0.74064   0.74283
 Alpha virt. eigenvalues --    0.75005   0.75090   0.75940   0.76009   0.76322
 Alpha virt. eigenvalues --    0.76792   0.76989   0.77535   0.78073   0.78117
 Alpha virt. eigenvalues --    0.78900   0.79386   0.79572   0.80224   0.80459
 Alpha virt. eigenvalues --    0.80718   0.81081   0.81431   0.81518   0.82012
 Alpha virt. eigenvalues --    0.82452   0.82665   0.82824   0.83140   0.83629
 Alpha virt. eigenvalues --    0.83905   0.84264   0.84877   0.84975   0.85511
 Alpha virt. eigenvalues --    0.85986   0.86312   0.86409   0.86961   0.87467
 Alpha virt. eigenvalues --    0.87740   0.88067   0.88563   0.90022   0.90170
 Alpha virt. eigenvalues --    0.90558   0.91600   0.92158   0.92817   0.93168
 Alpha virt. eigenvalues --    0.94193   0.94732   0.95425   0.96013   0.96570
 Alpha virt. eigenvalues --    0.97193   0.97517   0.97761   0.98320   0.99021
 Alpha virt. eigenvalues --    0.99719   1.00019   1.00437   1.00740   1.01102
 Alpha virt. eigenvalues --    1.01779   1.01901   1.02391   1.02720   1.03175
 Alpha virt. eigenvalues --    1.04045   1.04147   1.04492   1.05027   1.05579
 Alpha virt. eigenvalues --    1.05688   1.05951   1.07254   1.07555   1.08543
 Alpha virt. eigenvalues --    1.08553   1.08761   1.09200   1.10184   1.10423
 Alpha virt. eigenvalues --    1.10918   1.11400   1.11759   1.11984   1.12656
 Alpha virt. eigenvalues --    1.13042   1.13292   1.13799   1.14175   1.14687
 Alpha virt. eigenvalues --    1.14765   1.15385   1.15951   1.16179   1.16442
 Alpha virt. eigenvalues --    1.16937   1.17539   1.18018   1.18161   1.18773
 Alpha virt. eigenvalues --    1.18949   1.19698   1.20495   1.21364   1.22301
 Alpha virt. eigenvalues --    1.22714   1.23748   1.24266   1.25156   1.25783
 Alpha virt. eigenvalues --    1.26213   1.27059   1.27215   1.28118   1.28598
 Alpha virt. eigenvalues --    1.29421   1.30507   1.30573   1.32236   1.32770
 Alpha virt. eigenvalues --    1.33360   1.34248   1.34320   1.34694   1.35295
 Alpha virt. eigenvalues --    1.36024   1.36552   1.37157   1.38481   1.38840
 Alpha virt. eigenvalues --    1.40358   1.40989   1.41291   1.42144   1.42552
 Alpha virt. eigenvalues --    1.43776   1.44443   1.44831   1.46010   1.46884
 Alpha virt. eigenvalues --    1.48859   1.49210   1.49351   1.50267   1.50421
 Alpha virt. eigenvalues --    1.51333   1.51558   1.51706   1.52110   1.52548
 Alpha virt. eigenvalues --    1.53075   1.53179   1.53573   1.53743   1.54077
 Alpha virt. eigenvalues --    1.54345   1.55028   1.55501   1.56241   1.56776
 Alpha virt. eigenvalues --    1.57472   1.58676   1.59434   1.59622   1.60746
 Alpha virt. eigenvalues --    1.61079   1.62150   1.62469   1.62847   1.63270
 Alpha virt. eigenvalues --    1.63557   1.63830   1.64086   1.64371   1.65020
 Alpha virt. eigenvalues --    1.65756   1.66345   1.67407   1.67950   1.69409
 Alpha virt. eigenvalues --    1.70502   1.71190   1.71697   1.71806   1.72393
 Alpha virt. eigenvalues --    1.73017   1.73996   1.74175   1.75386   1.75673
 Alpha virt. eigenvalues --    1.76077   1.76590   1.76928   1.77463   1.78072
 Alpha virt. eigenvalues --    1.78274   1.78825   1.79091   1.79174   1.79592
 Alpha virt. eigenvalues --    1.80241   1.81803   1.82132   1.83441   1.83750
 Alpha virt. eigenvalues --    1.84574   1.85376   1.85398   1.86722   1.87154
 Alpha virt. eigenvalues --    1.87445   1.88112   1.88280   1.89291   1.90172
 Alpha virt. eigenvalues --    1.91530   1.92017   1.92716   1.93688   1.94199
 Alpha virt. eigenvalues --    1.94672   1.95602   1.95898   1.96373   1.97065
 Alpha virt. eigenvalues --    1.97290   1.98307   1.98417   1.99136   1.99749
 Alpha virt. eigenvalues --    2.00196   2.00430   2.01573   2.01969   2.02940
 Alpha virt. eigenvalues --    2.03813   2.04424   2.04800   2.05458   2.06138
 Alpha virt. eigenvalues --    2.07576   2.07767   2.09469   2.09801   2.10503
 Alpha virt. eigenvalues --    2.10841   2.11434   2.11691   2.12413   2.12926
 Alpha virt. eigenvalues --    2.13387   2.14685   2.15063   2.15439   2.16728
 Alpha virt. eigenvalues --    2.17299   2.17606   2.18008   2.19129   2.20107
 Alpha virt. eigenvalues --    2.21026   2.21334   2.21624   2.22469   2.23450
 Alpha virt. eigenvalues --    2.24139   2.24638   2.25010   2.25513   2.26922
 Alpha virt. eigenvalues --    2.28118   2.28565   2.29231   2.29327   2.30453
 Alpha virt. eigenvalues --    2.31115   2.32549   2.34377   2.34700   2.35626
 Alpha virt. eigenvalues --    2.36806   2.40250   2.40800   2.41453   2.43118
 Alpha virt. eigenvalues --    2.44023   2.46305   2.47680   2.48344   2.50545
 Alpha virt. eigenvalues --    2.52528   2.52726   2.53122   2.53406   2.54613
 Alpha virt. eigenvalues --    2.55481   2.56320   2.56764   2.56999   2.58294
 Alpha virt. eigenvalues --    2.58412   2.59688   2.60845   2.61611   2.61727
 Alpha virt. eigenvalues --    2.61932   2.62238   2.62601   2.63403   2.64515
 Alpha virt. eigenvalues --    2.65444   2.65866   2.67549   2.67885   2.68666
 Alpha virt. eigenvalues --    2.69639   2.71530   2.72968   2.73668   2.73975
 Alpha virt. eigenvalues --    2.75346   2.76209   2.77250   2.77442   2.77534
 Alpha virt. eigenvalues --    2.78071   2.78910   2.79494   2.79794   2.80258
 Alpha virt. eigenvalues --    2.80662   2.81242   2.81605   2.83641   2.83807
 Alpha virt. eigenvalues --    2.84777   2.85863   2.87272   2.87520   2.88004
 Alpha virt. eigenvalues --    2.89605   2.91412   2.92003   2.93088   2.93663
 Alpha virt. eigenvalues --    2.94192   2.94284   2.94898   2.95212   2.95864
 Alpha virt. eigenvalues --    2.96427   2.96895   2.97605   2.98607   2.99159
 Alpha virt. eigenvalues --    3.00012   3.00691   3.01165   3.02306   3.03060
 Alpha virt. eigenvalues --    3.04572   3.04878   3.05707   3.06900   3.08192
 Alpha virt. eigenvalues --    3.09415   3.10538   3.11951   3.13291   3.14157
 Alpha virt. eigenvalues --    3.14467   3.15858   3.16077   3.18240   3.18362
 Alpha virt. eigenvalues --    3.20018   3.20877   3.22789   3.23248   3.24642
 Alpha virt. eigenvalues --    3.25284   3.26683   3.28078   3.29948   3.30268
 Alpha virt. eigenvalues --    3.31865   3.32894   3.33421   3.33646   3.34166
 Alpha virt. eigenvalues --    3.36723   3.38072   3.39799   3.41723   3.42295
 Alpha virt. eigenvalues --    3.42685   3.43146   3.43459   3.43828   3.45122
 Alpha virt. eigenvalues --    3.46881   3.47960   3.49275   3.51392   3.51594
 Alpha virt. eigenvalues --    3.52100   3.54050   3.54967   3.56195   3.58087
 Alpha virt. eigenvalues --    3.59135   3.60087   3.63033   3.65500   3.66810
 Alpha virt. eigenvalues --    3.68633   3.69461   3.71006   3.74087   3.75466
 Alpha virt. eigenvalues --    3.76109   3.79355   3.80062   3.81852   3.82574
 Alpha virt. eigenvalues --    3.85626   3.86351   3.86481   3.91442   3.92554
 Alpha virt. eigenvalues --    3.94648   3.94851   3.95968   3.99408   4.01167
 Alpha virt. eigenvalues --    4.02123   4.03648   4.04866   4.06449   4.10527
 Alpha virt. eigenvalues --    4.13579   4.14149   4.18243   4.20732   4.22098
 Alpha virt. eigenvalues --    4.24587   4.29444   4.33307   4.34889   4.36963
 Alpha virt. eigenvalues --    4.44774   4.48138   4.49817   4.61127   4.77302
 Alpha virt. eigenvalues --    4.93512   4.95279   4.97384   5.00469   5.13713
 Alpha virt. eigenvalues --    5.14563   5.14947   5.16400   5.16629   5.19443
 Alpha virt. eigenvalues --    5.21366   5.23156   5.35753   5.37492   5.39589
 Alpha virt. eigenvalues --    5.42174   5.54188   5.55484   5.86107   5.88094
 Alpha virt. eigenvalues --    5.90628   5.91643   5.92297   5.95835   8.13901
 Alpha virt. eigenvalues --    8.18439  17.43681  17.49904  17.64070  17.67094
 Alpha virt. eigenvalues --   17.72062  17.77987  23.61741  23.70037  23.85445
 Alpha virt. eigenvalues --   23.91714  23.94527  23.95882  23.96697  23.99025
 Alpha virt. eigenvalues --   23.99246  24.00601  24.02675  24.03724  24.04858
 Alpha virt. eigenvalues --   24.05532  24.07609  24.07987  24.09049  24.10380
 Alpha virt. eigenvalues --   24.12754  24.15409  24.16384  24.17302  24.24708
 Alpha virt. eigenvalues --   24.26292  24.26439  24.28051  35.69089  35.72053
 Alpha virt. eigenvalues --   50.10626  50.12041  50.15384  50.17412  50.19117
 Alpha virt. eigenvalues --   50.20816 189.39325 189.44650
          Condensed to atoms (all electrons):
 Mulliken charges:
               1
     1  C    0.415995
     2  C   -0.017736
     3  C    0.048622
     4  C    0.214225
     5  C    0.311457
     6  C   -0.501661
     7  C    0.088022
     8  C    0.026557
     9  C    0.300698
    10  C   -0.182074
    11  C    0.387708
    12  C    0.202615
    13  C   -0.563972
    14  C   -0.729214
    15  H    0.190195
    16  H    0.192684
    17  H    0.193485
    18  N   -0.082089
    19  N   -0.086239
    20  O   -0.263655
    21  O   -0.270899
    22  O   -0.272275
    23  O   -0.179508
    24  C   -0.282384
    25  H    0.194749
    26  H    0.195883
    27  H    0.202598
    28  C   -0.277607
    29  H    0.192205
    30  H    0.195350
    31  H    0.201299
    32  C   -0.174848
    33  C   -0.019876
    34  S   -0.526196
    35  C   -0.157649
    36  H    0.156800
    37  C    0.347725
    38  O   -0.104266
    39  C    0.872937
    40  C   -0.297416
    41  C    0.067380
    42  S   -0.291558
    43  H    0.182973
    44  H    0.161505
    45  H    0.164301
    46  C   -0.490833
    47  O   -0.119283
    48  C   -0.349875
    49  H    0.155860
    50  C   -0.308220
    51  H    0.186954
    52  H    0.158681
    53  H    0.181668
    54  H    0.158198
 Sum of Mulliken charges =  -0.00000
 Mulliken charges with hydrogens summed into heavy atoms:
               1
     1  C    0.415995
     2  C   -0.017736
     3  C    0.048622
     4  C    0.214225
     5  C    0.311457
     6  C   -0.308176
     7  C    0.088022
     8  C    0.026557
     9  C    0.300698
    10  C   -0.182074
    11  C    0.387708
    12  C    0.202615
    13  C   -0.371288
    14  C   -0.539019
    18  N   -0.082089
    19  N   -0.086239
    20  O   -0.263655
    21  O   -0.270899
    22  O   -0.272275
    23  O   -0.179508
    24  C    0.310847
    28  C    0.311247
    32  C   -0.174848
    33  C    0.136924
    34  S   -0.526196
    35  C   -0.157649
    37  C    0.347725
    38  O   -0.104266
    39  C    0.872937
    40  C    0.211363
    41  C    0.067380
    42  S   -0.291558
    46  C   -0.334973
    47  O   -0.119283
    48  C   -0.162921
    50  C    0.190327
 Electronic spatial extent (au):  <R**2>=          22269.4035
 Charge=             -0.0000 electrons
 Dipole moment (field-independent basis, Debye):
    X=              2.2167    Y=             -0.0703    Z=             -0.0015  Tot=              2.2179
 Quadrupole moment (field-independent basis, Debye-Ang):
   XX=           -214.4831   YY=           -219.1886   ZZ=           -210.3240
   XY=             10.4955   XZ=              6.3770   YZ=             16.7868
 Traceless Quadrupole moment (field-independent basis, Debye-Ang):
   XX=              0.1821   YY=             -4.5234   ZZ=              4.3412
   XY=             10.4955   XZ=              6.3770   YZ=             16.7868
 Octapole moment (field-independent basis, Debye-Ang**2):
  XXX=            301.2542  YYY=            -31.2164  ZZZ=              3.2237  XYY=             70.5214
  XXY=             17.7120  XXZ=             53.3282  XZZ=             37.7405  YZZ=             -5.5600
  YYZ=             -9.0250  XYZ=             47.8439
 Hexadecapole moment (field-independent basis, Debye-Ang**3):
 XXXX=         -21352.9102 YYYY=          -6778.6621 ZZZZ=          -1454.5040 XXXY=            189.5737
 XXXZ=            425.2159 YYYX=            421.3693 YYYZ=            205.6962 ZZZX=             -5.7626
 ZZZY=             93.2605 XXYY=          -4584.4490 XXZZ=          -3776.6482 YYZZ=          -1234.1819
 XXYZ=            263.7742 YYXZ=           -110.6871 ZZXY=             84.2222
 N-N= 4.098539069534D+03 E-N=-1.373644885536D+04  KE= 2.351203011517D+03
 Calling FoFJK, ICntrl=      2127 FMM=F ISym2X=0 I1Cent= 0 IOpClX= 0 NMat=1 NMatS=1 NMatT=0.
 ***** Axes restored to original set *****
 -------------------------------------------------------------------
 Center     Atomic                   Forces (Hartrees/Bohr)
 Number     Number              X              Y              Z
 -------------------------------------------------------------------
      1        6           0.006723421   -0.014296025   -0.000985324
      2        6           0.002601067    0.005499241   -0.000491399
      3        6           0.003331027    0.002725399    0.000161761
      4        6          -0.003733712    0.007674235    0.001571795
      5        6          -0.011645357   -0.009307207   -0.001055508
      6        6          -0.003263902    0.002720336   -0.008168086
      7        6          -0.002020607   -0.004484810    0.001746537
      8        6           0.006211422   -0.013646868    0.004706311
      9        6          -0.018627546   -0.000690994   -0.006359755
     10        6           0.013204057    0.016588422    0.001152961
     11        6          -0.005989071    0.015234990    0.002075714
     12        6          -0.005434190   -0.005852081   -0.000687301
     13        6           0.007849959    0.002106364   -0.000081284
     14        6           0.007774798   -0.005591469   -0.000919865
     15        1           0.000345754    0.000588144    0.000006030
     16        1           0.000436496   -0.000882002   -0.000233582
     17        1           0.002018610    0.001461548    0.002470387
     18        7          -0.001723909   -0.002114595   -0.001696593
     19        7           0.000586730    0.002127599    0.000055547
     20        8          -0.014336007    0.014896069    0.001773917
     21        8           0.018370116    0.006349911    0.000557054
     22        8           0.014727451   -0.014578387   -0.001914391
     23        8          -0.027700208   -0.007148609   -0.006662014
     24        6           0.001005112   -0.001535893   -0.001718187
     25        1          -0.000870669   -0.000451208   -0.000364188
     26        1          -0.001496436   -0.001011875    0.001068246
     27        1           0.000663909    0.000010679    0.000098921
     28        6           0.001181148    0.001812635   -0.000104237
     29        1          -0.000853195    0.000844586    0.000918930
     30        1          -0.000608094    0.000869441   -0.000344283
     31        1           0.000674573   -0.000280142   -0.000024812
     32        6           0.020329428    0.019123084    0.021574895
     33        6          -0.010695296   -0.003031546    0.005016646
     34       16           0.011488214   -0.012255866   -0.014556927
     35        6           0.005993207    0.007873536    0.010080899
     36        1          -0.001490405   -0.001717301   -0.001727899
     37        6          -0.015654623   -0.011223119   -0.009469043
     38        8          -0.004116302   -0.001563524   -0.006880123
     39        6           0.013100728    0.005918597    0.009858923
     40        6           0.000670284    0.001990694    0.005651574
     41        6          -0.004481396   -0.004201919   -0.006935061
     42       16          -0.004375829    0.003932906    0.009380347
     43        1          -0.001164218    0.000222290    0.000609410
     44        1           0.000536080    0.000902691    0.000704346
     45        1           0.000881342    0.000375559    0.000524873
     46        6           0.001671266   -0.002757204   -0.005510127
     47        8           0.005288861    0.001415068    0.002327911
     48        6          -0.005822139   -0.000990922   -0.000225032
     49        1           0.000153477   -0.000081443   -0.000207767
     50        6           0.001215215   -0.002104173   -0.004352197
     51        1          -0.001954892   -0.000223820    0.000052062
     52        1          -0.000649595   -0.001035695   -0.000616595
     53        1           0.000481295   -0.000200924   -0.000749693
     54        1          -0.000807449   -0.000004407   -0.001104723
 -------------------------------------------------------------------
 Cartesian Forces:  Max     0.027700208 RMS     0.006926660

 GradGradGradGradGradGradGradGradGradGradGradGradGradGradGradGradGradGrad
 Berny optimization.
 FormGI is forming the generalized inverse of G from B-inverse, IUseBI=4.
 Internal  Forces:  Max     0.030721750 RMS     0.005388591
 Search for a local minimum.
 Step number   1 out of a maximum of  307
 All quantities printed in internal units (Hartrees-Bohrs-Radians)
 Mixed Optimization -- RFO/linear search
 Second derivative matrix not updated -- first step.
 ITU=  0
     Eigenvalues ---    0.00803   0.00803   0.01176   0.01203   0.01245
     Eigenvalues ---    0.01292   0.01308   0.01311   0.01368   0.01389
     Eigenvalues ---    0.01419   0.01429   0.01459   0.01496   0.01516
     Eigenvalues ---    0.01568   0.01576   0.01577   0.01617   0.01652
     Eigenvalues ---    0.01694   0.01709   0.01711   0.01719   0.01754
     Eigenvalues ---    0.01783   0.01803   0.01847   0.01965   0.02040
     Eigenvalues ---    0.02046   0.02069   0.02077   0.02082   0.02135
     Eigenvalues ---    0.02149   0.02163   0.02179   0.02197   0.02229
     Eigenvalues ---    0.02233   0.02250   0.07556   0.07572   0.07690
     Eigenvalues ---    0.07700   0.10064   0.10068   0.10630   0.10634
     Eigenvalues ---    0.15983   0.15999   0.15999   0.16000   0.16000
     Eigenvalues ---    0.16000   0.16000   0.16000   0.16000   0.16000
     Eigenvalues ---    0.16000   0.16000   0.16000   0.16000   0.16000
     Eigenvalues ---    0.16000   0.16000   0.16000   0.22530   0.22583
     Eigenvalues ---    0.23518   0.23582   0.24516   0.24747   0.24867
     Eigenvalues ---    0.24931   0.24952   0.24985   0.24987   0.24988
     Eigenvalues ---    0.24990   0.24994   0.24997   0.24997   0.24998
     Eigenvalues ---    0.24998   0.25000   0.25000   0.25000   0.25000
     Eigenvalues ---    0.25000   0.25000   0.25000   0.25000   0.25000
     Eigenvalues ---    0.25000   0.28854   0.28923   0.30121   0.32118
     Eigenvalues ---    0.32582   0.32774   0.33111   0.33787   0.34011
     Eigenvalues ---    0.34017   0.34036   0.34118   0.34354   0.34466
     Eigenvalues ---    0.34577   0.34629   0.34693   0.34794   0.34897
     Eigenvalues ---    0.35198   0.35218   0.35468   0.35553   0.35582
     Eigenvalues ---    0.35722   0.35897   0.36078   0.36083   0.36181
     Eigenvalues ---    0.36396   0.36662   0.39352   0.40188   0.40194
     Eigenvalues ---    0.40651   0.40721   0.41524   0.41792   0.42031
     Eigenvalues ---    0.42300   0.42755   0.43455   0.43859   0.44092
     Eigenvalues ---    0.44594   0.44623   0.45014   0.45406   0.46251
     Eigenvalues ---    0.47305   0.47590   0.49310   0.49597   0.53076
     Eigenvalues ---    0.53126   0.93281   0.93432   0.93989   0.94585
     Eigenvalues --- 1000.000001000.000001000.000001000.000001000.00000
     Eigenvalues --- 1000.000001000.000001000.000001000.000001000.00000
     Eigenvalues --- 1000.000001000.000001000.000001000.000001000.00000
     Eigenvalues --- 1000.000001000.000001000.000001000.000001000.00000
     Eigenvalues --- 1000.000001000.000001000.000001000.000001000.00000
     Eigenvalues --- 1000.000001000.000001000.000001000.000001000.00000
     Eigenvalues --- 1000.000001000.000001000.000001000.000001000.00000
     Eigenvalues --- 1000.000001000.000001000.000001000.000001000.00000
     Eigenvalues --- 1000.000001000.000001000.000001000.000001000.00000
     Eigenvalues --- 1000.000001000.000001000.000001000.000001000.00000
     Eigenvalues --- 1000.000001000.000001000.000001000.000001000.00000
     Eigenvalues --- 1000.000001000.000001000.000001000.000001000.00000
     Eigenvalues --- 1000.000001000.000001000.000001000.000001000.00000
     Eigenvalues --- 1000.000001000.000001000.000001000.000001000.00000
     Eigenvalues --- 1000.000001000.000001000.000001000.000001000.00000
     Eigenvalues --- 1000.000001000.000001000.000001000.000001000.00000
     Eigenvalues --- 1000.000001000.000001000.000001000.000001000.00000
     Eigenvalues --- 1000.000001000.000001000.000001000.000001000.00000
     Eigenvalues --- 1000.000001000.000001000.000001000.000001000.00000
     Eigenvalues --- 1000.000001000.000001000.000001000.000001000.00000
     Eigenvalues --- 1000.000001000.000001000.000001000.000001000.00000
     Eigenvalues --- 1000.000001000.000001000.000001000.000001000.00000
     Eigenvalues --- 1000.000001000.000001000.000001000.000001000.00000
     Eigenvalues --- 1000.000001000.000001000.000001000.000001000.00000
     Eigenvalues --- 1000.000001000.000001000.000001000.000001000.00000
     Eigenvalues --- 1000.000001000.000001000.000001000.000001000.00000
     Eigenvalues --- 1000.000001000.000001000.000001000.000001000.00000
     Eigenvalues --- 1000.000001000.000001000.000001000.000001000.00000
     Eigenvalues --- 1000.000001000.00000
 RFO step:  Lambda=-3.07511707D-02 EMin= 8.02933640D-03
 Linear search not attempted -- first point.
 Iteration  1 RMS(Cart)=  0.38774652 RMS(Int)=  0.01014364
 Iteration  2 RMS(Cart)=  0.04508295 RMS(Int)=  0.00120041
 Iteration  3 RMS(Cart)=  0.00051682 RMS(Int)=  0.00119714
 Iteration  4 RMS(Cart)=  0.00000387 RMS(Int)=  0.00119714
 Iteration  5 RMS(Cart)=  0.00000002 RMS(Int)=  0.00119714
 Iteration  1 RMS(Cart)=  0.00014803 RMS(Int)=  0.00002382
 Iteration  2 RMS(Cart)=  0.00008398 RMS(Int)=  0.00002659
 Iteration  3 RMS(Cart)=  0.00004765 RMS(Int)=  0.00003016
 Iteration  4 RMS(Cart)=  0.00002703 RMS(Int)=  0.00003263
 Iteration  5 RMS(Cart)=  0.00001534 RMS(Int)=  0.00003414
 Iteration  6 RMS(Cart)=  0.00000870 RMS(Int)=  0.00003502
 Iteration  7 RMS(Cart)=  0.00000494 RMS(Int)=  0.00003554
 Iteration  8 RMS(Cart)=  0.00000280 RMS(Int)=  0.00003583
 Iteration  9 RMS(Cart)=  0.00000159 RMS(Int)=  0.00003600
 Iteration 10 RMS(Cart)=  0.00000090 RMS(Int)=  0.00003609
 Variable       Old X    -DE/DX   Delta X   Delta X   Delta X     New X
                                 (Linear)    (Quad)   (Total)
    R1        2.80935  -0.00167   0.00000  -0.00483  -0.00482   2.80453
    R2        2.64584  -0.00753   0.00000  -0.01588  -0.01588   2.62996
    R3        2.31147  -0.02074   0.00000  -0.02137  -0.02137   2.29010
    R4        2.67311  -0.00926   0.00000  -0.02039  -0.02048   2.65263
    R5        2.59267  -0.01024   0.00000  -0.02036  -0.02044   2.57223
    R6        2.66894  -0.00407   0.00000  -0.00820  -0.00819   2.66075
    R7        2.69164  -0.00810   0.00000  -0.01631  -0.01631   2.67533
    R8        2.81049  -0.00137   0.00000  -0.00341  -0.00342   2.80707
    R9        2.62173  -0.01159   0.00000  -0.02345  -0.02344   2.59828
   R10        2.65570  -0.00781   0.00000  -0.01653  -0.01653   2.63917
   R11        2.30889  -0.01944   0.00000  -0.01991  -0.01991   2.28898
   R12        2.70248  -0.00756   0.00000  -0.01815  -0.01815   2.68433
   R13        2.04786   0.00004   0.00000   0.00010   0.00010   2.04796
   R14        2.70495   0.00038   0.00000   0.00397   0.00412   2.70908
   R15        2.68322  -0.00369   0.00000  -0.00644  -0.00648   2.67674
   R16        2.68655  -0.00345   0.00000  -0.00698  -0.00689   2.67966
   R17        2.81233   0.00456   0.00000   0.01300   0.01311   2.82544
   R18        2.76359   0.00950   0.00000   0.02391   0.02391   2.78750
   R19        2.66221  -0.00755   0.00000  -0.01694  -0.01691   2.64529
   R20        2.31391  -0.02887   0.00000  -0.02992  -0.02992   2.28399
   R21        2.79415  -0.00290   0.00000  -0.00826  -0.00838   2.78577
   R22        2.63842  -0.01091   0.00000  -0.02345  -0.02352   2.61490
   R23        2.31456  -0.02079   0.00000  -0.02158  -0.02158   2.29298
   R24        2.62448  -0.00981   0.00000  -0.01947  -0.01948   2.60500
   R25        2.64561  -0.00370   0.00000  -0.00836  -0.00836   2.63725
   R26        2.04921  -0.00095   0.00000  -0.00246  -0.00246   2.04675
   R27        2.04741  -0.00051   0.00000  -0.00133  -0.00133   2.04608
   R28        2.77259  -0.00319   0.00000  -0.00815  -0.00815   2.76444
   R29        2.77252  -0.00329   0.00000  -0.00840  -0.00840   2.76412
   R30        2.06176  -0.00079   0.00000  -0.00209  -0.00209   2.05967
   R31        2.06551  -0.00201   0.00000  -0.00536  -0.00536   2.06015
   R32        2.05322  -0.00056   0.00000  -0.00146  -0.00146   2.05176
   R33        2.06368  -0.00140   0.00000  -0.00373  -0.00373   2.05995
   R34        2.06281  -0.00096   0.00000  -0.00254  -0.00254   2.06027
   R35        2.05355  -0.00064   0.00000  -0.00167  -0.00167   2.05188
   R36        2.61038  -0.00905   0.00000  -0.01687  -0.01633   2.59406
   R37        3.33256  -0.01253   0.00000  -0.03740  -0.03679   3.29577
   R38        2.66168  -0.00163   0.00000  -0.00394  -0.00400   2.65769
   R39        2.03799   0.00267   0.00000   0.00680   0.00680   2.04479
   R40        3.30347  -0.00848   0.00000  -0.02546  -0.02588   3.27760
   R41        2.64366  -0.01561   0.00000  -0.03292  -0.03365   2.61001
   R42        2.56883  -0.00334   0.00000  -0.00595  -0.00595   2.56288
   R43        2.71298   0.00385   0.00000   0.00889   0.00889   2.72187
   R44        2.69189  -0.00831   0.00000  -0.01853  -0.01853   2.67336
   R45        2.63344  -0.01327   0.00000  -0.02708  -0.02708   2.60636
   R46        3.32830  -0.00816   0.00000  -0.02499  -0.02498   3.30332
   R47        2.06010  -0.00132   0.00000  -0.00349  -0.00349   2.05660
   R48        2.07311  -0.00098   0.00000  -0.00264  -0.00264   2.07047
   R49        2.07131  -0.00061   0.00000  -0.00165  -0.00165   2.06966
   R50        2.69046  -0.00286   0.00000  -0.00678  -0.00679   2.68367
   R51        2.56837  -0.00733   0.00000  -0.01304  -0.01304   2.55533
   R52        3.26274  -0.00756   0.00000  -0.02037  -0.02037   3.24237
   R53        2.58657  -0.00783   0.00000  -0.01432  -0.01432   2.57224
   R54        2.04243  -0.00017   0.00000  -0.00043  -0.00043   2.04200
   R55        2.68883  -0.00750   0.00000  -0.01663  -0.01663   2.67220
   R56        2.04518  -0.00197   0.00000  -0.00507  -0.00507   2.04012
   R57        2.07270  -0.00111   0.00000  -0.00298  -0.00298   2.06972
   R58        2.05843  -0.00076   0.00000  -0.00200  -0.00200   2.05643
   R59        2.07301  -0.00116   0.00000  -0.00313  -0.00313   2.06988
    A1        2.03797   0.00106   0.00000   0.00284   0.00284   2.04081
    A2        2.14521  -0.00116   0.00000  -0.00368  -0.00368   2.14153
    A3        2.10001   0.00010   0.00000   0.00084   0.00083   2.10084
    A4        2.10395   0.00084   0.00000   0.00431   0.00431   2.10826
    A5        2.08282  -0.00007   0.00000   0.00074   0.00076   2.08358
    A6        2.09624  -0.00076   0.00000  -0.00484  -0.00493   2.09131
    A7        2.10093  -0.00153   0.00000  -0.00655  -0.00658   2.09435
    A8        2.07104   0.00034   0.00000   0.00080   0.00078   2.07182
    A9        2.11118   0.00119   0.00000   0.00587   0.00582   2.11700
   A10        2.10296   0.00023   0.00000   0.00200   0.00198   2.10494
   A11        2.09911   0.00075   0.00000   0.00254   0.00251   2.10162
   A12        2.08110  -0.00098   0.00000  -0.00450  -0.00448   2.07661
   A13        2.03739   0.00048   0.00000   0.00207   0.00204   2.03944
   A14        2.12972  -0.00039   0.00000  -0.00157  -0.00157   2.12815
   A15        2.11607  -0.00009   0.00000  -0.00049  -0.00048   2.11558
   A16        2.15098   0.00372   0.00000   0.01245   0.01198   2.16296
   A17        2.04399   0.00089   0.00000   0.00914   0.00862   2.05261
   A18        2.08722  -0.00448   0.00000  -0.01914  -0.01965   2.06757
   A19        2.11101   0.00201   0.00000   0.00734   0.00741   2.11842
   A20        2.04385  -0.00294   0.00000  -0.01187  -0.01208   2.03176
   A21        2.12832   0.00094   0.00000   0.00462   0.00450   2.13282
   A22        2.08678  -0.00494   0.00000  -0.01393  -0.01464   2.07214
   A23        2.04738  -0.00688   0.00000  -0.02046  -0.02130   2.02609
   A24        2.14662   0.01205   0.00000   0.03944   0.03833   2.18495
   A25        2.04892  -0.00024   0.00000   0.00040   0.00060   2.04952
   A26        2.00754  -0.02797   0.00000  -0.10020  -0.10031   1.90723
   A27        2.22643   0.02819   0.00000   0.09991   0.09981   2.32624
   A28        2.06022   0.00394   0.00000   0.01523   0.01509   2.07531
   A29        2.17370   0.00236   0.00000   0.00801   0.00773   2.18143
   A30        2.04919  -0.00629   0.00000  -0.02276  -0.02305   2.02614
   A31        2.01621   0.00028   0.00000  -0.00037  -0.00074   2.01547
   A32        2.14188  -0.00103   0.00000  -0.00282  -0.00284   2.13904
   A33        2.12500   0.00077   0.00000   0.00361   0.00358   2.12858
   A34        2.10943   0.00124   0.00000   0.00584   0.00566   2.11509
   A35        2.11468   0.00173   0.00000   0.00759   0.00757   2.12224
   A36        2.05896  -0.00296   0.00000  -0.01319  -0.01311   2.04586
   A37        2.11176   0.00003   0.00000   0.00031   0.00023   2.11199
   A38        2.05670   0.00034   0.00000   0.00170   0.00172   2.05842
   A39        2.11471  -0.00036   0.00000  -0.00196  -0.00194   2.11278
   A40        2.08567  -0.00074   0.00000  -0.00396  -0.00404   2.08163
   A41        2.07549   0.00082   0.00000   0.00441   0.00439   2.07988
   A42        2.12199  -0.00008   0.00000  -0.00033  -0.00035   2.12164
   A43        2.20043   0.00073   0.00000   0.00059   0.00051   2.20094
   A44        2.02023  -0.00090   0.00000  -0.00220  -0.00216   2.01808
   A45        2.06252   0.00017   0.00000   0.00161   0.00165   2.06417
   A46        2.18316  -0.00108   0.00000  -0.00462  -0.00463   2.17852
   A47        2.02959   0.00044   0.00000   0.00197   0.00197   2.03156
   A48        2.07044   0.00064   0.00000   0.00265   0.00266   2.07310
[...]
 Alpha  occ. eigenvalues --   -0.75185  -0.74416  -0.70115  -0.68844  -0.67864
 Alpha  occ. eigenvalues --   -0.66749  -0.65807  -0.64859  -0.64300  -0.63418
 Alpha  occ. eigenvalues --   -0.62902  -0.60792  -0.59813  -0.59198  -0.58969
 Alpha  occ. eigenvalues --   -0.58144  -0.57758  -0.57366  -0.57255  -0.56907
 Alpha  occ. eigenvalues --   -0.56448  -0.56100  -0.55503  -0.55377  -0.54212
 Alpha  occ. eigenvalues --   -0.53957  -0.53822  -0.53362  -0.53197  -0.52509
 Alpha  occ. eigenvalues --   -0.51641  -0.51213  -0.50938  -0.50379  -0.50193
 Alpha  occ. eigenvalues --   -0.50008  -0.49592  -0.49412  -0.48935  -0.48440
 Alpha  occ. eigenvalues --   -0.48207  -0.47367  -0.46654  -0.45843  -0.45335
 Alpha  occ. eigenvalues --   -0.44349  -0.43870  -0.42218  -0.41539  -0.41223
 Alpha  occ. eigenvalues --   -0.41137  -0.40306  -0.39720  -0.38598  -0.37593
 Alpha  occ. eigenvalues --   -0.37426  -0.36998  -0.36786  -0.36225  -0.34948
 Alpha  occ. eigenvalues --   -0.33273  -0.31704  -0.31340  -0.25503
 Alpha virt. eigenvalues --   -0.07187  -0.00244   0.00470   0.02255   0.03150
 Alpha virt. eigenvalues --    0.05120   0.05822   0.06112   0.06625   0.06825
 Alpha virt. eigenvalues --    0.07139   0.07529   0.07567   0.07741   0.07889
 Alpha virt. eigenvalues --    0.08468   0.08700   0.08804   0.08929   0.09118
 Alpha virt. eigenvalues --    0.09219   0.09567   0.09908   0.10168   0.10485
 Alpha virt. eigenvalues --    0.10681   0.11099   0.11414   0.11630   0.11728
 Alpha virt. eigenvalues --    0.11898   0.12039   0.12177   0.12916   0.13119
 Alpha virt. eigenvalues --    0.13193   0.13601   0.13755   0.14028   0.14407
 Alpha virt. eigenvalues --    0.14758   0.14954   0.15082   0.15275   0.15446
 Alpha virt. eigenvalues --    0.15798   0.15898   0.16368   0.16643   0.17182
 Alpha virt. eigenvalues --    0.17265   0.17611   0.17773   0.17953   0.18029
 Alpha virt. eigenvalues --    0.18286   0.18762   0.19241   0.19441   0.19528
 Alpha virt. eigenvalues --    0.19883   0.19969   0.20245   0.20536   0.20691
 Alpha virt. eigenvalues --    0.20724   0.21000   0.21036   0.21283   0.21883
 Alpha virt. eigenvalues --    0.21979   0.22113   0.22554   0.22752   0.22973
 Alpha virt. eigenvalues --    0.22982   0.23567   0.23643   0.23981   0.24396
 Alpha virt. eigenvalues --    0.24620   0.24712   0.24769   0.25067   0.25167
 Alpha virt. eigenvalues --    0.25271   0.25603   0.25850   0.25949   0.26192
 Alpha virt. eigenvalues --    0.26246   0.26618   0.26752   0.26841   0.26981
 Alpha virt. eigenvalues --    0.27230   0.27447   0.27719   0.27798   0.27836
 Alpha virt. eigenvalues --    0.28131   0.28336   0.28408   0.28887   0.29033
 Alpha virt. eigenvalues --    0.29283   0.29425   0.29636   0.29956   0.30049
 Alpha virt. eigenvalues --    0.30203   0.30469   0.30813   0.30912   0.31128
 Alpha virt. eigenvalues --    0.31257   0.31557   0.31788   0.31921   0.32012
 Alpha virt. eigenvalues --    0.32256   0.32694   0.32781   0.32902   0.32923
 Alpha virt. eigenvalues --    0.33067   0.33641   0.33881   0.33935   0.34082
 Alpha virt. eigenvalues --    0.34200   0.34410   0.34657   0.34933   0.35148
 Alpha virt. eigenvalues --    0.35398   0.35608   0.35824   0.36415   0.36571
 Alpha virt. eigenvalues --    0.36822   0.36919   0.37008   0.37285   0.37592
 Alpha virt. eigenvalues --    0.37936   0.38151   0.38215   0.38631   0.38789
 Alpha virt. eigenvalues --    0.39055   0.39366   0.39547   0.39916   0.40338
 Alpha virt. eigenvalues --    0.40436   0.40763   0.41016   0.41388   0.41705
 Alpha virt. eigenvalues --    0.41951   0.42195   0.42744   0.43173   0.43305
 Alpha virt. eigenvalues --    0.43538   0.44087   0.44237   0.44631   0.44727
 Alpha virt. eigenvalues --    0.45231   0.45567   0.45946   0.46344   0.47083
 Alpha virt. eigenvalues --    0.47658   0.47788   0.48154   0.48300   0.49015
 Alpha virt. eigenvalues --    0.49297   0.49732   0.50058   0.50606   0.51191
 Alpha virt. eigenvalues --    0.51398   0.51847   0.52572   0.52799   0.52877
 Alpha virt. eigenvalues --    0.53474   0.53923   0.54306   0.54530   0.54628
 Alpha virt. eigenvalues --    0.55279   0.56041   0.56912   0.57132   0.57305
 Alpha virt. eigenvalues --    0.57593   0.58207   0.58426   0.59192   0.59480
 Alpha virt. eigenvalues --    0.59857   0.60635   0.61554   0.61879   0.62265
 Alpha virt. eigenvalues --    0.62466   0.63204   0.63395   0.63637   0.63799
 Alpha virt. eigenvalues --    0.64471   0.64909   0.65160   0.65557   0.65995
 Alpha virt. eigenvalues --    0.66217   0.66759   0.67156   0.67392   0.67549
 Alpha virt. eigenvalues --    0.67935   0.68793   0.68913   0.69155   0.69672
 Alpha virt. eigenvalues --    0.69994   0.70345   0.70578   0.70880   0.71597
 Alpha virt. eigenvalues --    0.72143   0.72620   0.72881   0.73411   0.73634
 Alpha virt. eigenvalues --    0.74093   0.74493   0.74532   0.74854   0.75368
 Alpha virt. eigenvalues --    0.75593   0.75981   0.76588   0.76846   0.77402
 Alpha virt. eigenvalues --    0.77782   0.77931   0.78049   0.78416   0.78566
 Alpha virt. eigenvalues --    0.79027   0.79510   0.79859   0.80255   0.80816
 Alpha virt. eigenvalues --    0.80968   0.81467   0.81728   0.82025   0.82671
 Alpha virt. eigenvalues --    0.82743   0.83109   0.83211   0.83645   0.84064
 Alpha virt. eigenvalues --    0.84161   0.84374   0.84818   0.85144   0.85596
 Alpha virt. eigenvalues --    0.86202   0.86301   0.86628   0.86872   0.87554
 Alpha virt. eigenvalues --    0.88179   0.88442   0.88884   0.90090   0.90348
 Alpha virt. eigenvalues --    0.91221   0.91387   0.92426   0.93049   0.94270
 Alpha virt. eigenvalues --    0.95146   0.95240   0.95649   0.96018   0.96759
 Alpha virt. eigenvalues --    0.97077   0.97947   0.98502   0.98981   0.99470
 Alpha virt. eigenvalues --    1.00054   1.00343   1.00777   1.01242   1.01667
 Alpha virt. eigenvalues --    1.01989   1.02149   1.02775   1.03200   1.03665
 Alpha virt. eigenvalues --    1.03843   1.04378   1.05169   1.05597   1.05756
 Alpha virt. eigenvalues --    1.06329   1.06744   1.07536   1.07607   1.08453
 Alpha virt. eigenvalues --    1.08993   1.09294   1.10165   1.10511   1.10837
 Alpha virt. eigenvalues --    1.11202   1.11583   1.11868   1.12828   1.13207
 Alpha virt. eigenvalues --    1.13422   1.13806   1.14321   1.14669   1.15170
 Alpha virt. eigenvalues --    1.15791   1.15838   1.16293   1.16518   1.17377
 Alpha virt. eigenvalues --    1.17869   1.18377   1.18476   1.18867   1.19754
 Alpha virt. eigenvalues --    1.20035   1.21202   1.21752   1.22261   1.22703
 Alpha virt. eigenvalues --    1.23809   1.24616   1.25587   1.26313   1.26697
 Alpha virt. eigenvalues --    1.27027   1.27292   1.28214   1.29537   1.29862
 Alpha virt. eigenvalues --    1.30621   1.31159   1.32118   1.32729   1.33455
 Alpha virt. eigenvalues --    1.33784   1.34548   1.34758   1.35159   1.35851
 Alpha virt. eigenvalues --    1.36379   1.36825   1.37993   1.39056   1.40128
 Alpha virt. eigenvalues --    1.41143   1.42262   1.42919   1.43234   1.44087
 Alpha virt. eigenvalues --    1.44811   1.44959   1.45251   1.46894   1.48319
 Alpha virt. eigenvalues --    1.48996   1.49806   1.50564   1.51036   1.51484
 Alpha virt. eigenvalues --    1.51682   1.52103   1.52361   1.52601   1.53087
 Alpha virt. eigenvalues --    1.53513   1.53877   1.54139   1.54530   1.55001
 Alpha virt. eigenvalues --    1.55317   1.56390   1.56536   1.57794   1.58361
 Alpha virt. eigenvalues --    1.58911   1.59328   1.60187   1.60548   1.61056
 Alpha virt. eigenvalues --    1.61673   1.62273   1.62969   1.63280   1.63629
 Alpha virt. eigenvalues --    1.64017   1.64395   1.65358   1.65658   1.66145
 Alpha virt. eigenvalues --    1.67595   1.67786   1.68898   1.69364   1.69718
 Alpha virt. eigenvalues --    1.71341   1.72152   1.72476   1.73199   1.73301
 Alpha virt. eigenvalues --    1.73784   1.74426   1.75021   1.76017   1.76551
 Alpha virt. eigenvalues --    1.77189   1.77441   1.78128   1.78476   1.78562
 Alpha virt. eigenvalues --    1.79622   1.79744   1.79890   1.80321   1.81221
 Alpha virt. eigenvalues --    1.82109   1.82762   1.83234   1.83561   1.84821
 Alpha virt. eigenvalues --    1.85673   1.85971   1.86697   1.87239   1.87809
 Alpha virt. eigenvalues --    1.88728   1.89803   1.89845   1.90928   1.91198
 Alpha virt. eigenvalues --    1.92214   1.93331   1.93590   1.94830   1.95252
 Alpha virt. eigenvalues --    1.95496   1.95730   1.96563   1.96928   1.97569
 Alpha virt. eigenvalues --    1.98174   1.98533   1.99357   1.99903   2.00561
 Alpha virt. eigenvalues --    2.00853   2.01289   2.02669   2.03124   2.04731
 Alpha virt. eigenvalues --    2.05202   2.05344   2.06398   2.07168   2.07857
 Alpha virt. eigenvalues --    2.08486   2.09134   2.10015   2.10617   2.11148
 Alpha virt. eigenvalues --    2.11547   2.11743   2.12360   2.13979   2.14217
 Alpha virt. eigenvalues --    2.15503   2.15778   2.16351   2.16912   2.17022
 Alpha virt. eigenvalues --    2.18014   2.18842   2.19476   2.20416   2.20872
 Alpha virt. eigenvalues --    2.21441   2.22110   2.22775   2.23688   2.24034
 Alpha virt. eigenvalues --    2.24873   2.25154   2.25814   2.26848   2.27738
 Alpha virt. eigenvalues --    2.28469   2.29224   2.29817   2.30473   2.31333
 Alpha virt. eigenvalues --    2.31691   2.34289   2.34637   2.36440   2.38317
 Alpha virt. eigenvalues --    2.40306   2.41579   2.41929   2.43703   2.46498
 Alpha virt. eigenvalues --    2.47793   2.48506   2.49671   2.51263   2.52596
 Alpha virt. eigenvalues --    2.53121   2.53557   2.54024   2.54572   2.55679
 Alpha virt. eigenvalues --    2.56611   2.56917   2.58097   2.58613   2.59141
 Alpha virt. eigenvalues --    2.59831   2.61375   2.61528   2.61817   2.62264
 Alpha virt. eigenvalues --    2.63098   2.63174   2.64963   2.65188   2.66191
 Alpha virt. eigenvalues --    2.67160   2.68325   2.68726   2.69047   2.70748
 Alpha virt. eigenvalues --    2.71929   2.73810   2.74202   2.74633   2.76305
 Alpha virt. eigenvalues --    2.76573   2.77401   2.77998   2.78139   2.79010
 Alpha virt. eigenvalues --    2.79207   2.79800   2.80565   2.80770   2.81352
 Alpha virt. eigenvalues --    2.81817   2.82676   2.83522   2.84066   2.84819
 Alpha virt. eigenvalues --    2.87132   2.87942   2.88275   2.88681   2.90662
 Alpha virt. eigenvalues --    2.92123   2.93313   2.93722   2.94279   2.94692
 Alpha virt. eigenvalues --    2.95410   2.95647   2.96366   2.96542   2.97411
 Alpha virt. eigenvalues --    2.97564   2.98265   2.99034   2.99658   3.00815
 Alpha virt. eigenvalues --    3.01697   3.02006   3.02806   3.04499   3.04574
 Alpha virt. eigenvalues --    3.05409   3.06264   3.07665   3.09625   3.10529
 Alpha virt. eigenvalues --    3.12157   3.12768   3.14044   3.14935   3.15609
 Alpha virt. eigenvalues --    3.16723   3.17009   3.17920   3.18840   3.19111
 Alpha virt. eigenvalues --    3.21106   3.22469   3.24139   3.25212   3.26313
 Alpha virt. eigenvalues --    3.27382   3.29311   3.30936   3.32887   3.33347
 Alpha virt. eigenvalues --    3.34151   3.34604   3.34792   3.36329   3.37727
 Alpha virt. eigenvalues --    3.40306   3.40818   3.43139   3.43526   3.44117
 Alpha virt. eigenvalues --    3.44685   3.45030   3.45945   3.47362   3.48628
 Alpha virt. eigenvalues --    3.49679   3.51327   3.52839   3.53957   3.54462
 Alpha virt. eigenvalues --    3.55113   3.56730   3.57443   3.59373   3.60593
 Alpha virt. eigenvalues --    3.61619   3.64504   3.66257   3.68574   3.70403
 Alpha virt. eigenvalues --    3.71239   3.71969   3.75316   3.76487   3.77476
 Alpha virt. eigenvalues --    3.79189   3.81577   3.82582   3.84787   3.87151
 Alpha virt. eigenvalues --    3.87251   3.87447   3.92385   3.93333   3.94799
 Alpha virt. eigenvalues --    3.95319   3.95912   3.99633   4.01687   4.02989
 Alpha virt. eigenvalues --    4.04319   4.05258   4.07245   4.10934   4.12977
 Alpha virt. eigenvalues --    4.14571   4.19156   4.21550   4.21850   4.25439
 Alpha virt. eigenvalues --    4.30292   4.33151   4.34895   4.37270   4.45112
 Alpha virt. eigenvalues --    4.48704   4.49999   4.60636   4.78016   4.95070
 Alpha virt. eigenvalues --    4.97700   4.98328   5.01017   5.13917   5.14372
 Alpha virt. eigenvalues --    5.15191   5.16686   5.17423   5.20568   5.22184
 Alpha virt. eigenvalues --    5.23336   5.35927   5.37376   5.39512   5.40866
 Alpha virt. eigenvalues --    5.54893   5.56075   5.87401   5.89636   5.90988
 Alpha virt. eigenvalues --    5.93101   5.93511   5.94498   8.15182   8.18731
 Alpha virt. eigenvalues --   17.43740  17.49368  17.64892  17.67712  17.73603
 Alpha virt. eigenvalues --   17.77939  23.61800  23.70343  23.86152  23.92509
 Alpha virt. eigenvalues --   23.95754  23.96889  23.98284  24.00118  24.00852
 Alpha virt. eigenvalues --   24.01818  24.02533  24.04453  24.05428  24.07204
 Alpha virt. eigenvalues --   24.08282  24.09403  24.10604  24.15259  24.17578
 Alpha virt. eigenvalues --   24.19981  24.20991  24.21162  24.26832  24.28735
 Alpha virt. eigenvalues --   24.29650  24.30546  35.69552  35.71924  50.11162
 Alpha virt. eigenvalues --   50.12672  50.16446  50.18046  50.19952  50.21223
 Alpha virt. eigenvalues --  189.40664 189.45206
          Condensed to atoms (all electrons):
 Mulliken charges:
               1
     1  C    0.476555
     2  C   -0.100230
     3  C    0.096387
     4  C    0.180868
     5  C    0.369146
     6  C   -0.494885
     7  C    0.093130
     8  C    0.078359
     9  C    0.299661
    10  C   -0.460247
    11  C    0.337638
    12  C    0.072143
    13  C   -0.487541
    14  C   -0.686898
    15  H    0.188224
    16  H    0.188700
    17  H    0.193029
    18  N    0.040800
    19  N   -0.094844
    20  O   -0.262651
    21  O   -0.268993
    22  O   -0.276301
    23  O   -0.174011
    24  C   -0.267389
    25  H    0.195062
    26  H    0.201794
    27  H    0.197515
    28  C   -0.282164
    29  H    0.193295
    30  H    0.194008
    31  H    0.200917
    32  C    0.427110
    33  C   -0.592385
    34  S   -0.522712
    35  C   -0.056631
    36  H    0.157479
    37  C    0.437317
    38  O   -0.111412
    39  C    0.914334
    40  C   -0.291325
    41  C    0.051520
    42  S   -0.289190
    43  H    0.182778
    44  H    0.162429
    45  H    0.163661
    46  C   -0.621111
    47  O   -0.120131
    48  C   -0.360628
    49  H    0.155017
    50  C   -0.305859
    51  H    0.185268
    52  H    0.158606
    53  H    0.179090
    54  H    0.155695
 Sum of Mulliken charges =  -0.00000
 Mulliken charges with hydrogens summed into heavy atoms:
               1
     1  C    0.476555
     2  C   -0.100230
     3  C    0.096387
     4  C    0.180868
     5  C    0.369146
     6  C   -0.301856
     7  C    0.093130
     8  C    0.078359
     9  C    0.299661
    10  C   -0.460247
    11  C    0.337638
    12  C    0.072143
    13  C   -0.298841
    14  C   -0.498674
    18  N    0.040800
    19  N   -0.094844
    20  O   -0.262651
    21  O   -0.268993
    22  O   -0.276301
    23  O   -0.174011
    24  C    0.326983
    28  C    0.306056
    32  C    0.427110
    33  C   -0.434905
    34  S   -0.522712
    35  C   -0.056631
    37  C    0.437317
    38  O   -0.111412
    39  C    0.914334
    40  C    0.217544
    41  C    0.051520
    42  S   -0.289190
    46  C   -0.466094
    47  O   -0.120131
    48  C   -0.175360
    50  C    0.187533
 Electronic spatial extent (au):  <R**2>=          21828.9001
 Charge=             -0.0000 electrons
 Dipole moment (field-independent basis, Debye):
    X=              1.9611    Y=             -0.0751    Z=              0.4003  Tot=              2.0030
 Quadrupole moment (field-independent basis, Debye-Ang):
   XX=           -214.3927   YY=           -219.8389   ZZ=           -209.4039
   XY=              8.3687   XZ=              9.8467   YZ=             14.4029
 Traceless Quadrupole moment (field-independent basis, Debye-Ang):
   XX=              0.1525   YY=             -5.2937   ZZ=              5.1413
   XY=              8.3687   XZ=              9.8467   YZ=             14.4029
 Octapole moment (field-independent basis, Debye-Ang**2):
  XXX=            264.2166  YYY=            -26.7034  ZZZ=              2.7335  XYY=             63.8182
  XXY=              7.5865  XXZ=             44.0514  XZZ=             41.5334  YZZ=             -6.0604
  YYZ=            -15.4323  XYZ=             54.6965
 Hexadecapole moment (field-independent basis, Debye-Ang**3):
 XXXX=         -20735.4427 YYYY=          -6584.7146 ZZZZ=          -1788.6328 XXXY=            107.6845
 XXXZ=            535.9722 YYYX=            394.0914 YYYZ=             82.0147 ZZZX=             20.1013
 ZZZY=            106.9789 XXYY=          -4412.7334 XXZZ=          -3688.6756 YYZZ=          -1218.3390
 XXYZ=            260.6257 YYXZ=            -96.1302 ZZXY=             60.1250
 N-N= 4.119991263794D+03 E-N=-1.377981111979D+04  KE= 2.352009657000D+03
 Unable to Open any file for archive entry.
 1\1\GINC-CX3-2-12\FOpt\RwB97XD\6-311+G(d,p)\C26H18N2O6S2\NS5018\26-Nov
 -2020\0\\# opt=modredundant wb97xd/6-311+g(d,p)\\NDI_-130.pdb\\0,1\C,-
 2.5315979153,-2.9720986481,-0.518053453\C,-2.2177272698,-1.5313924664,
 -0.3302173351\C,-3.2473718124,-0.616691035,-0.0286772882\C,-4.57948998
 94,-1.0522016884,0.1184435507\C,-4.9207135682,-2.490722907,-0.05418549
 99\C,-0.9215836495,-1.1017930749,-0.4136527714\C,-2.9278712453,0.74825
 46754,0.1237387841\C,-1.5880588298,1.1890493438,-0.028632002\C,-0.5736
 007031,0.2629471329,-0.2432548542\C,-1.3413353646,2.6607361344,-0.0777
 989745\C,-3.6742331084,3.0949510244,0.6394173052\C,-3.9659762094,1.650
 6327585,0.4463925476\C,-5.2593134985,1.2054469029,0.5978359015\C,-5.57
 21246545,-0.151939041,0.4283295161\H,-6.5887965271,-0.5077033151,0.541
 0287935\H,-6.0280793055,1.9243938698,0.8534175806\H,-0.1372621472,-1.8
 280623303,-0.5905300714\N,-2.3638309545,3.4930524184,0.397421475\N,-3.
 8643876516,-3.3531697105,-0.3642284274\O,-1.6856088192,-3.7926556393,-
 0.7925980718\O,-6.0535803473,-2.8977336344,0.064648718\O,-4.5280656609
 ,3.8868499294,0.9715273079\O,-0.3305886147,3.1506847345,-0.5197824058\
 C,-2.058924394,4.9217324336,0.4605932264\H,-1.0568516705,5.0514067222,
 0.8639608961\H,-2.0948088671,5.3652031515,-0.5363964244\H,-2.79947563,
 5.3966751755,1.0978093577\C,-4.1526420723,-4.7751153292,-0.5481429161\
 H,-3.8746110076,-5.0800779054,-1.557192968\H,-3.5733145597,-5.36254665
 77,0.164206832\H,-5.215848827,-4.9255231968,-0.3872371382\C,0.86376058
 3,0.5734431789,-0.2431490583\C,1.7715410707,0.2230216604,-1.2022671601
 \S,1.6260763701,1.2916076171,1.1263613988\C,3.0955241377,0.5825646843,
 -0.8450899727\H,1.4899371598,-0.2448545484,-2.1354186795\C,3.200195669
 ,1.1699537642,0.3980014309\O,4.20666808,0.3935115126,-1.594673217\C,4.
 4047630307,1.6234829474,1.0595984166\C,4.0455942642,-0.2092303173,-2.8
 614387573\C,4.5050114178,2.2033881426,2.3058861003\S,5.986632463,1.500
 41402,0.3405720964\H,5.0408233496,-0.2655456858,-3.2986974937\H,3.6330
 501946,-1.220148248,-2.7699844433\H,3.399514541,0.3950089652,-3.507690
 2419\C,5.8337413549,2.5471642152,2.6787326545\O,3.3891769219,2.3914352
 513,3.0498084171\C,6.7293364536,2.2205021781,1.7061477078\H,6.11136192
 07,3.0101392826,3.614685227\C,3.5363607888,3.0254238606,4.3027503208\H
 ,7.7985679002,2.3676382308,1.7219899378\H,3.9511350656,4.0330877741,4.
 190368518\H,2.5363638522,3.0927547949,4.7276858921\H,4.1745382855,2.43
 76468917,4.9716297144\\Version=ES64L-G16RevC.01\State=1-A\HF=-2358.773
 8065\RMSD=6.017e-09\RMSF=9.144e-05\Dipole=0.7377448,0.1577196,0.227739
 4\Quadrupole=-4.2184534,-7.3160573,11.5345107,4.5667709,5.2513433,8.45
 07114\PG=C01 [X(C26H18N2O6S2)]\\@
 The archive entry for this job was punched.


 NOTHING MAKES A PERSON MORE PRODUCTIVE THAN THE LAST MINUTE.
 Job cpu time:       3 days 19 hours 50 minutes 26.9 seconds.
 Elapsed time:       0 days  5 hours 46 minutes 50.8 seconds.
 File lengths (MBytes):  RWF=    531 Int=      0 D2E=      0 Chk=     70 Scr=      1
 Normal termination of Gaussian 16 at Thu Nov 26 17:36:31 2020.
