 Entering Gaussian System, Link 0=g16
 Input=NDI_35.gjf
 Output=NDI_35.log
 Initial command:
 /apps/gaussian/g16-c01-avx/g16/l1.exe "/tmp/pbs.2610759[43].pbs/Gau-1248734.inp" -scrdir="/tmp/pbs.2610759[43].pbs/"
 Entering Link 1 = /apps/gaussian/g16-c01-avx/g16/l1.exe PID=   1248735.
  
 Copyright (c) 1988-2019, Gaussian, Inc.  All Rights Reserved.
  
 This is part of the Gaussian(R) 16 program.  It is based on
 the Gaussian(R) 09 system (copyright 2009, Gaussian, Inc.),
 the Gaussian(R) 03 system (copyright 2003, Gaussian, Inc.),
 the Gaussian(R) 98 system (copyright 1998, Gaussian, Inc.),
 the Gaussian(R) 94 system (copyright 1995, Gaussian, Inc.),
 the Gaussian 92(TM) system (copyright 1992, Gaussian, Inc.),
 the Gaussian 90(TM) system (copyright 1990, Gaussian, Inc.),
 the Gaussian 88(TM) system (copyright 1988, Gaussian, Inc.),
 the Gaussian 86(TM) system (copyright 1986, Carnegie Mellon
 University), and the Gaussian 82(TM) system (copyright 1983,
 Carnegie Mellon University). Gaussian is a federally registered
 trademark of Gaussian, Inc.
  
 This software contains proprietary and confidential information,
 including trade secrets, belonging to Gaussian, Inc.
  
 This software is provided under written license and may be
 used, copied, transmitted, or stored only in accord with that
 written license.
  
 The following legend is applicable only to US Government
 contracts under FAR:
  
                    RESTRICTED RIGHTS LEGEND
  
 Use, reproduction and disclosure by the US Government is
 subject to restrictions as set forth in subparagraphs (a)
 and (c) of the Commercial Computer Software - Restricted
 Rights clause in FAR 52.227-19.
  
 Gaussian, Inc.
 340 Quinnipiac St., Bldg. 40, Wallingford CT 06492
  
  
 ---------------------------------------------------------------
 Warning -- This program may not be used in any manner that
 competes with the business of Gaussian, Inc. or will provide
 assistance to any competitor of Gaussian, Inc.  The licensee
 of this program is prohibited from giving any competitor of
 Gaussian, Inc. access to this program.  By using this program,
 the user acknowledges that Gaussian, Inc. is engaged in the
 business of creating and licensing software in the field of
 computational chemistry and represents and warrants to the
 licensee that it is not a competitor of Gaussian, Inc. and that
 it will not use this program in any manner prohibited above.
 ---------------------------------------------------------------
  

 Cite this work as:
 Gaussian 16, Revision C.01,
 M. J. Frisch, G. W. Trucks, H. B. Schlegel, G. E. Scuseria, 
 M. A. Robb, J. R. Cheeseman, G. Scalmani, V. Barone, 
 G. A. Petersson, H. Nakatsuji, X. Li, M. Caricato, A. V. Marenich, 
 J. Bloino, B. G. Janesko, R. Gomperts, B. Mennucci, H. P. Hratchian, 
 J. V. Ortiz, A. F. Izmaylov, J. L. Sonnenberg, D. Williams-Young, 
 F. Ding, F. Lipparini, F. Egidi, J. Goings, B. Peng, A. Petrone, 
 T. Henderson, D. Ranasinghe, V. G. Zakrzewski, J. Gao, N. Rega, 
 G. Zheng, W. Liang, M. Hada, M. Ehara, K. Toyota, R. Fukuda, 
 J. Hasegawa, M. Ishida, T. Nakajima, Y. Honda, O. Kitao, H. Nakai, 
 T. Vreven, K. Throssell, J. A. Montgomery, Jr., J. E. Peralta, 
 F. Ogliaro, M. J. Bearpark, J. J. Heyd, E. N. Brothers, K. N. Kudin, 
 V. N. Staroverov, T. A. Keith, R. Kobayashi, J. Normand, 
 K. Raghavachari, A. P. Rendell, J. C. Burant, S. S. Iyengar, 
 J. Tomasi, M. Cossi, J. M. Millam, M. Klene, C. Adamo, R. Cammi, 
 J. W. Ochterski, R. L. Martin, K. Morokuma, O. Farkas, 
 J. B. Foresman, and D. J. Fox, Gaussian, Inc., Wallingford CT, 2019.
 
 ******************************************
 Gaussian 16:  ES64L-G16RevC.01  3-Jul-2019
                26-Nov-2020 
 ******************************************
 %mem=10GB
 %nprocshared=16
 Will use up to   16 processors via shared memory.
 --------------------------------------
 # opt=modredundant wb97xd/6-311+g(d,p)
 --------------------------------------
 1/18=120,19=15,26=3,38=1/1,3;
 2/9=110,12=2,17=6,18=5,40=1/2;
 3/5=4,6=6,7=111,11=2,25=1,30=1,71=1,74=-58/1,2,3;
 4//1;
 5/5=2,38=5/2;
 6/7=2,8=2,9=2,10=2,28=1/1;
 7//1,2,3,16;
 1/18=20,19=15,26=3/3(2);
 2/9=110/2;
 99//99;
 2/9=110/2;
 3/5=4,6=6,7=111,11=2,25=1,30=1,71=1,74=-58/1,2,3;
 4/5=5,16=3,69=1/1;
 5/5=2,38=5/2;
 7//1,2,3,16;
 1/18=20,19=15,26=3/3(-5);
 2/9=110/2;
 6/7=2,8=2,9=2,10=2,19=2,28=1/1;
 99/9=1/99;
 ----------
 NDI_35.pdb
 ----------
 Symbolic Z-matrix:
 Charge =  0 Multiplicity = 1
 C                    -2.563    -2.994    -0.409 
 C                    -2.257    -1.551    -0.224 
 C                    -3.301    -0.607    -0.083 
 C                    -4.65     -1.024    -0.115 
 C                    -4.992    -2.459    -0.304 
 C                    -0.949    -1.137    -0.215 
 C                    -2.962     0.764     0.102 
 C                    -1.595     1.188     0.123 
 C                    -0.561     0.232    -0.072 
 C                    -1.328     2.616     0.446 
 C                    -3.777     3.115     0.508 
 C                    -4.035     1.679     0.268 
 C                    -5.356     1.252     0.23 
 C                    -5.672    -0.098     0.036 
 H                    -6.699    -0.442     0.008 
 H                    -6.133     1.997     0.361 
 H                    -0.19     -1.895    -0.369 
 N                    -2.432     3.476     0.608 
 N                    -3.916    -3.353    -0.438 
 O                    -1.695    -3.847    -0.532 
 O                    -6.149    -2.85     -0.34 
 O                    -4.676     3.938     0.629 
 O                    -0.212     3.097     0.596 
 C                    -2.111     4.875     0.912 
 H                    -1.54      4.931     1.84 
 H                    -1.5       5.299     0.111 
 H                    -3.05      5.414     1.003 
 C                    -4.206    -4.779    -0.625 
 H                    -3.759    -5.126    -1.559 
 H                    -3.775    -5.355     0.196 
 H                    -5.286    -4.897    -0.649 
 C                     0.876     0.482    -0.178 
 C                     1.68      1.413     0.45 
 S                     1.805    -0.402    -1.389 
 C                     3.009     1.417    -0.019 
 H                     1.321     2.064     1.231 
 C                     3.27      0.48     -1.024 
 O                     4.015     2.225     0.409 
 C                     4.524     0.213    -1.67 
 C                     3.752     3.066     1.529 
 C                     4.777    -0.705    -2.688 
 S                     6.017     1.05     -1.254 
 H                     4.695     3.562     1.759 
 H                     2.994     3.821     1.288 
 H                     3.422     2.481     2.395 
 C                     6.133    -0.735    -3.121 
 O                     3.758    -1.467    -3.163 
 C                     6.909     0.159    -2.434 
 H                     6.513    -1.383    -3.899 
 C                     4.04     -2.371    -4.226 
 H                     7.967     0.345    -2.56 
 H                     4.779    -3.124    -3.923 
 H                     3.097    -2.863    -4.461 
 H                     4.405    -1.839    -5.113 
 
 The following ModRedundant input section has been read:
 D       8       9      32      33 F                                           
 

 GradGradGradGradGradGradGradGradGradGradGradGradGradGradGradGradGradGrad
 Berny optimization.
 Initialization pass.
                           ----------------------------
                           !    Initial Parameters    !
                           ! (Angstroms and Degrees)  !
 --------------------------                            --------------------------
 ! Name  Definition              Value          Derivative Info.                !
 --------------------------------------------------------------------------------
 ! R1    R(1,2)                  1.4866         estimate D2E/DX2                !
 ! R2    R(1,19)                 1.4001         estimate D2E/DX2                !
 ! R3    R(1,20)                 1.2232         estimate D2E/DX2                !
 ! R4    R(2,3)                  1.4146         estimate D2E/DX2                !
 ! R5    R(2,6)                  1.372          estimate D2E/DX2                !
 ! R6    R(3,4)                  1.4123         estimate D2E/DX2                !
 ! R7    R(3,7)                  1.4244         estimate D2E/DX2                !
 ! R8    R(4,5)                  1.4872         estimate D2E/DX2                !
 ! R9    R(4,14)                 1.3874         estimate D2E/DX2                !
 ! R10   R(5,19)                 1.4053         estimate D2E/DX2                !
 ! R11   R(5,21)                 1.2218         estimate D2E/DX2                !
 ! R12   R(6,9)                  1.4301         estimate D2E/DX2                !
 ! R13   R(6,17)                 1.0837         estimate D2E/DX2                !
 ! R14   R(7,8)                  1.4314         estimate D2E/DX2                !
 ! R15   R(7,12)                 1.4199         estimate D2E/DX2                !
 ! R16   R(8,9)                  1.4217         estimate D2E/DX2                !
 ! R17   R(8,10)                 1.4882         estimate D2E/DX2                !
 ! R18   R(9,32)                 1.4624         estimate D2E/DX2                !
 ! R19   R(10,18)                1.4088         estimate D2E/DX2                !
 ! R20   R(10,23)                1.2245         estimate D2E/DX2                !
 ! R21   R(11,12)                1.4786         estimate D2E/DX2                !
 ! R22   R(11,18)                1.3962         estimate D2E/DX2                !
 ! R23   R(11,22)                1.2248         estimate D2E/DX2                !
 ! R24   R(12,13)                1.3888         estimate D2E/DX2                !
 ! R25   R(13,14)                1.4            estimate D2E/DX2                !
 ! R26   R(13,16)                1.0844         estimate D2E/DX2                !
 ! R27   R(14,15)                1.0834         estimate D2E/DX2                !
 ! R28   R(18,24)                1.4672         estimate D2E/DX2                !
 ! R29   R(19,28)                1.4672         estimate D2E/DX2                !
 ! R30   R(24,25)                1.091          estimate D2E/DX2                !
 ! R31   R(24,26)                1.093          estimate D2E/DX2                !
 ! R32   R(24,27)                1.0865         estimate D2E/DX2                !
 ! R33   R(28,29)                1.0921         estimate D2E/DX2                !
 ! R34   R(28,30)                1.0916         estimate D2E/DX2                !
 ! R35   R(28,31)                1.0867         estimate D2E/DX2                !
 ! R36   R(32,33)                1.3811         estimate D2E/DX2                !
 ! R37   R(32,34)                1.7638         estimate D2E/DX2                !
 ! R38   R(33,35)                1.4093         estimate D2E/DX2                !
 ! R39   R(33,36)                1.0783         estimate D2E/DX2                !
 ! R40   R(34,37)                1.7485         estimate D2E/DX2                !
 ! R41   R(35,37)                1.3986         estimate D2E/DX2                !
 ! R42   R(35,38)                1.3594         estimate D2E/DX2                !
 ! R43   R(37,39)                1.4357         estimate D2E/DX2                !
 ! R44   R(38,40)                1.4251         estimate D2E/DX2                !
 ! R45   R(39,41)                1.3939         estimate D2E/DX2                !
 ! R46   R(39,42)                1.7614         estimate D2E/DX2                !
 ! R47   R(40,43)                1.09           estimate D2E/DX2                !
 ! R48   R(40,44)                1.0967         estimate D2E/DX2                !
 ! R49   R(40,45)                1.0959         estimate D2E/DX2                !
 ! R50   R(41,46)                1.4238         estimate D2E/DX2                !
 ! R51   R(41,47)                1.3582         estimate D2E/DX2                !
 ! R52   R(42,48)                1.7268         estimate D2E/DX2                !
 ! R53   R(46,48)                1.3687         estimate D2E/DX2                !
 ! R54   R(46,49)                1.0815         estimate D2E/DX2                !
 ! R55   R(47,50)                1.4236         estimate D2E/DX2                !
 ! R56   R(48,51)                1.0816         estimate D2E/DX2                !
 ! R57   R(50,52)                1.0977         estimate D2E/DX2                !
 ! R58   R(50,53)                1.0893         estimate D2E/DX2                !
 ! R59   R(50,54)                1.0968         estimate D2E/DX2                !
 ! A1    A(2,1,19)             116.767          estimate D2E/DX2                !
 ! A2    A(2,1,20)             122.9113         estimate D2E/DX2                !
 ! A3    A(19,1,20)            120.3217         estimate D2E/DX2                !
 ! A4    A(1,2,3)              120.5473         estimate D2E/DX2                !
 ! A5    A(1,2,6)              119.3369         estimate D2E/DX2                !
 ! A6    A(3,2,6)              120.1056         estimate D2E/DX2                !
 ! A7    A(2,3,4)              120.3743         estimate D2E/DX2                !
 ! A8    A(2,3,7)              118.662          estimate D2E/DX2                !
 ! A9    A(4,3,7)              120.9617         estimate D2E/DX2                !
 ! A10   A(3,4,5)              120.4909         estimate D2E/DX2                !
 ! A11   A(3,4,14)             120.2702         estimate D2E/DX2                !
 ! A12   A(5,4,14)             119.2382         estimate D2E/DX2                !
 ! A13   A(4,5,19)             116.7341         estimate D2E/DX2                !
 ! A14   A(4,5,21)             122.024          estimate D2E/DX2                !
 ! A15   A(19,5,21)            121.2418         estimate D2E/DX2                !
 ! A16   A(2,6,9)              123.2421         estimate D2E/DX2                !
 ! A17   A(2,6,17)             117.1119         estimate D2E/DX2                !
 ! A18   A(9,6,17)             119.589          estimate D2E/DX2                !
 ! A19   A(3,7,8)              120.9519         estimate D2E/DX2                !
 ! A20   A(3,7,12)             117.1037         estimate D2E/DX2                !
 ! A21   A(8,7,12)             121.944          estimate D2E/DX2                !
 ! A22   A(7,8,9)              119.5639         estimate D2E/DX2                !
 ! A23   A(7,8,10)             117.3064         estimate D2E/DX2                !
 ! A24   A(9,8,10)             122.9922         estimate D2E/DX2                !
 ! A25   A(6,9,8)              117.3944         estimate D2E/DX2                !
 ! A26   A(6,9,32)             115.0236         estimate D2E/DX2                !
 ! A27   A(8,9,32)             127.5648         estimate D2E/DX2                !
 ! A28   A(8,10,18)            118.042          estimate D2E/DX2                !
 ! A29   A(8,10,23)            124.5436         estimate D2E/DX2                !
 ! A30   A(18,10,23)           117.4097         estimate D2E/DX2                !
 ! A31   A(12,11,18)           115.5202         estimate D2E/DX2                !
 ! A32   A(12,11,22)           122.7205         estimate D2E/DX2                !
 ! A33   A(18,11,22)           121.7534         estimate D2E/DX2                !
 ! A34   A(7,12,11)            120.8614         estimate D2E/DX2                !
 ! A35   A(7,12,13)            121.162          estimate D2E/DX2                !
 ! A36   A(11,12,13)           117.9699         estimate D2E/DX2                !
 ! A37   A(12,13,14)           120.9948         estimate D2E/DX2                !
 ! A38   A(12,13,16)           117.8401         estimate D2E/DX2                !
 ! A39   A(14,13,16)           121.1642         estimate D2E/DX2                !
 ! A40   A(4,14,13)            119.5003         estimate D2E/DX2                !
 ! A41   A(4,14,15)            118.9169         estimate D2E/DX2                !
 ! A42   A(13,14,15)           121.5811         estimate D2E/DX2                !
 ! A43   A(10,18,11)           126.0753         estimate D2E/DX2                !
 ! A44   A(10,18,24)           115.7508         estimate D2E/DX2                !
 ! A45   A(11,18,24)           118.1737         estimate D2E/DX2                !
 ! A46   A(1,19,5)             125.0856         estimate D2E/DX2                !
 ! A47   A(1,19,28)            116.2868         estimate D2E/DX2                !
 ! A48   A(5,19,28)            118.6276         estimate D2E/DX2                !
 ! A49   A(18,24,25)           109.8574         estimate D2E/DX2                !
 ! A50   A(18,24,26)           109.8979         estimate D2E/DX2                !
 ! A51   A(18,24,27)           107.5355         estimate D2E/DX2                !
 ! A52   A(25,24,26)           108.1108         estimate D2E/DX2                !
 ! A53   A(25,24,27)           110.8301         estimate D2E/DX2                !
 ! A54   A(26,24,27)           110.6124         estimate D2E/DX2                !
 ! A55   A(19,28,29)           109.6906         estimate D2E/DX2                !
 ! A56   A(19,28,30)           109.8136         estimate D2E/DX2                !
 ! A57   A(19,28,31)           107.7461         estimate D2E/DX2                !
 ! A58   A(29,28,30)           108.2991         estimate D2E/DX2                !
 ! A59   A(29,28,31)           110.6959         estimate D2E/DX2                !
 ! A60   A(30,28,31)           110.5924         estimate D2E/DX2                !
 ! A61   A(9,32,33)            130.8649         estimate D2E/DX2                !
 ! A62   A(9,32,34)            118.7919         estimate D2E/DX2                !
 ! A63   A(33,32,34)           110.0854         estimate D2E/DX2                !
 ! A64   A(32,33,35)           113.5496         estimate D2E/DX2                !
 ! A65   A(32,33,36)           122.8542         estimate D2E/DX2                !
 ! A66   A(35,33,36)           123.5931         estimate D2E/DX2                !
 ! A67   A(32,34,37)            92.5885         estimate D2E/DX2                !
 ! A68   A(33,35,37)           114.4061         estimate D2E/DX2                !
 ! A69   A(33,35,38)           126.4944         estimate D2E/DX2                !
 ! A70   A(37,35,38)           119.0995         estimate D2E/DX2                !
 ! A71   A(34,37,35)           109.3649         estimate D2E/DX2                !
 ! A72   A(34,37,39)           122.9624         estimate D2E/DX2                !
 ! A73   A(35,37,39)           127.6567         estimate D2E/DX2                !
 ! A74   A(35,38,40)           117.4919         estimate D2E/DX2                !
 ! A75   A(37,39,41)           127.5625         estimate D2E/DX2                !
 ! A76   A(37,39,42)           123.0732         estimate D2E/DX2                !
 ! A77   A(41,39,42)           109.3643         estimate D2E/DX2                !
 ! A78   A(38,40,43)           105.9447         estimate D2E/DX2                !
 ! A79   A(38,40,44)           111.1698         estimate D2E/DX2                !
 ! A80   A(38,40,45)           111.1976         estimate D2E/DX2                !
 ! A81   A(43,40,44)           109.3329         estimate D2E/DX2                !
 ! A82   A(43,40,45)           109.6732         estimate D2E/DX2                !
 ! A83   A(44,40,45)           109.4518         estimate D2E/DX2                !
 ! A84   A(39,41,46)           114.132          estimate D2E/DX2                !
 ! A85   A(39,41,47)           119.2569         estimate D2E/DX2                !
 ! A86   A(46,41,47)           126.6108         estimate D2E/DX2                !
 ! A87   A(39,42,48)            91.7918         estimate D2E/DX2                !
 ! A88   A(41,46,48)           111.9352         estimate D2E/DX2                !
 ! A89   A(41,46,49)           124.4755         estimate D2E/DX2                !
 ! A90   A(48,46,49)           123.5893         estimate D2E/DX2                !
 ! A91   A(41,47,50)           117.9557         estimate D2E/DX2                !
 ! A92   A(42,48,46)           112.7767         estimate D2E/DX2                !
 ! A93   A(42,48,51)           119.7463         estimate D2E/DX2                !
 ! A94   A(46,48,51)           127.4769         estimate D2E/DX2                !
 ! A95   A(47,50,52)           111.275          estimate D2E/DX2                !
 ! A96   A(47,50,53)           106.0464         estimate D2E/DX2                !
 ! A97   A(47,50,54)           111.2086         estimate D2E/DX2                !
 ! A98   A(52,50,53)           109.4223         estimate D2E/DX2                !
 ! A99   A(52,50,54)           109.3852         estimate D2E/DX2                !
 ! A100  A(53,50,54)           109.4328         estimate D2E/DX2                !
 ! D1    D(19,1,2,3)             0.1578         estimate D2E/DX2                !
 ! D2    D(19,1,2,6)          -178.6792         estimate D2E/DX2                !
 ! D3    D(20,1,2,3)          -179.8231         estimate D2E/DX2                !
 ! D4    D(20,1,2,6)             1.3399         estimate D2E/DX2                !
 ! D5    D(2,1,19,5)            -0.124          estimate D2E/DX2                !
 ! D6    D(2,1,19,28)          179.8267         estimate D2E/DX2                !
 ! D7    D(20,1,19,5)          179.8575         estimate D2E/DX2                !
 ! D8    D(20,1,19,28)          -0.1919         estimate D2E/DX2                !
 ! D9    D(1,2,3,4)              0.0571         estimate D2E/DX2                !
 ! D10   D(1,2,3,7)            179.5453         estimate D2E/DX2                !
 ! D11   D(6,2,3,4)            178.8851         estimate D2E/DX2                !
 ! D12   D(6,2,3,7)             -1.6266         estimate D2E/DX2                !
 ! D13   D(1,2,6,9)            178.625          estimate D2E/DX2                !
 ! D14   D(1,2,6,17)             1.3881         estimate D2E/DX2                !
 ! D15   D(3,2,6,9)             -0.2173         estimate D2E/DX2                !
 ! D16   D(3,2,6,17)          -177.4541         estimate D2E/DX2                !
 ! D17   D(2,3,4,5)             -0.3074         estimate D2E/DX2                !
 ! D18   D(2,3,4,14)           179.3968         estimate D2E/DX2                !
 ! D19   D(7,3,4,5)           -179.7837         estimate D2E/DX2                !
 ! D20   D(7,3,4,14)            -0.0795         estimate D2E/DX2                !
 ! D21   D(2,3,7,8)              1.0523         estimate D2E/DX2                !
 ! D22   D(2,3,7,12)          -178.712          estimate D2E/DX2                !
 ! D23   D(4,3,7,8)           -179.4626         estimate D2E/DX2                !
 ! D24   D(4,3,7,12)             0.7731         estimate D2E/DX2                !
 ! D25   D(3,4,5,19)             0.3343         estimate D2E/DX2                !
 ! D26   D(3,4,5,21)          -179.7799         estimate D2E/DX2                !
 ! D27   D(14,4,5,19)         -179.3729         estimate D2E/DX2                !
 ! D28   D(14,4,5,21)            0.5129         estimate D2E/DX2                !
 ! D29   D(3,4,14,13)           -0.4559         estimate D2E/DX2                !
 ! D30   D(3,4,14,15)         -179.9937         estimate D2E/DX2                !
 ! D31   D(5,4,14,13)          179.252          estimate D2E/DX2                !
 ! D32   D(5,4,14,15)           -0.2858         estimate D2E/DX2                !
 ! D33   D(4,5,19,1)            -0.1141         estimate D2E/DX2                !
 ! D34   D(4,5,19,28)          179.9364         estimate D2E/DX2                !
 ! D35   D(21,5,19,1)          179.9992         estimate D2E/DX2                !
 ! D36   D(21,5,19,28)           0.0496         estimate D2E/DX2                !
 ! D37   D(2,6,9,8)              2.5984         estimate D2E/DX2                !
 ! D38   D(2,6,9,32)          -176.0103         estimate D2E/DX2                !
 ! D39   D(17,6,9,8)           179.77           estimate D2E/DX2                !
 ! D40   D(17,6,9,32)            1.1613         estimate D2E/DX2                !
 ! D41   D(3,7,8,9)              1.3551         estimate D2E/DX2                !
 ! D42   D(3,7,8,10)          -174.5099         estimate D2E/DX2                !
 ! D43   D(12,7,8,9)          -178.8921         estimate D2E/DX2                !
 ! D44   D(12,7,8,10)            5.2428         estimate D2E/DX2                !
 ! D45   D(3,7,12,11)          178.0768         estimate D2E/DX2                !
 ! D46   D(3,7,12,13)           -0.9621         estimate D2E/DX2                !
 ! D47   D(8,7,12,11)           -1.685          estimate D2E/DX2                !
 ! D48   D(8,7,12,13)          179.2761         estimate D2E/DX2                !
 ! D49   D(7,8,9,6)             -3.0809         estimate D2E/DX2                !
 ! D50   D(7,8,9,32)           175.3285         estimate D2E/DX2                !
 ! D51   D(10,8,9,6)           172.5381         estimate D2E/DX2                !
 ! D52   D(10,8,9,32)           -9.0525         estimate D2E/DX2                !
 ! D53   D(7,8,10,18)           -4.7549         estimate D2E/DX2                !
 ! D54   D(7,8,10,23)          174.4235         estimate D2E/DX2                !
 ! D55   D(9,8,10,18)          179.5335         estimate D2E/DX2                !
 ! D56   D(9,8,10,23)           -1.2882         estimate D2E/DX2                !
 ! D57   D(6,9,32,33)         -146.5757         estimate D2E/DX2                !
 ! D58   D(6,9,32,34)           39.8952         estimate D2E/DX2                !
 ! D59   D(8,9,32,33)           34.9827         Frozen                          !
 ! D60   D(8,9,32,34)         -138.5464         estimate D2E/DX2                !
 ! D61   D(8,10,18,11)           0.7189         estimate D2E/DX2                !
 ! D62   D(8,10,18,24)        -179.4089         estimate D2E/DX2                !
 ! D63   D(23,10,18,11)       -178.5188         estimate D2E/DX2                !
 ! D64   D(23,10,18,24)          1.3535         estimate D2E/DX2                !
 ! D65   D(18,11,12,7)          -2.3856         estimate D2E/DX2                !
 ! D66   D(18,11,12,13)        176.6833         estimate D2E/DX2                !
 ! D67   D(22,11,12,7)         178.4862         estimate D2E/DX2                !
 ! D68   D(22,11,12,13)         -2.445          estimate D2E/DX2                !
 ! D69   D(12,11,18,10)          2.8444         estimate D2E/DX2                !
 ! D70   D(12,11,18,24)       -177.0251         estimate D2E/DX2                !
 ! D71   D(22,11,18,10)       -178.0181         estimate D2E/DX2                !
 ! D72   D(22,11,18,24)          2.1124         estimate D2E/DX2                !
 ! D73   D(7,12,13,14)           0.461          estimate D2E/DX2                !
 ! D74   D(7,12,13,16)        -179.8781         estimate D2E/DX2                !
 ! D75   D(11,12,13,14)       -178.6049         estimate D2E/DX2                !
 ! D76   D(11,12,13,16)          1.056          estimate D2E/DX2                !
 ! D77   D(12,13,14,4)           0.2708         estimate D2E/DX2                !
 ! D78   D(12,13,14,15)        179.7958         estimate D2E/DX2                !
 ! D79   D(16,13,14,4)        -179.3788         estimate D2E/DX2                !
 ! D80   D(16,13,14,15)          0.1463         estimate D2E/DX2                !
 ! D81   D(10,18,24,25)        -59.609          estimate D2E/DX2                !
 ! D82   D(10,18,24,26)         59.2209         estimate D2E/DX2                !
 ! D83   D(10,18,24,27)        179.6858         estimate D2E/DX2                !
 ! D84   D(11,18,24,25)        120.2739         estimate D2E/DX2                !
 ! D85   D(11,18,24,26)       -120.8962         estimate D2E/DX2                !
 ! D86   D(11,18,24,27)         -0.4313         estimate D2E/DX2                !
 ! D87   D(1,19,28,29)         -58.1407         estimate D2E/DX2                !
 ! D88   D(1,19,28,30)          60.7668         estimate D2E/DX2                !
 ! D89   D(1,19,28,31)        -178.7139         estimate D2E/DX2                !
 ! D90   D(5,19,28,29)         121.8132         estimate D2E/DX2                !
 ! D91   D(5,19,28,30)        -119.2792         estimate D2E/DX2                !
 ! D92   D(5,19,28,31)           1.2401         estimate D2E/DX2                !
 ! D93   D(9,32,33,35)        -174.2615         estimate D2E/DX2                !
 ! D94   D(9,32,33,36)           6.3538         estimate D2E/DX2                !
 ! D95   D(34,32,33,35)         -0.2979         estimate D2E/DX2                !
 ! D96   D(34,32,33,36)       -179.6827         estimate D2E/DX2                !
 ! D97   D(9,32,34,37)         175.3695         estimate D2E/DX2                !
 ! D98   D(33,32,34,37)          0.5762         estimate D2E/DX2                !
 ! D99   D(32,33,35,37)         -0.245          estimate D2E/DX2                !
 ! D100  D(32,33,35,38)        179.7335         estimate D2E/DX2                !
 ! D101  D(36,33,35,37)        179.1346         estimate D2E/DX2                !
 ! D102  D(36,33,35,38)         -0.8869         estimate D2E/DX2                !
 ! D103  D(32,34,37,35)         -0.6993         estimate D2E/DX2                !
 ! D104  D(32,34,37,39)        177.9449         estimate D2E/DX2                !
 ! D105  D(33,35,37,34)          0.668          estimate D2E/DX2                !
 ! D106  D(33,35,37,39)       -177.8952         estimate D2E/DX2                !
 ! D107  D(38,35,37,34)       -179.3122         estimate D2E/DX2                !
 ! D108  D(38,35,37,39)          2.1246         estimate D2E/DX2                !
 ! D109  D(33,35,38,40)          6.5737         estimate D2E/DX2                !
 ! D110  D(37,35,38,40)       -173.4487         estimate D2E/DX2                !
 ! D111  D(34,37,39,41)          2.8489         estimate D2E/DX2                !
 ! D112  D(34,37,39,42)       -177.1834         estimate D2E/DX2                !
 ! D113  D(35,37,39,41)       -178.7667         estimate D2E/DX2                !
 ! D114  D(35,37,39,42)          1.201          estimate D2E/DX2                !
 ! D115  D(35,38,40,43)        175.4551         estimate D2E/DX2                !
 ! D116  D(35,38,40,44)        -65.8685         estimate D2E/DX2                !
 ! D117  D(35,38,40,45)         56.355          estimate D2E/DX2                !
 ! D118  D(37,39,41,46)        179.9934         estimate D2E/DX2                !
 ! D119  D(37,39,41,47)         -0.1879         estimate D2E/DX2                !
 ! D120  D(42,39,41,46)          0.0222         estimate D2E/DX2                !
 ! D121  D(42,39,41,47)        179.8409         estimate D2E/DX2                !
 ! D122  D(37,39,42,48)       -179.9761         estimate D2E/DX2                !
 ! D123  D(41,39,42,48)         -0.0033         estimate D2E/DX2                !
 ! D124  D(39,41,46,48)         -0.0355         estimate D2E/DX2                !
 ! D125  D(39,41,46,49)        179.9857         estimate D2E/DX2                !
 ! D126  D(47,41,46,48)       -179.8384         estimate D2E/DX2                !
 ! D127  D(47,41,46,49)          0.1827         estimate D2E/DX2                !
 ! D128  D(39,41,47,50)        178.424          estimate D2E/DX2                !
 ! D129  D(46,41,47,50)         -1.7821         estimate D2E/DX2                !
 ! D130  D(39,42,48,46)         -0.0169         estimate D2E/DX2                !
 ! D131  D(39,42,48,51)        179.8877         estimate D2E/DX2                !
 ! D132  D(41,46,48,42)          0.0322         estimate D2E/DX2                !
 ! D133  D(41,46,48,51)       -179.8634         estimate D2E/DX2                !
 ! D134  D(49,46,48,42)       -179.9887         estimate D2E/DX2                !
 ! D135  D(49,46,48,51)          0.1157         estimate D2E/DX2                !
 ! D136  D(41,47,50,52)         61.965          estimate D2E/DX2                !
 ! D137  D(41,47,50,53)       -179.1331         estimate D2E/DX2                !
 ! D138  D(41,47,50,54)        -60.2548         estimate D2E/DX2                !
 --------------------------------------------------------------------------------
 Trust Radius=3.00D-01 FncErr=1.00D-07 GrdErr=1.00D-06 EigMax=2.50D+02 EigMin=1.00D-04
 Number of steps in this run=    307 maximum allowed number of steps=    324.
 GradGradGradGradGradGradGradGradGradGradGradGradGradGradGradGradGradGrad

 Stoichiometry    C26H18N2O6S2
 Framework group  C1[X(C26H18N2O6S2)]
 Deg. of freedom   156
 Full point group                 C1      NOp   1
 Largest Abelian subgroup         C1      NOp   1
 Largest concise Abelian subgroup C1      NOp   1
                         Standard orientation:                         
 ---------------------------------------------------------------------
 Center     Atomic      Atomic             Coordinates (Angstroms)
 Number     Number       Type             X           Y           Z
 ---------------------------------------------------------------------
      1          6           0       -2.709913   -2.917218    0.692177
      2          6           0       -2.333785   -1.500053    0.446649
      3          6           0       -3.310506   -0.554290    0.056136
      4          6           0       -4.658313   -0.944497   -0.104700
      5          6           0       -5.068364   -2.355149    0.127308
      6          6           0       -1.022136   -1.120081    0.579080
      7          6           0       -2.907555    0.794835   -0.158993
      8          6           0       -1.539545    1.187722   -0.007026
      9          6           0       -0.563574    0.212442    0.335651
     10          6           0       -1.228249    2.637977   -0.128088
     11          6           0       -3.601116    3.151783   -0.724705
     12          6           0       -3.919525    1.722081   -0.522643
     13          6           0       -5.239554    1.320164   -0.680118
     14          6           0       -5.616701   -0.012481   -0.475645
     15          1           0       -6.644152   -0.335742   -0.592670
     16          1           0       -5.968044    2.072801   -0.960752
     17          1           0       -0.308033   -1.892578    0.839206
     18          7           0       -2.274065    3.512428   -0.483425
     19          7           0       -4.057754   -3.251813    0.514128
     20          8           0       -1.902000   -3.769596    1.034071
     21          8           0       -6.225315   -2.724092   -0.007497
     22          8           0       -4.441331    3.975560   -1.064709
     23          8           0       -0.125624    3.130651    0.073920
     24          6           0       -1.908572    4.928443   -0.601644
     25          1           0       -1.516079    5.290564    0.349765
     26          1           0       -1.129601    5.049620   -1.358756
     27          1           0       -2.804179    5.475287   -0.883375
     28          6           0       -4.416534   -4.653818    0.755382
     29          1           0       -3.832719   -5.301421    0.097853
     30          1           0       -4.189841   -4.921138    1.789175
     31          1           0       -5.479357   -4.762636    0.556724
     32          6           0        0.883147    0.397897    0.441994
     33          6           0        1.626282    1.479032    0.873804
     34         16           0        1.949268   -0.853418   -0.197237
     35          6           0        3.015351    1.310949    0.705126
     36          1           0        1.180199    2.359823    1.307230
     37          6           0        3.384864    0.086066    0.140115
     38          8           0        3.983912    2.206591    1.033455
     39          6           0        4.712373   -0.396270   -0.117165
     40          6           0        3.583866    3.380217    1.735890
     41          6           0        5.077901   -1.607616   -0.702047
     42         16           0        6.162548    0.517925    0.287699
     43          1           0        4.503362    3.915800    1.972201
     44          1           0        2.943418    4.015846    1.112615
     45          1           0        3.055910    3.126972    2.662286
     46          6           0        6.484179   -1.795722   -0.820886
     47          8           0        4.108798   -2.475814   -1.091536
     48          6           0        7.186157   -0.729102   -0.328007
     49          1           0        6.950515   -2.672875   -1.248346
     50          6           0        4.512118   -3.689539   -1.716768
     51          1           0        8.260314   -0.607012   -0.294586
     52          1           0        5.122659   -4.302066   -1.040758
     53          1           0        3.593851   -4.223056   -1.959013
     54          1           0        5.074188   -3.493607   -2.638020
 ---------------------------------------------------------------------
 Rotational constants (GHZ):           0.1526804           0.0592490           0.0446945
 Standard basis: 6-311+G(d,p) (5D, 7F)
 There are   952 symmetry adapted cartesian basis functions of A   symmetry.
 There are   916 symmetry adapted basis functions of A   symmetry.
   916 basis functions,  1468 primitive gaussians,   952 cartesian basis functions
   134 alpha electrons      134 beta electrons
       nuclear repulsion energy      4087.9842804510 Hartrees.
 NAtoms=   54 NActive=   54 NUniq=   54 SFac= 1.00D+00 NAtFMM=   60 NAOKFM=F Big=F
 Integral buffers will be    131072 words long.
 Raffenetti 2 integral format.
 Two-electron integral symmetry is turned on.
 Nuclear repulsion after empirical dispersion term =     4087.9434870691 Hartrees.
 One-electron integrals computed using PRISM.
 NBasis=   916 RedAO= T EigKep=  1.45D-06  NBF=   916
 NBsUse=   901 1.00D-06 EigRej=  9.60D-07 NBFU=   901
 ExpMin= 4.05D-02 ExpMax= 9.34D+04 ExpMxC= 3.17D+03 IAcc=3 IRadAn=         5 AccDes= 0.00D+00
 Harris functional with IExCor= 4639 and IRadAn=       5 diagonalized for initial guess.
 HarFok:  IExCor= 4639 AccDes= 0.00D+00 IRadAn=         5 IDoV= 1 UseB2=F ITyADJ=14
 ICtDFT=  3500011 ScaDFX=  1.000000  1.000000  1.000000  1.000000
 FoFCou: FMM=F IPFlag=           0 FMFlag=      100000 FMFlg1=           0
         NFxFlg=           0 DoJE=T BraDBF=F KetDBF=T FulRan=T
         wScrn=  0.000000 ICntrl=       500 IOpCl=  0 I1Cent=   200000004 NGrid=           0
         NMat0=    1 NMatS0=      1 NMatT0=    0 NMatD0=    1 NMtDS0=    0 NMtDT0=    0
 Petite list used in FoFCou.
 Requested convergence on RMS density matrix=1.00D-08 within 128 cycles.
 Requested convergence on MAX density matrix=1.00D-06.
 Requested convergence on             energy=1.00D-06.
 No special actions if energy rises.
 SCF Done:  E(RwB97XD) =  -2358.76431355     A.U. after   19 cycles
            NFock= 19  Conv=0.92D-08     -V/T= 2.0032

 **********************************************************************

            Population analysis using the SCF Density.

 **********************************************************************

 Orbital symmetries:
       Occupied  (A) (A) (A) (A) (A) (A) (A) (A) (A) (A) (A) (A)
                 (A) (A) (A) (A) (A) (A) (A) (A) (A) (A) (A) (A)
                 (A) (A) (A) (A) (A) (A) (A) (A) (A) (A) (A) (A)
                 (A) (A) (A) (A) (A) (A) (A) (A) (A) (A) (A) (A)
                 (A) (A) (A) (A) (A) (A) (A) (A) (A) (A) (A) (A)
                 (A) (A) (A) (A) (A) (A) (A) (A) (A) (A) (A) (A)
                 (A) (A) (A) (A) (A) (A) (A) (A) (A) (A) (A) (A)
                 (A) (A) (A) (A) (A) (A) (A) (A) (A) (A) (A) (A)
                 (A) (A) (A) (A) (A) (A) (A) (A) (A) (A) (A) (A)
                 (A) (A) (A) (A) (A) (A) (A) (A) (A) (A) (A) (A)
                 (A) (A) (A) (A) (A) (A) (A) (A) (A) (A) (A) (A)
                 (A) (A)
       Virtual   (A) (A) (A) (A) (A) (A) (A) (A) (A) (A) (A) (A)
                 (A) (A) (A) (A) (A) (A) (A) (A) (A) (A) (A) (A)
                 (A) (A) (A) (A) (A) (A) (A) (A) (A) (A) (A) (A)
                 (A) (A) (A) (A) (A) (A) (A) (A) (A) (A) (A) (A)
                 (A) (A) (A) (A) (A) (A) (A) (A) (A) (A) (A) (A)
                 (A) (A) (A) (A) (A) (A) (A) (A) (A) (A) (A) (A)
                 (A) (A) (A) (A) (A) (A) (A) (A) (A) (A) (A) (A)
                 (A) (A) (A) (A) (A) (A) (A) (A) (A) (A) (A) (A)
                 (A) (A) (A) (A) (A) (A) (A) (A) (A) (A) (A) (A)
                 (A) (A) (A) (A) (A) (A) (A) (A) (A) (A) (A) (A)
                 (A) (A) (A) (A) (A) (A) (A) (A) (A) (A) (A) (A)
                 (A) (A) (A) (A) (A) (A) (A) (A) (A) (A) (A) (A)
                 (A) (A) (A) (A) (A) (A) (A) (A) (A) (A) (A) (A)
                 (A) (A) (A) (A) (A) (A) (A) (A) (A) (A) (A) (A)
                 (A) (A) (A) (A) (A) (A) (A) (A) (A) (A) (A) (A)
                 (A) (A) (A) (A) (A) (A) (A) (A) (A) (A) (A) (A)
                 (A) (A) (A) (A) (A) (A) (A) (A) (A) (A) (A) (A)
                 (A) (A) (A) (A) (A) (A) (A) (A) (A) (A) (A) (A)
                 (A) (A) (A) (A) (A) (A) (A) (A) (A) (A) (A) (A)
                 (A) (A) (A) (A) (A) (A) (A) (A) (A) (A) (A) (A)
                 (A) (A) (A) (A) (A) (A) (A) (A) (A) (A) (A) (A)
                 (A) (A) (A) (A) (A) (A) (A) (A) (A) (A) (A) (A)
                 (A) (A) (A) (A) (A) (A) (A) (A) (A) (A) (A) (A)
                 (A) (A) (A) (A) (A) (A) (A) (A) (A) (A) (A) (A)
                 (A) (A) (A) (A) (A) (A) (A) (A) (A) (A) (A) (A)
                 (A) (A) (A) (A) (A) (A) (A) (A) (A) (A) (A) (A)
                 (A) (A) (A) (A) (A) (A) (A) (A) (A) (A) (A) (A)
                 (A) (A) (A) (A) (A) (A) (A) (A) (A) (A) (A) (A)
                 (A) (A) (A) (A) (A) (A) (A) (A) (A) (A) (A) (A)
                 (A) (A) (A) (A) (A) (A) (A) (A) (A) (A) (A) (A)
                 (A) (A) (A) (A) (A) (A) (A) (A) (A) (A) (A) (A)
                 (A) (A) (A) (A) (A) (A) (A) (A) (A) (A) (A) (A)
                 (A) (A) (A) (A) (A) (A) (A) (A) (A) (A) (A) (A)
                 (A) (A) (A) (A) (A) (A) (A) (A) (A) (A) (A) (A)
                 (A) (A) (A) (A) (A) (A) (A) (A) (A) (A) (A) (A)
                 (A) (A) (A) (A) (A) (A) (A) (A) (A) (A) (A) (A)
                 (A) (A) (A) (A) (A) (A) (A) (A) (A) (A) (A) (A)
                 (A) (A) (A) (A) (A) (A) (A) (A) (A) (A) (A) (A)
                 (A) (A) (A) (A) (A) (A) (A) (A) (A) (A) (A) (A)
                 (A) (A) (A) (A) (A) (A) (A) (A) (A) (A) (A) (A)
                 (A) (A) (A) (A) (A) (A) (A) (A) (A) (A) (A) (A)
                 (A) (A) (A) (A) (A) (A) (A) (A) (A) (A) (A) (A)
                 (A) (A) (A) (A) (A) (A) (A) (A) (A) (A) (A) (A)
                 (A) (A) (A) (A) (A) (A) (A) (A) (A) (A) (A) (A)
                 (A) (A) (A) (A) (A) (A) (A) (A) (A) (A) (A) (A)
                 (A) (A) (A) (A) (A) (A) (A) (A) (A) (A) (A) (A)
                 (A) (A) (A) (A) (A) (A) (A) (A) (A) (A) (A) (A)
                 (A) (A) (A) (A) (A) (A) (A) (A) (A) (A) (A) (A)
                 (A) (A) (A) (A) (A) (A) (A) (A) (A) (A) (A) (A)
                 (A) (A) (A) (A) (A) (A) (A) (A) (A) (A) (A) (A)
                 (A) (A) (A) (A) (A) (A) (A) (A) (A) (A) (A) (A)
                 (A) (A) (A) (A) (A) (A) (A) (A) (A) (A) (A) (A)
                 (A) (A) (A) (A) (A) (A) (A) (A) (A) (A) (A) (A)
                 (A) (A) (A) (A) (A) (A) (A) (A) (A) (A) (A) (A)
                 (A) (A) (A) (A) (A) (A) (A) (A) (A) (A) (A) (A)
                 (A) (A) (A) (A) (A) (A) (A) (A) (A) (A) (A) (A)
                 (A) (A) (A) (A) (A) (A) (A) (A) (A) (A) (A) (A)
                 (A) (A) (A) (A) (A) (A) (A) (A) (A) (A) (A) (A)
                 (A) (A) (A) (A) (A) (A) (A) (A) (A) (A) (A) (A)
                 (A) (A) (A) (A) (A) (A) (A) (A) (A) (A) (A) (A)
                 (A) (A) (A) (A) (A) (A) (A) (A) (A) (A) (A) (A)
                 (A) (A) (A) (A) (A) (A) (A) (A) (A) (A) (A) (A)
                 (A) (A) (A) (A) (A) (A) (A) (A) (A) (A) (A) (A)
                 (A) (A) (A) (A) (A) (A) (A) (A) (A) (A) (A)
 The electronic state is 1-A.
 Alpha  occ. eigenvalues --  -89.05006 -89.04895 -19.29287 -19.28728 -19.25137
 Alpha  occ. eigenvalues --  -19.25084 -19.24684 -19.24561 -14.50784 -14.50465
 Alpha  occ. eigenvalues --  -10.43088 -10.43043 -10.42881 -10.42485 -10.35981
 Alpha  occ. eigenvalues --  -10.35905 -10.35320 -10.34864 -10.34816 -10.34690
 Alpha  occ. eigenvalues --  -10.34327 -10.34206 -10.34106 -10.34072 -10.33850
 Alpha  occ. eigenvalues --  -10.33493 -10.33158 -10.33038 -10.32902 -10.32832
 Alpha  occ. eigenvalues --  -10.32793 -10.32311 -10.32231 -10.32114 -10.30018
 Alpha  occ. eigenvalues --  -10.29577  -8.08956  -8.08846  -6.03817  -6.03695
 Alpha  occ. eigenvalues --   -6.03423  -6.03303  -6.03018  -6.02931  -1.18868
 Alpha  occ. eigenvalues --   -1.18742  -1.18468  -1.17911  -1.16902  -1.16631
 Alpha  occ. eigenvalues --   -1.06427  -1.06027  -1.02777  -1.00036  -0.98519
 Alpha  occ. eigenvalues --   -0.96719  -0.94538  -0.90405  -0.88584  -0.87312
 Alpha  occ. eigenvalues --   -0.85746  -0.85126  -0.84528  -0.82688  -0.82124
 Alpha  occ. eigenvalues --   -0.81501  -0.79569  -0.78227  -0.76766  -0.75478
 Alpha  occ. eigenvalues --   -0.75065  -0.74154  -0.70244  -0.68730  -0.67838
 Alpha  occ. eigenvalues --   -0.66630  -0.65640  -0.64987  -0.64413  -0.63408
 Alpha  occ. eigenvalues --   -0.62294  -0.60624  -0.59443  -0.59046  -0.58846
 Alpha  occ. eigenvalues --   -0.58386  -0.57516  -0.57160  -0.57158  -0.56583
 Alpha  occ. eigenvalues --   -0.56523  -0.55893  -0.55347  -0.54888  -0.54356
 Alpha  occ. eigenvalues --   -0.53919  -0.53499  -0.53177  -0.53037  -0.51860
 Alpha  occ. eigenvalues --   -0.51378  -0.50990  -0.50759  -0.50433  -0.50191
 Alpha  occ. eigenvalues --   -0.49926  -0.49540  -0.49319  -0.48848  -0.48026
 Alpha  occ. eigenvalues --   -0.47968  -0.47305  -0.46661  -0.45756  -0.45294
 Alpha  occ. eigenvalues --   -0.44111  -0.44069  -0.42319  -0.41692  -0.41266
 Alpha  occ. eigenvalues --   -0.41199  -0.40019  -0.39589  -0.38634  -0.37803
 Alpha  occ. eigenvalues --   -0.37262  -0.37075  -0.36735  -0.36389  -0.34496
 Alpha  occ. eigenvalues --   -0.33118  -0.31703  -0.31499  -0.25436
 Alpha virt. eigenvalues --   -0.07647  -0.01081   0.00066   0.02104   0.03046
 Alpha virt. eigenvalues --    0.05279   0.05740   0.06116   0.06721   0.06830
 Alpha virt. eigenvalues --    0.07122   0.07446   0.07723   0.07942   0.07975
 Alpha virt. eigenvalues --    0.08247   0.08623   0.08630   0.08982   0.09206
 Alpha virt. eigenvalues --    0.09420   0.09667   0.09822   0.10139   0.10417
 Alpha virt. eigenvalues --    0.10606   0.10938   0.11461   0.11506   0.11771
 Alpha virt. eigenvalues --    0.11939   0.12203   0.12218   0.12597   0.12841
 Alpha virt. eigenvalues --    0.13182   0.13375   0.13839   0.13899   0.14298
 Alpha virt. eigenvalues --    0.14713   0.14974   0.15199   0.15220   0.15479
 Alpha virt. eigenvalues --    0.15870   0.16127   0.16476   0.16610   0.16884
 Alpha virt. eigenvalues --    0.17307   0.17674   0.17782   0.18090   0.18151
 Alpha virt. eigenvalues --    0.18557   0.19012   0.19248   0.19374   0.19537
 Alpha virt. eigenvalues --    0.19948   0.20047   0.20226   0.20592   0.20740
 Alpha virt. eigenvalues --    0.20933   0.20970   0.21196   0.21324   0.21749
 Alpha virt. eigenvalues --    0.21824   0.22101   0.22325   0.22567   0.22697
 Alpha virt. eigenvalues --    0.23257   0.23452   0.23534   0.23989   0.24116
 Alpha virt. eigenvalues --    0.24360   0.24439   0.24743   0.24851   0.24935
 Alpha virt. eigenvalues --    0.25203   0.25640   0.25792   0.25887   0.26061
 Alpha virt. eigenvalues --    0.26262   0.26323   0.26422   0.26770   0.26778
 Alpha virt. eigenvalues --    0.27073   0.27233   0.27467   0.27633   0.27810
 Alpha virt. eigenvalues --    0.28039   0.28670   0.28688   0.28879   0.29040
 Alpha virt. eigenvalues --    0.29095   0.29412   0.29593   0.29855   0.29937
 Alpha virt. eigenvalues --    0.30164   0.30347   0.30584   0.30781   0.30919
 Alpha virt. eigenvalues --    0.31008   0.31549   0.31861   0.31895   0.31994
 Alpha virt. eigenvalues --    0.32397   0.32594   0.32615   0.32858   0.32974
 Alpha virt. eigenvalues --    0.33099   0.33218   0.33419   0.33799   0.34125
 Alpha virt. eigenvalues --    0.34336   0.34549   0.34637   0.34846   0.35070
 Alpha virt. eigenvalues --    0.35284   0.35517   0.35725   0.35924   0.36433
 Alpha virt. eigenvalues --    0.36554   0.36736   0.36942   0.37303   0.37563
 Alpha virt. eigenvalues --    0.37987   0.38126   0.38440   0.38545   0.38962
 Alpha virt. eigenvalues --    0.39301   0.39622   0.39816   0.39855   0.40170
 Alpha virt. eigenvalues --    0.40764   0.41080   0.41182   0.41353   0.41771
 Alpha virt. eigenvalues --    0.41908   0.42068   0.42308   0.42951   0.43358
 Alpha virt. eigenvalues --    0.43977   0.44102   0.44347   0.44431   0.45127
 Alpha virt. eigenvalues --    0.45515   0.45661   0.46055   0.46175   0.46729
 Alpha virt. eigenvalues --    0.47117   0.47420   0.47607   0.48067   0.48674
 Alpha virt. eigenvalues --    0.49425   0.49608   0.50070   0.50347   0.51025
 Alpha virt. eigenvalues --    0.51258   0.51946   0.52113   0.52668   0.52785
 Alpha virt. eigenvalues --    0.53085   0.53314   0.53435   0.53861   0.54089
 Alpha virt. eigenvalues --    0.54857   0.55190   0.55869   0.56948   0.57293
 Alpha virt. eigenvalues --    0.57852   0.58139   0.58226   0.58849   0.59175
 Alpha virt. eigenvalues --    0.59693   0.60717   0.61087   0.61360   0.61922
 Alpha virt. eigenvalues --    0.62500   0.62927   0.63301   0.63436   0.63964
 Alpha virt. eigenvalues --    0.64212   0.64578   0.64797   0.65381   0.65498
 Alpha virt. eigenvalues --    0.66250   0.66373   0.66533   0.67118   0.67248
 Alpha virt. eigenvalues --    0.67660   0.68381   0.68431   0.69079   0.69280
 Alpha virt. eigenvalues --    0.69516   0.69819   0.70231   0.71287   0.71382
 Alpha virt. eigenvalues --    0.72068   0.72503   0.72578   0.72824   0.73314
 Alpha virt. eigenvalues --    0.73414   0.73559   0.73909   0.74244   0.74604
 Alpha virt. eigenvalues --    0.74866   0.75274   0.75915   0.76293   0.76540
 Alpha virt. eigenvalues --    0.77186   0.77804   0.78034   0.78451   0.78599
 Alpha virt. eigenvalues --    0.79201   0.79778   0.80043   0.80557   0.80785
 Alpha virt. eigenvalues --    0.81152   0.81554   0.81837   0.82289   0.82579
 Alpha virt. eigenvalues --    0.82823   0.83155   0.83388   0.83627   0.84015
 Alpha virt. eigenvalues --    0.84685   0.84861   0.85345   0.85596   0.85712
 Alpha virt. eigenvalues --    0.86330   0.86661   0.86928   0.87239   0.88082
 Alpha virt. eigenvalues --    0.88250   0.89058   0.89747   0.89971   0.90662
 Alpha virt. eigenvalues --    0.91256   0.92273   0.92803   0.92864   0.94300
 Alpha virt. eigenvalues --    0.94983   0.95580   0.95662   0.96596   0.96749
 Alpha virt. eigenvalues --    0.97139   0.97967   0.98434   0.99305   0.99572
 Alpha virt. eigenvalues --    0.99787   1.00264   1.00779   1.01115   1.01408
 Alpha virt. eigenvalues --    1.02001   1.02205   1.02682   1.02824   1.03727
 Alpha virt. eigenvalues --    1.04110   1.04173   1.04707   1.05124   1.05310
 Alpha virt. eigenvalues --    1.05746   1.06474   1.06823   1.07297   1.08272
 Alpha virt. eigenvalues --    1.08937   1.09407   1.09831   1.09960   1.10492
 Alpha virt. eigenvalues --    1.11166   1.11620   1.11827   1.12358   1.12730
 Alpha virt. eigenvalues --    1.13291   1.13588   1.13909   1.14332   1.14772
 Alpha virt. eigenvalues --    1.15161   1.15283   1.15528   1.16287   1.16726
 Alpha virt. eigenvalues --    1.16969   1.17638   1.18147   1.18543   1.19020
 Alpha virt. eigenvalues --    1.19210   1.20217   1.21182   1.21968   1.23127
 Alpha virt. eigenvalues --    1.23680   1.24095   1.25073   1.26183   1.26310
 Alpha virt. eigenvalues --    1.26586   1.27154   1.27452   1.28638   1.29034
 Alpha virt. eigenvalues --    1.30154   1.31023   1.31965   1.32951   1.33187
 Alpha virt. eigenvalues --    1.34064   1.34331   1.34599   1.35049   1.35451
 Alpha virt. eigenvalues --    1.36852   1.38162   1.38468   1.39373   1.40187
 Alpha virt. eigenvalues --    1.40347   1.40651   1.42292   1.43121   1.43995
 Alpha virt. eigenvalues --    1.44244   1.44721   1.45314   1.46563   1.48872
 Alpha virt. eigenvalues --    1.49300   1.49734   1.50333   1.50875   1.51155
 Alpha virt. eigenvalues --    1.51369   1.51855   1.52551   1.52816   1.52867
 Alpha virt. eigenvalues --    1.53428   1.53829   1.54015   1.54197   1.54387
 Alpha virt. eigenvalues --    1.54946   1.55393   1.55740   1.56535   1.57279
 Alpha virt. eigenvalues --    1.58299   1.59321   1.59881   1.60494   1.61188
 Alpha virt. eigenvalues --    1.61364   1.62524   1.63204   1.63619   1.63931
 Alpha virt. eigenvalues --    1.64042   1.64144   1.64663   1.64930   1.65725
 Alpha virt. eigenvalues --    1.65823   1.67242   1.68666   1.69674   1.70487
 Alpha virt. eigenvalues --    1.71147   1.71720   1.72273   1.72722   1.72779
 Alpha virt. eigenvalues --    1.74040   1.74686   1.75193   1.75799   1.75922
 Alpha virt. eigenvalues --    1.76621   1.77688   1.77810   1.77961   1.78175
 Alpha virt. eigenvalues --    1.78886   1.79170   1.79472   1.79886   1.80452
 Alpha virt. eigenvalues --    1.81999   1.82522   1.83057   1.84080   1.84473
 Alpha virt. eigenvalues --    1.85192   1.85269   1.86206   1.86852   1.87595
 Alpha virt. eigenvalues --    1.87870   1.88534   1.88862   1.89179   1.90846
 Alpha virt. eigenvalues --    1.92413   1.93329   1.93516   1.94527   1.94731
 Alpha virt. eigenvalues --    1.95231   1.95513   1.95860   1.96310   1.97018
 Alpha virt. eigenvalues --    1.97935   1.98387   1.98620   1.99270   2.00290
 Alpha virt. eigenvalues --    2.00914   2.01356   2.02668   2.03582   2.03620
 Alpha virt. eigenvalues --    2.04711   2.05220   2.05827   2.05948   2.07891
 Alpha virt. eigenvalues --    2.08253   2.09009   2.09975   2.10459   2.10973
 Alpha virt. eigenvalues --    2.12081   2.12284   2.12785   2.13253   2.13897
 Alpha virt. eigenvalues --    2.14677   2.15079   2.15916   2.16410   2.16518
 Alpha virt. eigenvalues --    2.17202   2.17842   2.19080   2.20464   2.20533
 Alpha virt. eigenvalues --    2.21282   2.22500   2.23334   2.23623   2.24116
 Alpha virt. eigenvalues --    2.24481   2.25030   2.26492   2.27533   2.28187
 Alpha virt. eigenvalues --    2.28434   2.28654   2.29785   2.30879   2.31346
 Alpha virt. eigenvalues --    2.32790   2.34551   2.34950   2.36188   2.37627
 Alpha virt. eigenvalues --    2.39694   2.40599   2.41486   2.43513   2.45650
 Alpha virt. eigenvalues --    2.46807   2.47678   2.48290   2.50567   2.52318
 Alpha virt. eigenvalues --    2.52733   2.52938   2.53435   2.54230   2.55554
 Alpha virt. eigenvalues --    2.56076   2.56265   2.57578   2.58773   2.58991
 Alpha virt. eigenvalues --    2.59176   2.60782   2.61720   2.61964   2.62077
 Alpha virt. eigenvalues --    2.62366   2.62414   2.63343   2.64285   2.65245
 Alpha virt. eigenvalues --    2.66000   2.67253   2.67941   2.68736   2.69459
 Alpha virt. eigenvalues --    2.72074   2.72534   2.73203   2.74099   2.75900
 Alpha virt. eigenvalues --    2.76289   2.77008   2.77654   2.77994   2.78404
 Alpha virt. eigenvalues --    2.78478   2.79267   2.79661   2.80624   2.81169
 Alpha virt. eigenvalues --    2.81500   2.81876   2.82552   2.83632   2.85169
 Alpha virt. eigenvalues --    2.86033   2.86755   2.87306   2.88234   2.90633
 Alpha virt. eigenvalues --    2.91894   2.92389   2.93032   2.93201   2.93785
 Alpha virt. eigenvalues --    2.93898   2.95037   2.95380   2.95638   2.96109
 Alpha virt. eigenvalues --    2.97536   2.97992   2.99127   2.99239   3.00064
 Alpha virt. eigenvalues --    3.00658   3.01886   3.02696   3.03333   3.04600
 Alpha virt. eigenvalues --    3.04745   3.05499   3.07324   3.08962   3.09936
 Alpha virt. eigenvalues --    3.10977   3.12579   3.12869   3.14035   3.14659
 Alpha virt. eigenvalues --    3.16301   3.18028   3.18511   3.19147   3.20769
 Alpha virt. eigenvalues --    3.21943   3.23148   3.23461   3.24404   3.25191
 Alpha virt. eigenvalues --    3.27270   3.27477   3.29610   3.29848   3.31870
 Alpha virt. eigenvalues --    3.32860   3.33325   3.33667   3.34358   3.36040
 Alpha virt. eigenvalues --    3.38038   3.38658   3.41218   3.41919   3.42800
 Alpha virt. eigenvalues --    3.43291   3.43551   3.43882   3.45357   3.47054
 Alpha virt. eigenvalues --    3.48083   3.49556   3.50860   3.51738   3.52960
 Alpha virt. eigenvalues --    3.53788   3.55213   3.55890   3.58374   3.58413
 Alpha virt. eigenvalues --    3.60617   3.62929   3.65628   3.66958   3.68797
 Alpha virt. eigenvalues --    3.69435   3.70520   3.74138   3.75664   3.76354
 Alpha virt. eigenvalues --    3.79353   3.79456   3.82010   3.82383   3.85713
 Alpha virt. eigenvalues --    3.85925   3.87018   3.90881   3.92349   3.94539
 Alpha virt. eigenvalues --    3.95097   3.95896   3.99878   4.00968   4.02416
 Alpha virt. eigenvalues --    4.03708   4.04638   4.06202   4.10858   4.12489
 Alpha virt. eigenvalues --    4.14276   4.18264   4.20301   4.22143   4.24018
 Alpha virt. eigenvalues --    4.29888   4.33566   4.34965   4.37283   4.44844
 Alpha virt. eigenvalues --    4.49652   4.49922   4.62372   4.79540   4.93710
 Alpha virt. eigenvalues --    4.95132   4.97590   5.00548   5.12992   5.14857
 Alpha virt. eigenvalues --    5.14996   5.16500   5.16633   5.19380   5.21544
 Alpha virt. eigenvalues --    5.23456   5.35970   5.37769   5.39937   5.45447
 Alpha virt. eigenvalues --    5.53583   5.54747   5.86234   5.87935   5.90747
 Alpha virt. eigenvalues --    5.91598   5.92550   5.95841   8.13228   8.14844
 Alpha virt. eigenvalues --   17.43183  17.46231  17.63393  17.66340  17.71055
 Alpha virt. eigenvalues --   17.76493  23.61687  23.69873  23.84919  23.91596
 Alpha virt. eigenvalues --   23.94732  23.95553  23.96250  23.99070  23.99255
 Alpha virt. eigenvalues --   24.00606  24.01982  24.03641  24.04817  24.05625
 Alpha virt. eigenvalues --   24.07652  24.07921  24.08985  24.10521  24.13037
 Alpha virt. eigenvalues --   24.14894  24.15813  24.17504  24.25665  24.26039
 Alpha virt. eigenvalues --   24.26596  24.27680  35.69261  35.72173  50.10258
 Alpha virt. eigenvalues --   50.12122  50.15606  50.17427  50.19297  50.20872
 Alpha virt. eigenvalues --  189.38555 189.40785
          Condensed to atoms (all electrons):
 Mulliken charges:
               1
     1  C    0.364811
     2  C   -0.072334
     3  C    0.110603
     4  C    0.234149
     5  C    0.310805
     6  C   -0.890610
     7  C    0.168464
     8  C    0.150704
     9  C    0.768768
    10  C   -0.271325
    11  C    0.241977
    12  C    0.212526
    13  C   -0.579122
    14  C   -0.672586
    15  H    0.189338
    16  H    0.191354
    17  H    0.201387
    18  N   -0.101246
    19  N   -0.079955
    20  O   -0.265068
    21  O   -0.273545
    22  O   -0.276263
    23  O   -0.222400
    24  C   -0.287723
    25  H    0.189944
    26  H    0.194745
    27  H    0.203463
    28  C   -0.278726
    29  H    0.192805
    30  H    0.194268
    31  H    0.200800
    32  C   -0.096446
    33  C   -0.428947
    34  S   -0.646213
    35  C   -0.067286
    36  H    0.173019
    37  C    0.754112
    38  O   -0.113482
    39  C    0.877620
    40  C   -0.313219
    41  C    0.096835
    42  S   -0.298866
    43  H    0.181169
    44  H    0.176402
    45  H    0.163762
    46  C   -0.603230
    47  O   -0.116858
    48  C   -0.332090
    49  H    0.157354
    50  C   -0.305904
    51  H    0.188845
    52  H    0.159780
    53  H    0.183914
    54  H    0.159722
 Sum of Mulliken charges =  -0.00000
 Mulliken charges with hydrogens summed into heavy atoms:
               1
     1  C    0.364811
     2  C   -0.072334
     3  C    0.110603
     4  C    0.234149
     5  C    0.310805
     6  C   -0.689224
     7  C    0.168464
     8  C    0.150704
     9  C    0.768768
    10  C   -0.271325
    11  C    0.241977
    12  C    0.212526
    13  C   -0.387769
    14  C   -0.483247
    18  N   -0.101246
    19  N   -0.079955
    20  O   -0.265068
    21  O   -0.273545
    22  O   -0.276263
    23  O   -0.222400
    24  C    0.300429
    28  C    0.309148
    32  C   -0.096446
    33  C   -0.255928
    34  S   -0.646213
    35  C   -0.067286
    37  C    0.754112
    38  O   -0.113482
    39  C    0.877620
    40  C    0.208114
    41  C    0.096835
    42  S   -0.298866
    46  C   -0.445876
    47  O   -0.116858
    48  C   -0.143245
    50  C    0.197511
 Electronic spatial extent (au):  <R**2>=          22350.4293
 Charge=             -0.0000 electrons
 Dipole moment (field-independent basis, Debye):
    X=              3.0496    Y=             -0.4771    Z=              0.0097  Tot=              3.0867
 Quadrupole moment (field-independent basis, Debye-Ang):
   XX=           -215.6312   YY=           -208.6582   ZZ=           -218.1346
   XY=             -4.6703   XZ=             -7.0924   YZ=             14.9109
 Traceless Quadrupole moment (field-independent basis, Debye-Ang):
   XX=             -1.4899   YY=              5.4831   ZZ=             -3.9933
   XY=             -4.6703   XZ=             -7.0924   YZ=             14.9109
 Octapole moment (field-independent basis, Debye-Ang**2):
  XXX=            320.3160  YYY=            -21.6421  ZZZ=              2.9391  XYY=            115.3834
  XXY=            -74.9560  XXZ=            -11.2918  XZZ=             10.7250  YZZ=             -1.0569
  YYZ=             -0.8287  XYZ=             43.0856
 Hexadecapole moment (field-independent basis, Debye-Ang**3):
 XXXX=         -20558.4007 YYYY=          -7444.7956 ZZZZ=           -928.1206 XXXY=           -558.9159
 XXXZ=           -255.7412 YYYX=            261.8752 YYYZ=            220.5581 ZZZX=            -15.5667
 ZZZY=             40.2422 XXYY=          -4814.2256 XXZZ=          -3722.8511 YYZZ=          -1405.2041
 XXYZ=            266.3217 YYXZ=           -166.1968 ZZXY=             38.6629
 N-N= 4.087943487069D+03 E-N=-1.371504915912D+04  KE= 2.351222636893D+03
 Calling FoFJK, ICntrl=      2127 FMM=F ISym2X=0 I1Cent= 0 IOpClX= 0 NMat=1 NMatS=1 NMatT=0.
 ***** Axes restored to original set *****
 -------------------------------------------------------------------
 Center     Atomic                   Forces (Hartrees/Bohr)
 Number     Number              X              Y              Z
 -------------------------------------------------------------------
      1        6           0.007120546   -0.014595058   -0.001036706
      2        6           0.005658749    0.005589127   -0.000874387
      3        6           0.001273292    0.003397377    0.000409468
      4        6          -0.002215515    0.007773587    0.001547653
      5        6          -0.011529899   -0.009259828   -0.001086606
      6        6          -0.007329259    0.000428037   -0.007278178
      7        6          -0.002627056   -0.004122335    0.001128241
      8        6           0.006047941   -0.008778324    0.006503361
      9        6          -0.009121913    0.001793425    0.002037149
     10        6           0.007023221    0.010431327    0.000028909
     11        6          -0.007260920    0.013698617    0.001518570
     12        6          -0.004068435   -0.005409472   -0.000605400
     13        6           0.006861963    0.000965077   -0.000145446
     14        6           0.007064524   -0.004309838   -0.000734325
     15        1           0.000368166    0.000630412    0.000002341
     16        1           0.000400603   -0.000928765   -0.000258364
     17        1           0.000953355    0.000405786    0.002747963
     18        7           0.000457785   -0.001815708   -0.002029968
     19        7           0.000440099    0.002086858    0.000059618
     20        8          -0.014561771    0.015021975    0.001941388
     21        8           0.018345291    0.006252042    0.000575067
     22        8           0.015004416   -0.014051880   -0.001697225
     23        8          -0.027080804   -0.000729729   -0.003223274
     24        6           0.000916643   -0.001671531   -0.001878039
     25        1          -0.001010288   -0.000349510   -0.000192275
     26        1          -0.001618099   -0.000929994    0.000994404
     27        1           0.000660357    0.000022396    0.000121114
     28        6           0.001206277    0.001870992   -0.000126234
     29        1          -0.000837364    0.000851991    0.000923379
     30        1          -0.000594346    0.000857003   -0.000341228
     31        1           0.000626163   -0.000231909   -0.000024392
     32        6           0.010941127    0.009976436   -0.004445113
     33        6           0.003906082   -0.008399958    0.000890091
     34       16           0.000252216    0.005733506    0.007572970
     35        6           0.005458286   -0.009291252   -0.007275467
     36        1           0.004360311   -0.004468324   -0.002964350
     37        6          -0.012844556    0.005617750    0.010963336
     38        8          -0.004817939   -0.000411066    0.004351395
     39        6           0.012215568   -0.004194385   -0.010117892
     40        6          -0.000122280   -0.001684799   -0.004297008
     41        6          -0.004246857    0.004760639    0.006542969
     42       16          -0.003573744   -0.007374654   -0.007207794
     43        1          -0.000744844   -0.000912397   -0.000360285
     44        1           0.000432367   -0.001489152   -0.000372561
     45        1           0.000829971   -0.000087811   -0.000807628
     46        6           0.001037079    0.003703011    0.003560441
     47        8           0.005222042   -0.000595475   -0.002729644
     48        6          -0.006904065   -0.000740525    0.001508363
     49        1           0.000004862    0.000501361    0.000468999
     50        6           0.001040697    0.002791887    0.003312748
     51        1          -0.001464267   -0.000354849    0.000212162
     52        1          -0.001384148    0.001341410    0.000359760
     53        1           0.000542487    0.000541374    0.000565880
     54        1          -0.000714117    0.000145126    0.001262050
 -------------------------------------------------------------------
 Cartesian Forces:  Max     0.027080804 RMS     0.005685690

 GradGradGradGradGradGradGradGradGradGradGradGradGradGradGradGradGradGrad
 Berny optimization.
 FormGI is forming the generalized inverse of G from B-inverse, IUseBI=4.
 Internal  Forces:  Max     0.036587901 RMS     0.005634296
 Search for a local minimum.
 Step number   1 out of a maximum of  307
 All quantities printed in internal units (Hartrees-Bohrs-Radians)
 Mixed Optimization -- RFO/linear search
 Second derivative matrix not updated -- first step.
 ITU=  0
     Eigenvalues ---    0.00803   0.00803   0.01176   0.01203   0.01245
     Eigenvalues ---    0.01292   0.01308   0.01311   0.01360   0.01379
     Eigenvalues ---    0.01419   0.01429   0.01457   0.01496   0.01515
     Eigenvalues ---    0.01568   0.01574   0.01577   0.01617   0.01652
     Eigenvalues ---    0.01692   0.01709   0.01711   0.01719   0.01754
     Eigenvalues ---    0.01783   0.01803   0.01847   0.01964   0.02040
     Eigenvalues ---    0.02043   0.02066   0.02076   0.02082   0.02135
     Eigenvalues ---    0.02149   0.02163   0.02177   0.02197   0.02228
     Eigenvalues ---    0.02245   0.02250   0.07556   0.07572   0.07690
     Eigenvalues ---    0.07700   0.10065   0.10069   0.10631   0.10638
     Eigenvalues ---    0.15983   0.15999   0.15999   0.16000   0.16000
     Eigenvalues ---    0.16000   0.16000   0.16000   0.16000   0.16000
     Eigenvalues ---    0.16000   0.16000   0.16000   0.16000   0.16000
     Eigenvalues ---    0.16000   0.16000   0.16000   0.22530   0.22583
     Eigenvalues ---    0.23518   0.23582   0.24516   0.24747   0.24864
     Eigenvalues ---    0.24931   0.24952   0.24986   0.24987   0.24988
     Eigenvalues ---    0.24991   0.24994   0.24997   0.24997   0.24998
     Eigenvalues ---    0.24998   0.25000   0.25000   0.25000   0.25000
     Eigenvalues ---    0.25000   0.25000   0.25000   0.25000   0.25000
     Eigenvalues ---    0.25000   0.28830   0.28908   0.30085   0.32093
     Eigenvalues ---    0.32582   0.32774   0.33111   0.33787   0.33938
     Eigenvalues ---    0.34036   0.34054   0.34135   0.34354   0.34466
     Eigenvalues ---    0.34577   0.34629   0.34693   0.34809   0.34896
     Eigenvalues ---    0.35198   0.35218   0.35468   0.35553   0.35582
     Eigenvalues ---    0.35803   0.35817   0.36078   0.36083   0.36205
     Eigenvalues ---    0.36396   0.36662   0.39352   0.40187   0.40194
     Eigenvalues ---    0.40651   0.40716   0.41524   0.41705   0.41919
     Eigenvalues ---    0.42300   0.42649   0.43455   0.43896   0.44092
     Eigenvalues ---    0.44570   0.44594   0.45014   0.45406   0.46251
     Eigenvalues ---    0.47305   0.47626   0.49310   0.49597   0.53060
     Eigenvalues ---    0.53319   0.93281   0.93432   0.93989   0.94585
     Eigenvalues --- 1000.000001000.000001000.000001000.000001000.00000
     Eigenvalues --- 1000.000001000.000001000.000001000.000001000.00000
     Eigenvalues --- 1000.000001000.000001000.000001000.000001000.00000
     Eigenvalues --- 1000.000001000.000001000.000001000.000001000.00000
     Eigenvalues --- 1000.000001000.000001000.000001000.000001000.00000
     Eigenvalues --- 1000.000001000.000001000.000001000.000001000.00000
     Eigenvalues --- 1000.000001000.000001000.000001000.000001000.00000
     Eigenvalues --- 1000.000001000.000001000.000001000.000001000.00000
     Eigenvalues --- 1000.000001000.000001000.000001000.000001000.00000
     Eigenvalues --- 1000.000001000.000001000.000001000.000001000.00000
     Eigenvalues --- 1000.000001000.000001000.000001000.000001000.00000
     Eigenvalues --- 1000.000001000.000001000.000001000.000001000.00000
     Eigenvalues --- 1000.000001000.000001000.000001000.000001000.00000
     Eigenvalues --- 1000.000001000.000001000.000001000.000001000.00000
     Eigenvalues --- 1000.000001000.000001000.000001000.000001000.00000
     Eigenvalues --- 1000.000001000.000001000.000001000.000001000.00000
     Eigenvalues --- 1000.000001000.000001000.000001000.000001000.00000
     Eigenvalues --- 1000.000001000.000001000.000001000.000001000.00000
     Eigenvalues --- 1000.000001000.000001000.000001000.000001000.00000
     Eigenvalues --- 1000.000001000.000001000.000001000.000001000.00000
     Eigenvalues --- 1000.000001000.000001000.000001000.000001000.00000
     Eigenvalues --- 1000.000001000.000001000.000001000.000001000.00000
     Eigenvalues --- 1000.000001000.000001000.000001000.000001000.00000
     Eigenvalues --- 1000.000001000.000001000.000001000.000001000.00000
     Eigenvalues --- 1000.000001000.000001000.000001000.000001000.00000
     Eigenvalues --- 1000.000001000.000001000.000001000.000001000.00000
     Eigenvalues --- 1000.000001000.000001000.000001000.000001000.00000
     Eigenvalues --- 1000.000001000.000001000.000001000.000001000.00000
     Eigenvalues --- 1000.000001000.00000
 RFO step:  Lambda=-2.79368460D-02 EMin= 8.02933640D-03
 Linear search not attempted -- first point.
 Iteration  1 RMS(Cart)=  0.30846978 RMS(Int)=  0.00730200
 Iteration  2 RMS(Cart)=  0.03670206 RMS(Int)=  0.00064120
 Iteration  3 RMS(Cart)=  0.00030167 RMS(Int)=  0.00063806
 Iteration  4 RMS(Cart)=  0.00000029 RMS(Int)=  0.00063806
 Iteration  1 RMS(Cart)=  0.00002969 RMS(Int)=  0.00000526
 Iteration  2 RMS(Cart)=  0.00001692 RMS(Int)=  0.00000587
 Iteration  3 RMS(Cart)=  0.00000964 RMS(Int)=  0.00000667
 Iteration  4 RMS(Cart)=  0.00000549 RMS(Int)=  0.00000722
 Iteration  5 RMS(Cart)=  0.00000313 RMS(Int)=  0.00000756
 Iteration  6 RMS(Cart)=  0.00000178 RMS(Int)=  0.00000776
 Iteration  7 RMS(Cart)=  0.00000102 RMS(Int)=  0.00000787
 Iteration  8 RMS(Cart)=  0.00000058 RMS(Int)=  0.00000794
 Variable       Old X    -DE/DX   Delta X   Delta X   Delta X     New X
                                 (Linear)    (Quad)   (Total)
    R1        2.80935  -0.00153   0.00000  -0.00460  -0.00459   2.80476
    R2        2.64584  -0.00803   0.00000  -0.01699  -0.01701   2.62883
    R3        2.31147  -0.02100   0.00000  -0.02170  -0.02170   2.28977
    R4        2.67311  -0.00945   0.00000  -0.02180  -0.02195   2.65116
    R5        2.59267  -0.01416   0.00000  -0.02862  -0.02880   2.56387
    R6        2.66894  -0.00410   0.00000  -0.00841  -0.00837   2.66057
    R7        2.69164  -0.00740   0.00000  -0.01447  -0.01442   2.67722
    R8        2.81049  -0.00138   0.00000  -0.00333  -0.00334   2.80715
    R9        2.62173  -0.01181   0.00000  -0.02427  -0.02433   2.59740
   R10        2.65570  -0.00847   0.00000  -0.01791  -0.01794   2.63776
   R11        2.30889  -0.01939   0.00000  -0.01991  -0.01991   2.28898
   R12        2.70248  -0.00408   0.00000  -0.01054  -0.01056   2.69192
   R13        2.04786  -0.00001   0.00000  -0.00002  -0.00002   2.04784
   R14        2.70495   0.00506   0.00000   0.01635   0.01674   2.72169
   R15        2.68322  -0.00285   0.00000  -0.00403  -0.00398   2.67924
   R16        2.68655   0.00653   0.00000   0.01593   0.01619   2.70274
   R17        2.81233   0.00659   0.00000   0.01901   0.01922   2.83155
   R18        2.76359   0.00836   0.00000   0.02118   0.02118   2.78477
   R19        2.66221  -0.00884   0.00000  -0.02010  -0.02010   2.64211
   R20        2.31391  -0.02536   0.00000  -0.02636  -0.02636   2.28755
   R21        2.79415  -0.00579   0.00000  -0.01635  -0.01661   2.77754
   R22        2.63842  -0.01248   0.00000  -0.02733  -0.02754   2.61088
   R23        2.31456  -0.02062   0.00000  -0.02147  -0.02147   2.29310
   R24        2.62448  -0.00915   0.00000  -0.01820  -0.01822   2.60627
   R25        2.64561  -0.00599   0.00000  -0.01332  -0.01340   2.63221
   R26        2.04921  -0.00096   0.00000  -0.00250  -0.00250   2.04671
   R27        2.04741  -0.00055   0.00000  -0.00143  -0.00143   2.04598
   R28        2.77259  -0.00322   0.00000  -0.00829  -0.00829   2.76431
   R29        2.77252  -0.00339   0.00000  -0.00871  -0.00871   2.76381
   R30        2.06176  -0.00071   0.00000  -0.00189  -0.00189   2.05987
   R31        2.06551  -0.00199   0.00000  -0.00535  -0.00535   2.06016
   R32        2.05322  -0.00055   0.00000  -0.00144  -0.00144   2.05178
   R33        2.06368  -0.00140   0.00000  -0.00375  -0.00375   2.05992
   R34        2.06281  -0.00094   0.00000  -0.00252  -0.00252   2.06029
   R35        2.05355  -0.00060   0.00000  -0.00157  -0.00157   2.05198
   R36        2.60999  -0.00639   0.00000  -0.01187  -0.01178   2.59821
   R37        3.33311  -0.00801   0.00000  -0.02376  -0.02369   3.30942
   R38        2.66325  -0.00243   0.00000  -0.00563  -0.00562   2.65763
   R39        2.03761  -0.00630   0.00000  -0.01614  -0.01614   2.02147
   R40        3.30425  -0.01012   0.00000  -0.03059  -0.03066   3.27359
   R41        2.64299  -0.01616   0.00000  -0.03410  -0.03419   2.60880
   R42        2.56897  -0.00647   0.00000  -0.01158  -0.01158   2.55740
   R43        2.71301   0.00247   0.00000   0.00575   0.00575   2.71875
   R44        2.69301  -0.00712   0.00000  -0.01600  -0.01600   2.67700
   R45        2.63416  -0.01305   0.00000  -0.02680  -0.02680   2.60736
   R46        3.32864  -0.00843   0.00000  -0.02605  -0.02604   3.30260
   R47        2.05986  -0.00114   0.00000  -0.00302  -0.00302   2.05684
   R48        2.07239  -0.00124   0.00000  -0.00337  -0.00337   2.06902
   R49        2.07102  -0.00084   0.00000  -0.00228  -0.00228   2.06875
   R50        2.69054  -0.00337   0.00000  -0.00797  -0.00797   2.68257
   R51        2.56657  -0.00687   0.00000  -0.01225  -0.01225   2.55432
   R52        3.26324  -0.00767   0.00000  -0.02088  -0.02088   3.24236
   R53        2.58650  -0.00760   0.00000  -0.01397  -0.01398   2.57252
   R54        2.04369  -0.00064   0.00000  -0.00165  -0.00165   2.04204
   R55        2.69026  -0.00727   0.00000  -0.01626  -0.01626   2.67400
   R56        2.04391  -0.00152   0.00000  -0.00393  -0.00393   2.03998
   R57        2.07435  -0.00175   0.00000  -0.00477  -0.00477   2.06957
   R58        2.05845  -0.00084   0.00000  -0.00222  -0.00222   2.05623
   R59        2.07269  -0.00119   0.00000  -0.00322  -0.00322   2.06947
    A1        2.03797   0.00113   0.00000   0.00260   0.00260   2.04057
    A2        2.14521  -0.00113   0.00000  -0.00334  -0.00335   2.14185
    A3        2.10001   0.00000   0.00000   0.00075   0.00074   2.10075
    A4        2.10395   0.00147   0.00000   0.00749   0.00753   2.11148
    A5        2.08282  -0.00166   0.00000  -0.00302  -0.00306   2.07977
    A6        2.09624   0.00019   0.00000  -0.00432  -0.00436   2.09188
    A7        2.10093  -0.00268   0.00000  -0.01084  -0.01093   2.08999
    A8        2.07104   0.00039   0.00000  -0.00034  -0.00032   2.07072
    A9        2.11118   0.00230   0.00000   0.01125   0.01129   2.12247
   A10        2.10296   0.00084   0.00000   0.00421   0.00422   2.10719
   A11        2.09911   0.00142   0.00000   0.00463   0.00462   2.10373
   A12        2.08110  -0.00226   0.00000  -0.00881  -0.00883   2.07227
   A13        2.03739   0.00064   0.00000   0.00264   0.00261   2.04000
   A14        2.12972  -0.00038   0.00000  -0.00152  -0.00151   2.12821
   A15        2.11607  -0.00026   0.00000  -0.00111  -0.00110   2.11497
   A16        2.15098   0.00675   0.00000   0.02225   0.02211   2.17309
   A17        2.04399  -0.00217   0.00000  -0.00392  -0.00435   2.03964
   A18        2.08722  -0.00447   0.00000  -0.01634  -0.01677   2.07046
   A19        2.11101   0.00356   0.00000   0.01313   0.01315   2.12416
   A20        2.04385  -0.00585   0.00000  -0.02316  -0.02347   2.02037
   A21        2.12832   0.00230   0.00000   0.01011   0.01021   2.13854
   A22        2.08678  -0.00780   0.00000  -0.02257  -0.02314   2.06365
   A23        2.04738  -0.01167   0.00000  -0.03738  -0.03811   2.00928
   A24        2.14662   0.01970   0.00000   0.06558   0.06358   2.21020
   A25        2.04892  -0.00302   0.00000  -0.00814  -0.00762   2.04130
   A26        2.00754  -0.03359   0.00000  -0.12172  -0.12232   1.88522
   A27        2.22643   0.03659   0.00000   0.13086   0.13012   2.35655
   A28        2.06022   0.00593   0.00000   0.02263   0.02283   2.08305
   A29        2.17370   0.00844   0.00000   0.02988   0.02953   2.20322
   A30        2.04919  -0.01435   0.00000  -0.05210  -0.05246   1.99673
   A31        2.01621  -0.00042   0.00000  -0.00424  -0.00463   2.01158
   A32        2.14188   0.00001   0.00000   0.00149   0.00161   2.14348
   A33        2.12500   0.00043   0.00000   0.00301   0.00312   2.12812
   A34        2.10943   0.00199   0.00000   0.00853   0.00841   2.11784
   A35        2.11468   0.00340   0.00000   0.01429   0.01435   2.12903
   A36        2.05896  -0.00538   0.00000  -0.02258  -0.02265   2.03632
   A37        2.11176   0.00026   0.00000   0.00122   0.00117   2.11293
   A38        2.05670   0.00028   0.00000   0.00160   0.00162   2.05831
   A39        2.11471  -0.00054   0.00000  -0.00279  -0.00277   2.11195
   A40        2.08567  -0.00150   0.00000  -0.00780  -0.00792   2.07775
   A41        2.07549   0.00124   0.00000   0.00654   0.00655   2.08204
   A42        2.12199   0.00027   0.00000   0.00137   0.00138   2.12337
   A43        2.20043   0.00206   0.00000   0.00415   0.00412   2.20455
   A44        2.02023  -0.00091   0.00000  -0.00164  -0.00162   2.01861
   A45        2.06252  -0.00115   0.00000  -0.00252  -0.00250   2.06002
   A46        2.18316  -0.00141   0.00000  -0.00607  -0.00610   2.17706
   A47        2.02959   0.00067   0.00000   0.00290   0.00291   2.03250
   A48        2.07044   0.00074   0.00000   0.00317   0.00318   2.07362
   A49        1.91737  -0.00050   0.00000  -0.00247  -0.00247   1.91491
   A50        1.91808  -0.00045   0.00000  -0.00196  -0.00196   1.91612
   A51        1.87685   0.00054   0.00000   0.00228   0.00228   1.87913
[...]
 Alpha  occ. eigenvalues --   -0.62468  -0.60690  -0.59735  -0.59221  -0.58798
 Alpha  occ. eigenvalues --   -0.58289  -0.57689  -0.57443  -0.57309  -0.57056
 Alpha  occ. eigenvalues --   -0.56622  -0.55831  -0.55455  -0.55177  -0.54419
 Alpha  occ. eigenvalues --   -0.53959  -0.53555  -0.53407  -0.53195  -0.52156
 Alpha  occ. eigenvalues --   -0.51619  -0.51119  -0.50970  -0.50599  -0.50332
 Alpha  occ. eigenvalues --   -0.50120  -0.49521  -0.49456  -0.48888  -0.48403
 Alpha  occ. eigenvalues --   -0.48054  -0.47689  -0.46964  -0.45787  -0.45565
 Alpha  occ. eigenvalues --   -0.44375  -0.44114  -0.42476  -0.41884  -0.41355
 Alpha  occ. eigenvalues --   -0.41176  -0.40167  -0.39631  -0.38571  -0.37709
 Alpha  occ. eigenvalues --   -0.37314  -0.37043  -0.36882  -0.36312  -0.34606
 Alpha  occ. eigenvalues --   -0.33139  -0.31793  -0.31613  -0.25638
 Alpha virt. eigenvalues --   -0.07197  -0.00765   0.00499   0.02402   0.03451
 Alpha virt. eigenvalues --    0.05142   0.05734   0.06025   0.06759   0.06997
 Alpha virt. eigenvalues --    0.07236   0.07463   0.07747   0.07861   0.07992
 Alpha virt. eigenvalues --    0.08488   0.08635   0.08751   0.09078   0.09233
 Alpha virt. eigenvalues --    0.09426   0.09808   0.10008   0.10149   0.10459
 Alpha virt. eigenvalues --    0.10694   0.11047   0.11511   0.11620   0.11765
 Alpha virt. eigenvalues --    0.12018   0.12104   0.12303   0.12719   0.12974
 Alpha virt. eigenvalues --    0.13187   0.13533   0.13591   0.13904   0.14572
 Alpha virt. eigenvalues --    0.14791   0.15043   0.15146   0.15418   0.15665
 Alpha virt. eigenvalues --    0.15847   0.16059   0.16382   0.16680   0.16930
 Alpha virt. eigenvalues --    0.17120   0.17562   0.17708   0.17942   0.18102
 Alpha virt. eigenvalues --    0.18414   0.18933   0.19108   0.19505   0.19728
 Alpha virt. eigenvalues --    0.19937   0.19960   0.20253   0.20345   0.20771
 Alpha virt. eigenvalues --    0.20810   0.21157   0.21359   0.21524   0.21821
 Alpha virt. eigenvalues --    0.22145   0.22350   0.22549   0.22661   0.22864
 Alpha virt. eigenvalues --    0.22907   0.23454   0.23757   0.23922   0.24238
 Alpha virt. eigenvalues --    0.24510   0.24665   0.24707   0.24938   0.25201
 Alpha virt. eigenvalues --    0.25466   0.25592   0.25958   0.26016   0.26073
 Alpha virt. eigenvalues --    0.26201   0.26450   0.26610   0.26971   0.27087
 Alpha virt. eigenvalues --    0.27321   0.27426   0.27552   0.27749   0.27942
 Alpha virt. eigenvalues --    0.28381   0.28394   0.28565   0.28843   0.29020
 Alpha virt. eigenvalues --    0.29330   0.29681   0.29891   0.29965   0.30239
 Alpha virt. eigenvalues --    0.30456   0.30715   0.30843   0.30973   0.31058
 Alpha virt. eigenvalues --    0.31308   0.31735   0.31827   0.31944   0.32134
 Alpha virt. eigenvalues --    0.32475   0.32490   0.32748   0.32907   0.33012
 Alpha virt. eigenvalues --    0.33635   0.33727   0.33803   0.33879   0.34313
 Alpha virt. eigenvalues --    0.34529   0.34570   0.34827   0.35073   0.35169
 Alpha virt. eigenvalues --    0.35640   0.35740   0.36097   0.36362   0.36513
 Alpha virt. eigenvalues --    0.36553   0.36917   0.37219   0.37643   0.37683
 Alpha virt. eigenvalues --    0.38126   0.38419   0.38692   0.38834   0.39139
 Alpha virt. eigenvalues --    0.39306   0.39618   0.39924   0.40254   0.40402
 Alpha virt. eigenvalues --    0.40727   0.40835   0.41191   0.41388   0.41664
 Alpha virt. eigenvalues --    0.41957   0.42382   0.42700   0.43069   0.43555
 Alpha virt. eigenvalues --    0.43624   0.43779   0.44497   0.44815   0.45367
 Alpha virt. eigenvalues --    0.45468   0.45845   0.45995   0.46449   0.46647
 Alpha virt. eigenvalues --    0.47374   0.47715   0.48439   0.48679   0.49006
 Alpha virt. eigenvalues --    0.49562   0.49687   0.49976   0.50801   0.51172
 Alpha virt. eigenvalues --    0.51655   0.52142   0.52598   0.52695   0.53095
 Alpha virt. eigenvalues --    0.53233   0.53728   0.54227   0.54731   0.55244
 Alpha virt. eigenvalues --    0.55543   0.55595   0.55837   0.56910   0.57380
 Alpha virt. eigenvalues --    0.57771   0.58322   0.58503   0.58679   0.59630
 Alpha virt. eigenvalues --    0.59933   0.61051   0.61274   0.61473   0.61812
 Alpha virt. eigenvalues --    0.62695   0.63020   0.63390   0.63539   0.64082
 Alpha virt. eigenvalues --    0.64442   0.64805   0.65066   0.65285   0.65655
 Alpha virt. eigenvalues --    0.66059   0.66857   0.67153   0.67459   0.67754
 Alpha virt. eigenvalues --    0.67808   0.68493   0.68844   0.69159   0.69657
 Alpha virt. eigenvalues --    0.69862   0.70225   0.70576   0.71192   0.71387
 Alpha virt. eigenvalues --    0.72002   0.72223   0.72349   0.73017   0.73382
 Alpha virt. eigenvalues --    0.73618   0.73948   0.74235   0.74492   0.75193
 Alpha virt. eigenvalues --    0.75556   0.75577   0.75963   0.76436   0.76884
 Alpha virt. eigenvalues --    0.77534   0.77973   0.78303   0.78557   0.79061
 Alpha virt. eigenvalues --    0.79435   0.79499   0.79876   0.80496   0.80910
 Alpha virt. eigenvalues --    0.81157   0.81377   0.81719   0.81914   0.82422
 Alpha virt. eigenvalues --    0.82966   0.83397   0.83549   0.83801   0.84128
 Alpha virt. eigenvalues --    0.84347   0.84772   0.85171   0.85415   0.85759
 Alpha virt. eigenvalues --    0.86119   0.86409   0.86675   0.87438   0.87864
 Alpha virt. eigenvalues --    0.87915   0.88470   0.89182   0.89724   0.90537
 Alpha virt. eigenvalues --    0.90874   0.91670   0.92126   0.93016   0.94071
 Alpha virt. eigenvalues --    0.94609   0.94900   0.95280   0.96613   0.96815
 Alpha virt. eigenvalues --    0.97362   0.97623   0.98596   0.98715   0.99430
 Alpha virt. eigenvalues --    0.99911   1.00195   1.00710   1.01128   1.01631
 Alpha virt. eigenvalues --    1.01852   1.02350   1.02866   1.03054   1.03644
 Alpha virt. eigenvalues --    1.04222   1.04522   1.04993   1.05088   1.05401
 Alpha virt. eigenvalues --    1.06033   1.06448   1.06800   1.07593   1.08348
 Alpha virt. eigenvalues --    1.08757   1.09591   1.09944   1.10243   1.10650
 Alpha virt. eigenvalues --    1.11057   1.11587   1.12423   1.12787   1.13179
 Alpha virt. eigenvalues --    1.13227   1.13699   1.14243   1.14453   1.15522
 Alpha virt. eigenvalues --    1.15855   1.15885   1.16009   1.16508   1.16848
 Alpha virt. eigenvalues --    1.17530   1.17966   1.18346   1.18596   1.19255
 Alpha virt. eigenvalues --    1.19526   1.20545   1.20943   1.22696   1.23527
 Alpha virt. eigenvalues --    1.23772   1.24581   1.25409   1.26132   1.26389
 Alpha virt. eigenvalues --    1.27185   1.27415   1.28311   1.29777   1.29871
 Alpha virt. eigenvalues --    1.30737   1.31070   1.32179   1.32286   1.33351
 Alpha virt. eigenvalues --    1.34043   1.34504   1.34731   1.35400   1.35852
 Alpha virt. eigenvalues --    1.37231   1.37973   1.39026   1.39476   1.39776
 Alpha virt. eigenvalues --    1.40712   1.41595   1.42444   1.43338   1.44169
 Alpha virt. eigenvalues --    1.44415   1.45290   1.45661   1.46606   1.47250
 Alpha virt. eigenvalues --    1.48624   1.49208   1.50161   1.51074   1.51367
 Alpha virt. eigenvalues --    1.51418   1.52207   1.52770   1.52848   1.53225
 Alpha virt. eigenvalues --    1.53340   1.54065   1.54400   1.54462   1.54739
 Alpha virt. eigenvalues --    1.55148   1.55296   1.56002   1.57418   1.57960
 Alpha virt. eigenvalues --    1.58620   1.58982   1.59739   1.60304   1.60782
 Alpha virt. eigenvalues --    1.61803   1.62606   1.62824   1.63226   1.63698
 Alpha virt. eigenvalues --    1.64050   1.64394   1.64709   1.65633   1.66029
 Alpha virt. eigenvalues --    1.66739   1.67066   1.68307   1.69151   1.69814
 Alpha virt. eigenvalues --    1.71577   1.71794   1.72136   1.72741   1.73261
 Alpha virt. eigenvalues --    1.74291   1.74973   1.75755   1.76399   1.76776
 Alpha virt. eigenvalues --    1.77451   1.78039   1.78158   1.78471   1.78946
 Alpha virt. eigenvalues --    1.79319   1.79979   1.80096   1.80890   1.81171
 Alpha virt. eigenvalues --    1.81679   1.82530   1.83012   1.83485   1.84410
 Alpha virt. eigenvalues --    1.85371   1.85421   1.86255   1.87377   1.87734
 Alpha virt. eigenvalues --    1.88657   1.88951   1.89358   1.90439   1.91222
 Alpha virt. eigenvalues --    1.92392   1.92838   1.93778   1.94599   1.94987
 Alpha virt. eigenvalues --    1.95453   1.96132   1.96335   1.96958   1.97787
 Alpha virt. eigenvalues --    1.98420   1.99203   1.99312   2.00143   2.00446
 Alpha virt. eigenvalues --    2.00824   2.01549   2.02672   2.03739   2.04261
 Alpha virt. eigenvalues --    2.05427   2.06156   2.06874   2.07001   2.07933
 Alpha virt. eigenvalues --    2.08741   2.09247   2.10451   2.10558   2.11096
 Alpha virt. eigenvalues --    2.11763   2.12413   2.13319   2.13736   2.13925
 Alpha virt. eigenvalues --    2.15306   2.15880   2.16189   2.16618   2.16895
 Alpha virt. eigenvalues --    2.17392   2.18714   2.18974   2.20935   2.21220
 Alpha virt. eigenvalues --    2.21458   2.22873   2.23416   2.23960   2.24342
 Alpha virt. eigenvalues --    2.24846   2.25370   2.26386   2.26731   2.28142
 Alpha virt. eigenvalues --    2.28392   2.29024   2.30384   2.31015   2.31601
 Alpha virt. eigenvalues --    2.32847   2.33928   2.34714   2.35540   2.37668
 Alpha virt. eigenvalues --    2.40392   2.41312   2.42226   2.44317   2.46603
 Alpha virt. eigenvalues --    2.48139   2.48222   2.48930   2.51301   2.52549
 Alpha virt. eigenvalues --    2.52784   2.53215   2.53863   2.54604   2.55364
 Alpha virt. eigenvalues --    2.56437   2.56737   2.57713   2.59329   2.59467
 Alpha virt. eigenvalues --    2.60005   2.61353   2.61729   2.62014   2.62499
 Alpha virt. eigenvalues --    2.62980   2.63361   2.63982   2.65089   2.65995
 Alpha virt. eigenvalues --    2.66720   2.67661   2.68878   2.69224   2.70900
 Alpha virt. eigenvalues --    2.72659   2.73500   2.74061   2.74367   2.76240
 Alpha virt. eigenvalues --    2.76877   2.76985   2.77849   2.78777   2.79164
 Alpha virt. eigenvalues --    2.79576   2.79905   2.80871   2.81436   2.81789
 Alpha virt. eigenvalues --    2.82341   2.82794   2.83320   2.83915   2.85490
 Alpha virt. eigenvalues --    2.87103   2.87365   2.88051   2.89087   2.90644
 Alpha virt. eigenvalues --    2.92188   2.92967   2.93319   2.94248   2.94616
 Alpha virt. eigenvalues --    2.95039   2.95217   2.95940   2.96133   2.97344
 Alpha virt. eigenvalues --    2.97927   2.98249   2.98999   3.00329   3.00495
 Alpha virt. eigenvalues --    3.01259   3.02259   3.02869   3.04235   3.05078
 Alpha virt. eigenvalues --    3.05441   3.05632   3.08165   3.09415   3.10158
 Alpha virt. eigenvalues --    3.11974   3.12861   3.13654   3.14920   3.15825
 Alpha virt. eigenvalues --    3.16985   3.17357   3.18918   3.19029   3.20146
 Alpha virt. eigenvalues --    3.21802   3.23597   3.24275   3.25403   3.26273
 Alpha virt. eigenvalues --    3.27566   3.28848   3.31090   3.32248   3.32622
 Alpha virt. eigenvalues --    3.34047   3.34575   3.35224   3.36517   3.36861
 Alpha virt. eigenvalues --    3.39698   3.40166   3.43093   3.43230   3.44256
 Alpha virt. eigenvalues --    3.44863   3.45122   3.46616   3.46759   3.48814
 Alpha virt. eigenvalues --    3.49766   3.51139   3.52682   3.54372   3.54683
 Alpha virt. eigenvalues --    3.55451   3.56337   3.57295   3.59715   3.60030
 Alpha virt. eigenvalues --    3.62137   3.64670   3.66382   3.68698   3.70678
 Alpha virt. eigenvalues --    3.71198   3.72511   3.75580   3.76468   3.77899
 Alpha virt. eigenvalues --    3.79238   3.81196   3.82705   3.84138   3.86966
 Alpha virt. eigenvalues --    3.87061   3.87586   3.91657   3.93231   3.95219
 Alpha virt. eigenvalues --    3.95529   3.95877   4.00031   4.01686   4.03036
 Alpha virt. eigenvalues --    4.04459   4.05691   4.07121   4.11153   4.12979
 Alpha virt. eigenvalues --    4.14078   4.18821   4.21263   4.22005   4.24835
 Alpha virt. eigenvalues --    4.30008   4.33581   4.35070   4.37863   4.45398
 Alpha virt. eigenvalues --    4.49541   4.50437   4.62445   4.80055   4.95328
 Alpha virt. eigenvalues --    4.96404   4.98646   5.01184   5.13262   5.15020
 Alpha virt. eigenvalues --    5.15224   5.16755   5.17247   5.21485   5.23066
 Alpha virt. eigenvalues --    5.23784   5.36402   5.37888   5.39853   5.40884
 Alpha virt. eigenvalues --    5.54739   5.55968   5.87498   5.89501   5.91081
 Alpha virt. eigenvalues --    5.93023   5.93496   5.94755   8.14803   8.16956
 Alpha virt. eigenvalues --   17.43353  17.46765  17.64177  17.67163  17.72455
 Alpha virt. eigenvalues --   17.77345  23.61668  23.70529  23.85393  23.92330
 Alpha virt. eigenvalues --   23.95996  23.96980  23.98361  24.00709  24.00980
 Alpha virt. eigenvalues --   24.01932  24.02503  24.04320  24.05061  24.07110
 Alpha virt. eigenvalues --   24.08365  24.09648  24.10433  24.14925  24.16562
 Alpha virt. eigenvalues --   24.18839  24.20074  24.21151  24.28322  24.28701
 Alpha virt. eigenvalues --   24.29151  24.30134  35.69758  35.72176  50.10873
 Alpha virt. eigenvalues --   50.12292  50.16691  50.18242  50.20402  50.21568
 Alpha virt. eigenvalues --  189.40284 189.43021
          Condensed to atoms (all electrons):
 Mulliken charges:
               1
     1  C    0.412608
     2  C   -0.141148
     3  C    0.114202
     4  C    0.188540
     5  C    0.358713
     6  C   -0.400737
     7  C    0.135059
     8  C    0.434790
     9  C    0.361170
    10  C   -0.583887
    11  C    0.299361
    12  C    0.091379
    13  C   -0.530106
    14  C   -0.674798
    15  H    0.187326
    16  H    0.188038
    17  H    0.202425
    18  N    0.008705
    19  N   -0.090821
    20  O   -0.266762
    21  O   -0.266359
    22  O   -0.276097
    23  O   -0.192806
    24  C   -0.258659
    25  H    0.183286
    26  H    0.200531
    27  H    0.200694
    28  C   -0.283889
    29  H    0.192766
    30  H    0.193878
    31  H    0.199975
    32  C    0.161738
    33  C   -0.500606
    34  S   -0.672800
    35  C   -0.147079
    36  H    0.153745
    37  C    0.670116
    38  O   -0.108319
    39  C    0.887111
    40  C   -0.314129
    41  C    0.008748
    42  S   -0.283384
    43  H    0.182072
    44  H    0.177754
    45  H    0.156077
    46  C   -0.642233
    47  O   -0.110765
    48  C   -0.341412
    49  H    0.156823
    50  C   -0.307257
    51  H    0.187051
    52  H    0.158764
    53  H    0.182947
    54  H    0.157661
 Sum of Mulliken charges =  -0.00000
 Mulliken charges with hydrogens summed into heavy atoms:
               1
     1  C    0.412608
     2  C   -0.141148
     3  C    0.114202
     4  C    0.188540
     5  C    0.358713
     6  C   -0.198313
     7  C    0.135059
     8  C    0.434790
     9  C    0.361170
    10  C   -0.583887
    11  C    0.299361
    12  C    0.091379
    13  C   -0.342068
    14  C   -0.487472
    18  N    0.008705
    19  N   -0.090821
    20  O   -0.266762
    21  O   -0.266359
    22  O   -0.276097
    23  O   -0.192806
    24  C    0.325852
    28  C    0.302731
    32  C    0.161738
    33  C   -0.346860
    34  S   -0.672800
    35  C   -0.147079
    37  C    0.670116
    38  O   -0.108319
    39  C    0.887111
    40  C    0.201774
    41  C    0.008748
    42  S   -0.283384
    46  C   -0.485411
    47  O   -0.110765
    48  C   -0.154361
    50  C    0.192115
 Electronic spatial extent (au):  <R**2>=          22213.2048
 Charge=             -0.0000 electrons
 Dipole moment (field-independent basis, Debye):
    X=              2.8912    Y=             -0.2687    Z=              0.2459  Tot=              2.9140
 Quadrupole moment (field-independent basis, Debye-Ang):
   XX=           -214.8863   YY=           -208.5288   ZZ=           -218.1947
   XY=             -4.0480   XZ=             -2.8573   YZ=             12.5814
 Traceless Quadrupole moment (field-independent basis, Debye-Ang):
   XX=             -1.0164   YY=              5.3411   ZZ=             -4.3248
   XY=             -4.0480   XZ=             -2.8573   YZ=             12.5814
 Octapole moment (field-independent basis, Debye-Ang**2):
  XXX=            324.5122  YYY=            -16.5297  ZZZ=             -2.8245  XYY=            113.3079
  XXY=            -80.8737  XXZ=            -32.9357  XZZ=             -0.4128  YZZ=             -1.5806
  YYZ=             -2.7246  XYZ=             46.4332
 Hexadecapole moment (field-independent basis, Debye-Ang**3):
 XXXX=         -20548.2473 YYYY=          -7350.2475 ZZZZ=           -862.7696 XXXY=           -579.5250
 XXXZ=           -129.0964 YYYX=            322.9543 YYYZ=            131.7484 ZZZX=            -15.9005
 ZZZY=             18.6577 XXYY=          -4777.8799 XXZZ=          -3735.7267 YYZZ=          -1338.8598
 XXYZ=            241.6274 YYXZ=            -63.7936 ZZXY=             10.1264
 N-N= 4.106914155886D+03 E-N=-1.375354734323D+04  KE= 2.352013076073D+03
 Unable to Open any file for archive entry.
 1\1\GINC-CX3-1-10\FOpt\RwB97XD\6-311+G(d,p)\C26H18N2O6S2\NS5018\27-Nov
 -2020\0\\# opt=modredundant wb97xd/6-311+g(d,p)\\NDI_35.pdb\\0,1\C,-2.
 6547143879,-2.9389014593,-0.711006764\C,-2.311919498,-1.5124726703,-0.
 4676842699\C,-3.3066180959,-0.6025761055,-0.0547109694\C,-4.6320259471
 ,-1.0328244837,0.1465988575\C,-5.0037064585,-2.4557813496,-0.084395204
 4\C,-1.0198397799,-1.0980945558,-0.6055501397\C,-2.9512979463,0.747380
 2222,0.1508312735\C,-1.6115630914,1.183309325,-0.0548498131\C,-0.62188
 25341,0.2505731773,-0.3817164237\C,-1.3652685071,2.6562250898,-0.04055
 41937\C,-3.6584293237,3.0670192919,0.820813726\C,-3.9635814066,1.63678
 99022,0.577750921\C,-5.252856322,1.1968936601,0.7824449537\C,-5.595678
 3691,-0.1432486012,0.5625960111\H,-6.6084528163,-0.4945626111,0.715448
 7311\H,-5.9940149183,1.9120912461,1.1174903281\H,-0.2729163766,-1.8388
 234018,-0.8657574458\N,-2.3680122046,3.4734367601,0.5003783662\N,-3.98
 1979605,-3.3122217735,-0.5051267427\O,-1.8359065912,-3.7535866712,-1.0
 714651001\O,-6.1334640309,-2.8556022145,0.0805102817\O,-4.4838320039,3
 .8422739943,1.2510307124\O,-0.3691871243,3.181543218,-0.4814500992\C,-
 2.0525321004,4.8983294682,0.5896824474\H,-1.096969872,5.0271746967,1.0
 960301968\H,-1.9763261793,5.3316688568,-0.4086366265\H,-2.8496374331,5
 .3819553712,1.1465079309\C,-4.301801217,-4.7180665475,-0.7493086208\H,
 -4.064714924,-4.9748792167,-1.7818035613\H,-3.7085900396,-5.3510369756
 ,-0.0890452346\H,-5.3611163246,-4.8594193615,-0.5572961345\C,0.8185754
 961,0.5093287308,-0.4239597442\C,1.5711409486,1.3308167731,0.370114624
 9\S,1.8129053382,-0.3282579373,-1.5720016398\C,2.9448224189,1.28545201
 91,0.0547562709\H,1.151350411,1.9426381036,1.1531782367\C,3.2557534248
 ,0.4345777172,-0.9895180881\O,3.9299630033,1.977749852,0.6714546864\C,
 4.5583595418,0.1873845681,-1.5645729715\C,3.5410050422,2.9886535949,1.
 579926226\C,4.865675342,-0.6847843714,-2.5881046933\S,6.0036133492,1.0
 009301645,-1.0310675588\H,4.4575285961,3.4901728578,1.8854756551\H,2.8
 693573845,3.7092854925,1.1013330728\H,3.0537354753,2.5603776083,2.4628
 954237\C,6.2432451388,-0.6995267599,-2.9398712383\O,3.8847113302,-1.42
 26132381,-3.1550015527\C,6.9658911646,0.1656586526,-2.1752706881\H,6.6
 752445086,-1.3161796192,-3.714729302\C,4.2471108583,-2.3182024783,-4.1
 861033471\H,8.0275458862,0.3546957625,-2.2246754664\H,4.959806163,-3.0
 677069725,-3.8256367505\H,3.3278085983,-2.813378403,-4.4932264282\H,4.
 6746860084,-1.7836383983,-5.0411521218\\Version=ES64L-G16RevC.01\State
 =1-A\HF=-2358.7738288\RMSD=2.847e-09\RMSF=4.996e-04\Dipole=1.133083,-0
 .0488881,-0.1676164\Quadrupole=-1.7166709,-3.0642914,4.7809623,-0.1146
 642,-2.6609406,9.4717992\PG=C01 [X(C26H18N2O6S2)]\\@
 The archive entry for this job was punched.


 TO SEE A WORLD IN A GRAIN OF SAND
 AND A HEAVEN IN A WILD FLOWER
 HOLD INFINITY IN THE PALM OF YOUR HAND
 AND ETERNITY IN AN HOUR

                       -- WILLIAM BLAKE
 Job cpu time:       5 days 21 hours  3 minutes 24.5 seconds.
 Elapsed time:       0 days  9 hours  2 minutes 29.7 seconds.
 File lengths (MBytes):  RWF=    496 Int=      0 D2E=      0 Chk=     61 Scr=      1
 Normal termination of Gaussian 16 at Fri Nov 27 05:45:58 2020.
