 Entering Gaussian System, Link 0=g16
 Input=NDI_0.gjf
 Output=NDI_0.log
 Initial command:
 /apps/gaussian/g16-c01-avx/g16/l1.exe "/tmp/pbs.2610759[36].pbs/Gau-3835354.inp" -scrdir="/tmp/pbs.2610759[36].pbs/"
 Entering Link 1 = /apps/gaussian/g16-c01-avx/g16/l1.exe PID=   3835355.
  
 Copyright (c) 1988-2019, Gaussian, Inc.  All Rights Reserved.
  
 This is part of the Gaussian(R) 16 program.  It is based on
 the Gaussian(R) 09 system (copyright 2009, Gaussian, Inc.),
 the Gaussian(R) 03 system (copyright 2003, Gaussian, Inc.),
 the Gaussian(R) 98 system (copyright 1998, Gaussian, Inc.),
 the Gaussian(R) 94 system (copyright 1995, Gaussian, Inc.),
 the Gaussian 92(TM) system (copyright 1992, Gaussian, Inc.),
 the Gaussian 90(TM) system (copyright 1990, Gaussian, Inc.),
 the Gaussian 88(TM) system (copyright 1988, Gaussian, Inc.),
 the Gaussian 86(TM) system (copyright 1986, Carnegie Mellon
 University), and the Gaussian 82(TM) system (copyright 1983,
 Carnegie Mellon University). Gaussian is a federally registered
 trademark of Gaussian, Inc.
  
 This software contains proprietary and confidential information,
 including trade secrets, belonging to Gaussian, Inc.
  
 This software is provided under written license and may be
 used, copied, transmitted, or stored only in accord with that
 written license.
  
 The following legend is applicable only to US Government
 contracts under FAR:
  
                    RESTRICTED RIGHTS LEGEND
  
 Use, reproduction and disclosure by the US Government is
 subject to restrictions as set forth in subparagraphs (a)
 and (c) of the Commercial Computer Software - Restricted
 Rights clause in FAR 52.227-19.
  
 Gaussian, Inc.
 340 Quinnipiac St., Bldg. 40, Wallingford CT 06492
  
  
 ---------------------------------------------------------------
 Warning -- This program may not be used in any manner that
 competes with the business of Gaussian, Inc. or will provide
 assistance to any competitor of Gaussian, Inc.  The licensee
 of this program is prohibited from giving any competitor of
 Gaussian, Inc. access to this program.  By using this program,
 the user acknowledges that Gaussian, Inc. is engaged in the
 business of creating and licensing software in the field of
 computational chemistry and represents and warrants to the
 licensee that it is not a competitor of Gaussian, Inc. and that
 it will not use this program in any manner prohibited above.
 ---------------------------------------------------------------
  

 Cite this work as:
 Gaussian 16, Revision C.01,
 M. J. Frisch, G. W. Trucks, H. B. Schlegel, G. E. Scuseria, 
 M. A. Robb, J. R. Cheeseman, G. Scalmani, V. Barone, 
 G. A. Petersson, H. Nakatsuji, X. Li, M. Caricato, A. V. Marenich, 
 J. Bloino, B. G. Janesko, R. Gomperts, B. Mennucci, H. P. Hratchian, 
 J. V. Ortiz, A. F. Izmaylov, J. L. Sonnenberg, D. Williams-Young, 
 F. Ding, F. Lipparini, F. Egidi, J. Goings, B. Peng, A. Petrone, 
 T. Henderson, D. Ranasinghe, V. G. Zakrzewski, J. Gao, N. Rega, 
 G. Zheng, W. Liang, M. Hada, M. Ehara, K. Toyota, R. Fukuda, 
 J. Hasegawa, M. Ishida, T. Nakajima, Y. Honda, O. Kitao, H. Nakai, 
 T. Vreven, K. Throssell, J. A. Montgomery, Jr., J. E. Peralta, 
 F. Ogliaro, M. J. Bearpark, J. J. Heyd, E. N. Brothers, K. N. Kudin, 
 V. N. Staroverov, T. A. Keith, R. Kobayashi, J. Normand, 
 K. Raghavachari, A. P. Rendell, J. C. Burant, S. S. Iyengar, 
 J. Tomasi, M. Cossi, J. M. Millam, M. Klene, C. Adamo, R. Cammi, 
 J. W. Ochterski, R. L. Martin, K. Morokuma, O. Farkas, 
 J. B. Foresman, and D. J. Fox, Gaussian, Inc., Wallingford CT, 2019.
 
 ******************************************
 Gaussian 16:  ES64L-G16RevC.01  3-Jul-2019
                26-Nov-2020 
 ******************************************
 %mem=10GB
 %nprocshared=16
 Will use up to   16 processors via shared memory.
 --------------------------------------
 # opt=modredundant wb97xd/6-311+g(d,p)
 --------------------------------------
 1/18=120,19=15,26=3,38=1/1,3;
 2/9=110,12=2,17=6,18=5,40=1/2;
 3/5=4,6=6,7=111,11=2,25=1,30=1,71=1,74=-58/1,2,3;
 4//1;
 5/5=2,38=5/2;
 6/7=2,8=2,9=2,10=2,28=1/1;
 7//1,2,3,16;
 1/18=20,19=15,26=3/3(2);
 2/9=110/2;
 99//99;
 2/9=110/2;
 3/5=4,6=6,7=111,11=2,25=1,30=1,71=1,74=-58/1,2,3;
 4/5=5,16=3,69=1/1;
 5/5=2,38=5/2;
 7//1,2,3,16;
 1/18=20,19=15,26=3/3(-5);
 2/9=110/2;
 6/7=2,8=2,9=2,10=2,19=2,28=1/1;
 99/9=1/99;
 ---------
 NDI_0.pdb
 ---------
 Symbolic Z-matrix:
 Charge =  0 Multiplicity = 1
 C                    -2.563    -2.994    -0.409 
 C                    -2.257    -1.551    -0.224 
 C                    -3.301    -0.607    -0.083 
 C                    -4.65     -1.024    -0.115 
 C                    -4.992    -2.459    -0.304 
 C                    -0.949    -1.137    -0.215 
 C                    -2.962     0.764     0.102 
 C                    -1.595     1.188     0.123 
 C                    -0.561     0.232    -0.072 
 C                    -1.328     2.616     0.446 
 C                    -3.777     3.115     0.508 
 C                    -4.035     1.679     0.268 
 C                    -5.356     1.252     0.23 
 C                    -5.672    -0.098     0.036 
 H                    -6.699    -0.442     0.008 
 H                    -6.133     1.997     0.361 
 H                    -0.19     -1.895    -0.369 
 N                    -2.432     3.476     0.608 
 N                    -3.916    -3.353    -0.438 
 O                    -1.695    -3.847    -0.532 
 O                    -6.149    -2.85     -0.34 
 O                    -4.676     3.938     0.629 
 O                    -0.212     3.097     0.596 
 C                    -2.111     4.875     0.912 
 H                    -1.54      4.931     1.84 
 H                    -1.5       5.299     0.111 
 H                    -3.05      5.414     1.003 
 C                    -4.206    -4.779    -0.625 
 H                    -3.759    -5.126    -1.559 
 H                    -3.775    -5.355     0.196 
 H                    -5.286    -4.897    -0.649 
 C                     0.876     0.482    -0.178 
 C                     1.595     1.66     -0.121 
 S                     1.944    -0.86     -0.592 
 C                     2.967     1.496    -0.395 
 H                     1.144     2.609     0.12 
 C                     3.349     0.178    -0.667 
 O                     3.911     2.474    -0.416 
 C                     4.669    -0.315    -0.939 
 C                     3.516     3.777     0.004 
 C                     5.045    -1.624    -1.233 
 S                     6.098     0.716    -0.944 
 H                     4.422     4.384    -0.008 
 H                     2.781     4.21     -0.684 
 H                     3.098     3.757     1.018 
 C                     6.441    -1.795    -1.455 
 O                     4.093    -2.593    -1.278 
 C                     7.126    -0.616    -1.331 
 H                     6.912    -2.739    -1.694 
 C                     4.502    -3.915    -1.614 
 H                     8.189    -0.458    -1.45 
 H                     5.21     -4.312    -0.877 
 H                     3.596    -4.52     -1.608 
 H                     4.957    -3.948    -2.611 
 
 The following ModRedundant input section has been read:
 D       8       9      32      33 F                                           
 

 GradGradGradGradGradGradGradGradGradGradGradGradGradGradGradGradGradGrad
 Berny optimization.
 Initialization pass.
                           ----------------------------
                           !    Initial Parameters    !
                           ! (Angstroms and Degrees)  !
 --------------------------                            --------------------------
 ! Name  Definition              Value          Derivative Info.                !
 --------------------------------------------------------------------------------
 ! R1    R(1,2)                  1.4866         estimate D2E/DX2                !
 ! R2    R(1,19)                 1.4001         estimate D2E/DX2                !
 ! R3    R(1,20)                 1.2232         estimate D2E/DX2                !
 ! R4    R(2,3)                  1.4146         estimate D2E/DX2                !
 ! R5    R(2,6)                  1.372          estimate D2E/DX2                !
 ! R6    R(3,4)                  1.4123         estimate D2E/DX2                !
 ! R7    R(3,7)                  1.4244         estimate D2E/DX2                !
 ! R8    R(4,5)                  1.4872         estimate D2E/DX2                !
 ! R9    R(4,14)                 1.3874         estimate D2E/DX2                !
 ! R10   R(5,19)                 1.4053         estimate D2E/DX2                !
 ! R11   R(5,21)                 1.2218         estimate D2E/DX2                !
 ! R12   R(6,9)                  1.4301         estimate D2E/DX2                !
 ! R13   R(6,17)                 1.0837         estimate D2E/DX2                !
 ! R14   R(7,8)                  1.4314         estimate D2E/DX2                !
 ! R15   R(7,12)                 1.4199         estimate D2E/DX2                !
 ! R16   R(8,9)                  1.4217         estimate D2E/DX2                !
 ! R17   R(8,10)                 1.4882         estimate D2E/DX2                !
 ! R18   R(9,32)                 1.4624         estimate D2E/DX2                !
 ! R19   R(10,18)                1.4088         estimate D2E/DX2                !
 ! R20   R(10,23)                1.2245         estimate D2E/DX2                !
 ! R21   R(11,12)                1.4786         estimate D2E/DX2                !
 ! R22   R(11,18)                1.3962         estimate D2E/DX2                !
 ! R23   R(11,22)                1.2248         estimate D2E/DX2                !
 ! R24   R(12,13)                1.3888         estimate D2E/DX2                !
 ! R25   R(13,14)                1.4            estimate D2E/DX2                !
 ! R26   R(13,16)                1.0844         estimate D2E/DX2                !
 ! R27   R(14,15)                1.0834         estimate D2E/DX2                !
 ! R28   R(18,24)                1.4672         estimate D2E/DX2                !
 ! R29   R(19,28)                1.4672         estimate D2E/DX2                !
 ! R30   R(24,25)                1.091          estimate D2E/DX2                !
 ! R31   R(24,26)                1.093          estimate D2E/DX2                !
 ! R32   R(24,27)                1.0865         estimate D2E/DX2                !
 ! R33   R(28,29)                1.0921         estimate D2E/DX2                !
 ! R34   R(28,30)                1.0916         estimate D2E/DX2                !
 ! R35   R(28,31)                1.0867         estimate D2E/DX2                !
 ! R36   R(32,33)                1.3813         estimate D2E/DX2                !
 ! R37   R(32,34)                1.7644         estimate D2E/DX2                !
 ! R38   R(33,35)                1.4087         estimate D2E/DX2                !
 ! R39   R(33,36)                1.078          estimate D2E/DX2                !
 ! R40   R(34,37)                1.7485         estimate D2E/DX2                !
 ! R41   R(35,37)                1.3989         estimate D2E/DX2                !
 ! R42   R(35,38)                1.3594         estimate D2E/DX2                !
 ! R43   R(37,39)                1.4351         estimate D2E/DX2                !
 ! R44   R(38,40)                1.4249         estimate D2E/DX2                !
 ! R45   R(39,41)                1.3933         estimate D2E/DX2                !
 ! R46   R(39,42)                1.7621         estimate D2E/DX2                !
 ! R47   R(40,43)                1.0906         estimate D2E/DX2                !
 ! R48   R(40,44)                1.0959         estimate D2E/DX2                !
 ! R49   R(40,45)                1.097          estimate D2E/DX2                !
 ! R50   R(41,46)                1.4238         estimate D2E/DX2                !
 ! R51   R(41,47)                1.3592         estimate D2E/DX2                !
 ! R52   R(42,48)                1.7265         estimate D2E/DX2                !
 ! R53   R(46,48)                1.3692         estimate D2E/DX2                !
 ! R54   R(46,49)                1.0817         estimate D2E/DX2                !
 ! R55   R(47,50)                1.424          estimate D2E/DX2                !
 ! R56   R(48,51)                1.0812         estimate D2E/DX2                !
 ! R57   R(50,52)                1.0964         estimate D2E/DX2                !
 ! R58   R(50,53)                1.0894         estimate D2E/DX2                !
 ! R59   R(50,54)                1.0964         estimate D2E/DX2                !
 ! A1    A(2,1,19)             116.767          estimate D2E/DX2                !
 ! A2    A(2,1,20)             122.9113         estimate D2E/DX2                !
 ! A3    A(19,1,20)            120.3217         estimate D2E/DX2                !
 ! A4    A(1,2,3)              120.5473         estimate D2E/DX2                !
 ! A5    A(1,2,6)              119.3369         estimate D2E/DX2                !
 ! A6    A(3,2,6)              120.1056         estimate D2E/DX2                !
 ! A7    A(2,3,4)              120.3743         estimate D2E/DX2                !
 ! A8    A(2,3,7)              118.662          estimate D2E/DX2                !
 ! A9    A(4,3,7)              120.9617         estimate D2E/DX2                !
 ! A10   A(3,4,5)              120.4909         estimate D2E/DX2                !
 ! A11   A(3,4,14)             120.2702         estimate D2E/DX2                !
 ! A12   A(5,4,14)             119.2382         estimate D2E/DX2                !
 ! A13   A(4,5,19)             116.7341         estimate D2E/DX2                !
 ! A14   A(4,5,21)             122.024          estimate D2E/DX2                !
 ! A15   A(19,5,21)            121.2418         estimate D2E/DX2                !
 ! A16   A(2,6,9)              123.2421         estimate D2E/DX2                !
 ! A17   A(2,6,17)             117.1119         estimate D2E/DX2                !
 ! A18   A(9,6,17)             119.589          estimate D2E/DX2                !
 ! A19   A(3,7,8)              120.9519         estimate D2E/DX2                !
 ! A20   A(3,7,12)             117.1037         estimate D2E/DX2                !
 ! A21   A(8,7,12)             121.944          estimate D2E/DX2                !
 ! A22   A(7,8,9)              119.5639         estimate D2E/DX2                !
 ! A23   A(7,8,10)             117.3064         estimate D2E/DX2                !
 ! A24   A(9,8,10)             122.9922         estimate D2E/DX2                !
 ! A25   A(6,9,8)              117.3944         estimate D2E/DX2                !
 ! A26   A(6,9,32)             115.0236         estimate D2E/DX2                !
 ! A27   A(8,9,32)             127.5648         estimate D2E/DX2                !
 ! A28   A(8,10,18)            118.042          estimate D2E/DX2                !
 ! A29   A(8,10,23)            124.5436         estimate D2E/DX2                !
 ! A30   A(18,10,23)           117.4097         estimate D2E/DX2                !
 ! A31   A(12,11,18)           115.5202         estimate D2E/DX2                !
 ! A32   A(12,11,22)           122.7205         estimate D2E/DX2                !
 ! A33   A(18,11,22)           121.7534         estimate D2E/DX2                !
 ! A34   A(7,12,11)            120.8614         estimate D2E/DX2                !
 ! A35   A(7,12,13)            121.162          estimate D2E/DX2                !
 ! A36   A(11,12,13)           117.9699         estimate D2E/DX2                !
 ! A37   A(12,13,14)           120.9948         estimate D2E/DX2                !
 ! A38   A(12,13,16)           117.8401         estimate D2E/DX2                !
 ! A39   A(14,13,16)           121.1642         estimate D2E/DX2                !
 ! A40   A(4,14,13)            119.5003         estimate D2E/DX2                !
 ! A41   A(4,14,15)            118.9169         estimate D2E/DX2                !
 ! A42   A(13,14,15)           121.5811         estimate D2E/DX2                !
 ! A43   A(10,18,11)           126.0753         estimate D2E/DX2                !
 ! A44   A(10,18,24)           115.7508         estimate D2E/DX2                !
 ! A45   A(11,18,24)           118.1737         estimate D2E/DX2                !
 ! A46   A(1,19,5)             125.0856         estimate D2E/DX2                !
 ! A47   A(1,19,28)            116.2868         estimate D2E/DX2                !
 ! A48   A(5,19,28)            118.6276         estimate D2E/DX2                !
 ! A49   A(18,24,25)           109.8574         estimate D2E/DX2                !
 ! A50   A(18,24,26)           109.8979         estimate D2E/DX2                !
 ! A51   A(18,24,27)           107.5355         estimate D2E/DX2                !
 ! A52   A(25,24,26)           108.1108         estimate D2E/DX2                !
 ! A53   A(25,24,27)           110.8301         estimate D2E/DX2                !
 ! A54   A(26,24,27)           110.6124         estimate D2E/DX2                !
 ! A55   A(19,28,29)           109.6906         estimate D2E/DX2                !
 ! A56   A(19,28,30)           109.8136         estimate D2E/DX2                !
 ! A57   A(19,28,31)           107.7461         estimate D2E/DX2                !
 ! A58   A(29,28,30)           108.2991         estimate D2E/DX2                !
 ! A59   A(29,28,31)           110.6959         estimate D2E/DX2                !
 ! A60   A(30,28,31)           110.5924         estimate D2E/DX2                !
 ! A61   A(9,32,33)            130.8655         estimate D2E/DX2                !
 ! A62   A(9,32,34)            118.8012         estimate D2E/DX2                !
 ! A63   A(33,32,34)           110.0766         estimate D2E/DX2                !
 ! A64   A(32,33,35)           113.5576         estimate D2E/DX2                !
 ! A65   A(32,33,36)           122.8359         estimate D2E/DX2                !
 ! A66   A(35,33,36)           123.6041         estimate D2E/DX2                !
 ! A67   A(32,34,37)            92.575          estimate D2E/DX2                !
 ! A68   A(33,35,37)           114.4224         estimate D2E/DX2                !
 ! A69   A(33,35,38)           126.5539         estimate D2E/DX2                !
 ! A70   A(37,35,38)           119.0238         estimate D2E/DX2                !
 ! A71   A(34,37,35)           109.3631         estimate D2E/DX2                !
 ! A72   A(34,37,39)           122.9096         estimate D2E/DX2                !
 ! A73   A(35,37,39)           127.7111         estimate D2E/DX2                !
 ! A74   A(35,38,40)           117.4408         estimate D2E/DX2                !
 ! A75   A(37,39,41)           127.6595         estimate D2E/DX2                !
 ! A76   A(37,39,42)           123.0567         estimate D2E/DX2                !
 ! A77   A(41,39,42)           109.2837         estimate D2E/DX2                !
 ! A78   A(38,40,43)           105.9877         estimate D2E/DX2                !
 ! A79   A(38,40,44)           111.2343         estimate D2E/DX2                !
 ! A80   A(38,40,45)           111.1884         estimate D2E/DX2                !
 ! A81   A(43,40,44)           109.289          estimate D2E/DX2                !
 ! A82   A(43,40,45)           109.6863         estimate D2E/DX2                !
 ! A83   A(44,40,45)           109.3869         estimate D2E/DX2                !
 ! A84   A(39,41,46)           114.2246         estimate D2E/DX2                !
 ! A85   A(39,41,47)           119.1943         estimate D2E/DX2                !
 ! A86   A(46,41,47)           126.5806         estimate D2E/DX2                !
 ! A87   A(39,42,48)            91.8395         estimate D2E/DX2                !
 ! A88   A(41,46,48)           111.8995         estimate D2E/DX2                !
 ! A89   A(41,46,49)           124.483          estimate D2E/DX2                !
 ! A90   A(48,46,49)           123.6174         estimate D2E/DX2                !
 ! A91   A(41,47,50)           117.937          estimate D2E/DX2                !
 ! A92   A(42,48,46)           112.7527         estimate D2E/DX2                !
 ! A93   A(42,48,51)           119.8222         estimate D2E/DX2                !
 ! A94   A(46,48,51)           127.4249         estimate D2E/DX2                !
 ! A95   A(47,50,52)           111.2858         estimate D2E/DX2                !
 ! A96   A(47,50,53)           105.9852         estimate D2E/DX2                !
 ! A97   A(47,50,54)           111.2039         estimate D2E/DX2                !
 ! A98   A(52,50,53)           109.4047         estimate D2E/DX2                !
 ! A99   A(52,50,54)           109.4133         estimate D2E/DX2                !
 ! A100  A(53,50,54)           109.4755         estimate D2E/DX2                !
 ! D1    D(19,1,2,3)             0.1578         estimate D2E/DX2                !
 ! D2    D(19,1,2,6)          -178.6792         estimate D2E/DX2                !
 ! D3    D(20,1,2,3)          -179.8231         estimate D2E/DX2                !
 ! D4    D(20,1,2,6)             1.3399         estimate D2E/DX2                !
 ! D5    D(2,1,19,5)            -0.124          estimate D2E/DX2                !
 ! D6    D(2,1,19,28)          179.8267         estimate D2E/DX2                !
 ! D7    D(20,1,19,5)          179.8575         estimate D2E/DX2                !
 ! D8    D(20,1,19,28)          -0.1919         estimate D2E/DX2                !
 ! D9    D(1,2,3,4)              0.0571         estimate D2E/DX2                !
 ! D10   D(1,2,3,7)            179.5453         estimate D2E/DX2                !
 ! D11   D(6,2,3,4)            178.8851         estimate D2E/DX2                !
 ! D12   D(6,2,3,7)             -1.6266         estimate D2E/DX2                !
 ! D13   D(1,2,6,9)            178.625          estimate D2E/DX2                !
 ! D14   D(1,2,6,17)             1.3881         estimate D2E/DX2                !
 ! D15   D(3,2,6,9)             -0.2173         estimate D2E/DX2                !
 ! D16   D(3,2,6,17)          -177.4541         estimate D2E/DX2                !
 ! D17   D(2,3,4,5)             -0.3074         estimate D2E/DX2                !
 ! D18   D(2,3,4,14)           179.3968         estimate D2E/DX2                !
 ! D19   D(7,3,4,5)           -179.7837         estimate D2E/DX2                !
 ! D20   D(7,3,4,14)            -0.0795         estimate D2E/DX2                !
 ! D21   D(2,3,7,8)              1.0523         estimate D2E/DX2                !
 ! D22   D(2,3,7,12)          -178.712          estimate D2E/DX2                !
 ! D23   D(4,3,7,8)           -179.4626         estimate D2E/DX2                !
 ! D24   D(4,3,7,12)             0.7731         estimate D2E/DX2                !
 ! D25   D(3,4,5,19)             0.3343         estimate D2E/DX2                !
 ! D26   D(3,4,5,21)          -179.7799         estimate D2E/DX2                !
 ! D27   D(14,4,5,19)         -179.3729         estimate D2E/DX2                !
 ! D28   D(14,4,5,21)            0.5129         estimate D2E/DX2                !
 ! D29   D(3,4,14,13)           -0.4559         estimate D2E/DX2                !
 ! D30   D(3,4,14,15)         -179.9937         estimate D2E/DX2                !
 ! D31   D(5,4,14,13)          179.252          estimate D2E/DX2                !
 ! D32   D(5,4,14,15)           -0.2858         estimate D2E/DX2                !
 ! D33   D(4,5,19,1)            -0.1141         estimate D2E/DX2                !
 ! D34   D(4,5,19,28)          179.9364         estimate D2E/DX2                !
 ! D35   D(21,5,19,1)          179.9992         estimate D2E/DX2                !
 ! D36   D(21,5,19,28)           0.0496         estimate D2E/DX2                !
 ! D37   D(2,6,9,8)              2.5984         estimate D2E/DX2                !
 ! D38   D(2,6,9,32)          -176.0103         estimate D2E/DX2                !
 ! D39   D(17,6,9,8)           179.77           estimate D2E/DX2                !
 ! D40   D(17,6,9,32)            1.1613         estimate D2E/DX2                !
 ! D41   D(3,7,8,9)              1.3551         estimate D2E/DX2                !
 ! D42   D(3,7,8,10)          -174.5099         estimate D2E/DX2                !
 ! D43   D(12,7,8,9)          -178.8921         estimate D2E/DX2                !
 ! D44   D(12,7,8,10)            5.2428         estimate D2E/DX2                !
 ! D45   D(3,7,12,11)          178.0768         estimate D2E/DX2                !
 ! D46   D(3,7,12,13)           -0.9621         estimate D2E/DX2                !
 ! D47   D(8,7,12,11)           -1.685          estimate D2E/DX2                !
 ! D48   D(8,7,12,13)          179.2761         estimate D2E/DX2                !
 ! D49   D(7,8,9,6)             -3.0809         estimate D2E/DX2                !
 ! D50   D(7,8,9,32)           175.3285         estimate D2E/DX2                !
 ! D51   D(10,8,9,6)           172.5381         estimate D2E/DX2                !
 ! D52   D(10,8,9,32)           -9.0525         estimate D2E/DX2                !
 ! D53   D(7,8,10,18)           -4.7549         estimate D2E/DX2                !
 ! D54   D(7,8,10,23)          174.4235         estimate D2E/DX2                !
 ! D55   D(9,8,10,18)          179.5335         estimate D2E/DX2                !
 ! D56   D(9,8,10,23)           -1.2882         estimate D2E/DX2                !
 ! D57   D(6,9,32,33)          178.4406         estimate D2E/DX2                !
 ! D58   D(6,9,32,34)            4.8978         estimate D2E/DX2                !
 ! D59   D(8,9,32,33)           -0.0009         Frozen                          !
 ! D60   D(8,9,32,34)         -173.5438         estimate D2E/DX2                !
 ! D61   D(8,10,18,11)           0.7189         estimate D2E/DX2                !
 ! D62   D(8,10,18,24)        -179.4089         estimate D2E/DX2                !
 ! D63   D(23,10,18,11)       -178.5188         estimate D2E/DX2                !
 ! D64   D(23,10,18,24)          1.3535         estimate D2E/DX2                !
 ! D65   D(18,11,12,7)          -2.3856         estimate D2E/DX2                !
 ! D66   D(18,11,12,13)        176.6833         estimate D2E/DX2                !
 ! D67   D(22,11,12,7)         178.4862         estimate D2E/DX2                !
 ! D68   D(22,11,12,13)         -2.445          estimate D2E/DX2                !
 ! D69   D(12,11,18,10)          2.8444         estimate D2E/DX2                !
 ! D70   D(12,11,18,24)       -177.0251         estimate D2E/DX2                !
 ! D71   D(22,11,18,10)       -178.0181         estimate D2E/DX2                !
 ! D72   D(22,11,18,24)          2.1124         estimate D2E/DX2                !
 ! D73   D(7,12,13,14)           0.461          estimate D2E/DX2                !
 ! D74   D(7,12,13,16)        -179.8781         estimate D2E/DX2                !
 ! D75   D(11,12,13,14)       -178.6049         estimate D2E/DX2                !
 ! D76   D(11,12,13,16)          1.056          estimate D2E/DX2                !
 ! D77   D(12,13,14,4)           0.2708         estimate D2E/DX2                !
 ! D78   D(12,13,14,15)        179.7958         estimate D2E/DX2                !
 ! D79   D(16,13,14,4)        -179.3788         estimate D2E/DX2                !
 ! D80   D(16,13,14,15)          0.1463         estimate D2E/DX2                !
 ! D81   D(10,18,24,25)        -59.609          estimate D2E/DX2                !
 ! D82   D(10,18,24,26)         59.2209         estimate D2E/DX2                !
 ! D83   D(10,18,24,27)        179.6858         estimate D2E/DX2                !
 ! D84   D(11,18,24,25)        120.2739         estimate D2E/DX2                !
 ! D85   D(11,18,24,26)       -120.8962         estimate D2E/DX2                !
 ! D86   D(11,18,24,27)         -0.4313         estimate D2E/DX2                !
 ! D87   D(1,19,28,29)         -58.1407         estimate D2E/DX2                !
 ! D88   D(1,19,28,30)          60.7668         estimate D2E/DX2                !
 ! D89   D(1,19,28,31)        -178.7139         estimate D2E/DX2                !
 ! D90   D(5,19,28,29)         121.8132         estimate D2E/DX2                !
 ! D91   D(5,19,28,30)        -119.2792         estimate D2E/DX2                !
 ! D92   D(5,19,28,31)           1.2401         estimate D2E/DX2                !
 ! D93   D(9,32,33,35)        -174.2459         estimate D2E/DX2                !
 ! D94   D(9,32,33,36)           6.3002         estimate D2E/DX2                !
 ! D95   D(34,32,33,35)         -0.2687         estimate D2E/DX2                !
 ! D96   D(34,32,33,36)       -179.7226         estimate D2E/DX2                !
 ! D97   D(9,32,34,37)         175.3614         estimate D2E/DX2                !
 ! D98   D(33,32,34,37)          0.5566         estimate D2E/DX2                !
 ! D99   D(32,33,35,37)         -0.2716         estimate D2E/DX2                !
 ! D100  D(32,33,35,38)        179.7147         estimate D2E/DX2                !
 ! D101  D(36,33,35,37)        179.1775         estimate D2E/DX2                !
 ! D102  D(36,33,35,38)         -0.8362         estimate D2E/DX2                !
 ! D103  D(32,34,37,35)         -0.6942         estimate D2E/DX2                !
 ! D104  D(32,34,37,39)        177.9474         estimate D2E/DX2                !
 ! D105  D(33,35,37,34)          0.679          estimate D2E/DX2                !
 ! D106  D(33,35,37,39)       -177.8795         estimate D2E/DX2                !
 ! D107  D(38,35,37,34)       -179.3085         estimate D2E/DX2                !
 ! D108  D(38,35,37,39)          2.1331         estimate D2E/DX2                !
 ! D109  D(33,35,38,40)          6.5498         estimate D2E/DX2                !
 ! D110  D(37,35,38,40)       -173.4645         estimate D2E/DX2                !
 ! D111  D(34,37,39,41)          2.8556         estimate D2E/DX2                !
 ! D112  D(34,37,39,42)       -177.1619         estimate D2E/DX2                !
 ! D113  D(35,37,39,41)       -178.7644         estimate D2E/DX2                !
 ! D114  D(35,37,39,42)          1.2182         estimate D2E/DX2                !
 ! D115  D(35,38,40,43)        175.4838         estimate D2E/DX2                !
 ! D116  D(35,38,40,44)        -65.832          estimate D2E/DX2                !
 ! D117  D(35,38,40,45)         56.3471         estimate D2E/DX2                !
 ! D118  D(37,39,41,46)       -179.9682         estimate D2E/DX2                !
 ! D119  D(37,39,41,47)         -0.2002         estimate D2E/DX2                !
 ! D120  D(42,39,41,46)          0.0472         estimate D2E/DX2                !
 ! D121  D(42,39,41,47)        179.8153         estimate D2E/DX2                !
 ! D122  D(37,39,42,48)        179.9931         estimate D2E/DX2                !
 ! D123  D(41,39,42,48)         -0.0215         estimate D2E/DX2                !
 ! D124  D(39,41,46,48)         -0.0557         estimate D2E/DX2                !
 ! D125  D(39,41,46,49)        179.9836         estimate D2E/DX2                !
 ! D126  D(47,41,46,48)       -179.8035         estimate D2E/DX2                !
 ! D127  D(47,41,46,49)          0.2357         estimate D2E/DX2                !
 ! D128  D(39,41,47,50)        178.4481         estimate D2E/DX2                !
 ! D129  D(46,41,47,50)         -1.8153         estimate D2E/DX2                !
 ! D130  D(39,42,48,46)         -0.0094         estimate D2E/DX2                !
 ! D131  D(39,42,48,51)        179.8396         estimate D2E/DX2                !
 ! D132  D(41,46,48,42)          0.0376         estimate D2E/DX2                !
 ! D133  D(41,46,48,51)       -179.7975         estimate D2E/DX2                !
 ! D134  D(49,46,48,42)        179.9987         estimate D2E/DX2                !
 ! D135  D(49,46,48,51)          0.1636         estimate D2E/DX2                !
 ! D136  D(41,47,50,52)         61.9981         estimate D2E/DX2                !
 ! D137  D(41,47,50,53)       -179.1523         estimate D2E/DX2                !
 ! D138  D(41,47,50,54)        -60.262          estimate D2E/DX2                !
 --------------------------------------------------------------------------------
 Trust Radius=3.00D-01 FncErr=1.00D-07 GrdErr=1.00D-06 EigMax=2.50D+02 EigMin=1.00D-04
 Number of steps in this run=    307 maximum allowed number of steps=    324.
 GradGradGradGradGradGradGradGradGradGradGradGradGradGradGradGradGradGrad

 Stoichiometry    C26H18N2O6S2
 Framework group  C1[X(C26H18N2O6S2)]
 Deg. of freedom   156
 Full point group                 C1      NOp   1
 Largest Abelian subgroup         C1      NOp   1
 Largest concise Abelian subgroup C1      NOp   1
                         Standard orientation:                         
 ---------------------------------------------------------------------
 Center     Atomic      Atomic             Coordinates (Angstroms)
 Number     Number       Type             X           Y           Z
 ---------------------------------------------------------------------
      1          6           0       -2.496156   -3.032436    0.160520
      2          6           0       -2.220363   -1.572041    0.124529
      3          6           0       -3.278934   -0.643609   -0.011102
      4          6           0       -4.614078   -1.092728   -0.113065
      5          6           0       -4.925270   -2.546807   -0.086183
      6          6           0       -0.923466   -1.130817    0.200150
      7          6           0       -2.969920    0.746677   -0.031151
      8          6           0       -1.615730    1.201246    0.060734
      9          6           0       -0.561176    0.251501    0.144504
     10          6           0       -1.393584    2.669553    0.158345
     11          6           0       -3.837708    3.111871   -0.126356
     12          6           0       -4.059862    1.650121   -0.140355
     13          6           0       -5.366463    1.190808   -0.243501
     14          6           0       -5.651758   -0.179775   -0.233463
     15          1           0       -6.667662   -0.548450   -0.310062
     16          1           0       -6.157378    1.928046   -0.326262
     17          1           0       -0.147875   -1.885238    0.260732
     18          7           0       -2.513591    3.517385    0.051455
     19          7           0       -3.835937   -3.424014    0.051043
     20          8           0       -1.615023   -3.872453    0.279419
     21          8           0       -6.069266   -2.966318   -0.176243
     22          8           0       -4.749268    3.921241   -0.245306
     23          8           0       -0.303227    3.196232    0.340137
     24          6           0       -2.235536    4.955193    0.141188
     25          1           0       -1.768862    5.183241    1.100652
     26          1           0       -1.543743    5.250509   -0.651849
     27          1           0       -3.181965    5.478731    0.037739
     28          6           0       -4.095706   -4.867617    0.083829
     29          1           0       -3.548067   -5.358457   -0.723477
     30          1           0       -3.752951   -5.283782    1.032988
     31          1           0       -5.166036   -5.014309   -0.033542
     32          6           0        0.877376    0.514649    0.149521
     33          6           0        1.579138    1.702196    0.077711
     34         16           0        1.991707   -0.851957    0.089183
     35          6           0        2.973684    1.527225   -0.017070
     36          1           0        1.099189    2.667156    0.101884
     37          6           0        3.390534    0.191836   -0.015092
     38          8           0        3.908728    2.509920   -0.106869
     39          6           0        4.735071   -0.308100   -0.056525
     40          6           0        3.462993    3.855569    0.037297
     41          6           0        5.148290   -1.638539   -0.078281
     42         16           0        6.150206    0.741374   -0.088504
     43          1           0        4.361430    4.473473    0.016445
     44          1           0        2.804440    4.146252   -0.789062
     45          1           0        2.937628    3.999354    0.989472
     46          6           0        6.561096   -1.810912   -0.118393
     47          8           0        4.212398   -2.623870   -0.055514
     48          6           0        7.221788   -0.611734   -0.128364
     49          1           0        7.060681   -2.770117   -0.139355
     50          6           0        4.663052   -3.973503   -0.112658
     51          1           0        8.290493   -0.450554   -0.159740
     52          1           0        5.289243   -4.220994    0.752601
     53          1           0        3.765254   -4.590465   -0.098027
     54          1           0        5.223660   -4.165674   -1.035107
 ---------------------------------------------------------------------
 Rotational constants (GHZ):           0.1523999           0.0607830           0.0435811
 Standard basis: 6-311+G(d,p) (5D, 7F)
 There are   952 symmetry adapted cartesian basis functions of A   symmetry.
 There are   916 symmetry adapted basis functions of A   symmetry.
   916 basis functions,  1468 primitive gaussians,   952 cartesian basis functions
   134 alpha electrons      134 beta electrons
       nuclear repulsion energy      4092.8201028433 Hartrees.
 NAtoms=   54 NActive=   54 NUniq=   54 SFac= 1.00D+00 NAtFMM=   60 NAOKFM=F Big=F
 Integral buffers will be    131072 words long.
 Raffenetti 2 integral format.
 Two-electron integral symmetry is turned on.
 Nuclear repulsion after empirical dispersion term =     4092.7792729701 Hartrees.
 One-electron integrals computed using PRISM.
 NBasis=   916 RedAO= T EigKep=  1.59D-06  NBF=   916
 NBsUse=   900 1.00D-06 EigRej=  9.29D-07 NBFU=   900
 ExpMin= 4.05D-02 ExpMax= 9.34D+04 ExpMxC= 3.17D+03 IAcc=3 IRadAn=         5 AccDes= 0.00D+00
 Harris functional with IExCor= 4639 and IRadAn=       5 diagonalized for initial guess.
 HarFok:  IExCor= 4639 AccDes= 0.00D+00 IRadAn=         5 IDoV= 1 UseB2=F ITyADJ=14
 ICtDFT=  3500011 ScaDFX=  1.000000  1.000000  1.000000  1.000000
 FoFCou: FMM=F IPFlag=           0 FMFlag=      100000 FMFlg1=           0
         NFxFlg=           0 DoJE=T BraDBF=F KetDBF=T FulRan=T
         wScrn=  0.000000 ICntrl=       500 IOpCl=  0 I1Cent=   200000004 NGrid=           0
         NMat0=    1 NMatS0=      1 NMatT0=    0 NMatD0=    1 NMtDS0=    0 NMtDT0=    0
 Petite list used in FoFCou.
 Requested convergence on RMS density matrix=1.00D-08 within 128 cycles.
 Requested convergence on MAX density matrix=1.00D-06.
 Requested convergence on             energy=1.00D-06.
 No special actions if energy rises.
 SCF Done:  E(RwB97XD) =  -2358.75137492     A.U. after   19 cycles
            NFock= 19  Conv=0.50D-08     -V/T= 2.0031

 **********************************************************************

            Population analysis using the SCF Density.

 **********************************************************************

 Orbital symmetries:
       Occupied  (A) (A) (A) (A) (A) (A) (A) (A) (A) (A) (A) (A)
                 (A) (A) (A) (A) (A) (A) (A) (A) (A) (A) (A) (A)
                 (A) (A) (A) (A) (A) (A) (A) (A) (A) (A) (A) (A)
                 (A) (A) (A) (A) (A) (A) (A) (A) (A) (A) (A) (A)
                 (A) (A) (A) (A) (A) (A) (A) (A) (A) (A) (A) (A)
                 (A) (A) (A) (A) (A) (A) (A) (A) (A) (A) (A) (A)
                 (A) (A) (A) (A) (A) (A) (A) (A) (A) (A) (A) (A)
                 (A) (A) (A) (A) (A) (A) (A) (A) (A) (A) (A) (A)
                 (A) (A) (A) (A) (A) (A) (A) (A) (A) (A) (A) (A)
                 (A) (A) (A) (A) (A) (A) (A) (A) (A) (A) (A) (A)
                 (A) (A) (A) (A) (A) (A) (A) (A) (A) (A) (A) (A)
                 (A) (A)
       Virtual   (A) (A) (A) (A) (A) (A) (A) (A) (A) (A) (A) (A)
                 (A) (A) (A) (A) (A) (A) (A) (A) (A) (A) (A) (A)
                 (A) (A) (A) (A) (A) (A) (A) (A) (A) (A) (A) (A)
                 (A) (A) (A) (A) (A) (A) (A) (A) (A) (A) (A) (A)
                 (A) (A) (A) (A) (A) (A) (A) (A) (A) (A) (A) (A)
                 (A) (A) (A) (A) (A) (A) (A) (A) (A) (A) (A) (A)
                 (A) (A) (A) (A) (A) (A) (A) (A) (A) (A) (A) (A)
                 (A) (A) (A) (A) (A) (A) (A) (A) (A) (A) (A) (A)
                 (A) (A) (A) (A) (A) (A) (A) (A) (A) (A) (A) (A)
                 (A) (A) (A) (A) (A) (A) (A) (A) (A) (A) (A) (A)
                 (A) (A) (A) (A) (A) (A) (A) (A) (A) (A) (A) (A)
                 (A) (A) (A) (A) (A) (A) (A) (A) (A) (A) (A) (A)
                 (A) (A) (A) (A) (A) (A) (A) (A) (A) (A) (A) (A)
                 (A) (A) (A) (A) (A) (A) (A) (A) (A) (A) (A) (A)
                 (A) (A) (A) (A) (A) (A) (A) (A) (A) (A) (A) (A)
                 (A) (A) (A) (A) (A) (A) (A) (A) (A) (A) (A) (A)
                 (A) (A) (A) (A) (A) (A) (A) (A) (A) (A) (A) (A)
                 (A) (A) (A) (A) (A) (A) (A) (A) (A) (A) (A) (A)
                 (A) (A) (A) (A) (A) (A) (A) (A) (A) (A) (A) (A)
                 (A) (A) (A) (A) (A) (A) (A) (A) (A) (A) (A) (A)
                 (A) (A) (A) (A) (A) (A) (A) (A) (A) (A) (A) (A)
                 (A) (A) (A) (A) (A) (A) (A) (A) (A) (A) (A) (A)
                 (A) (A) (A) (A) (A) (A) (A) (A) (A) (A) (A) (A)
                 (A) (A) (A) (A) (A) (A) (A) (A) (A) (A) (A) (A)
                 (A) (A) (A) (A) (A) (A) (A) (A) (A) (A) (A) (A)
                 (A) (A) (A) (A) (A) (A) (A) (A) (A) (A) (A) (A)
                 (A) (A) (A) (A) (A) (A) (A) (A) (A) (A) (A) (A)
                 (A) (A) (A) (A) (A) (A) (A) (A) (A) (A) (A) (A)
                 (A) (A) (A) (A) (A) (A) (A) (A) (A) (A) (A) (A)
                 (A) (A) (A) (A) (A) (A) (A) (A) (A) (A) (A) (A)
                 (A) (A) (A) (A) (A) (A) (A) (A) (A) (A) (A) (A)
                 (A) (A) (A) (A) (A) (A) (A) (A) (A) (A) (A) (A)
                 (A) (A) (A) (A) (A) (A) (A) (A) (A) (A) (A) (A)
                 (A) (A) (A) (A) (A) (A) (A) (A) (A) (A) (A) (A)
                 (A) (A) (A) (A) (A) (A) (A) (A) (A) (A) (A) (A)
                 (A) (A) (A) (A) (A) (A) (A) (A) (A) (A) (A) (A)
                 (A) (A) (A) (A) (A) (A) (A) (A) (A) (A) (A) (A)
                 (A) (A) (A) (A) (A) (A) (A) (A) (A) (A) (A) (A)
                 (A) (A) (A) (A) (A) (A) (A) (A) (A) (A) (A) (A)
                 (A) (A) (A) (A) (A) (A) (A) (A) (A) (A) (A) (A)
                 (A) (A) (A) (A) (A) (A) (A) (A) (A) (A) (A) (A)
                 (A) (A) (A) (A) (A) (A) (A) (A) (A) (A) (A) (A)
                 (A) (A) (A) (A) (A) (A) (A) (A) (A) (A) (A) (A)
                 (A) (A) (A) (A) (A) (A) (A) (A) (A) (A) (A) (A)
                 (A) (A) (A) (A) (A) (A) (A) (A) (A) (A) (A) (A)
                 (A) (A) (A) (A) (A) (A) (A) (A) (A) (A) (A) (A)
                 (A) (A) (A) (A) (A) (A) (A) (A) (A) (A) (A) (A)
                 (A) (A) (A) (A) (A) (A) (A) (A) (A) (A) (A) (A)
                 (A) (A) (A) (A) (A) (A) (A) (A) (A) (A) (A) (A)
                 (A) (A) (A) (A) (A) (A) (A) (A) (A) (A) (A) (A)
                 (A) (A) (A) (A) (A) (A) (A) (A) (A) (A) (A) (A)
                 (A) (A) (A) (A) (A) (A) (A) (A) (A) (A) (A) (A)
                 (A) (A) (A) (A) (A) (A) (A) (A) (A) (A) (A) (A)
                 (A) (A) (A) (A) (A) (A) (A) (A) (A) (A) (A) (A)
                 (A) (A) (A) (A) (A) (A) (A) (A) (A) (A) (A) (A)
                 (A) (A) (A) (A) (A) (A) (A) (A) (A) (A) (A) (A)
                 (A) (A) (A) (A) (A) (A) (A) (A) (A) (A) (A) (A)
                 (A) (A) (A) (A) (A) (A) (A) (A) (A) (A) (A) (A)
                 (A) (A) (A) (A) (A) (A) (A) (A) (A) (A) (A) (A)
                 (A) (A) (A) (A) (A) (A) (A) (A) (A) (A) (A) (A)
                 (A) (A) (A) (A) (A) (A) (A) (A) (A) (A) (A) (A)
                 (A) (A) (A) (A) (A) (A) (A) (A) (A) (A) (A) (A)
                 (A) (A) (A) (A) (A) (A) (A) (A) (A) (A) (A) (A)
                 (A) (A) (A) (A) (A) (A) (A) (A) (A) (A)
 The electronic state is 1-A.
 Alpha  occ. eigenvalues --  -89.05119 -89.04950 -19.29463 -19.28726 -19.25044
 Alpha  occ. eigenvalues --  -19.25042 -19.25033 -19.24455 -14.50713 -14.50612
 Alpha  occ. eigenvalues --  -10.43431 -10.42984 -10.42835 -10.42408 -10.36225
 Alpha  occ. eigenvalues --  -10.36062 -10.35149 -10.34860 -10.34706 -10.34304
 Alpha  occ. eigenvalues --  -10.34129 -10.34094 -10.34022 -10.33932 -10.33843
 Alpha  occ. eigenvalues --  -10.33595 -10.33361 -10.33096 -10.32986 -10.32681
 Alpha  occ. eigenvalues --  -10.32542 -10.32535 -10.32261 -10.32261 -10.30252
 Alpha  occ. eigenvalues --  -10.28213  -8.09069  -8.08939  -6.03918  -6.03800
 Alpha  occ. eigenvalues --   -6.03525  -6.03401  -6.03154  -6.02993  -1.19300
 Alpha  occ. eigenvalues --   -1.18795  -1.18599  -1.17890  -1.16849  -1.16832
 Alpha  occ. eigenvalues --   -1.06391  -1.06217  -1.02665  -1.00152  -0.98662
 Alpha  occ. eigenvalues --   -0.96644  -0.94413  -0.90393  -0.88492  -0.87407
 Alpha  occ. eigenvalues --   -0.85829  -0.85105  -0.84557  -0.82874  -0.82138
 Alpha  occ. eigenvalues --   -0.81435  -0.79705  -0.78201  -0.76911  -0.75422
 Alpha  occ. eigenvalues --   -0.75096  -0.74181  -0.70303  -0.68820  -0.67895
 Alpha  occ. eigenvalues --   -0.66607  -0.65789  -0.65272  -0.64491  -0.64026
 Alpha  occ. eigenvalues --   -0.62128  -0.60552  -0.60341  -0.59396  -0.58907
 Alpha  occ. eigenvalues --   -0.58348  -0.57496  -0.57273  -0.57102  -0.56608
 Alpha  occ. eigenvalues --   -0.56508  -0.56349  -0.55171  -0.54742  -0.54415
 Alpha  occ. eigenvalues --   -0.53695  -0.53645  -0.53223  -0.52855  -0.51784
 Alpha  occ. eigenvalues --   -0.51409  -0.51070  -0.50759  -0.50347  -0.50262
 Alpha  occ. eigenvalues --   -0.50059  -0.49582  -0.49205  -0.48915  -0.48124
 Alpha  occ. eigenvalues --   -0.47906  -0.47545  -0.46202  -0.45751  -0.44836
 Alpha  occ. eigenvalues --   -0.44741  -0.44109  -0.42419  -0.41804  -0.41433
 Alpha  occ. eigenvalues --   -0.40841  -0.40138  -0.39300  -0.38281  -0.38131
 Alpha  occ. eigenvalues --   -0.37113  -0.37091  -0.36893  -0.35772  -0.34455
 Alpha  occ. eigenvalues --   -0.33208  -0.31818  -0.31760  -0.25478
 Alpha virt. eigenvalues --   -0.07525  -0.01586   0.00093   0.02163   0.03648
 Alpha virt. eigenvalues --    0.05307   0.05709   0.06108   0.06754   0.06772
 Alpha virt. eigenvalues --    0.07070   0.07284   0.07857   0.08076   0.08272
 Alpha virt. eigenvalues --    0.08330   0.08480   0.08830   0.09031   0.09296
 Alpha virt. eigenvalues --    0.09488   0.09625   0.09830   0.10178   0.10561
 Alpha virt. eigenvalues --    0.10616   0.10942   0.11397   0.11464   0.11792
 Alpha virt. eigenvalues --    0.11991   0.12129   0.12694   0.12813   0.12856
 Alpha virt. eigenvalues --    0.13246   0.13717   0.13891   0.14281   0.14447
 Alpha virt. eigenvalues --    0.14576   0.14672   0.15044   0.15381   0.15678
 Alpha virt. eigenvalues --    0.15730   0.16445   0.16762   0.17108   0.17192
 Alpha virt. eigenvalues --    0.17470   0.17871   0.17958   0.18137   0.18383
 Alpha virt. eigenvalues --    0.18636   0.18825   0.19228   0.19533   0.19605
 Alpha virt. eigenvalues --    0.19816   0.20247   0.20408   0.20577   0.20710
 Alpha virt. eigenvalues --    0.20933   0.21183   0.21447   0.21678   0.22052
 Alpha virt. eigenvalues --    0.22107   0.22257   0.22516   0.22563   0.22690
 Alpha virt. eigenvalues --    0.23364   0.23427   0.23675   0.23796   0.24171
 Alpha virt. eigenvalues --    0.24398   0.24647   0.24691   0.24992   0.25161
 Alpha virt. eigenvalues --    0.25252   0.25601   0.25745   0.26032   0.26101
 Alpha virt. eigenvalues --    0.26223   0.26705   0.26745   0.26914   0.27067
 Alpha virt. eigenvalues --    0.27172   0.27507   0.27520   0.27668   0.28207
 Alpha virt. eigenvalues --    0.28476   0.28697   0.28943   0.29066   0.29296
 Alpha virt. eigenvalues --    0.29341   0.29620   0.29699   0.30096   0.30356
 Alpha virt. eigenvalues --    0.30565   0.30796   0.30923   0.31105   0.31338
 Alpha virt. eigenvalues --    0.31475   0.31577   0.31958   0.32010   0.32143
 Alpha virt. eigenvalues --    0.32259   0.32472   0.32692   0.32843   0.33080
 Alpha virt. eigenvalues --    0.33198   0.33448   0.33593   0.34093   0.34284
 Alpha virt. eigenvalues --    0.34367   0.34556   0.34683   0.35011   0.35357
 Alpha virt. eigenvalues --    0.35494   0.35877   0.36021   0.36342   0.36773
 Alpha virt. eigenvalues --    0.37046   0.37175   0.37466   0.37870   0.38092
 Alpha virt. eigenvalues --    0.38482   0.38749   0.38947   0.39248   0.39762
 Alpha virt. eigenvalues --    0.39958   0.40059   0.40187   0.40444   0.40710
 Alpha virt. eigenvalues --    0.41119   0.41405   0.41520   0.41947   0.42432
 Alpha virt. eigenvalues --    0.42446   0.42626   0.43339   0.43566   0.43923
 Alpha virt. eigenvalues --    0.44486   0.44628   0.44938   0.45147   0.45414
 Alpha virt. eigenvalues --    0.45794   0.46287   0.46553   0.47326   0.48128
 Alpha virt. eigenvalues --    0.48373   0.48604   0.49240   0.49476   0.49923
 Alpha virt. eigenvalues --    0.50148   0.50679   0.51255   0.51489   0.51938
 Alpha virt. eigenvalues --    0.52409   0.52551   0.52738   0.53278   0.53613
 Alpha virt. eigenvalues --    0.53772   0.54496   0.54634   0.54776   0.55632
 Alpha virt. eigenvalues --    0.55833   0.56596   0.56999   0.57627   0.57952
 Alpha virt. eigenvalues --    0.58298   0.59111   0.59179   0.59671   0.60621
 Alpha virt. eigenvalues --    0.60970   0.61091   0.61154   0.62221   0.62573
 Alpha virt. eigenvalues --    0.62909   0.63560   0.63905   0.64140   0.64654
 Alpha virt. eigenvalues --    0.64821   0.64924   0.65249   0.65773   0.66123
 Alpha virt. eigenvalues --    0.66326   0.66616   0.67193   0.67557   0.67736
 Alpha virt. eigenvalues --    0.68132   0.68323   0.69263   0.69605   0.69873
 Alpha virt. eigenvalues --    0.70013   0.70236   0.70480   0.70728   0.71212
 Alpha virt. eigenvalues --    0.71551   0.71896   0.72762   0.73001   0.73246
 Alpha virt. eigenvalues --    0.73538   0.73752   0.73931   0.74165   0.74721
 Alpha virt. eigenvalues --    0.75396   0.75478   0.75691   0.76039   0.76207
 Alpha virt. eigenvalues --    0.77584   0.77680   0.77985   0.78574   0.78982
 Alpha virt. eigenvalues --    0.79471   0.79854   0.80225   0.80564   0.80932
 Alpha virt. eigenvalues --    0.81472   0.81713   0.81809   0.82638   0.83016
 Alpha virt. eigenvalues --    0.83203   0.83737   0.84001   0.84155   0.84316
 Alpha virt. eigenvalues --    0.84968   0.85535   0.85738   0.86158   0.86267
 Alpha virt. eigenvalues --    0.87013   0.87238   0.87758   0.88016   0.88602
 Alpha virt. eigenvalues --    0.89927   0.90487   0.90991   0.91547   0.92069
 Alpha virt. eigenvalues --    0.92809   0.92985   0.94030   0.94552   0.95320
 Alpha virt. eigenvalues --    0.95749   0.96142   0.96981   0.97240   0.98082
 Alpha virt. eigenvalues --    0.99035   0.99337   0.99617   0.99951   1.00687
 Alpha virt. eigenvalues --    1.00830   1.01271   1.01687   1.02006   1.02468
 Alpha virt. eigenvalues --    1.02834   1.03210   1.03511   1.04427   1.04581
 Alpha virt. eigenvalues --    1.05087   1.05241   1.05682   1.06009   1.07097
 Alpha virt. eigenvalues --    1.07359   1.07945   1.08461   1.09067   1.09232
 Alpha virt. eigenvalues --    1.09419   1.09589   1.10477   1.10558   1.11462
 Alpha virt. eigenvalues --    1.12011   1.12498   1.13030   1.13288   1.13794
 Alpha virt. eigenvalues --    1.13995   1.14673   1.15117   1.15406   1.15718
 Alpha virt. eigenvalues --    1.16279   1.16580   1.16831   1.16891   1.17705
 Alpha virt. eigenvalues --    1.18182   1.18830   1.19036   1.20015   1.20961
 Alpha virt. eigenvalues --    1.21670   1.21999   1.22610   1.23469   1.23672
 Alpha virt. eigenvalues --    1.25347   1.25488   1.26125   1.26511   1.26670
 Alpha virt. eigenvalues --    1.27066   1.27829   1.29476   1.30038   1.30602
 Alpha virt. eigenvalues --    1.31510   1.32376   1.33705   1.33922   1.34084
 Alpha virt. eigenvalues --    1.34226   1.34798   1.35006   1.35621   1.37398
 Alpha virt. eigenvalues --    1.38340   1.38610   1.39096   1.40754   1.41626
 Alpha virt. eigenvalues --    1.41986   1.42840   1.43513   1.43722   1.44317
 Alpha virt. eigenvalues --    1.45564   1.46200   1.47453   1.48950   1.49809
 Alpha virt. eigenvalues --    1.50403   1.50677   1.50931   1.51234   1.51693
 Alpha virt. eigenvalues --    1.52140   1.52616   1.52899   1.53017   1.53073
 Alpha virt. eigenvalues --    1.53722   1.54026   1.54439   1.54675   1.55518
 Alpha virt. eigenvalues --    1.55888   1.56743   1.57179   1.57572   1.58481
 Alpha virt. eigenvalues --    1.59518   1.59745   1.60615   1.61546   1.62216
 Alpha virt. eigenvalues --    1.62738   1.63352   1.63511   1.63741   1.63890
 Alpha virt. eigenvalues --    1.64173   1.64497   1.65721   1.66219   1.66419
 Alpha virt. eigenvalues --    1.67947   1.69032   1.69336   1.69755   1.70952
 Alpha virt. eigenvalues --    1.71300   1.71764   1.72403   1.73246   1.74137
 Alpha virt. eigenvalues --    1.75026   1.75879   1.75951   1.76299   1.76587
 Alpha virt. eigenvalues --    1.77451   1.77814   1.78182   1.78273   1.78891
 Alpha virt. eigenvalues --    1.79189   1.79719   1.80033   1.80508   1.81368
 Alpha virt. eigenvalues --    1.82487   1.82990   1.84360   1.84500   1.84733
 Alpha virt. eigenvalues --    1.85655   1.86816   1.87218   1.87629   1.87810
 Alpha virt. eigenvalues --    1.88175   1.89268   1.90936   1.91285   1.92602
 Alpha virt. eigenvalues --    1.93447   1.94012   1.94501   1.95081   1.95683
 Alpha virt. eigenvalues --    1.95839   1.96417   1.96964   1.97398   1.98104
 Alpha virt. eigenvalues --    1.98558   1.99346   1.99986   2.01193   2.01680
 Alpha virt. eigenvalues --    2.01978   2.02564   2.02982   2.03745   2.04396
 Alpha virt. eigenvalues --    2.05333   2.06682   2.06734   2.07045   2.08832
 Alpha virt. eigenvalues --    2.09449   2.10183   2.10561   2.11071   2.11707
 Alpha virt. eigenvalues --    2.12106   2.12865   2.13381   2.14629   2.14897
 Alpha virt. eigenvalues --    2.15580   2.15769   2.17119   2.17815   2.18402
 Alpha virt. eigenvalues --    2.18674   2.19636   2.20628   2.20937   2.22345
 Alpha virt. eigenvalues --    2.22494   2.23039   2.23894   2.24893   2.25032
 Alpha virt. eigenvalues --    2.25560   2.27299   2.28066   2.28608   2.29145
 Alpha virt. eigenvalues --    2.29882   2.30882   2.31709   2.32167   2.33704
 Alpha virt. eigenvalues --    2.34163   2.34995   2.35458   2.38767   2.40726
 Alpha virt. eigenvalues --    2.41198   2.42248   2.43789   2.45766   2.47767
 Alpha virt. eigenvalues --    2.48289   2.49034   2.51176   2.52317   2.52704
 Alpha virt. eigenvalues --    2.52833   2.54190   2.54571   2.55283   2.56115
 Alpha virt. eigenvalues --    2.56841   2.57357   2.58246   2.58759   2.59678
 Alpha virt. eigenvalues --    2.60884   2.61276   2.61538   2.61985   2.62298
 Alpha virt. eigenvalues --    2.62835   2.63670   2.64498   2.65920   2.66992
 Alpha virt. eigenvalues --    2.68049   2.68245   2.68739   2.70149   2.72342
 Alpha virt. eigenvalues --    2.72791   2.72975   2.74308   2.76148   2.76499
 Alpha virt. eigenvalues --    2.77015   2.77326   2.77919   2.78238   2.79233
 Alpha virt. eigenvalues --    2.79675   2.79977   2.80660   2.81160   2.81704
 Alpha virt. eigenvalues --    2.82525   2.83414   2.84188   2.84911   2.85940
 Alpha virt. eigenvalues --    2.86909   2.87462   2.89746   2.90442   2.91008
 Alpha virt. eigenvalues --    2.91866   2.93124   2.93757   2.93901   2.94023
 Alpha virt. eigenvalues --    2.94386   2.94878   2.95188   2.96443   2.96952
 Alpha virt. eigenvalues --    2.97576   2.98404   2.98912   2.99564   3.00728
 Alpha virt. eigenvalues --    3.01470   3.02806   3.03329   3.03961   3.04688
 Alpha virt. eigenvalues --    3.05887   3.06336   3.07755   3.09927   3.11401
 Alpha virt. eigenvalues --    3.12598   3.13204   3.14493   3.14544   3.16302
 Alpha virt. eigenvalues --    3.18134   3.18647   3.20328   3.20998   3.23086
 Alpha virt. eigenvalues --    3.23699   3.24400   3.25058   3.27204   3.27575
 Alpha virt. eigenvalues --    3.28917   3.30128   3.30820   3.32601   3.32891
 Alpha virt. eigenvalues --    3.33386   3.34090   3.35294   3.36741   3.38277
 Alpha virt. eigenvalues --    3.39373   3.41194   3.41970   3.42849   3.43310
 Alpha virt. eigenvalues --    3.43676   3.43731   3.47761   3.47934   3.49395
 Alpha virt. eigenvalues --    3.50179   3.51002   3.51846   3.53556   3.54136
 Alpha virt. eigenvalues --    3.55882   3.56879   3.58581   3.59593   3.61690
 Alpha virt. eigenvalues --    3.62912   3.66125   3.67040   3.69040   3.70123
 Alpha virt. eigenvalues --    3.73179   3.75165   3.75825   3.76987   3.79005
 Alpha virt. eigenvalues --    3.81893   3.82089   3.82709   3.85910   3.86670
 Alpha virt. eigenvalues --    3.87163   3.91503   3.92724   3.94778   3.94970
 Alpha virt. eigenvalues --    3.95932   3.99569   4.02014   4.02820   4.03676
 Alpha virt. eigenvalues --    4.04632   4.07975   4.11223   4.13654   4.14288
 Alpha virt. eigenvalues --    4.18657   4.20420   4.22624   4.24749   4.31686
 Alpha virt. eigenvalues --    4.34070   4.35301   4.38969   4.45226   4.50223
 Alpha virt. eigenvalues --    4.51313   4.64265   4.83620   4.94040   4.97211
 Alpha virt. eigenvalues --    4.97854   5.00539   5.12705   5.14285   5.15005
 Alpha virt. eigenvalues --    5.16538   5.16866   5.18311   5.21623   5.23526
 Alpha virt. eigenvalues --    5.36162   5.38052   5.40396   5.47821   5.53901
 Alpha virt. eigenvalues --    5.55450   5.86738   5.87618   5.90759   5.91446
 Alpha virt. eigenvalues --    5.92810   5.95889   8.13609   8.15767  17.42829
 Alpha virt. eigenvalues --   17.44545  17.63838  17.66559  17.73190  17.78140
 Alpha virt. eigenvalues --   23.61831  23.70248  23.84926  23.91032  23.94879
 Alpha virt. eigenvalues --   23.95870  23.96799  23.99280  23.99473  24.00380
 Alpha virt. eigenvalues --   24.02638  24.03819  24.05068  24.05807  24.07703
 Alpha virt. eigenvalues --   24.08010  24.08972  24.10880  24.13472  24.14999
 Alpha virt. eigenvalues --   24.15806  24.17857  24.26114  24.26855  24.27021
 Alpha virt. eigenvalues --   24.27815  35.69445  35.72201  50.10275  50.12634
 Alpha virt. eigenvalues --   50.15903  50.17788  50.19527  50.21254 189.39170
 Alpha virt. eigenvalues --  189.41708
          Condensed to atoms (all electrons):
 Mulliken charges:
               1
     1  C    0.318721
     2  C    0.081136
     3  C    0.137289
     4  C    0.317422
     5  C    0.322151
     6  C    0.051880
     7  C    0.150860
     8  C    0.185303
     9  C    0.218424
    10  C   -0.126891
    11  C    0.228776
    12  C    0.229944
    13  C   -0.644697
    14  C   -0.832892
    15  H    0.188988
    16  H    0.191345
    17  H    0.189888
    18  N   -0.126018
    19  N   -0.078056
    20  O   -0.273055
    21  O   -0.271894
    22  O   -0.276642
    23  O   -0.247853
    24  C   -0.276770
    25  H    0.195772
    26  H    0.193993
    27  H    0.206724
    28  C   -0.277486
    29  H    0.192425
    30  H    0.193626
    31  H    0.200669
    32  C   -0.050649
    33  C    0.172518
    34  S   -0.804258
    35  C   -0.100344
    36  H    0.230890
    37  C    0.076655
    38  O   -0.134072
    39  C    0.757998
    40  C   -0.308480
    41  C   -0.077377
    42  S   -0.330219
    43  H    0.180524
    44  H    0.162636
    45  H    0.171561
    46  C   -0.580856
    47  O   -0.110810
    48  C   -0.368783
    49  H    0.158228
    50  C   -0.305739
    51  H    0.189838
    52  H    0.159420
    53  H    0.187760
    54  H    0.160475
 Sum of Mulliken charges =  -0.00000
 Mulliken charges with hydrogens summed into heavy atoms:
               1
     1  C    0.318721
     2  C    0.081136
     3  C    0.137289
     4  C    0.317422
     5  C    0.322151
     6  C    0.241768
     7  C    0.150860
     8  C    0.185303
     9  C    0.218424
    10  C   -0.126891
    11  C    0.228776
    12  C    0.229944
    13  C   -0.453352
    14  C   -0.643904
    18  N   -0.126018
    19  N   -0.078056
    20  O   -0.273055
    21  O   -0.271894
    22  O   -0.276642
    23  O   -0.247853
    24  C    0.319719
    28  C    0.309235
    32  C   -0.050649
    33  C    0.403408
    34  S   -0.804258
    35  C   -0.100344
    37  C    0.076655
    38  O   -0.134072
    39  C    0.757998
    40  C    0.206241
    41  C   -0.077377
    42  S   -0.330219
    46  C   -0.422628
    47  O   -0.110810
    48  C   -0.178945
    50  C    0.201917
 Electronic spatial extent (au):  <R**2>=          22423.4683
 Charge=              0.0000 electrons
 Dipole moment (field-independent basis, Debye):
    X=              3.7263    Y=             -0.4807    Z=             -0.0475  Tot=              3.7575
 Quadrupole moment (field-independent basis, Debye-Ang):
   XX=           -214.9103   YY=           -203.2949   ZZ=           -223.2426
   XY=             -5.8500   XZ=             -2.2554   YZ=              1.7137
 Traceless Quadrupole moment (field-independent basis, Debye-Ang):
   XX=             -1.0944   YY=             10.5210   ZZ=             -9.4266
   XY=             -5.8500   XZ=             -2.2554   YZ=              1.7137
 Octapole moment (field-independent basis, Debye-Ang**2):
  XXX=            359.2767  YYY=            -16.8431  ZZZ=              2.1968  XYY=            141.5006
  XXY=            -89.1412  XXZ=              6.2986  XZZ=            -16.4576  YZZ=             -0.4025
  YYZ=              1.1712  XYZ=              1.8413
 Hexadecapole moment (field-independent basis, Debye-Ang**3):
 XXXX=         -20487.1201 YYYY=          -7890.7216 ZZZZ=           -295.2712 XXXY=           -601.1675
 XXXZ=            -83.7531 YYYX=            205.7095 YYYZ=             44.9431 ZZZX=             -0.0721
 ZZZY=              0.6544 XXYY=          -4910.5695 XXZZ=          -3748.8972 YYZZ=          -1457.6246
 XXYZ=             20.8118 YYXZ=            -53.9430 ZZXY=             25.2147
 N-N= 4.092779272970D+03 E-N=-1.372474678515D+04  KE= 2.351363387505D+03
 Calling FoFJK, ICntrl=      2127 FMM=F ISym2X=0 I1Cent= 0 IOpClX= 0 NMat=1 NMatS=1 NMatT=0.
 ***** Axes restored to original set *****
 -------------------------------------------------------------------
 Center     Atomic                   Forces (Hartrees/Bohr)
 Number     Number              X              Y              Z
 -------------------------------------------------------------------
      1        6           0.006857939   -0.014410324   -0.001441363
      2        6           0.010346468    0.005090073   -0.000455750
      3        6          -0.001950954    0.004866246    0.000767206
      4        6           0.000176693    0.007731205    0.001263555
      5        6          -0.011696323   -0.008875807   -0.000994545
      6        6          -0.012432033   -0.001831129   -0.003409206
      7        6          -0.003926853   -0.003564164    0.000521323
      8        6           0.005207350   -0.001506071    0.004513842
      9        6           0.002114325    0.005872084    0.000583538
     10        6          -0.005013143    0.001674331   -0.000036993
     11        6          -0.008769482    0.011453099    0.001340630
     12        6          -0.002003374   -0.004829638   -0.000569430
     13        6           0.005283875   -0.000933753   -0.000327170
     14        6           0.006013557   -0.002184213   -0.000370760
     15        1           0.000397885    0.000710733    0.000024792
     16        1           0.000375777   -0.000953494   -0.000212247
     17        1          -0.002093675   -0.000851260    0.001939196
     18        7           0.003780207   -0.002110918   -0.001252296
     19        7           0.000838896    0.001903743    0.000082336
     20        8          -0.014206573    0.014764520    0.001985818
     21        8           0.018477265    0.006136714    0.000542833
     22        8           0.015253432   -0.013303678   -0.001759567
     23        8          -0.049466965    0.016818307    0.013216243
     24        6           0.000917673   -0.001703574   -0.001515002
     25        1          -0.001063141   -0.000342936   -0.000184789
     26        1          -0.001721320   -0.000782450    0.000851012
     27        1           0.000681083    0.000034591    0.000069921
     28        6           0.001255226    0.001925714   -0.000121038
     29        1          -0.000853469    0.000847660    0.000900456
     30        1          -0.000614351    0.000847561   -0.000318870
     31        1           0.000642200   -0.000240723   -0.000017794
     32        6           0.000240394    0.001040068   -0.002653056
     33        6           0.027551570   -0.007205754   -0.008559888
     34       16           0.005513584    0.008722797    0.001385287
     35        6           0.004561551   -0.014463455   -0.003127463
     36        1           0.015382253   -0.012754424   -0.006548635
     37        6          -0.012144205    0.008275969    0.004077891
     38        8          -0.005863887    0.001295387    0.002810370
     39        6           0.012910374   -0.007035025   -0.003753354
     40        6           0.000578785   -0.003496108   -0.000775130
     41        6          -0.006062067    0.004353392    0.001999040
     42       16          -0.002424501   -0.009834502   -0.001838249
     43        1          -0.000873414   -0.001292245   -0.000009617
     44        1           0.000302834   -0.001139361    0.000387741
     45        1           0.000754086   -0.000485654   -0.001588566
     46        6           0.000425994    0.005032969    0.000809488
     47        8           0.007142001   -0.000292559   -0.001367739
     48        6          -0.008066111   -0.000451119    0.001114525
     49        1          -0.000155155    0.000864647    0.000144892
     50        6          -0.000203190    0.004114068    0.000871427
     51        1          -0.001225016   -0.000145249    0.000242318
     52        1          -0.000894686    0.001015106   -0.000023586
     53        1           0.000567723    0.000873500    0.000089678
     54        1          -0.000827112    0.000755106    0.000696746
 -------------------------------------------------------------------
 Cartesian Forces:  Max     0.049466965 RMS     0.007045510

 GradGradGradGradGradGradGradGradGradGradGradGradGradGradGradGradGradGrad
 Berny optimization.
 FormGI is forming the generalized inverse of G from B-inverse, IUseBI=4.
 Internal  Forces:  Max     0.129514609 RMS     0.015622121
 Search for a local minimum.
 Step number   1 out of a maximum of  307
 All quantities printed in internal units (Hartrees-Bohrs-Radians)
 Mixed Optimization -- RFO/linear search
 Second derivative matrix not updated -- first step.
 ITU=  0
     Eigenvalues ---    0.00803   0.00803   0.01176   0.01203   0.01245
     Eigenvalues ---    0.01292   0.01308   0.01311   0.01363   0.01374
     Eigenvalues ---    0.01419   0.01429   0.01456   0.01496   0.01515
     Eigenvalues ---    0.01568   0.01573   0.01577   0.01625   0.01651
     Eigenvalues ---    0.01697   0.01711   0.01712   0.01719   0.01754
     Eigenvalues ---    0.01783   0.01803   0.01847   0.01964   0.02040
     Eigenvalues ---    0.02045   0.02068   0.02075   0.02080   0.02135
     Eigenvalues ---    0.02149   0.02163   0.02179   0.02197   0.02228
     Eigenvalues ---    0.02232   0.02246   0.07556   0.07572   0.07690
     Eigenvalues ---    0.07700   0.10062   0.10066   0.10632   0.10636
     Eigenvalues ---    0.15983   0.15999   0.15999   0.16000   0.16000
     Eigenvalues ---    0.16000   0.16000   0.16000   0.16000   0.16000
     Eigenvalues ---    0.16000   0.16000   0.16000   0.16000   0.16000
     Eigenvalues ---    0.16000   0.16000   0.16000   0.22531   0.22583
     Eigenvalues ---    0.23518   0.23581   0.24516   0.24747   0.24865
     Eigenvalues ---    0.24931   0.24952   0.24985   0.24987   0.24988
     Eigenvalues ---    0.24991   0.24994   0.24997   0.24997   0.24998
     Eigenvalues ---    0.24998   0.25000   0.25000   0.25000   0.25000
     Eigenvalues ---    0.25000   0.25000   0.25000   0.25000   0.25000
     Eigenvalues ---    0.25000   0.28784   0.28852   0.30092   0.32126
     Eigenvalues ---    0.32582   0.32774   0.33111   0.33787   0.34021
     Eigenvalues ---    0.34082   0.34086   0.34136   0.34354   0.34466
     Eigenvalues ---    0.34577   0.34629   0.34693   0.34742   0.34877
     Eigenvalues ---    0.35198   0.35218   0.35468   0.35553   0.35582
     Eigenvalues ---    0.35788   0.35844   0.36078   0.36083   0.36237
     Eigenvalues ---    0.36396   0.36662   0.39352   0.40194   0.40269
     Eigenvalues ---    0.40651   0.40705   0.41524   0.41736   0.41859
     Eigenvalues ---    0.42300   0.42732   0.43455   0.43862   0.44092
     Eigenvalues ---    0.44594   0.44655   0.45014   0.45406   0.46251
     Eigenvalues ---    0.47305   0.47603   0.49310   0.49531   0.53062
     Eigenvalues ---    0.53120   0.93281   0.93432   0.93989   0.94585
     Eigenvalues --- 1000.000001000.000001000.000001000.000001000.00000
     Eigenvalues --- 1000.000001000.000001000.000001000.000001000.00000
     Eigenvalues --- 1000.000001000.000001000.000001000.000001000.00000
     Eigenvalues --- 1000.000001000.000001000.000001000.000001000.00000
     Eigenvalues --- 1000.000001000.000001000.000001000.000001000.00000
     Eigenvalues --- 1000.000001000.000001000.000001000.000001000.00000
     Eigenvalues --- 1000.000001000.000001000.000001000.000001000.00000
     Eigenvalues --- 1000.000001000.000001000.000001000.000001000.00000
     Eigenvalues --- 1000.000001000.000001000.000001000.000001000.00000
     Eigenvalues --- 1000.000001000.000001000.000001000.000001000.00000
     Eigenvalues --- 1000.000001000.000001000.000001000.000001000.00000
     Eigenvalues --- 1000.000001000.000001000.000001000.000001000.00000
     Eigenvalues --- 1000.000001000.000001000.000001000.000001000.00000
     Eigenvalues --- 1000.000001000.000001000.000001000.000001000.00000
     Eigenvalues --- 1000.000001000.000001000.000001000.000001000.00000
     Eigenvalues --- 1000.000001000.000001000.000001000.000001000.00000
     Eigenvalues --- 1000.000001000.000001000.000001000.000001000.00000
     Eigenvalues --- 1000.000001000.000001000.000001000.000001000.00000
     Eigenvalues --- 1000.000001000.000001000.000001000.000001000.00000
     Eigenvalues --- 1000.000001000.000001000.000001000.000001000.00000
     Eigenvalues --- 1000.000001000.000001000.000001000.000001000.00000
     Eigenvalues --- 1000.000001000.000001000.000001000.000001000.00000
     Eigenvalues --- 1000.000001000.000001000.000001000.000001000.00000
     Eigenvalues --- 1000.000001000.000001000.000001000.000001000.00000
     Eigenvalues --- 1000.000001000.000001000.000001000.000001000.00000
     Eigenvalues --- 1000.000001000.000001000.000001000.000001000.00000
     Eigenvalues --- 1000.000001000.000001000.000001000.000001000.00000
     Eigenvalues --- 1000.000001000.000001000.000001000.000001000.00000
     Eigenvalues --- 1000.000001000.00000
 RFO step:  Lambda=-1.64994938D-01 EMin= 8.02933640D-03
 Linear search not attempted -- first point.
 Maximum step size (   0.300) exceeded in Quadratic search.
    -- Step size scaled by   0.492
 Iteration  1 RMS(Cart)=  0.31306903 RMS(Int)=  0.00792073
 Iteration  2 RMS(Cart)=  0.09846855 RMS(Int)=  0.00060398
 Iteration  3 RMS(Cart)=  0.00203864 RMS(Int)=  0.00014979
 Iteration  4 RMS(Cart)=  0.00000041 RMS(Int)=  0.00014979
 Iteration  1 RMS(Cart)=  0.00001818 RMS(Int)=  0.00000328
 Iteration  2 RMS(Cart)=  0.00001032 RMS(Int)=  0.00000366
 Iteration  3 RMS(Cart)=  0.00000586 RMS(Int)=  0.00000415
 Iteration  4 RMS(Cart)=  0.00000333 RMS(Int)=  0.00000449
 Iteration  5 RMS(Cart)=  0.00000189 RMS(Int)=  0.00000469
 Iteration  6 RMS(Cart)=  0.00000107 RMS(Int)=  0.00000482
 Iteration  7 RMS(Cart)=  0.00000061 RMS(Int)=  0.00000489
 Variable       Old X    -DE/DX   Delta X   Delta X   Delta X     New X
                                 (Linear)    (Quad)   (Total)
    R1        2.80935  -0.00127   0.00000  -0.00164  -0.00163   2.80772
    R2        2.64584  -0.01141   0.00000  -0.00924  -0.00923   2.63661
    R3        2.31147  -0.02058   0.00000  -0.00917  -0.00917   2.30230
    R4        2.67311  -0.01839   0.00000  -0.01713  -0.01723   2.65588
    R5        2.59267  -0.02932   0.00000  -0.02372  -0.02375   2.56893
    R6        2.66894  -0.00133   0.00000  -0.00093  -0.00095   2.66799
    R7        2.69164  -0.00322   0.00000  -0.00116  -0.00118   2.69046
    R8        2.81049  -0.00165   0.00000  -0.00123  -0.00123   2.80926
    R9        2.62173  -0.01665   0.00000  -0.01362  -0.01364   2.60808
   R10        2.65570  -0.01153   0.00000  -0.00917  -0.00916   2.64654
   R11        2.30889  -0.01948   0.00000  -0.00863  -0.00863   2.30026
   R12        2.70248   0.00124   0.00000   0.00028   0.00034   2.70282
   R13        2.04786  -0.00115   0.00000  -0.00108  -0.00108   2.04677
   R14        2.70495   0.03203   0.00000   0.03207   0.03220   2.73715
   R15        2.68322   0.00477   0.00000   0.00597   0.00597   2.68919
   R16        2.68655   0.05859   0.00000   0.05103   0.05111   2.73766
   R17        2.81233   0.02442   0.00000   0.02493   0.02504   2.83737
   R18        2.76359   0.03388   0.00000   0.03136   0.03136   2.79496
   R19        2.66221  -0.01392   0.00000  -0.01237  -0.01236   2.64985
   R20        2.31391  -0.03686   0.00000  -0.01650  -0.01650   2.29740
   R21        2.79415  -0.01883   0.00000  -0.01904  -0.01916   2.77499
   R22        2.63842  -0.02556   0.00000  -0.02182  -0.02191   2.61650
   R23        2.31456  -0.02031   0.00000  -0.00910  -0.00910   2.30546
   R24        2.62448  -0.00898   0.00000  -0.00686  -0.00686   2.61762
   R25        2.64561  -0.01493   0.00000  -0.01268  -0.01270   2.63291
   R26        2.04921  -0.00095   0.00000  -0.00090  -0.00090   2.04831
   R27        2.04741  -0.00060   0.00000  -0.00057  -0.00057   2.04684
   R28        2.77259  -0.00309   0.00000  -0.00289  -0.00289   2.76970
   R29        2.77252  -0.00342   0.00000  -0.00321  -0.00321   2.76932
   R30        2.06176  -0.00073   0.00000  -0.00070  -0.00070   2.06106
   R31        2.06551  -0.00189   0.00000  -0.00183  -0.00183   2.06369
   R32        2.05322  -0.00056   0.00000  -0.00054  -0.00054   2.05269
   R33        2.06368  -0.00139   0.00000  -0.00134  -0.00134   2.06234
   R34        2.06281  -0.00093   0.00000  -0.00089  -0.00089   2.06192
   R35        2.05355  -0.00061   0.00000  -0.00058  -0.00058   2.05297
   R36        2.61021   0.00744   0.00000   0.00610   0.00613   2.61634
   R37        3.33417   0.00251   0.00000   0.00346   0.00350   3.33767
   R38        2.66200  -0.00201   0.00000  -0.00178  -0.00180   2.66021
   R39        2.03712  -0.01913   0.00000  -0.01785  -0.01785   2.01927
   R40        3.30410  -0.01763   0.00000  -0.01885  -0.01887   3.28523
   R41        2.64361  -0.02310   0.00000  -0.01889  -0.01893   2.62468
   R42        2.56896  -0.00724   0.00000  -0.00512  -0.00512   2.56384
   R43        2.71189   0.00154   0.00000   0.00134   0.00134   2.71323
   R44        2.69260  -0.00666   0.00000  -0.00563  -0.00563   2.68697
   R45        2.63296  -0.01161   0.00000  -0.00912  -0.00912   2.62384
   R46        3.32990  -0.00846   0.00000  -0.00900  -0.00900   3.32090
   R47        2.06095  -0.00144   0.00000  -0.00139  -0.00139   2.05957
   R48        2.07100  -0.00090   0.00000  -0.00087  -0.00087   2.07013
   R49        2.07295  -0.00175   0.00000  -0.00170  -0.00170   2.07125
   R50        2.69068  -0.00400   0.00000  -0.00350  -0.00350   2.68718
   R51        2.56842  -0.00868   0.00000  -0.00613  -0.00613   2.56229
   R52        3.26260  -0.00772   0.00000  -0.00754  -0.00754   3.25505
   R53        2.58737  -0.00756   0.00000  -0.00551  -0.00551   2.58186
   R54        2.04414  -0.00086   0.00000  -0.00080  -0.00080   2.04333
   R55        2.69103  -0.00705   0.00000  -0.00595  -0.00595   2.68508
   R56        2.04326  -0.00125   0.00000  -0.00118  -0.00118   2.04208
   R57        2.07185  -0.00096   0.00000  -0.00093  -0.00093   2.07092
   R58        2.05876  -0.00096   0.00000  -0.00092  -0.00092   2.05784
   R59        2.07192  -0.00100   0.00000  -0.00097  -0.00097   2.07095
    A1        2.03797   0.00190   0.00000   0.00108   0.00107   2.03904
    A2        2.14521  -0.00160   0.00000  -0.00131  -0.00131   2.14390
    A3        2.10001  -0.00030   0.00000   0.00023   0.00024   2.10025
    A4        2.10395   0.00656   0.00000   0.00946   0.00949   2.11344
    A5        2.08282  -0.00909   0.00000  -0.00757  -0.00751   2.07532
    A6        2.09624   0.00252   0.00000  -0.00195  -0.00205   2.09419
    A7        2.10093  -0.00941   0.00000  -0.01211  -0.01209   2.08884
    A8        2.07104  -0.00005   0.00000  -0.00201  -0.00213   2.06891
    A9        2.11118   0.00946   0.00000   0.01412   0.01421   2.12539
   A10        2.10296   0.00441   0.00000   0.00586   0.00584   2.10880
   A11        2.09911   0.00392   0.00000   0.00408   0.00405   2.10316
   A12        2.08110  -0.00833   0.00000  -0.00994  -0.00989   2.07121
   A13        2.03739   0.00058   0.00000   0.00100   0.00098   2.03837
   A14        2.12972  -0.00017   0.00000  -0.00036  -0.00034   2.12938
   A15        2.11607  -0.00041   0.00000  -0.00065  -0.00063   2.11543
   A16        2.15098   0.02830   0.00000   0.03227   0.03232   2.18330
   A17        2.04399  -0.01628   0.00000  -0.01944  -0.01945   2.02454
   A18        2.08722  -0.01206   0.00000  -0.01297  -0.01302   2.07421
   A19        2.11101   0.01257   0.00000   0.01558   0.01551   2.12652
   A20        2.04385  -0.02300   0.00000  -0.02917  -0.02918   2.01467
   A21        2.12832   0.01043   0.00000   0.01359   0.01367   2.14200
   A22        2.08678  -0.02432   0.00000  -0.02428  -0.02429   2.06250
   A23        2.04738  -0.04296   0.00000  -0.04913  -0.04892   1.99846
   A24        2.14662   0.06725   0.00000   0.07330   0.07311   2.21973
   A25        2.04892  -0.01926   0.00000  -0.02014  -0.01996   2.02896
   A26        2.00754  -0.11032   0.00000  -0.13235  -0.13241   1.87513
   A27        2.22643   0.12951   0.00000   0.15217   0.15200   2.37842
   A28        2.06022   0.02028   0.00000   0.02518   0.02530   2.08553
   A29        2.17370   0.03350   0.00000   0.03913   0.03904   2.21273
   A30        2.04919  -0.05383   0.00000  -0.06443  -0.06451   1.98467
   A31        2.01621  -0.00513   0.00000  -0.00872  -0.00895   2.00725
   A32        2.14188   0.00314   0.00000   0.00502   0.00513   2.14700
   A33        2.12500   0.00195   0.00000   0.00361   0.00372   2.12871
   A34        2.10943   0.00788   0.00000   0.00996   0.00982   2.11925
   A35        2.11468   0.01239   0.00000   0.01630   0.01637   2.13105
   A36        2.05896  -0.02028   0.00000  -0.02627  -0.02620   2.03277
   A37        2.11176   0.00225   0.00000   0.00277   0.00272   2.11447
   A38        2.05670  -0.00068   0.00000  -0.00071  -0.00068   2.05602
   A39        2.11471  -0.00157   0.00000  -0.00207  -0.00204   2.11267
   A40        2.08567  -0.00502   0.00000  -0.00810  -0.00818   2.07749
   A41        2.07549   0.00307   0.00000   0.00489   0.00493   2.08043
   A42        2.12199   0.00195   0.00000   0.00321   0.00325   2.12524
   A43        2.20043   0.00916   0.00000   0.00819   0.00810   2.20853
   A44        2.02023  -0.00412   0.00000  -0.00356  -0.00351   2.01672
   A45        2.06252  -0.00504   0.00000  -0.00464  -0.00460   2.05793
   A46        2.18316  -0.00404   0.00000  -0.00529  -0.00529   2.17786
   A47        2.02959   0.00196   0.00000   0.00257   0.00257   2.03216
   A48        2.07044   0.00208   0.00000   0.00271   0.00272   2.07316
   A49        1.91737  -0.00047   0.00000  -0.00066  -0.00066   1.91671
   A50        1.91808  -0.00036   0.00000  -0.00049  -0.00049   1.91759
   A51        1.87685   0.00050   0.00000   0.00066   0.00066   1.87751
[...]
 Alpha  occ. eigenvalues --   -0.66513  -0.65878  -0.65490  -0.64573  -0.63933
 Alpha  occ. eigenvalues --   -0.62325  -0.60608  -0.59747  -0.59273  -0.58763
 Alpha  occ. eigenvalues --   -0.58437  -0.57666  -0.57634  -0.57287  -0.57160
 Alpha  occ. eigenvalues --   -0.56776  -0.55918  -0.55366  -0.55057  -0.54595
 Alpha  occ. eigenvalues --   -0.53788  -0.53770  -0.53468  -0.53073  -0.51901
 Alpha  occ. eigenvalues --   -0.51494  -0.51204  -0.50962  -0.50714  -0.50475
 Alpha  occ. eigenvalues --   -0.50169  -0.49558  -0.49494  -0.48924  -0.48391
 Alpha  occ. eigenvalues --   -0.47942  -0.47865  -0.46810  -0.46066  -0.45221
 Alpha  occ. eigenvalues --   -0.44923  -0.44167  -0.42600  -0.41885  -0.41704
 Alpha  occ. eigenvalues --   -0.40972  -0.40036  -0.39572  -0.38497  -0.37924
 Alpha  occ. eigenvalues --   -0.37198  -0.37099  -0.36668  -0.36433  -0.34578
 Alpha  occ. eigenvalues --   -0.33182  -0.32034  -0.31804  -0.25773
 Alpha virt. eigenvalues --   -0.07093  -0.01461   0.00583   0.02587   0.03708
 Alpha virt. eigenvalues --    0.05280   0.05699   0.06058   0.06738   0.07036
 Alpha virt. eigenvalues --    0.07129   0.07277   0.07856   0.08117   0.08263
 Alpha virt. eigenvalues --    0.08468   0.08585   0.08923   0.09065   0.09302
 Alpha virt. eigenvalues --    0.09499   0.09790   0.09925   0.10273   0.10551
 Alpha virt. eigenvalues --    0.10641   0.11097   0.11338   0.11484   0.11769
 Alpha virt. eigenvalues --    0.11998   0.12178   0.12665   0.12852   0.12887
 Alpha virt. eigenvalues --    0.13254   0.13681   0.13805   0.14223   0.14528
 Alpha virt. eigenvalues --    0.14586   0.14658   0.15216   0.15422   0.15668
 Alpha virt. eigenvalues --    0.15838   0.16334   0.16598   0.16821   0.17344
 Alpha virt. eigenvalues --    0.17453   0.17612   0.17807   0.18174   0.18200
 Alpha virt. eigenvalues --    0.18511   0.18736   0.18927   0.19543   0.19606
 Alpha virt. eigenvalues --    0.19791   0.20055   0.20301   0.20416   0.20513
 Alpha virt. eigenvalues --    0.21144   0.21302   0.21587   0.21782   0.21910
 Alpha virt. eigenvalues --    0.22004   0.22336   0.22400   0.22668   0.22802
 Alpha virt. eigenvalues --    0.23130   0.23616   0.23735   0.24015   0.24186
 Alpha virt. eigenvalues --    0.24371   0.24642   0.24735   0.24979   0.25186
 Alpha virt. eigenvalues --    0.25319   0.25637   0.25847   0.26115   0.26174
 Alpha virt. eigenvalues --    0.26499   0.26671   0.26707   0.26898   0.27222
 Alpha virt. eigenvalues --    0.27378   0.27449   0.27529   0.27679   0.28213
 Alpha virt. eigenvalues --    0.28448   0.28669   0.28805   0.29110   0.29202
 Alpha virt. eigenvalues --    0.29373   0.29700   0.29933   0.30198   0.30463
 Alpha virt. eigenvalues --    0.30603   0.30807   0.30966   0.31108   0.31407
 Alpha virt. eigenvalues --    0.31494   0.31706   0.31905   0.32210   0.32278
 Alpha virt. eigenvalues --    0.32439   0.32482   0.32751   0.32954   0.33239
 Alpha virt. eigenvalues --    0.33543   0.33584   0.33824   0.34094   0.34227
 Alpha virt. eigenvalues --    0.34350   0.34696   0.34983   0.35390   0.35440
 Alpha virt. eigenvalues --    0.35595   0.35872   0.36138   0.36384   0.36568
 Alpha virt. eigenvalues --    0.36732   0.37129   0.37449   0.37685   0.38004
 Alpha virt. eigenvalues --    0.38070   0.38559   0.39084   0.39505   0.39677
 Alpha virt. eigenvalues --    0.39948   0.40108   0.40274   0.40444   0.40533
 Alpha virt. eigenvalues --    0.40932   0.41437   0.41847   0.41907   0.42055
 Alpha virt. eigenvalues --    0.42196   0.42440   0.42802   0.43422   0.43494
 Alpha virt. eigenvalues --    0.44062   0.44298   0.44753   0.45115   0.45288
 Alpha virt. eigenvalues --    0.45765   0.45963   0.46523   0.46720   0.47179
 Alpha virt. eigenvalues --    0.47333   0.47866   0.48102   0.48537   0.49401
 Alpha virt. eigenvalues --    0.49804   0.50205   0.50233   0.50572   0.51202
 Alpha virt. eigenvalues --    0.51606   0.52164   0.52433   0.52906   0.53090
 Alpha virt. eigenvalues --    0.53742   0.53845   0.54071   0.54407   0.54771
 Alpha virt. eigenvalues --    0.55345   0.56098   0.56972   0.57282   0.57712
 Alpha virt. eigenvalues --    0.57927   0.58364   0.59118   0.59265   0.60067
 Alpha virt. eigenvalues --    0.60528   0.60973   0.61531   0.61832   0.62398
 Alpha virt. eigenvalues --    0.62800   0.62981   0.63441   0.63620   0.63862
 Alpha virt. eigenvalues --    0.64402   0.64782   0.64954   0.65212   0.65381
 Alpha virt. eigenvalues --    0.65717   0.66260   0.66378   0.67100   0.67543
 Alpha virt. eigenvalues --    0.67747   0.68826   0.69396   0.69444   0.69608
 Alpha virt. eigenvalues --    0.70008   0.70192   0.70400   0.70538   0.70950
 Alpha virt. eigenvalues --    0.71508   0.72072   0.72309   0.73102   0.73316
 Alpha virt. eigenvalues --    0.73374   0.73748   0.74105   0.74245   0.74832
 Alpha virt. eigenvalues --    0.75148   0.75608   0.76164   0.76270   0.76968
 Alpha virt. eigenvalues --    0.77368   0.77791   0.78024   0.78367   0.78507
 Alpha virt. eigenvalues --    0.78974   0.79413   0.79788   0.80142   0.80537
 Alpha virt. eigenvalues --    0.81049   0.81188   0.81790   0.82290   0.82773
 Alpha virt. eigenvalues --    0.83335   0.83365   0.83691   0.83962   0.84083
 Alpha virt. eigenvalues --    0.84304   0.84814   0.85042   0.85313   0.85868
 Alpha virt. eigenvalues --    0.86277   0.86691   0.86962   0.87700   0.87896
 Alpha virt. eigenvalues --    0.88208   0.88568   0.89697   0.89930   0.90781
 Alpha virt. eigenvalues --    0.91570   0.92259   0.92951   0.93564   0.93892
 Alpha virt. eigenvalues --    0.94553   0.95077   0.95755   0.96783   0.97326
 Alpha virt. eigenvalues --    0.98132   0.98194   0.98724   0.99584   1.00026
 Alpha virt. eigenvalues --    1.00592   1.00774   1.01111   1.01319   1.01771
 Alpha virt. eigenvalues --    1.02208   1.02790   1.03125   1.03558   1.03913
 Alpha virt. eigenvalues --    1.04279   1.04574   1.05303   1.05660   1.06198
 Alpha virt. eigenvalues --    1.06513   1.07052   1.07446   1.08245   1.08751
 Alpha virt. eigenvalues --    1.08796   1.09567   1.10266   1.10453   1.11094
 Alpha virt. eigenvalues --    1.11480   1.11941   1.12023   1.12818   1.13432
 Alpha virt. eigenvalues --    1.13757   1.14351   1.14505   1.15183   1.15260
 Alpha virt. eigenvalues --    1.15508   1.16012   1.16474   1.17137   1.17259
 Alpha virt. eigenvalues --    1.17978   1.18243   1.18743   1.19112   1.19325
 Alpha virt. eigenvalues --    1.19977   1.21136   1.22329   1.22574   1.23502
 Alpha virt. eigenvalues --    1.24751   1.25842   1.25983   1.26311   1.26768
 Alpha virt. eigenvalues --    1.27030   1.27639   1.28752   1.29270   1.29945
 Alpha virt. eigenvalues --    1.30634   1.31580   1.31868   1.33017   1.33610
 Alpha virt. eigenvalues --    1.33713   1.33995   1.34634   1.34858   1.35501
 Alpha virt. eigenvalues --    1.36652   1.37597   1.38769   1.39651   1.40155
 Alpha virt. eigenvalues --    1.41340   1.41621   1.42306   1.43410   1.43867
 Alpha virt. eigenvalues --    1.44232   1.44407   1.45836   1.46568   1.47150
 Alpha virt. eigenvalues --    1.48482   1.49514   1.49853   1.51169   1.51348
 Alpha virt. eigenvalues --    1.51503   1.51931   1.52143   1.52773   1.52951
 Alpha virt. eigenvalues --    1.53537   1.54024   1.54362   1.54737   1.55197
 Alpha virt. eigenvalues --    1.55479   1.56276   1.56803   1.57247   1.57802
 Alpha virt. eigenvalues --    1.58505   1.59582   1.60172   1.60562   1.61455
 Alpha virt. eigenvalues --    1.61974   1.62259   1.63099   1.63323   1.63743
 Alpha virt. eigenvalues --    1.63962   1.64532   1.65439   1.65812   1.66799
 Alpha virt. eigenvalues --    1.66951   1.67347   1.68593   1.69496   1.70013
 Alpha virt. eigenvalues --    1.70756   1.71799   1.72166   1.72497   1.73473
 Alpha virt. eigenvalues --    1.74221   1.74687   1.75319   1.76062   1.76659
 Alpha virt. eigenvalues --    1.77323   1.77706   1.78081   1.78367   1.78798
 Alpha virt. eigenvalues --    1.79421   1.79589   1.80194   1.80264   1.80812
 Alpha virt. eigenvalues --    1.81983   1.82914   1.83860   1.84158   1.84576
 Alpha virt. eigenvalues --    1.85230   1.85393   1.86398   1.87643   1.88064
 Alpha virt. eigenvalues --    1.88370   1.88832   1.89711   1.89821   1.91756
 Alpha virt. eigenvalues --    1.92741   1.93747   1.93947   1.94231   1.94626
 Alpha virt. eigenvalues --    1.95160   1.95855   1.96516   1.97456   1.97874
 Alpha virt. eigenvalues --    1.98312   1.99150   1.99396   1.99980   2.00174
 Alpha virt. eigenvalues --    2.01455   2.02748   2.02930   2.03536   2.04258
 Alpha virt. eigenvalues --    2.05215   2.05505   2.06098   2.06912   2.08039
 Alpha virt. eigenvalues --    2.09112   2.09373   2.10307   2.10626   2.11465
 Alpha virt. eigenvalues --    2.11883   2.12155   2.12774   2.13217   2.13980
 Alpha virt. eigenvalues --    2.14999   2.15688   2.15899   2.16450   2.17251
 Alpha virt. eigenvalues --    2.18133   2.18751   2.19871   2.20376   2.20878
 Alpha virt. eigenvalues --    2.22161   2.22822   2.23034   2.24188   2.24407
 Alpha virt. eigenvalues --    2.25229   2.25752   2.27318   2.27727   2.28679
 Alpha virt. eigenvalues --    2.29217   2.30281   2.31478   2.31826   2.32930
 Alpha virt. eigenvalues --    2.33743   2.34487   2.35163   2.35429   2.37996
 Alpha virt. eigenvalues --    2.40677   2.41519   2.44024   2.44777   2.47295
 Alpha virt. eigenvalues --    2.47939   2.48299   2.49738   2.51291   2.52695
 Alpha virt. eigenvalues --    2.52977   2.53662   2.54457   2.55187   2.55449
 Alpha virt. eigenvalues --    2.56376   2.56850   2.57634   2.58213   2.59817
 Alpha virt. eigenvalues --    2.60248   2.60778   2.61594   2.61846   2.62535
 Alpha virt. eigenvalues --    2.63179   2.64023   2.64208   2.65323   2.66829
 Alpha virt. eigenvalues --    2.67237   2.68195   2.69154   2.69288   2.71041
 Alpha virt. eigenvalues --    2.72430   2.73424   2.73958   2.74497   2.76422
 Alpha virt. eigenvalues --    2.76860   2.77628   2.77856   2.78017   2.78757
 Alpha virt. eigenvalues --    2.79150   2.80605   2.81000   2.81197   2.81661
 Alpha virt. eigenvalues --    2.82164   2.82884   2.83830   2.84654   2.85247
 Alpha virt. eigenvalues --    2.86939   2.87636   2.87818   2.89178   2.90627
 Alpha virt. eigenvalues --    2.91263   2.92116   2.93111   2.94015   2.94632
 Alpha virt. eigenvalues --    2.94967   2.95169   2.95677   2.95844   2.96880
 Alpha virt. eigenvalues --    2.97080   2.98586   2.98942   2.99635   3.00463
 Alpha virt. eigenvalues --    3.01675   3.02008   3.02517   3.03280   3.03978
 Alpha virt. eigenvalues --    3.05237   3.05713   3.06943   3.08167   3.11152
 Alpha virt. eigenvalues --    3.12241   3.12556   3.13437   3.14205   3.14846
 Alpha virt. eigenvalues --    3.15894   3.17466   3.18756   3.19410   3.19706
 Alpha virt. eigenvalues --    3.22847   3.23677   3.24437   3.25793   3.26482
 Alpha virt. eigenvalues --    3.27783   3.29223   3.29715   3.32206   3.33358
 Alpha virt. eigenvalues --    3.33700   3.34238   3.35131   3.36078   3.37037
 Alpha virt. eigenvalues --    3.39374   3.40444   3.42771   3.43368   3.44371
 Alpha virt. eigenvalues --    3.44928   3.45354   3.46249   3.47211   3.49551
 Alpha virt. eigenvalues --    3.50060   3.51646   3.52329   3.53851   3.54737
 Alpha virt. eigenvalues --    3.55126   3.56489   3.57178   3.59513   3.60488
 Alpha virt. eigenvalues --    3.62263   3.64316   3.66213   3.68829   3.70793
 Alpha virt. eigenvalues --    3.71094   3.72412   3.75340   3.76432   3.77894
 Alpha virt. eigenvalues --    3.78963   3.80479   3.82766   3.84476   3.86832
 Alpha virt. eigenvalues --    3.87122   3.87514   3.91095   3.93716   3.95098
 Alpha virt. eigenvalues --    3.95627   3.95877   3.99800   4.01727   4.03003
 Alpha virt. eigenvalues --    4.04522   4.05265   4.07933   4.11591   4.13448
 Alpha virt. eigenvalues --    4.14335   4.18864   4.21302   4.22232   4.25641
 Alpha virt. eigenvalues --    4.30880   4.34263   4.35367   4.37611   4.45350
 Alpha virt. eigenvalues --    4.49227   4.51099   4.64064   4.82474   4.95373
 Alpha virt. eigenvalues --    4.96693   4.98787   5.01083   5.12698   5.14034
 Alpha virt. eigenvalues --    5.15375   5.16858   5.18068   5.21144   5.23548
 Alpha virt. eigenvalues --    5.23859   5.36466   5.38101   5.39120   5.41100
 Alpha virt. eigenvalues --    5.54969   5.56049   5.87693   5.89406   5.90569
 Alpha virt. eigenvalues --    5.93250   5.93965   5.94591   8.15059   8.17528
 Alpha virt. eigenvalues --   17.42828  17.44487  17.64597  17.67312  17.73519
 Alpha virt. eigenvalues --   17.79589  23.62033  23.70357  23.84798  23.91721
 Alpha virt. eigenvalues --   23.96216  23.97258  23.98388  24.00585  24.01459
 Alpha virt. eigenvalues --   24.01993  24.02679  24.04357  24.05342  24.06890
 Alpha virt. eigenvalues --   24.08323  24.09695  24.10114  24.13131  24.16843
 Alpha virt. eigenvalues --   24.18496  24.19563  24.21036  24.27639  24.29466
 Alpha virt. eigenvalues --   24.29697  24.30166  35.69751  35.72252  50.10873
 Alpha virt. eigenvalues --   50.12974  50.16937  50.17782  50.20092  50.21448
 Alpha virt. eigenvalues --  189.40723 189.43765
          Condensed to atoms (all electrons):
 Mulliken charges:
               1
     1  C    0.419746
     2  C   -0.048497
     3  C    0.029435
     4  C    0.276184
     5  C    0.413756
     6  C   -0.052671
     7  C    0.048076
     8  C    0.410065
     9  C    0.132598
    10  C   -0.694387
    11  C    0.367219
    12  C    0.173030
    13  C   -0.576426
    14  C   -0.755437
    15  H    0.187087
    16  H    0.188542
    17  H    0.191330
    18  N    0.041770
    19  N   -0.089024
    20  O   -0.269670
    21  O   -0.266400
    22  O   -0.279670
    23  O   -0.255471
    24  C   -0.247525
    25  H    0.202093
    26  H    0.181512
    27  H    0.201281
    28  C   -0.281417
    29  H    0.193277
    30  H    0.192438
    31  H    0.200010
    32  C    0.081074
    33  C    0.044012
    34  S   -0.733699
    35  C   -0.611052
    36  H    0.180498
    37  C    0.484381
    38  O   -0.113897
    39  C    1.010731
    40  C   -0.312870
    41  C    0.027986
    42  S   -0.242980
    43  H    0.183637
    44  H    0.157777
    45  H    0.175599
    46  C   -0.600966
    47  O   -0.108088
    48  C   -0.394765
    49  H    0.157917
    50  C   -0.312620
    51  H    0.189107
    52  H    0.158839
    53  H    0.188062
    54  H    0.158464
 Sum of Mulliken charges =  -0.00000
 Mulliken charges with hydrogens summed into heavy atoms:
               1
     1  C    0.419746
     2  C   -0.048497
     3  C    0.029435
     4  C    0.276184
     5  C    0.413756
     6  C    0.138659
     7  C    0.048076
     8  C    0.410065
     9  C    0.132598
    10  C   -0.694387
    11  C    0.367219
    12  C    0.173030
    13  C   -0.387884
    14  C   -0.568350
    18  N    0.041770
    19  N   -0.089024
    20  O   -0.269670
    21  O   -0.266400
    22  O   -0.279670
    23  O   -0.255471
    24  C    0.337361
    28  C    0.304307
    32  C    0.081074
    33  C    0.224510
    34  S   -0.733699
    35  C   -0.611052
    37  C    0.484381
    38  O   -0.113897
    39  C    1.010731
    40  C    0.204144
    41  C    0.027986
    42  S   -0.242980
    46  C   -0.443049
    47  O   -0.108088
    48  C   -0.205657
    50  C    0.192745
 Electronic spatial extent (au):  <R**2>=          22202.8437
 Charge=             -0.0000 electrons
 Dipole moment (field-independent basis, Debye):
    X=              3.8019    Y=             -0.5013    Z=             -0.4561  Tot=              3.8619
 Quadrupole moment (field-independent basis, Debye-Ang):
   XX=           -213.3132   YY=           -202.6038   ZZ=           -224.5103
   XY=             -5.2992   XZ=             -4.0584   YZ=             -1.8184
 Traceless Quadrupole moment (field-independent basis, Debye-Ang):
   XX=              0.1625   YY=             10.8720   ZZ=            -11.0345
   XY=             -5.2992   XZ=             -4.0584   YZ=             -1.8184
 Octapole moment (field-independent basis, Debye-Ang**2):
  XXX=            337.5564  YYY=            -10.0986  ZZZ=              3.2590  XYY=            137.4499
  XXY=            -79.4360  XXZ=             15.1194  XZZ=            -15.2240  YZZ=             -6.7607
  YYZ=              0.3338  XYZ=            -12.0582
 Hexadecapole moment (field-independent basis, Debye-Ang**3):
 XXXX=         -20150.6002 YYYY=          -7796.4453 ZZZZ=           -378.4420 XXXY=           -584.7292
 XXXZ=           -147.3013 YYYX=            193.7264 YYYZ=             13.6121 ZZZX=              8.5394
 ZZZY=             -1.5647 XXYY=          -4840.5370 XXZZ=          -3693.3031 YYZZ=          -1479.4575
 XXYZ=            -10.2301 YYXZ=            -81.9327 ZZXY=             22.5423
 N-N= 4.106201245214D+03 E-N=-1.375197417047D+04  KE= 2.352008836446D+03
 Unable to Open any file for archive entry.
 1\1\GINC-CX3-2-28\FOpt\RwB97XD\6-311+G(d,p)\C26H18N2O6S2\NS5018\27-Nov
 -2020\0\\# opt=modredundant wb97xd/6-311+g(d,p)\\NDI_0.pdb\\0,1\C,-2.5
 173383251,-2.9681591163,-0.4144228242\C,-2.2222519953,-1.5272984048,-0
 .1963314347\C,-3.2718514308,-0.5963175798,-0.0675577985\C,-4.611352733
 6,-1.0079280793,-0.1800059093\C,-4.9390987047,-2.4414493586,-0.4109267
 537\C,-0.9291038356,-1.1087937758,-0.1626556359\C,-2.9423974947,0.7521
 52901,0.1772999065\C,-1.580389062,1.1670855628,0.2986246627\C,-0.53966
 1633,0.2527513486,0.0414383268\C,-1.3708218909,2.5442602715,0.82053316
 16\C,-3.7567195285,3.1131520272,0.483265437\C,-4.0131691908,1.67223034
 71,0.2645764939\C,-5.3219460372,1.2585690449,0.1312012054\C,-5.6314068
 623,-0.0885621651,-0.0817569097\H,-6.6572377287,-0.4215797655,-0.17640
 53732\H,-6.1037168334,2.0056167501,0.1935701199\H,-0.1781481903,-1.874
 8139215,-0.308818241\N,-2.4324788226,3.4519998613,0.7320198302\N,-3.86
 05870509,-3.3272624011,-0.5043602001\O,-1.648537227,-3.8050046988,-0.5
 150027792\O,-6.0810289734,-2.8280275415,-0.5100318266\O,-4.638301421,3
 .9441207296,0.4755833832\O,-0.3427825266,2.9213041115,1.3416247512\C,-
 2.1382031273,4.8292512058,1.1243049641\H,-1.971097161,4.8909662152,2.2
 008632029\H,-1.2376617459,5.1657617495,0.6131935359\H,-2.9894165582,5.
 4432997953,0.845178855\C,-4.1362369403,-4.746526849,-0.7224665905\H,-3
 .6766911555,-5.0719865772,-1.6559855499\H,-3.7153102746,-5.332482421,0
 .0946904122\H,-5.2134127854,-4.8761663472,-0.7661152482\C,0.8875288637
 ,0.5267934594,-0.1686922008\C,1.6126770033,1.6973237322,-0.1792538233\
 S,1.9464545346,-0.8180207777,-0.5324296138\C,2.97305179,1.513501312,-0
 .4847863058\H,1.1872899558,2.6568814013,0.0474670514\C,3.3329445373,0.
 1964839144,-0.7020172304\O,3.9104435127,2.4848165707,-0.5645762358\C,4
 .644570791,-0.3176496783,-1.0159185525\C,3.5069182777,3.8073850909,-0.
 2672069724\C,4.9946585782,-1.6365371881,-1.2260100073\S,6.0501252818,0
 .6989527316,-1.182476358\H,4.4023325105,4.4207575887,-0.3488151551\H,2
 .7577383213,4.1611848794,-0.9837287811\H,3.1043075905,3.8787307148,0.7
 484972362\C,6.3730255922,-1.8273832468,-1.5160642833\O,4.0512506367,-2
 .5987336737,-1.1452844429\C,7.0524906624,-0.646467689,-1.5226362191\H,
 6.8358588278,-2.7843412678,-1.7088794615\C,4.4510783107,-3.9372511217,
 -1.3628121214\H,8.1047425925,-0.4976682277,-1.7125471756\H,5.194128261
 ,-4.2518817659,-0.6223908955\H,3.5527152448,-4.5415901972,-1.252711403
 \H,4.8560255703,-4.0684494803,-2.3718522226\\Version=ES64L-G16RevC.01\
 State=1-A\HF=-2358.7691956\RMSD=5.534e-09\RMSF=6.252e-04\Dipole=1.4590
 821,-0.1806793,-0.3833404\Quadrupole=-0.9131731,8.1111436,-7.1979705,-
 3.0003046,-4.5038295,2.0680528\PG=C01 [X(C26H18N2O6S2)]\\@
 The archive entry for this job was punched.


  THE LARGE PRINT GIVETH,
  AND THE SMALL PRINT TAKETH AWAY.

                     -- TOM WAITS
 Job cpu time:       4 days  6 hours 40 minutes 24.3 seconds.
 Elapsed time:       0 days  6 hours 28 minutes 40.4 seconds.
 File lengths (MBytes):  RWF=    531 Int=      0 D2E=      0 Chk=     77 Scr=      1
 Normal termination of Gaussian 16 at Fri Nov 27 02:27:10 2020.
