 Entering Gaussian System, Link 0=g16
 Input=NDI_65.gjf
 Output=NDI_65.log
 Initial command:
 /apps/gaussian/g16-c01-avx/g16/l1.exe "/tmp/pbs.2610759[49].pbs/Gau-910952.inp" -scrdir="/tmp/pbs.2610759[49].pbs/"
 Entering Link 1 = /apps/gaussian/g16-c01-avx/g16/l1.exe PID=    910953.
  
 Copyright (c) 1988-2019, Gaussian, Inc.  All Rights Reserved.
  
 This is part of the Gaussian(R) 16 program.  It is based on
 the Gaussian(R) 09 system (copyright 2009, Gaussian, Inc.),
 the Gaussian(R) 03 system (copyright 2003, Gaussian, Inc.),
 the Gaussian(R) 98 system (copyright 1998, Gaussian, Inc.),
 the Gaussian(R) 94 system (copyright 1995, Gaussian, Inc.),
 the Gaussian 92(TM) system (copyright 1992, Gaussian, Inc.),
 the Gaussian 90(TM) system (copyright 1990, Gaussian, Inc.),
 the Gaussian 88(TM) system (copyright 1988, Gaussian, Inc.),
 the Gaussian 86(TM) system (copyright 1986, Carnegie Mellon
 University), and the Gaussian 82(TM) system (copyright 1983,
 Carnegie Mellon University). Gaussian is a federally registered
 trademark of Gaussian, Inc.
  
 This software contains proprietary and confidential information,
 including trade secrets, belonging to Gaussian, Inc.
  
 This software is provided under written license and may be
 used, copied, transmitted, or stored only in accord with that
 written license.
  
 The following legend is applicable only to US Government
 contracts under FAR:
  
                    RESTRICTED RIGHTS LEGEND
  
 Use, reproduction and disclosure by the US Government is
 subject to restrictions as set forth in subparagraphs (a)
 and (c) of the Commercial Computer Software - Restricted
 Rights clause in FAR 52.227-19.
  
 Gaussian, Inc.
 340 Quinnipiac St., Bldg. 40, Wallingford CT 06492
  
  
 ---------------------------------------------------------------
 Warning -- This program may not be used in any manner that
 competes with the business of Gaussian, Inc. or will provide
 assistance to any competitor of Gaussian, Inc.  The licensee
 of this program is prohibited from giving any competitor of
 Gaussian, Inc. access to this program.  By using this program,
 the user acknowledges that Gaussian, Inc. is engaged in the
 business of creating and licensing software in the field of
 computational chemistry and represents and warrants to the
 licensee that it is not a competitor of Gaussian, Inc. and that
 it will not use this program in any manner prohibited above.
 ---------------------------------------------------------------
  

 Cite this work as:
 Gaussian 16, Revision C.01,
 M. J. Frisch, G. W. Trucks, H. B. Schlegel, G. E. Scuseria, 
 M. A. Robb, J. R. Cheeseman, G. Scalmani, V. Barone, 
 G. A. Petersson, H. Nakatsuji, X. Li, M. Caricato, A. V. Marenich, 
 J. Bloino, B. G. Janesko, R. Gomperts, B. Mennucci, H. P. Hratchian, 
 J. V. Ortiz, A. F. Izmaylov, J. L. Sonnenberg, D. Williams-Young, 
 F. Ding, F. Lipparini, F. Egidi, J. Goings, B. Peng, A. Petrone, 
 T. Henderson, D. Ranasinghe, V. G. Zakrzewski, J. Gao, N. Rega, 
 G. Zheng, W. Liang, M. Hada, M. Ehara, K. Toyota, R. Fukuda, 
 J. Hasegawa, M. Ishida, T. Nakajima, Y. Honda, O. Kitao, H. Nakai, 
 T. Vreven, K. Throssell, J. A. Montgomery, Jr., J. E. Peralta, 
 F. Ogliaro, M. J. Bearpark, J. J. Heyd, E. N. Brothers, K. N. Kudin, 
 V. N. Staroverov, T. A. Keith, R. Kobayashi, J. Normand, 
 K. Raghavachari, A. P. Rendell, J. C. Burant, S. S. Iyengar, 
 J. Tomasi, M. Cossi, J. M. Millam, M. Klene, C. Adamo, R. Cammi, 
 J. W. Ochterski, R. L. Martin, K. Morokuma, O. Farkas, 
 J. B. Foresman, and D. J. Fox, Gaussian, Inc., Wallingford CT, 2019.
 
 ******************************************
 Gaussian 16:  ES64L-G16RevC.01  3-Jul-2019
                26-Nov-2020 
 ******************************************
 %mem=10GB
 %nprocshared=16
 Will use up to   16 processors via shared memory.
 --------------------------------------
 # opt=modredundant wb97xd/6-311+g(d,p)
 --------------------------------------
 1/18=120,19=15,26=3,38=1/1,3;
 2/9=110,12=2,17=6,18=5,40=1/2;
 3/5=4,6=6,7=111,11=2,25=1,30=1,71=1,74=-58/1,2,3;
 4//1;
 5/5=2,38=5/2;
 6/7=2,8=2,9=2,10=2,28=1/1;
 7//1,2,3,16;
 1/18=20,19=15,26=3/3(2);
 2/9=110/2;
 99//99;
 2/9=110/2;
 3/5=4,6=6,7=111,11=2,25=1,30=1,71=1,74=-58/1,2,3;
 4/5=5,16=3,69=1/1;
 5/5=2,38=5/2;
 7//1,2,3,16;
 1/18=20,19=15,26=3/3(-5);
 2/9=110/2;
 6/7=2,8=2,9=2,10=2,19=2,28=1/1;
 99/9=1/99;
 ----------
 NDI_65.pdb
 ----------
 Symbolic Z-matrix:
 Charge =  0 Multiplicity = 1
 C                    -2.563    -2.994    -0.409 
 C                    -2.257    -1.551    -0.224 
 C                    -3.301    -0.607    -0.083 
 C                    -4.65     -1.024    -0.115 
 C                    -4.992    -2.459    -0.304 
 C                    -0.949    -1.137    -0.215 
 C                    -2.962     0.764     0.102 
 C                    -1.595     1.188     0.123 
 C                    -0.561     0.232    -0.072 
 C                    -1.328     2.616     0.446 
 C                    -3.777     3.115     0.508 
 C                    -4.035     1.679     0.268 
 C                    -5.356     1.252     0.23 
 C                    -5.672    -0.098     0.036 
 H                    -6.699    -0.442     0.008 
 H                    -6.133     1.997     0.361 
 H                    -0.19     -1.895    -0.369 
 N                    -2.432     3.476     0.608 
 N                    -3.916    -3.353    -0.438 
 O                    -1.695    -3.847    -0.532 
 O                    -6.149    -2.85     -0.34 
 O                    -4.676     3.938     0.629 
 O                    -0.212     3.097     0.596 
 C                    -2.111     4.875     0.912 
 H                    -1.54      4.931     1.84 
 H                    -1.5       5.299     0.111 
 H                    -3.05      5.414     1.003 
 C                    -4.206    -4.779    -0.625 
 H                    -3.759    -5.126    -1.559 
 H                    -3.775    -5.355     0.196 
 H                    -5.286    -4.897    -0.649 
 C                     0.876     0.482    -0.178 
 C                     1.779     0.971     0.746 
 S                     1.657     0.297    -1.749 
 C                     3.066     1.188     0.215 
 H                     1.518     1.157     1.775 
 C                     3.195     0.865    -1.139 
 O                     4.148     1.666     0.886 
 C                     4.378     0.934    -1.949 
 C                     4.021     1.849     2.293 
 C                     4.499     0.633    -3.305 
 S                     5.945     1.436    -1.321 
 H                     5.006     2.155     2.646 
 H                     3.292     2.635     2.527 
 H                     3.723     0.918     2.789 
 C                     5.814     0.801    -3.824 
 O                     3.404     0.218    -3.994 
 C                     6.691     1.23     -2.864 
 H                     6.095     0.616    -4.852 
 C                     3.551    -0.047    -5.384 
 H                     7.745     1.439    -2.983 
 H                     4.265    -0.862    -5.56 
 H                     2.565    -0.347    -5.739 
 H                     3.878     0.847    -5.928 
 
 The following ModRedundant input section has been read:
 D       8       9      32      33 F                                           
 

 GradGradGradGradGradGradGradGradGradGradGradGradGradGradGradGradGradGrad
 Berny optimization.
 Initialization pass.
                           ----------------------------
                           !    Initial Parameters    !
                           ! (Angstroms and Degrees)  !
 --------------------------                            --------------------------
 ! Name  Definition              Value          Derivative Info.                !
 --------------------------------------------------------------------------------
 ! R1    R(1,2)                  1.4866         estimate D2E/DX2                !
 ! R2    R(1,19)                 1.4001         estimate D2E/DX2                !
 ! R3    R(1,20)                 1.2232         estimate D2E/DX2                !
 ! R4    R(2,3)                  1.4146         estimate D2E/DX2                !
 ! R5    R(2,6)                  1.372          estimate D2E/DX2                !
 ! R6    R(3,4)                  1.4123         estimate D2E/DX2                !
 ! R7    R(3,7)                  1.4244         estimate D2E/DX2                !
 ! R8    R(4,5)                  1.4872         estimate D2E/DX2                !
 ! R9    R(4,14)                 1.3874         estimate D2E/DX2                !
 ! R10   R(5,19)                 1.4053         estimate D2E/DX2                !
 ! R11   R(5,21)                 1.2218         estimate D2E/DX2                !
 ! R12   R(6,9)                  1.4301         estimate D2E/DX2                !
 ! R13   R(6,17)                 1.0837         estimate D2E/DX2                !
 ! R14   R(7,8)                  1.4314         estimate D2E/DX2                !
 ! R15   R(7,12)                 1.4199         estimate D2E/DX2                !
 ! R16   R(8,9)                  1.4217         estimate D2E/DX2                !
 ! R17   R(8,10)                 1.4882         estimate D2E/DX2                !
 ! R18   R(9,32)                 1.4624         estimate D2E/DX2                !
 ! R19   R(10,18)                1.4088         estimate D2E/DX2                !
 ! R20   R(10,23)                1.2245         estimate D2E/DX2                !
 ! R21   R(11,12)                1.4786         estimate D2E/DX2                !
 ! R22   R(11,18)                1.3962         estimate D2E/DX2                !
 ! R23   R(11,22)                1.2248         estimate D2E/DX2                !
 ! R24   R(12,13)                1.3888         estimate D2E/DX2                !
 ! R25   R(13,14)                1.4            estimate D2E/DX2                !
 ! R26   R(13,16)                1.0844         estimate D2E/DX2                !
 ! R27   R(14,15)                1.0834         estimate D2E/DX2                !
 ! R28   R(18,24)                1.4672         estimate D2E/DX2                !
 ! R29   R(19,28)                1.4672         estimate D2E/DX2                !
 ! R30   R(24,25)                1.091          estimate D2E/DX2                !
 ! R31   R(24,26)                1.093          estimate D2E/DX2                !
 ! R32   R(24,27)                1.0865         estimate D2E/DX2                !
 ! R33   R(28,29)                1.0921         estimate D2E/DX2                !
 ! R34   R(28,30)                1.0916         estimate D2E/DX2                !
 ! R35   R(28,31)                1.0867         estimate D2E/DX2                !
 ! R36   R(32,33)                1.3814         estimate D2E/DX2                !
 ! R37   R(32,34)                1.7642         estimate D2E/DX2                !
 ! R38   R(33,35)                1.409          estimate D2E/DX2                !
 ! R39   R(33,36)                1.0778         estimate D2E/DX2                !
 ! R40   R(34,37)                1.7493         estimate D2E/DX2                !
 ! R41   R(35,37)                1.398          estimate D2E/DX2                !
 ! R42   R(35,38)                1.3599         estimate D2E/DX2                !
 ! R43   R(37,39)                1.4354         estimate D2E/DX2                !
 ! R44   R(38,40)                1.4245         estimate D2E/DX2                !
 ! R45   R(39,41)                1.3943         estimate D2E/DX2                !
 ! R46   R(39,42)                1.7612         estimate D2E/DX2                !
 ! R47   R(40,43)                1.0902         estimate D2E/DX2                !
 ! R48   R(40,44)                1.0973         estimate D2E/DX2                !
 ! R49   R(40,45)                1.0962         estimate D2E/DX2                !
 ! R50   R(41,46)                1.4237         estimate D2E/DX2                !
 ! R51   R(41,47)                1.3587         estimate D2E/DX2                !
 ! R52   R(42,48)                1.7262         estimate D2E/DX2                !
 ! R53   R(46,48)                1.3692         estimate D2E/DX2                !
 ! R54   R(46,49)                1.0817         estimate D2E/DX2                !
 ! R55   R(47,50)                1.4227         estimate D2E/DX2                !
 ! R56   R(48,51)                1.0811         estimate D2E/DX2                !
 ! R57   R(50,52)                1.0977         estimate D2E/DX2                !
 ! R58   R(50,53)                1.0901         estimate D2E/DX2                !
 ! R59   R(50,54)                1.0964         estimate D2E/DX2                !
 ! A1    A(2,1,19)             116.767          estimate D2E/DX2                !
 ! A2    A(2,1,20)             122.9113         estimate D2E/DX2                !
 ! A3    A(19,1,20)            120.3217         estimate D2E/DX2                !
 ! A4    A(1,2,3)              120.5473         estimate D2E/DX2                !
 ! A5    A(1,2,6)              119.3369         estimate D2E/DX2                !
 ! A6    A(3,2,6)              120.1056         estimate D2E/DX2                !
 ! A7    A(2,3,4)              120.3743         estimate D2E/DX2                !
 ! A8    A(2,3,7)              118.662          estimate D2E/DX2                !
 ! A9    A(4,3,7)              120.9617         estimate D2E/DX2                !
 ! A10   A(3,4,5)              120.4909         estimate D2E/DX2                !
 ! A11   A(3,4,14)             120.2702         estimate D2E/DX2                !
 ! A12   A(5,4,14)             119.2382         estimate D2E/DX2                !
 ! A13   A(4,5,19)             116.7341         estimate D2E/DX2                !
 ! A14   A(4,5,21)             122.024          estimate D2E/DX2                !
 ! A15   A(19,5,21)            121.2418         estimate D2E/DX2                !
 ! A16   A(2,6,9)              123.2421         estimate D2E/DX2                !
 ! A17   A(2,6,17)             117.1119         estimate D2E/DX2                !
 ! A18   A(9,6,17)             119.589          estimate D2E/DX2                !
 ! A19   A(3,7,8)              120.9519         estimate D2E/DX2                !
 ! A20   A(3,7,12)             117.1037         estimate D2E/DX2                !
 ! A21   A(8,7,12)             121.944          estimate D2E/DX2                !
 ! A22   A(7,8,9)              119.5639         estimate D2E/DX2                !
 ! A23   A(7,8,10)             117.3064         estimate D2E/DX2                !
 ! A24   A(9,8,10)             122.9922         estimate D2E/DX2                !
 ! A25   A(6,9,8)              117.3944         estimate D2E/DX2                !
 ! A26   A(6,9,32)             115.0236         estimate D2E/DX2                !
 ! A27   A(8,9,32)             127.5648         estimate D2E/DX2                !
 ! A28   A(8,10,18)            118.042          estimate D2E/DX2                !
 ! A29   A(8,10,23)            124.5436         estimate D2E/DX2                !
 ! A30   A(18,10,23)           117.4097         estimate D2E/DX2                !
 ! A31   A(12,11,18)           115.5202         estimate D2E/DX2                !
 ! A32   A(12,11,22)           122.7205         estimate D2E/DX2                !
 ! A33   A(18,11,22)           121.7534         estimate D2E/DX2                !
 ! A34   A(7,12,11)            120.8614         estimate D2E/DX2                !
 ! A35   A(7,12,13)            121.162          estimate D2E/DX2                !
 ! A36   A(11,12,13)           117.9699         estimate D2E/DX2                !
 ! A37   A(12,13,14)           120.9948         estimate D2E/DX2                !
 ! A38   A(12,13,16)           117.8401         estimate D2E/DX2                !
 ! A39   A(14,13,16)           121.1642         estimate D2E/DX2                !
 ! A40   A(4,14,13)            119.5003         estimate D2E/DX2                !
 ! A41   A(4,14,15)            118.9169         estimate D2E/DX2                !
 ! A42   A(13,14,15)           121.5811         estimate D2E/DX2                !
 ! A43   A(10,18,11)           126.0753         estimate D2E/DX2                !
 ! A44   A(10,18,24)           115.7508         estimate D2E/DX2                !
 ! A45   A(11,18,24)           118.1737         estimate D2E/DX2                !
 ! A46   A(1,19,5)             125.0856         estimate D2E/DX2                !
 ! A47   A(1,19,28)            116.2868         estimate D2E/DX2                !
 ! A48   A(5,19,28)            118.6276         estimate D2E/DX2                !
 ! A49   A(18,24,25)           109.8574         estimate D2E/DX2                !
 ! A50   A(18,24,26)           109.8979         estimate D2E/DX2                !
 ! A51   A(18,24,27)           107.5355         estimate D2E/DX2                !
 ! A52   A(25,24,26)           108.1108         estimate D2E/DX2                !
 ! A53   A(25,24,27)           110.8301         estimate D2E/DX2                !
 ! A54   A(26,24,27)           110.6124         estimate D2E/DX2                !
 ! A55   A(19,28,29)           109.6906         estimate D2E/DX2                !
 ! A56   A(19,28,30)           109.8136         estimate D2E/DX2                !
 ! A57   A(19,28,31)           107.7461         estimate D2E/DX2                !
 ! A58   A(29,28,30)           108.2991         estimate D2E/DX2                !
 ! A59   A(29,28,31)           110.6959         estimate D2E/DX2                !
 ! A60   A(30,28,31)           110.5924         estimate D2E/DX2                !
 ! A61   A(9,32,33)            130.8698         estimate D2E/DX2                !
 ! A62   A(9,32,34)            118.7917         estimate D2E/DX2                !
 ! A63   A(33,32,34)           110.083          estimate D2E/DX2                !
 ! A64   A(32,33,35)           113.5473         estimate D2E/DX2                !
 ! A65   A(32,33,36)           122.7797         estimate D2E/DX2                !
 ! A66   A(35,33,36)           123.6706         estimate D2E/DX2                !
 ! A67   A(32,34,37)            92.559          estimate D2E/DX2                !
 ! A68   A(33,35,37)           114.4376         estimate D2E/DX2                !
 ! A69   A(33,35,38)           126.5053         estimate D2E/DX2                !
 ! A70   A(37,35,38)           119.0571         estimate D2E/DX2                !
 ! A71   A(34,37,35)           109.3678         estimate D2E/DX2                !
 ! A72   A(34,37,39)           122.9176         estimate D2E/DX2                !
 ! A73   A(35,37,39)           127.6985         estimate D2E/DX2                !
 ! A74   A(35,38,40)           117.4875         estimate D2E/DX2                !
 ! A75   A(37,39,41)           127.587          estimate D2E/DX2                !
 ! A76   A(37,39,42)           123.0771         estimate D2E/DX2                !
 ! A77   A(41,39,42)           109.3359         estimate D2E/DX2                !
 ! A78   A(38,40,43)           105.9815         estimate D2E/DX2                !
 ! A79   A(38,40,44)           111.2161         estimate D2E/DX2                !
 ! A80   A(38,40,45)           111.2261         estimate D2E/DX2                !
 ! A81   A(43,40,44)           109.2789         estimate D2E/DX2                !
 ! A82   A(43,40,45)           109.7253         estimate D2E/DX2                !
 ! A83   A(44,40,45)           109.3465         estimate D2E/DX2                !
 ! A84   A(39,41,46)           114.1566         estimate D2E/DX2                !
 ! A85   A(39,41,47)           119.2878         estimate D2E/DX2                !
 ! A86   A(46,41,47)           126.5553         estimate D2E/DX2                !
 ! A87   A(39,42,48)            91.8202         estimate D2E/DX2                !
 ! A88   A(41,46,48)           111.9006         estimate D2E/DX2                !
 ! A89   A(41,46,49)           124.489          estimate D2E/DX2                !
 ! A90   A(48,46,49)           123.6104         estimate D2E/DX2                !
 ! A91   A(41,47,50)           117.9757         estimate D2E/DX2                !
 ! A92   A(42,48,46)           112.7867         estimate D2E/DX2                !
 ! A93   A(42,48,51)           119.7787         estimate D2E/DX2                !
 ! A94   A(46,48,51)           127.4345         estimate D2E/DX2                !
 ! A95   A(47,50,52)           111.2328         estimate D2E/DX2                !
 ! A96   A(47,50,53)           106.0215         estimate D2E/DX2                !
 ! A97   A(47,50,54)           111.3284         estimate D2E/DX2                !
 ! A98   A(52,50,53)           109.378          estimate D2E/DX2                !
 ! A99   A(52,50,54)           109.3806         estimate D2E/DX2                !
 ! A100  A(53,50,54)           109.4266         estimate D2E/DX2                !
 ! D1    D(19,1,2,3)             0.1578         estimate D2E/DX2                !
 ! D2    D(19,1,2,6)          -178.6792         estimate D2E/DX2                !
 ! D3    D(20,1,2,3)          -179.8231         estimate D2E/DX2                !
 ! D4    D(20,1,2,6)             1.3399         estimate D2E/DX2                !
 ! D5    D(2,1,19,5)            -0.124          estimate D2E/DX2                !
 ! D6    D(2,1,19,28)          179.8267         estimate D2E/DX2                !
 ! D7    D(20,1,19,5)          179.8575         estimate D2E/DX2                !
 ! D8    D(20,1,19,28)          -0.1919         estimate D2E/DX2                !
 ! D9    D(1,2,3,4)              0.0571         estimate D2E/DX2                !
 ! D10   D(1,2,3,7)            179.5453         estimate D2E/DX2                !
 ! D11   D(6,2,3,4)            178.8851         estimate D2E/DX2                !
 ! D12   D(6,2,3,7)             -1.6266         estimate D2E/DX2                !
 ! D13   D(1,2,6,9)            178.625          estimate D2E/DX2                !
 ! D14   D(1,2,6,17)             1.3881         estimate D2E/DX2                !
 ! D15   D(3,2,6,9)             -0.2173         estimate D2E/DX2                !
 ! D16   D(3,2,6,17)          -177.4541         estimate D2E/DX2                !
 ! D17   D(2,3,4,5)             -0.3074         estimate D2E/DX2                !
 ! D18   D(2,3,4,14)           179.3968         estimate D2E/DX2                !
 ! D19   D(7,3,4,5)           -179.7837         estimate D2E/DX2                !
 ! D20   D(7,3,4,14)            -0.0795         estimate D2E/DX2                !
 ! D21   D(2,3,7,8)              1.0523         estimate D2E/DX2                !
 ! D22   D(2,3,7,12)          -178.712          estimate D2E/DX2                !
 ! D23   D(4,3,7,8)           -179.4626         estimate D2E/DX2                !
 ! D24   D(4,3,7,12)             0.7731         estimate D2E/DX2                !
 ! D25   D(3,4,5,19)             0.3343         estimate D2E/DX2                !
 ! D26   D(3,4,5,21)          -179.7799         estimate D2E/DX2                !
 ! D27   D(14,4,5,19)         -179.3729         estimate D2E/DX2                !
 ! D28   D(14,4,5,21)            0.5129         estimate D2E/DX2                !
 ! D29   D(3,4,14,13)           -0.4559         estimate D2E/DX2                !
 ! D30   D(3,4,14,15)         -179.9937         estimate D2E/DX2                !
 ! D31   D(5,4,14,13)          179.252          estimate D2E/DX2                !
 ! D32   D(5,4,14,15)           -0.2858         estimate D2E/DX2                !
 ! D33   D(4,5,19,1)            -0.1141         estimate D2E/DX2                !
 ! D34   D(4,5,19,28)          179.9364         estimate D2E/DX2                !
 ! D35   D(21,5,19,1)          179.9992         estimate D2E/DX2                !
 ! D36   D(21,5,19,28)           0.0496         estimate D2E/DX2                !
 ! D37   D(2,6,9,8)              2.5984         estimate D2E/DX2                !
 ! D38   D(2,6,9,32)          -176.0103         estimate D2E/DX2                !
 ! D39   D(17,6,9,8)           179.77           estimate D2E/DX2                !
 ! D40   D(17,6,9,32)            1.1613         estimate D2E/DX2                !
 ! D41   D(3,7,8,9)              1.3551         estimate D2E/DX2                !
 ! D42   D(3,7,8,10)          -174.5099         estimate D2E/DX2                !
 ! D43   D(12,7,8,9)          -178.8921         estimate D2E/DX2                !
 ! D44   D(12,7,8,10)            5.2428         estimate D2E/DX2                !
 ! D45   D(3,7,12,11)          178.0768         estimate D2E/DX2                !
 ! D46   D(3,7,12,13)           -0.9621         estimate D2E/DX2                !
 ! D47   D(8,7,12,11)           -1.685          estimate D2E/DX2                !
 ! D48   D(8,7,12,13)          179.2761         estimate D2E/DX2                !
 ! D49   D(7,8,9,6)             -3.0809         estimate D2E/DX2                !
 ! D50   D(7,8,9,32)           175.3285         estimate D2E/DX2                !
 ! D51   D(10,8,9,6)           172.5381         estimate D2E/DX2                !
 ! D52   D(10,8,9,32)           -9.0525         estimate D2E/DX2                !
 ! D53   D(7,8,10,18)           -4.7549         estimate D2E/DX2                !
 ! D54   D(7,8,10,23)          174.4235         estimate D2E/DX2                !
 ! D55   D(9,8,10,18)          179.5335         estimate D2E/DX2                !
 ! D56   D(9,8,10,23)           -1.2882         estimate D2E/DX2                !
 ! D57   D(6,9,32,33)         -116.5537         estimate D2E/DX2                !
 ! D58   D(6,9,32,34)           69.8892         estimate D2E/DX2                !
 ! D59   D(8,9,32,33)           65.0048         Frozen                          !
 ! D60   D(8,9,32,34)         -108.5523         estimate D2E/DX2                !
 ! D61   D(8,10,18,11)           0.7189         estimate D2E/DX2                !
 ! D62   D(8,10,18,24)        -179.4089         estimate D2E/DX2                !
 ! D63   D(23,10,18,11)       -178.5188         estimate D2E/DX2                !
 ! D64   D(23,10,18,24)          1.3535         estimate D2E/DX2                !
 ! D65   D(18,11,12,7)          -2.3856         estimate D2E/DX2                !
 ! D66   D(18,11,12,13)        176.6833         estimate D2E/DX2                !
 ! D67   D(22,11,12,7)         178.4862         estimate D2E/DX2                !
 ! D68   D(22,11,12,13)         -2.445          estimate D2E/DX2                !
 ! D69   D(12,11,18,10)          2.8444         estimate D2E/DX2                !
 ! D70   D(12,11,18,24)       -177.0251         estimate D2E/DX2                !
 ! D71   D(22,11,18,10)       -178.0181         estimate D2E/DX2                !
 ! D72   D(22,11,18,24)          2.1124         estimate D2E/DX2                !
 ! D73   D(7,12,13,14)           0.461          estimate D2E/DX2                !
 ! D74   D(7,12,13,16)        -179.8781         estimate D2E/DX2                !
 ! D75   D(11,12,13,14)       -178.6049         estimate D2E/DX2                !
 ! D76   D(11,12,13,16)          1.056          estimate D2E/DX2                !
 ! D77   D(12,13,14,4)           0.2708         estimate D2E/DX2                !
 ! D78   D(12,13,14,15)        179.7958         estimate D2E/DX2                !
 ! D79   D(16,13,14,4)        -179.3788         estimate D2E/DX2                !
 ! D80   D(16,13,14,15)          0.1463         estimate D2E/DX2                !
 ! D81   D(10,18,24,25)        -59.609          estimate D2E/DX2                !
 ! D82   D(10,18,24,26)         59.2209         estimate D2E/DX2                !
 ! D83   D(10,18,24,27)        179.6858         estimate D2E/DX2                !
 ! D84   D(11,18,24,25)        120.2739         estimate D2E/DX2                !
 ! D85   D(11,18,24,26)       -120.8962         estimate D2E/DX2                !
 ! D86   D(11,18,24,27)         -0.4313         estimate D2E/DX2                !
 ! D87   D(1,19,28,29)         -58.1407         estimate D2E/DX2                !
 ! D88   D(1,19,28,30)          60.7668         estimate D2E/DX2                !
 ! D89   D(1,19,28,31)        -178.7139         estimate D2E/DX2                !
 ! D90   D(5,19,28,29)         121.8132         estimate D2E/DX2                !
 ! D91   D(5,19,28,30)        -119.2792         estimate D2E/DX2                !
 ! D92   D(5,19,28,31)           1.2401         estimate D2E/DX2                !
 ! D93   D(9,32,33,35)        -174.237          estimate D2E/DX2                !
 ! D94   D(9,32,33,36)           6.3116         estimate D2E/DX2                !
 ! D95   D(34,32,33,35)         -0.2473         estimate D2E/DX2                !
 ! D96   D(34,32,33,36)       -179.6987         estimate D2E/DX2                !
 ! D97   D(9,32,34,37)         175.358          estimate D2E/DX2                !
 ! D98   D(33,32,34,37)          0.5417         estimate D2E/DX2                !
 ! D99   D(32,33,35,37)         -0.291          estimate D2E/DX2                !
 ! D100  D(32,33,35,38)        179.7379         estimate D2E/DX2                !
 ! D101  D(36,33,35,37)        179.1548         estimate D2E/DX2                !
 ! D102  D(36,33,35,38)         -0.8163         estimate D2E/DX2                !
 ! D103  D(32,34,37,35)         -0.69           estimate D2E/DX2                !
 ! D104  D(32,34,37,39)        177.9522         estimate D2E/DX2                !
 ! D105  D(33,35,37,34)          0.6862         estimate D2E/DX2                !
 ! D106  D(33,35,37,39)       -177.8733         estimate D2E/DX2                !
 ! D107  D(38,35,37,34)       -179.3403         estimate D2E/DX2                !
 ! D108  D(38,35,37,39)          2.1001         estimate D2E/DX2                !
 ! D109  D(33,35,38,40)          6.5286         estimate D2E/DX2                !
 ! D110  D(37,35,38,40)       -173.4414         estimate D2E/DX2                !
 ! D111  D(34,37,39,41)          2.8132         estimate D2E/DX2                !
 ! D112  D(34,37,39,42)       -177.1514         estimate D2E/DX2                !
 ! D113  D(35,37,39,41)       -178.8057         estimate D2E/DX2                !
 ! D114  D(35,37,39,42)          1.2297         estimate D2E/DX2                !
 ! D115  D(35,38,40,43)        175.513          estimate D2E/DX2                !
 ! D116  D(35,38,40,44)        -65.8285         estimate D2E/DX2                !
 ! D117  D(35,38,40,45)         56.3125         estimate D2E/DX2                !
 ! D118  D(37,39,41,46)       -179.959          estimate D2E/DX2                !
 ! D119  D(37,39,41,47)         -0.1381         estimate D2E/DX2                !
 ! D120  D(42,39,41,46)          0.0096         estimate D2E/DX2                !
 ! D121  D(42,39,41,47)        179.8305         estimate D2E/DX2                !
 ! D122  D(37,39,42,48)        179.9894         estimate D2E/DX2                !
 ! D123  D(41,39,42,48)          0.0192         estimate D2E/DX2                !
 ! D124  D(39,41,46,48)         -0.0433         estimate D2E/DX2                !
 ! D125  D(39,41,46,49)       -179.9425         estimate D2E/DX2                !
 ! D126  D(47,41,46,48)       -179.8488         estimate D2E/DX2                !
 ! D127  D(47,41,46,49)          0.252          estimate D2E/DX2                !
 ! D128  D(39,41,47,50)        178.3401         estimate D2E/DX2                !
 ! D129  D(46,41,47,50)         -1.8633         estimate D2E/DX2                !
 ! D130  D(39,42,48,46)         -0.0447         estimate D2E/DX2                !
 ! D131  D(39,42,48,51)        179.876          estimate D2E/DX2                !
 ! D132  D(41,46,48,42)          0.0575         estimate D2E/DX2                !
 ! D133  D(41,46,48,51)       -179.8558         estimate D2E/DX2                !
 ! D134  D(49,46,48,42)        179.9578         estimate D2E/DX2                !
 ! D135  D(49,46,48,51)          0.0444         estimate D2E/DX2                !
 ! D136  D(41,47,50,52)         62.0357         estimate D2E/DX2                !
 ! D137  D(41,47,50,53)       -179.1538         estimate D2E/DX2                !
 ! D138  D(41,47,50,54)        -60.2329         estimate D2E/DX2                !
 --------------------------------------------------------------------------------
 Trust Radius=3.00D-01 FncErr=1.00D-07 GrdErr=1.00D-06 EigMax=2.50D+02 EigMin=1.00D-04
 Number of steps in this run=    307 maximum allowed number of steps=    324.
 GradGradGradGradGradGradGradGradGradGradGradGradGradGradGradGradGradGrad

 Stoichiometry    C26H18N2O6S2
 Framework group  C1[X(C26H18N2O6S2)]
 Deg. of freedom   156
 Full point group                 C1      NOp   1
 Largest Abelian subgroup         C1      NOp   1
 Largest concise Abelian subgroup C1      NOp   1
                         Standard orientation:                         
 ---------------------------------------------------------------------
 Center     Atomic      Atomic             Coordinates (Angstroms)
 Number     Number       Type             X           Y           Z
 ---------------------------------------------------------------------
      1          6           0       -3.028077   -2.800981    0.842222
      2          6           0       -2.504925   -1.440383    0.550337
      3          6           0       -3.362074   -0.432703    0.049507
      4          6           0       -4.728697   -0.706257   -0.179017
      5          6           0       -5.284123   -2.058038    0.096849
      6          6           0       -1.173490   -1.175297    0.748710
      7          6           0       -2.820564    0.859510   -0.206887
      8          6           0       -1.433077    1.133376    0.013982
      9          6           0       -0.576594    0.093717    0.468585
     10          6           0       -0.978704    2.539846   -0.159771
     11          6           0       -3.251746    3.234334   -0.935281
     12          6           0       -3.716116    1.853527   -0.682310
     13          6           0       -5.056453    1.565977   -0.905078
     14          6           0       -5.570114    0.287181   -0.658454
     15          1           0       -6.614696    0.053311   -0.825791
     16          1           0       -5.691913    2.365120   -1.270420
     17          1           0       -0.552976   -1.994027    1.093681
     18          7           0       -1.913403    3.484945   -0.626446
     19          7           0       -4.388414   -3.020216    0.593725
     20          8           0       -2.326864   -3.703100    1.278849
     21          8           0       -6.460650   -2.326465   -0.094349
     22          8           0       -3.987886    4.111084   -1.370685
     23          8           0        0.151545    2.940060    0.088589
     24          6           0       -1.408600    4.852568   -0.792093
     25          1           0       -1.041543    5.230394    0.163354
     26          1           0       -0.577433    4.858894   -1.501896
     27          1           0       -2.229599    5.462362   -1.159020
     28          6           0       -4.892630   -4.367573    0.881716
     29          1           0       -4.334407   -5.102056    0.297339
     30          1           0       -4.755075   -4.595687    1.940310
     31          1           0       -5.947070   -4.389618    0.619859
     32          6           0        0.872151    0.151568    0.659626
     33          6           0        1.639229    0.892349    1.537772
     34         16           0        1.912968   -0.723845   -0.464020
     35          6           0        3.025627    0.760667    1.323345
     36          1           0        1.210212    1.502652    2.315610
     37          6           0        3.369640   -0.094696    0.272490
     38          8           0        4.014937    1.372876    2.027557
     39          6           0        4.686383   -0.465211   -0.162545
     40          6           0        3.635942    2.122279    3.178219
     41          6           0        5.027201   -1.300674   -1.225476
     42         16           0        6.154961    0.108678    0.622189
     43          1           0        4.565937    2.457363    3.637889
     44          1           0        3.032896    2.996345    2.901926
     45          1           0        3.074565    1.503372    3.887720
     46          6           0        6.428936   -1.474506   -1.403610
     47          8           0        4.040799   -1.861760   -1.972581
     48          6           0        7.152473   -0.771375   -0.477938
     49          1           0        6.877145   -2.085254   -2.175664
     50          6           0        4.420297   -2.680588   -3.072325
     51          1           0        8.228367   -0.722397   -0.384069
     52          1           0        4.991565   -3.556138   -2.737568
     53          1           0        3.490866   -3.010941   -3.536271
     54          1           0        5.012600   -2.117390   -3.803136
 ---------------------------------------------------------------------
 Rotational constants (GHZ):           0.1552322           0.0562339           0.0467198
 Standard basis: 6-311+G(d,p) (5D, 7F)
 There are   952 symmetry adapted cartesian basis functions of A   symmetry.
 There are   916 symmetry adapted basis functions of A   symmetry.
   916 basis functions,  1468 primitive gaussians,   952 cartesian basis functions
   134 alpha electrons      134 beta electrons
       nuclear repulsion energy      4082.0800692534 Hartrees.
 NAtoms=   54 NActive=   54 NUniq=   54 SFac= 1.00D+00 NAtFMM=   60 NAOKFM=F Big=F
 Integral buffers will be    131072 words long.
 Raffenetti 2 integral format.
 Two-electron integral symmetry is turned on.
 Nuclear repulsion after empirical dispersion term =     4082.0393034119 Hartrees.
 One-electron integrals computed using PRISM.
 NBasis=   916 RedAO= T EigKep=  1.49D-06  NBF=   916
 NBsUse=   901 1.00D-06 EigRej=  9.60D-07 NBFU=   901
 ExpMin= 4.05D-02 ExpMax= 9.34D+04 ExpMxC= 3.17D+03 IAcc=3 IRadAn=         5 AccDes= 0.00D+00
 Harris functional with IExCor= 4639 and IRadAn=       5 diagonalized for initial guess.
 HarFok:  IExCor= 4639 AccDes= 0.00D+00 IRadAn=         5 IDoV= 1 UseB2=F ITyADJ=14
 ICtDFT=  3500011 ScaDFX=  1.000000  1.000000  1.000000  1.000000
 FoFCou: FMM=F IPFlag=           0 FMFlag=      100000 FMFlg1=           0
         NFxFlg=           0 DoJE=T BraDBF=F KetDBF=T FulRan=T
         wScrn=  0.000000 ICntrl=       500 IOpCl=  0 I1Cent=   200000004 NGrid=           0
         NMat0=    1 NMatS0=      1 NMatT0=    0 NMatD0=    1 NMtDS0=    0 NMtDT0=    0
 Petite list used in FoFCou.
 Requested convergence on RMS density matrix=1.00D-08 within 128 cycles.
 Requested convergence on MAX density matrix=1.00D-06.
 Requested convergence on             energy=1.00D-06.
 No special actions if energy rises.
 SCF Done:  E(RwB97XD) =  -2358.76521843     A.U. after   19 cycles
            NFock= 19  Conv=0.49D-08     -V/T= 2.0032

 **********************************************************************

            Population analysis using the SCF Density.

 **********************************************************************

 Orbital symmetries:
       Occupied  (A) (A) (A) (A) (A) (A) (A) (A) (A) (A) (A) (A)
                 (A) (A) (A) (A) (A) (A) (A) (A) (A) (A) (A) (A)
                 (A) (A) (A) (A) (A) (A) (A) (A) (A) (A) (A) (A)
                 (A) (A) (A) (A) (A) (A) (A) (A) (A) (A) (A) (A)
                 (A) (A) (A) (A) (A) (A) (A) (A) (A) (A) (A) (A)
                 (A) (A) (A) (A) (A) (A) (A) (A) (A) (A) (A) (A)
                 (A) (A) (A) (A) (A) (A) (A) (A) (A) (A) (A) (A)
                 (A) (A) (A) (A) (A) (A) (A) (A) (A) (A) (A) (A)
                 (A) (A) (A) (A) (A) (A) (A) (A) (A) (A) (A) (A)
                 (A) (A) (A) (A) (A) (A) (A) (A) (A) (A) (A) (A)
                 (A) (A) (A) (A) (A) (A) (A) (A) (A) (A) (A) (A)
                 (A) (A)
       Virtual   (A) (A) (A) (A) (A) (A) (A) (A) (A) (A) (A) (A)
                 (A) (A) (A) (A) (A) (A) (A) (A) (A) (A) (A) (A)
                 (A) (A) (A) (A) (A) (A) (A) (A) (A) (A) (A) (A)
                 (A) (A) (A) (A) (A) (A) (A) (A) (A) (A) (A) (A)
                 (A) (A) (A) (A) (A) (A) (A) (A) (A) (A) (A) (A)
                 (A) (A) (A) (A) (A) (A) (A) (A) (A) (A) (A) (A)
                 (A) (A) (A) (A) (A) (A) (A) (A) (A) (A) (A) (A)
                 (A) (A) (A) (A) (A) (A) (A) (A) (A) (A) (A) (A)
                 (A) (A) (A) (A) (A) (A) (A) (A) (A) (A) (A) (A)
                 (A) (A) (A) (A) (A) (A) (A) (A) (A) (A) (A) (A)
                 (A) (A) (A) (A) (A) (A) (A) (A) (A) (A) (A) (A)
                 (A) (A) (A) (A) (A) (A) (A) (A) (A) (A) (A) (A)
                 (A) (A) (A) (A) (A) (A) (A) (A) (A) (A) (A) (A)
                 (A) (A) (A) (A) (A) (A) (A) (A) (A) (A) (A) (A)
                 (A) (A) (A) (A) (A) (A) (A) (A) (A) (A) (A) (A)
                 (A) (A) (A) (A) (A) (A) (A) (A) (A) (A) (A) (A)
                 (A) (A) (A) (A) (A) (A) (A) (A) (A) (A) (A) (A)
                 (A) (A) (A) (A) (A) (A) (A) (A) (A) (A) (A) (A)
                 (A) (A) (A) (A) (A) (A) (A) (A) (A) (A) (A) (A)
                 (A) (A) (A) (A) (A) (A) (A) (A) (A) (A) (A) (A)
                 (A) (A) (A) (A) (A) (A) (A) (A) (A) (A) (A) (A)
                 (A) (A) (A) (A) (A) (A) (A) (A) (A) (A) (A) (A)
                 (A) (A) (A) (A) (A) (A) (A) (A) (A) (A) (A) (A)
                 (A) (A) (A) (A) (A) (A) (A) (A) (A) (A) (A) (A)
                 (A) (A) (A) (A) (A) (A) (A) (A) (A) (A) (A) (A)
                 (A) (A) (A) (A) (A) (A) (A) (A) (A) (A) (A) (A)
                 (A) (A) (A) (A) (A) (A) (A) (A) (A) (A) (A) (A)
                 (A) (A) (A) (A) (A) (A) (A) (A) (A) (A) (A) (A)
                 (A) (A) (A) (A) (A) (A) (A) (A) (A) (A) (A) (A)
                 (A) (A) (A) (A) (A) (A) (A) (A) (A) (A) (A) (A)
                 (A) (A) (A) (A) (A) (A) (A) (A) (A) (A) (A) (A)
                 (A) (A) (A) (A) (A) (A) (A) (A) (A) (A) (A) (A)
                 (A) (A) (A) (A) (A) (A) (A) (A) (A) (A) (A) (A)
                 (A) (A) (A) (A) (A) (A) (A) (A) (A) (A) (A) (A)
                 (A) (A) (A) (A) (A) (A) (A) (A) (A) (A) (A) (A)
                 (A) (A) (A) (A) (A) (A) (A) (A) (A) (A) (A) (A)
                 (A) (A) (A) (A) (A) (A) (A) (A) (A) (A) (A) (A)
                 (A) (A) (A) (A) (A) (A) (A) (A) (A) (A) (A) (A)
                 (A) (A) (A) (A) (A) (A) (A) (A) (A) (A) (A) (A)
                 (A) (A) (A) (A) (A) (A) (A) (A) (A) (A) (A) (A)
                 (A) (A) (A) (A) (A) (A) (A) (A) (A) (A) (A) (A)
                 (A) (A) (A) (A) (A) (A) (A) (A) (A) (A) (A) (A)
                 (A) (A) (A) (A) (A) (A) (A) (A) (A) (A) (A) (A)
                 (A) (A) (A) (A) (A) (A) (A) (A) (A) (A) (A) (A)
                 (A) (A) (A) (A) (A) (A) (A) (A) (A) (A) (A) (A)
                 (A) (A) (A) (A) (A) (A) (A) (A) (A) (A) (A) (A)
                 (A) (A) (A) (A) (A) (A) (A) (A) (A) (A) (A) (A)
                 (A) (A) (A) (A) (A) (A) (A) (A) (A) (A) (A) (A)
                 (A) (A) (A) (A) (A) (A) (A) (A) (A) (A) (A) (A)
                 (A) (A) (A) (A) (A) (A) (A) (A) (A) (A) (A) (A)
                 (A) (A) (A) (A) (A) (A) (A) (A) (A) (A) (A) (A)
                 (A) (A) (A) (A) (A) (A) (A) (A) (A) (A) (A) (A)
                 (A) (A) (A) (A) (A) (A) (A) (A) (A) (A) (A) (A)
                 (A) (A) (A) (A) (A) (A) (A) (A) (A) (A) (A) (A)
                 (A) (A) (A) (A) (A) (A) (A) (A) (A) (A) (A) (A)
                 (A) (A) (A) (A) (A) (A) (A) (A) (A) (A) (A) (A)
                 (A) (A) (A) (A) (A) (A) (A) (A) (A) (A) (A) (A)
                 (A) (A) (A) (A) (A) (A) (A) (A) (A) (A) (A) (A)
                 (A) (A) (A) (A) (A) (A) (A) (A) (A) (A) (A) (A)
                 (A) (A) (A) (A) (A) (A) (A) (A) (A) (A) (A) (A)
                 (A) (A) (A) (A) (A) (A) (A) (A) (A) (A) (A) (A)
                 (A) (A) (A) (A) (A) (A) (A) (A) (A) (A) (A) (A)
                 (A) (A) (A) (A) (A) (A) (A) (A) (A) (A) (A) (A)
                 (A) (A) (A) (A) (A) (A) (A) (A) (A) (A) (A)
 The electronic state is 1-A.
 Alpha  occ. eigenvalues --  -89.04868 -89.04456 -19.28858 -19.28604 -19.25352
 Alpha  occ. eigenvalues --  -19.25253 -19.24857 -19.24766 -14.50977 -14.50558
 Alpha  occ. eigenvalues --  -10.43323 -10.43057 -10.43005 -10.42758 -10.36019
 Alpha  occ. eigenvalues --  -10.35403 -10.35320 -10.35201 -10.35146 -10.34805
 Alpha  occ. eigenvalues --  -10.34562 -10.34453 -10.34325 -10.34286 -10.34274
 Alpha  occ. eigenvalues --  -10.33372 -10.33270 -10.33230 -10.33065 -10.32724
 Alpha  occ. eigenvalues --  -10.32452 -10.32356 -10.32084 -10.31684 -10.29833
 Alpha  occ. eigenvalues --  -10.29587  -8.08787  -8.08410  -6.03649  -6.03259
 Alpha  occ. eigenvalues --   -6.03254  -6.02867  -6.02854  -6.02495  -1.19064
 Alpha  occ. eigenvalues --   -1.18700  -1.18067  -1.17780  -1.17095  -1.16636
 Alpha  occ. eigenvalues --   -1.06625  -1.06092  -1.03081  -0.99749  -0.98275
 Alpha  occ. eigenvalues --   -0.96786  -0.94853  -0.90499  -0.88883  -0.87068
 Alpha  occ. eigenvalues --   -0.85537  -0.85291  -0.84280  -0.82582  -0.82172
 Alpha  occ. eigenvalues --   -0.81560  -0.79376  -0.78204  -0.76872  -0.75699
 Alpha  occ. eigenvalues --   -0.75162  -0.74261  -0.70157  -0.68630  -0.67866
 Alpha  occ. eigenvalues --   -0.66814  -0.65579  -0.64634  -0.64517  -0.63041
 Alpha  occ. eigenvalues --   -0.62588  -0.60838  -0.59611  -0.58990  -0.58941
 Alpha  occ. eigenvalues --   -0.57902  -0.57681  -0.57328  -0.56879  -0.56536
 Alpha  occ. eigenvalues --   -0.56373  -0.55999  -0.55474  -0.55195  -0.54117
 Alpha  occ. eigenvalues --   -0.53860  -0.53514  -0.53320  -0.53117  -0.52416
 Alpha  occ. eigenvalues --   -0.51439  -0.51084  -0.50843  -0.50309  -0.50133
 Alpha  occ. eigenvalues --   -0.49636  -0.49615  -0.49320  -0.48914  -0.48271
 Alpha  occ. eigenvalues --   -0.48050  -0.46843  -0.46782  -0.45781  -0.45234
 Alpha  occ. eigenvalues --   -0.43944  -0.43731  -0.42041  -0.41388  -0.41107
 Alpha  occ. eigenvalues --   -0.40962  -0.40276  -0.39779  -0.38773  -0.37610
 Alpha  occ. eigenvalues --   -0.37456  -0.37011  -0.36934  -0.36089  -0.34819
 Alpha  occ. eigenvalues --   -0.33318  -0.31501  -0.31404  -0.25219
 Alpha virt. eigenvalues --   -0.07852  -0.00573   0.00144   0.01713   0.02276
 Alpha virt. eigenvalues --    0.05093   0.05860   0.06168   0.06759   0.06820
 Alpha virt. eigenvalues --    0.07194   0.07474   0.07562   0.07733   0.07773
 Alpha virt. eigenvalues --    0.07999   0.08415   0.08712   0.08882   0.09176
 Alpha virt. eigenvalues --    0.09421   0.09545   0.09803   0.10103   0.10207
 Alpha virt. eigenvalues --    0.10370   0.11067   0.11337   0.11563   0.11708
 Alpha virt. eigenvalues --    0.11789   0.12121   0.12244   0.12626   0.12672
 Alpha virt. eigenvalues --    0.13352   0.13482   0.13656   0.13949   0.14106
 Alpha virt. eigenvalues --    0.14519   0.14835   0.15057   0.15281   0.15357
 Alpha virt. eigenvalues --    0.15421   0.15784   0.16305   0.16663   0.17036
 Alpha virt. eigenvalues --    0.17316   0.17549   0.17701   0.18009   0.18375
 Alpha virt. eigenvalues --    0.18580   0.18712   0.18885   0.19101   0.19450
 Alpha virt. eigenvalues --    0.19812   0.20033   0.20166   0.20421   0.20555
 Alpha virt. eigenvalues --    0.20817   0.20939   0.21084   0.21474   0.21527
 Alpha virt. eigenvalues --    0.21642   0.21902   0.22217   0.22474   0.22649
 Alpha virt. eigenvalues --    0.22912   0.23497   0.23551   0.23911   0.24208
 Alpha virt. eigenvalues --    0.24281   0.24403   0.24439   0.24799   0.25061
 Alpha virt. eigenvalues --    0.25213   0.25307   0.25779   0.25846   0.25983
 Alpha virt. eigenvalues --    0.26331   0.26390   0.26561   0.26591   0.26792
 Alpha virt. eigenvalues --    0.26810   0.27022   0.27329   0.27668   0.27806
 Alpha virt. eigenvalues --    0.28041   0.28167   0.28477   0.28762   0.28780
 Alpha virt. eigenvalues --    0.29019   0.29236   0.29397   0.29573   0.29755
 Alpha virt. eigenvalues --    0.29998   0.30160   0.30512   0.30806   0.30913
 Alpha virt. eigenvalues --    0.31006   0.31284   0.31322   0.31684   0.31959
 Alpha virt. eigenvalues --    0.32119   0.32229   0.32589   0.32846   0.33022
 Alpha virt. eigenvalues --    0.33077   0.33258   0.33294   0.33587   0.33803
 Alpha virt. eigenvalues --    0.34095   0.34506   0.34681   0.34921   0.34982
 Alpha virt. eigenvalues --    0.35206   0.35631   0.35830   0.35972   0.36254
 Alpha virt. eigenvalues --    0.36340   0.36461   0.36783   0.36824   0.37375
 Alpha virt. eigenvalues --    0.37732   0.37897   0.38108   0.38400   0.38500
 Alpha virt. eigenvalues --    0.38936   0.39165   0.39287   0.39464   0.39985
 Alpha virt. eigenvalues --    0.40260   0.40493   0.40789   0.41150   0.41185
 Alpha virt. eigenvalues --    0.41873   0.41991   0.42317   0.42823   0.42920
 Alpha virt. eigenvalues --    0.43492   0.43865   0.44286   0.44488   0.45047
 Alpha virt. eigenvalues --    0.45386   0.45480   0.45943   0.46328   0.46528
 Alpha virt. eigenvalues --    0.47005   0.47330   0.47946   0.48777   0.48873
 Alpha virt. eigenvalues --    0.49446   0.49641   0.50124   0.50526   0.50985
 Alpha virt. eigenvalues --    0.51018   0.51821   0.52542   0.52827   0.53117
 Alpha virt. eigenvalues --    0.53144   0.53471   0.53518   0.53882   0.54367
 Alpha virt. eigenvalues --    0.54596   0.55096   0.55703   0.56824   0.57259
 Alpha virt. eigenvalues --    0.57959   0.58150   0.58456   0.58824   0.59509
 Alpha virt. eigenvalues --    0.59948   0.60136   0.60579   0.61477   0.62129
 Alpha virt. eigenvalues --    0.62625   0.62792   0.63030   0.63387   0.63960
 Alpha virt. eigenvalues --    0.64377   0.64486   0.64749   0.65190   0.65495
 Alpha virt. eigenvalues --    0.66379   0.66446   0.67063   0.67282   0.67642
 Alpha virt. eigenvalues --    0.68139   0.68447   0.68707   0.69199   0.69425
 Alpha virt. eigenvalues --    0.69507   0.70236   0.71148   0.71220   0.71734
 Alpha virt. eigenvalues --    0.71964   0.72477   0.72738   0.72972   0.73329
 Alpha virt. eigenvalues --    0.73628   0.73747   0.73778   0.74532   0.75085
 Alpha virt. eigenvalues --    0.75453   0.75702   0.75885   0.76215   0.77084
 Alpha virt. eigenvalues --    0.77368   0.77605   0.77691   0.78685   0.78898
 Alpha virt. eigenvalues --    0.79312   0.79400   0.80427   0.80567   0.80876
 Alpha virt. eigenvalues --    0.81316   0.81386   0.81824   0.82211   0.82391
 Alpha virt. eigenvalues --    0.82658   0.82902   0.83317   0.83652   0.83811
 Alpha virt. eigenvalues --    0.84229   0.84853   0.84908   0.85219   0.85463
 Alpha virt. eigenvalues --    0.85825   0.86052   0.86596   0.87095   0.87819
 Alpha virt. eigenvalues --    0.87936   0.88634   0.89467   0.89610   0.90657
 Alpha virt. eigenvalues --    0.91199   0.91537   0.92418   0.93292   0.94181
 Alpha virt. eigenvalues --    0.95014   0.95504   0.95880   0.96032   0.96784
 Alpha virt. eigenvalues --    0.96897   0.97273   0.97718   0.98590   0.99291
 Alpha virt. eigenvalues --    0.99572   1.00113   1.00363   1.00758   1.01531
 Alpha virt. eigenvalues --    1.01734   1.01884   1.02218   1.02821   1.03364
 Alpha virt. eigenvalues --    1.03512   1.03887   1.04696   1.05423   1.05554
 Alpha virt. eigenvalues --    1.05986   1.07377   1.07669   1.08094   1.08472
 Alpha virt. eigenvalues --    1.08857   1.09544   1.09987   1.10168   1.10590
 Alpha virt. eigenvalues --    1.11490   1.11552   1.12110   1.12447   1.13040
 Alpha virt. eigenvalues --    1.13107   1.13456   1.13705   1.14466   1.14755
 Alpha virt. eigenvalues --    1.15165   1.15317   1.16166   1.16300   1.16678
 Alpha virt. eigenvalues --    1.16844   1.17467   1.18475   1.18719   1.19482
 Alpha virt. eigenvalues --    1.19772   1.20503   1.21237   1.22051   1.23003
 Alpha virt. eigenvalues --    1.23439   1.25257   1.25541   1.25787   1.26090
 Alpha virt. eigenvalues --    1.26693   1.26878   1.27548   1.28492   1.29580
 Alpha virt. eigenvalues --    1.30109   1.30758   1.32031   1.33324   1.33838
 Alpha virt. eigenvalues --    1.34237   1.34424   1.34767   1.35041   1.35798
 Alpha virt. eigenvalues --    1.36649   1.37255   1.37877   1.38449   1.40270
 Alpha virt. eigenvalues --    1.40444   1.41109   1.41981   1.42425   1.44001
 Alpha virt. eigenvalues --    1.44465   1.45030   1.45507   1.46366   1.48561
 Alpha virt. eigenvalues --    1.49167   1.49448   1.49839   1.51002   1.51374
 Alpha virt. eigenvalues --    1.51645   1.51747   1.51946   1.52313   1.52759
 Alpha virt. eigenvalues --    1.53096   1.53323   1.53547   1.53854   1.54098
 Alpha virt. eigenvalues --    1.54776   1.55355   1.55601   1.56155   1.57716
 Alpha virt. eigenvalues --    1.58426   1.59116   1.59909   1.60305   1.60720
 Alpha virt. eigenvalues --    1.61292   1.62455   1.62838   1.63260   1.63695
 Alpha virt. eigenvalues --    1.63830   1.64561   1.64676   1.65246   1.65612
 Alpha virt. eigenvalues --    1.66456   1.67530   1.68726   1.69653   1.70402
 Alpha virt. eigenvalues --    1.71260   1.71508   1.72182   1.72237   1.73316
 Alpha virt. eigenvalues --    1.74065   1.74711   1.75055   1.75735   1.76147
 Alpha virt. eigenvalues --    1.76232   1.77043   1.77751   1.78021   1.78192
 Alpha virt. eigenvalues --    1.79025   1.79117   1.79296   1.79496   1.80290
 Alpha virt. eigenvalues --    1.82060   1.82435   1.82633   1.83767   1.84606
 Alpha virt. eigenvalues --    1.84677   1.85626   1.85986   1.87157   1.87341
 Alpha virt. eigenvalues --    1.88577   1.88844   1.89235   1.89449   1.91131
 Alpha virt. eigenvalues --    1.92002   1.92402   1.93317   1.94623   1.94933
 Alpha virt. eigenvalues --    1.95142   1.95582   1.96222   1.96314   1.97246
 Alpha virt. eigenvalues --    1.98026   1.98283   1.98903   1.99090   2.00138
 Alpha virt. eigenvalues --    2.00472   2.01139   2.02509   2.02895   2.03824
 Alpha virt. eigenvalues --    2.04036   2.05273   2.05482   2.06306   2.07701
 Alpha virt. eigenvalues --    2.07899   2.08885   2.09609   2.10369   2.10717
 Alpha virt. eigenvalues --    2.11460   2.12117   2.12719   2.13268   2.13569
 Alpha virt. eigenvalues --    2.14564   2.15064   2.15444   2.16075   2.16882
 Alpha virt. eigenvalues --    2.17342   2.18317   2.18895   2.20016   2.20753
 Alpha virt. eigenvalues --    2.21349   2.21854   2.22330   2.23167   2.23790
 Alpha virt. eigenvalues --    2.24636   2.25261   2.25495   2.27059   2.27345
 Alpha virt. eigenvalues --    2.28455   2.28933   2.29717   2.30733   2.30759
 Alpha virt. eigenvalues --    2.31327   2.34129   2.34872   2.36247   2.36933
 Alpha virt. eigenvalues --    2.39668   2.40383   2.41311   2.42850   2.45063
 Alpha virt. eigenvalues --    2.46250   2.47423   2.47888   2.50917   2.52532
 Alpha virt. eigenvalues --    2.52635   2.53136   2.53541   2.54350   2.55191
 Alpha virt. eigenvalues --    2.56070   2.56504   2.57328   2.58627   2.58971
 Alpha virt. eigenvalues --    2.59370   2.60953   2.61568   2.61766   2.62023
 Alpha virt. eigenvalues --    2.62183   2.62641   2.63266   2.64372   2.64868
 Alpha virt. eigenvalues --    2.65522   2.67607   2.68027   2.68584   2.69349
 Alpha virt. eigenvalues --    2.71580   2.72771   2.73446   2.74015   2.74886
 Alpha virt. eigenvalues --    2.76224   2.76440   2.77400   2.77760   2.77899
 Alpha virt. eigenvalues --    2.78341   2.79099   2.79451   2.80196   2.80663
 Alpha virt. eigenvalues --    2.81397   2.82018   2.83300   2.83879   2.84659
 Alpha virt. eigenvalues --    2.85745   2.87714   2.88167   2.88420   2.89661
 Alpha virt. eigenvalues --    2.91394   2.92388   2.92783   2.93547   2.93883
 Alpha virt. eigenvalues --    2.94189   2.94531   2.95050   2.95705   2.96025
 Alpha virt. eigenvalues --    2.97275   2.97736   2.98404   2.99179   2.99971
 Alpha virt. eigenvalues --    3.00629   3.01181   3.02648   3.03078   3.04471
 Alpha virt. eigenvalues --    3.04716   3.06459   3.07805   3.09430   3.10111
 Alpha virt. eigenvalues --    3.10777   3.11992   3.13290   3.13909   3.15037
 Alpha virt. eigenvalues --    3.16198   3.17304   3.18241   3.18334   3.20548
 Alpha virt. eigenvalues --    3.20598   3.22974   3.23369   3.24503   3.25210
 Alpha virt. eigenvalues --    3.26729   3.27430   3.29351   3.29805   3.31787
 Alpha virt. eigenvalues --    3.33158   3.33627   3.33818   3.34122   3.36070
 Alpha virt. eigenvalues --    3.38233   3.38646   3.41518   3.42214   3.42587
 Alpha virt. eigenvalues --    3.43114   3.43314   3.44025   3.45492   3.46574
 Alpha virt. eigenvalues --    3.47695   3.48941   3.51056   3.51518   3.52711
 Alpha virt. eigenvalues --    3.53804   3.55077   3.56174   3.57860   3.59060
 Alpha virt. eigenvalues --    3.59758   3.63245   3.66014   3.66708   3.68557
 Alpha virt. eigenvalues --    3.69303   3.70670   3.73972   3.75315   3.75976
 Alpha virt. eigenvalues --    3.78903   3.79816   3.81869   3.82505   3.85989
 Alpha virt. eigenvalues --    3.86234   3.86761   3.90988   3.92405   3.94599
 Alpha virt. eigenvalues --    3.94839   3.95763   3.99467   4.01654   4.02160
 Alpha virt. eigenvalues --    4.03582   4.04482   4.06232   4.10613   4.12813
 Alpha virt. eigenvalues --    4.14271   4.18600   4.20769   4.21864   4.24195
 Alpha virt. eigenvalues --    4.28853   4.33213   4.34669   4.37301   4.44522
 Alpha virt. eigenvalues --    4.47805   4.49390   4.61115   4.77075   4.93282
 Alpha virt. eigenvalues --    4.94931   4.97257   5.00321   5.13452   5.14683
 Alpha virt. eigenvalues --    5.15187   5.16186   5.16524   5.19782   5.21261
 Alpha virt. eigenvalues --    5.22956   5.35647   5.37349   5.39449   5.42306
 Alpha virt. eigenvalues --    5.53976   5.54968   5.85963   5.88071   5.90375
 Alpha virt. eigenvalues --    5.91748   5.92267   5.95656   8.13596   8.15360
 Alpha virt. eigenvalues --   17.43626  17.47519  17.63861  17.66891  17.71121
 Alpha virt. eigenvalues --   17.76518  23.61941  23.69975  23.85582  23.91766
 Alpha virt. eigenvalues --   23.94659  23.95920  23.96235  23.98819  23.99070
 Alpha virt. eigenvalues --   24.00369  24.02787  24.03874  24.04876  24.05448
 Alpha virt. eigenvalues --   24.07497  24.07821  24.08883  24.10309  24.12523
 Alpha virt. eigenvalues --   24.15706  24.16309  24.17034  24.25132  24.26103
 Alpha virt. eigenvalues --   24.26188  24.27989  35.68923  35.71764  50.10595
 Alpha virt. eigenvalues --   50.12025  50.15381  50.17041  50.19053  50.20616
 Alpha virt. eigenvalues --  189.38926 189.41391
          Condensed to atoms (all electrons):
 Mulliken charges:
               1
     1  C    0.454386
     2  C   -0.060009
     3  C    0.142092
     4  C    0.224577
     5  C    0.351080
     6  C   -0.986082
     7  C    0.113366
     8  C    0.139589
     9  C    0.649776
    10  C   -0.385595
    11  C    0.254243
    12  C    0.205033
    13  C   -0.576793
    14  C   -0.658194
    15  H    0.190937
    16  H    0.192498
    17  H    0.207428
    18  N   -0.097974
    19  N   -0.081607
    20  O   -0.266406
    21  O   -0.273156
    22  O   -0.277983
    23  O   -0.150203
    24  C   -0.288871
    25  H    0.192770
    26  H    0.197409
    27  H    0.202280
    28  C   -0.280567
    29  H    0.193785
    30  H    0.195073
    31  H    0.200691
    32  C   -0.035542
    33  C   -0.294509
    34  S   -0.399573
    35  C   -0.002049
    36  H    0.153212
    37  C    0.528020
    38  O   -0.117393
    39  C    0.792318
    40  C   -0.306734
    41  C    0.073961
    42  S   -0.307366
    43  H    0.182063
    44  H    0.169893
    45  H    0.163492
    46  C   -0.580571
    47  O   -0.124205
    48  C   -0.355570
    49  H    0.155526
    50  C   -0.303384
    51  H    0.186484
    52  H    0.158611
    53  H    0.180289
    54  H    0.159455
 Sum of Mulliken charges =  -0.00000
 Mulliken charges with hydrogens summed into heavy atoms:
               1
     1  C    0.454386
     2  C   -0.060009
     3  C    0.142092
     4  C    0.224577
     5  C    0.351080
     6  C   -0.778654
     7  C    0.113366
     8  C    0.139589
     9  C    0.649776
    10  C   -0.385595
    11  C    0.254243
    12  C    0.205033
    13  C   -0.384296
    14  C   -0.467257
    18  N   -0.097974
    19  N   -0.081607
    20  O   -0.266406
    21  O   -0.273156
    22  O   -0.277983
    23  O   -0.150203
    24  C    0.303587
    28  C    0.308982
    32  C   -0.035542
    33  C   -0.141297
    34  S   -0.399573
    35  C   -0.002049
    37  C    0.528020
    38  O   -0.117393
    39  C    0.792318
    40  C    0.208714
    41  C    0.073961
    42  S   -0.307366
    46  C   -0.425045
    47  O   -0.124205
    48  C   -0.169086
    50  C    0.194971
 Electronic spatial extent (au):  <R**2>=          22270.6194
 Charge=             -0.0000 electrons
 Dipole moment (field-independent basis, Debye):
    X=              1.6908    Y=             -0.3104    Z=              0.0094  Tot=              1.7190
 Quadrupole moment (field-independent basis, Debye-Ang):
   XX=           -217.0200   YY=           -221.1737   ZZ=           -205.6835
   XY=             -2.7808   XZ=             -9.2938   YZ=             17.9673
 Traceless Quadrupole moment (field-independent basis, Debye-Ang):
   XX=             -2.3943   YY=             -6.5479   ZZ=              8.9422
   XY=             -2.7808   XZ=             -9.2938   YZ=             17.9673
 Octapole moment (field-independent basis, Debye-Ang**2):
  XXX=            269.3436  YYY=            -15.2132  ZZZ=              6.0962  XYY=             55.0924
  XXY=            -55.9191  XXZ=            -23.9322  XZZ=             64.0599  YZZ=             -3.6222
  YYZ=             -4.0176  XYZ=             51.2199
 Hexadecapole moment (field-independent basis, Debye-Ang**3):
 XXXX=         -20801.0627 YYYY=          -6495.8324 ZZZZ=          -1922.3144 XXXY=           -459.4650
 XXXZ=           -354.1047 YYYX=            378.0372 YYYZ=            189.2531 ZZZX=            -36.0216
 ZZZY=            171.4987 XXYY=          -4731.6791 XXZZ=          -3664.6729 YYZZ=          -1369.3618
 XXYZ=            285.9120 YYXZ=           -188.1576 ZZXY=             22.2893
 N-N= 4.082039303412D+03 E-N=-1.370319828431D+04  KE= 2.351139461602D+03
 Calling FoFJK, ICntrl=      2127 FMM=F ISym2X=0 I1Cent= 0 IOpClX= 0 NMat=1 NMatS=1 NMatT=0.
 ***** Axes restored to original set *****
 -------------------------------------------------------------------
 Center     Atomic                   Forces (Hartrees/Bohr)
 Number     Number              X              Y              Z
 -------------------------------------------------------------------
      1        6           0.007295708   -0.014753797   -0.001254782
      2        6           0.000792618    0.005380843   -0.000187203
      3        6           0.004940703    0.002375080    0.000030993
      4        6          -0.004787939    0.007741455    0.001536672
      5        6          -0.011388900   -0.009869377   -0.001198231
      6        6          -0.002460689    0.004367867   -0.006927210
      7        6          -0.002302286   -0.004545319    0.001126996
      8        6           0.008020928   -0.016082916    0.003184484
      9        6          -0.025495217   -0.002900746    0.004081160
     10        6           0.018066076    0.017597987    0.002290034
     11        6          -0.006123628    0.015914790    0.002057491
     12        6          -0.006075332   -0.006134373   -0.000700981
     13        6           0.008381392    0.002883121    0.000095165
     14        6           0.008361029   -0.006372238   -0.001041766
     15        1           0.000332513    0.000565507    0.000005091
     16        1           0.000443507   -0.000876334   -0.000230611
     17        1           0.002191260    0.001403904    0.001938941
     18        7          -0.001697434   -0.002048966   -0.001622366
     19        7           0.000076420    0.002394877    0.000153746
     20        8          -0.014832259    0.015357023    0.002133180
     21        8           0.018284189    0.006494406    0.000605373
     22        8           0.015033144   -0.014985304   -0.001951687
     23        8          -0.019800695   -0.013144544   -0.003840343
     24        6           0.000981435   -0.001465979   -0.001790835
     25        1          -0.000936189   -0.000402487   -0.000319939
     26        1          -0.001528135   -0.001025994    0.001056225
     27        1           0.000715419    0.000031077    0.000124942
     28        6           0.001162979    0.001767781   -0.000163633
     29        1          -0.000836133    0.000866090    0.000937692
     30        1          -0.000600392    0.000872192   -0.000344981
     31        1           0.000630952   -0.000242574   -0.000011544
     32        6           0.026839100    0.017383778   -0.003301977
     33        6          -0.013493609   -0.007792366   -0.007475677
     34       16          -0.002812456    0.001495045    0.013302633
     35        6           0.007970665   -0.003592918   -0.014843120
     36        1          -0.002176265    0.002354066    0.000790077
     37        6          -0.012257527    0.000722761    0.017160858
     38        8          -0.004672672   -0.002104777    0.005255337
     39        6           0.012883278    0.000374408   -0.014057855
     40        6          -0.000558927    0.000613137   -0.005173344
     41        6          -0.002485419    0.001787554    0.010232261
     42       16          -0.005086869   -0.003054494   -0.009498189
     43        1          -0.001021288   -0.000664084   -0.000596053
     44        1           0.000772805   -0.000824241   -0.001218851
     45        1           0.001013599    0.000146914   -0.000793117
     46        6           0.001991598    0.001835895    0.005584095
     47        8           0.003504175    0.000376693   -0.003651236
     48        6          -0.006526018   -0.001571529    0.000373205
     49        1           0.000127311    0.000214721    0.000765117
     50        6           0.000951318    0.000252521    0.004472975
     51        1          -0.001149528   -0.000259992    0.000158168
     52        1          -0.001170365    0.000976596    0.000915116
     53        1           0.001002751    0.000350086    0.000706996
     54        1          -0.000490699   -0.000182831    0.001120507
 -------------------------------------------------------------------
 Cartesian Forces:  Max     0.026839100 RMS     0.007017396

 GradGradGradGradGradGradGradGradGradGradGradGradGradGradGradGradGradGrad
 Berny optimization.
 FormGI is forming the generalized inverse of G from B-inverse, IUseBI=4.
 Internal  Forces:  Max     0.023681091 RMS     0.004168515
 Search for a local minimum.
 Step number   1 out of a maximum of  307
 All quantities printed in internal units (Hartrees-Bohrs-Radians)
 Mixed Optimization -- RFO/linear search
 Second derivative matrix not updated -- first step.
 ITU=  0
     Eigenvalues ---    0.00803   0.00803   0.01176   0.01203   0.01245
     Eigenvalues ---    0.01292   0.01308   0.01311   0.01367   0.01392
     Eigenvalues ---    0.01419   0.01429   0.01455   0.01496   0.01515
     Eigenvalues ---    0.01568   0.01575   0.01577   0.01621   0.01651
     Eigenvalues ---    0.01693   0.01711   0.01713   0.01719   0.01754
     Eigenvalues ---    0.01783   0.01803   0.01847   0.01963   0.02040
     Eigenvalues ---    0.02047   0.02068   0.02074   0.02080   0.02135
     Eigenvalues ---    0.02149   0.02163   0.02177   0.02197   0.02222
     Eigenvalues ---    0.02239   0.02246   0.07556   0.07572   0.07690
     Eigenvalues ---    0.07700   0.10063   0.10068   0.10633   0.10637
     Eigenvalues ---    0.15983   0.15999   0.15999   0.16000   0.16000
     Eigenvalues ---    0.16000   0.16000   0.16000   0.16000   0.16000
     Eigenvalues ---    0.16000   0.16000   0.16000   0.16000   0.16000
     Eigenvalues ---    0.16000   0.16000   0.16000   0.22531   0.22583
     Eigenvalues ---    0.23518   0.23581   0.24516   0.24747   0.24866
     Eigenvalues ---    0.24931   0.24952   0.24985   0.24987   0.24988
     Eigenvalues ---    0.24991   0.24994   0.24997   0.24997   0.24998
     Eigenvalues ---    0.24998   0.25000   0.25000   0.25000   0.25000
     Eigenvalues ---    0.25000   0.25000   0.25000   0.25000   0.25000
     Eigenvalues ---    0.25000   0.28802   0.28927   0.30014   0.32152
     Eigenvalues ---    0.32582   0.32774   0.33111   0.33787   0.33935
     Eigenvalues ---    0.33986   0.34083   0.34110   0.34354   0.34466
     Eigenvalues ---    0.34577   0.34629   0.34693   0.34793   0.34806
     Eigenvalues ---    0.35198   0.35218   0.35468   0.35553   0.35582
     Eigenvalues ---    0.35796   0.35863   0.36078   0.36083   0.36267
     Eigenvalues ---    0.36396   0.36662   0.39352   0.40194   0.40224
     Eigenvalues ---    0.40651   0.40731   0.41524   0.41786   0.42064
     Eigenvalues ---    0.42300   0.42693   0.43455   0.43970   0.44092
     Eigenvalues ---    0.44519   0.44594   0.45014   0.45406   0.46251
     Eigenvalues ---    0.47305   0.47603   0.49310   0.49508   0.52959
     Eigenvalues ---    0.53218   0.93281   0.93432   0.93989   0.94585
     Eigenvalues --- 1000.000001000.000001000.000001000.000001000.00000
     Eigenvalues --- 1000.000001000.000001000.000001000.000001000.00000
     Eigenvalues --- 1000.000001000.000001000.000001000.000001000.00000
     Eigenvalues --- 1000.000001000.000001000.000001000.000001000.00000
     Eigenvalues --- 1000.000001000.000001000.000001000.000001000.00000
     Eigenvalues --- 1000.000001000.000001000.000001000.000001000.00000
     Eigenvalues --- 1000.000001000.000001000.000001000.000001000.00000
     Eigenvalues --- 1000.000001000.000001000.000001000.000001000.00000
     Eigenvalues --- 1000.000001000.000001000.000001000.000001000.00000
     Eigenvalues --- 1000.000001000.000001000.000001000.000001000.00000
     Eigenvalues --- 1000.000001000.000001000.000001000.000001000.00000
     Eigenvalues --- 1000.000001000.000001000.000001000.000001000.00000
     Eigenvalues --- 1000.000001000.000001000.000001000.000001000.00000
     Eigenvalues --- 1000.000001000.000001000.000001000.000001000.00000
     Eigenvalues --- 1000.000001000.000001000.000001000.000001000.00000
     Eigenvalues --- 1000.000001000.000001000.000001000.000001000.00000
     Eigenvalues --- 1000.000001000.000001000.000001000.000001000.00000
     Eigenvalues --- 1000.000001000.000001000.000001000.000001000.00000
     Eigenvalues --- 1000.000001000.000001000.000001000.000001000.00000
     Eigenvalues --- 1000.000001000.000001000.000001000.000001000.00000
     Eigenvalues --- 1000.000001000.000001000.000001000.000001000.00000
     Eigenvalues --- 1000.000001000.000001000.000001000.000001000.00000
     Eigenvalues --- 1000.000001000.000001000.000001000.000001000.00000
     Eigenvalues --- 1000.000001000.000001000.000001000.000001000.00000
     Eigenvalues --- 1000.000001000.000001000.000001000.000001000.00000
     Eigenvalues --- 1000.000001000.000001000.000001000.000001000.00000
     Eigenvalues --- 1000.000001000.000001000.000001000.000001000.00000
     Eigenvalues --- 1000.000001000.000001000.000001000.000001000.00000
     Eigenvalues --- 1000.000001000.00000
 RFO step:  Lambda=-1.22240201D-02 EMin= 8.02933640D-03
 Linear search not attempted -- first point.
 Iteration  1 RMS(Cart)=  0.05846135 RMS(Int)=  0.00062398
 Iteration  2 RMS(Cart)=  0.00260262 RMS(Int)=  0.00014310
 Iteration  3 RMS(Cart)=  0.00000328 RMS(Int)=  0.00014309
 Iteration  4 RMS(Cart)=  0.00000000 RMS(Int)=  0.00014309
 Iteration  1 RMS(Cart)=  0.00010207 RMS(Int)=  0.00001645
 Iteration  2 RMS(Cart)=  0.00005845 RMS(Int)=  0.00001835
 Iteration  3 RMS(Cart)=  0.00003347 RMS(Int)=  0.00002084
 Iteration  4 RMS(Cart)=  0.00001916 RMS(Int)=  0.00002258
 Iteration  5 RMS(Cart)=  0.00001097 RMS(Int)=  0.00002365
 Iteration  6 RMS(Cart)=  0.00000628 RMS(Int)=  0.00002429
 Iteration  7 RMS(Cart)=  0.00000360 RMS(Int)=  0.00002466
 Iteration  8 RMS(Cart)=  0.00000206 RMS(Int)=  0.00002487
 Iteration  9 RMS(Cart)=  0.00000118 RMS(Int)=  0.00002500
 Iteration 10 RMS(Cart)=  0.00000068 RMS(Int)=  0.00002507
 Variable       Old X    -DE/DX   Delta X   Delta X   Delta X     New X
                                 (Linear)    (Quad)   (Total)
    R1        2.80935  -0.00164   0.00000  -0.00458  -0.00458   2.80477
    R2        2.64584  -0.00607   0.00000  -0.01325  -0.01324   2.63260
    R3        2.31147  -0.02145   0.00000  -0.02253  -0.02253   2.28894
    R4        2.67311  -0.00630   0.00000  -0.01259  -0.01268   2.66043
    R5        2.59267  -0.00451   0.00000  -0.00786  -0.00790   2.58478
    R6        2.66894  -0.00498   0.00000  -0.01065  -0.01067   2.65827
    R7        2.69164  -0.01011   0.00000  -0.02336  -0.02338   2.66826
    R8        2.81049  -0.00125   0.00000  -0.00366  -0.00366   2.80684
    R9        2.62173  -0.00996   0.00000  -0.02012  -0.02014   2.60158
   R10        2.65570  -0.00702   0.00000  -0.01563  -0.01563   2.64007
   R11        2.30889  -0.01941   0.00000  -0.02026  -0.02026   2.28863
   R12        2.70248  -0.00887   0.00000  -0.02117  -0.02113   2.68135
   R13        2.04786   0.00028   0.00000   0.00075   0.00075   2.04861
   R14        2.70495  -0.00900   0.00000  -0.02278  -0.02267   2.68228
   R15        2.68322  -0.00669   0.00000  -0.01555  -0.01552   2.66770
   R16        2.68655  -0.02359   0.00000  -0.05553  -0.05546   2.63109
   R17        2.81233  -0.00100   0.00000  -0.00321  -0.00315   2.80918
   R18        2.76359   0.00460   0.00000   0.01213   0.01213   2.77572
   R19        2.66221  -0.00625   0.00000  -0.01375  -0.01376   2.64845
   R20        2.31391  -0.02368   0.00000  -0.02502  -0.02502   2.28889
   R21        2.79415   0.00145   0.00000   0.00439   0.00433   2.79848
   R22        2.63842  -0.00598   0.00000  -0.01234  -0.01241   2.62601
   R23        2.31456  -0.02130   0.00000  -0.02253  -0.02253   2.29203
   R24        2.62448  -0.00997   0.00000  -0.02058  -0.02057   2.60391
   R25        2.64561  -0.00053   0.00000  -0.00107  -0.00108   2.64453
   R26        2.04921  -0.00095   0.00000  -0.00258  -0.00258   2.04663
   R27        2.04741  -0.00049   0.00000  -0.00134  -0.00134   2.04607
   R28        2.77259  -0.00309   0.00000  -0.00829  -0.00829   2.76430
   R29        2.77252  -0.00329   0.00000  -0.00883  -0.00883   2.76369
   R30        2.06176  -0.00078   0.00000  -0.00218  -0.00218   2.05958
   R31        2.06551  -0.00203   0.00000  -0.00568  -0.00568   2.05983
   R32        2.05322  -0.00059   0.00000  -0.00162  -0.00162   2.05160
   R33        2.06368  -0.00142   0.00000  -0.00396  -0.00396   2.05971
   R34        2.06281  -0.00096   0.00000  -0.00267  -0.00267   2.06015
   R35        2.05355  -0.00060   0.00000  -0.00165  -0.00165   2.05190
   R36        2.61050  -0.01818   0.00000  -0.03687  -0.03672   2.57378
   R37        3.33376  -0.01473   0.00000  -0.04859  -0.04844   3.28532
   R38        2.66272   0.00123   0.00000   0.00232   0.00228   2.66500
   R39        2.03666   0.00169   0.00000   0.00450   0.00450   2.04117
   R40        3.30576  -0.00650   0.00000  -0.01959  -0.01968   3.28608
   R41        2.64176  -0.01610   0.00000  -0.03383  -0.03401   2.60775
   R42        2.56992  -0.00580   0.00000  -0.01070  -0.01070   2.55923
   R43        2.71250   0.00460   0.00000   0.01111   0.01111   2.72361
   R44        2.69196  -0.00780   0.00000  -0.01813  -0.01813   2.67383
   R45        2.63478  -0.01438   0.00000  -0.03060  -0.03060   2.60418
   R46        3.32821  -0.00854   0.00000  -0.02775  -0.02774   3.30047
   R47        2.06012  -0.00130   0.00000  -0.00362  -0.00362   2.05651
   R48        2.07353  -0.00136   0.00000  -0.00387  -0.00387   2.06966
   R49        2.07145  -0.00076   0.00000  -0.00215  -0.00215   2.06930
   R50        2.69033  -0.00281   0.00000  -0.00700  -0.00701   2.68332
   R51        2.56751  -0.00541   0.00000  -0.00994  -0.00994   2.55757
   R52        3.26206  -0.00723   0.00000  -0.02038  -0.02038   3.24168
   R53        2.58746  -0.00836   0.00000  -0.01580  -0.01581   2.57165
   R54        2.04403  -0.00073   0.00000  -0.00197  -0.00197   2.04205
   R55        2.68842  -0.00728   0.00000  -0.01682  -0.01682   2.67160
   R56        2.04297  -0.00119   0.00000  -0.00320  -0.00320   2.03976
   R57        2.07440  -0.00163   0.00000  -0.00465  -0.00465   2.06975
   R58        2.05991  -0.00123   0.00000  -0.00342  -0.00342   2.05648
   R59        2.07190  -0.00085   0.00000  -0.00241  -0.00241   2.06949
    A1        2.03797   0.00081   0.00000   0.00337   0.00336   2.04132
    A2        2.14521  -0.00104   0.00000  -0.00413  -0.00412   2.14109
    A3        2.10001   0.00024   0.00000   0.00075   0.00076   2.10077
    A4        2.10395  -0.00111   0.00000  -0.00478  -0.00479   2.09916
    A5        2.08282   0.00265   0.00000   0.00732   0.00734   2.09016
    A6        2.09624  -0.00153   0.00000  -0.00235  -0.00241   2.09383
    A7        2.10093   0.00098   0.00000   0.00395   0.00394   2.10486
    A8        2.07104   0.00038   0.00000   0.00313   0.00310   2.07414
    A9        2.11118  -0.00136   0.00000  -0.00701  -0.00700   2.10418
   A10        2.10296  -0.00101   0.00000  -0.00327  -0.00328   2.09968
   A11        2.09911  -0.00021   0.00000  -0.00028  -0.00034   2.09878
   A12        2.08110   0.00122   0.00000   0.00359   0.00362   2.08472
   A13        2.03739   0.00044   0.00000   0.00156   0.00154   2.03893
   A14        2.12972  -0.00057   0.00000  -0.00210  -0.00209   2.12763
   A15        2.11607   0.00013   0.00000   0.00054   0.00055   2.11662
   A16        2.15098  -0.00397   0.00000  -0.01459  -0.01491   2.13607
   A17        2.04399   0.00473   0.00000   0.02418   0.02376   2.06774
   A18        2.08722  -0.00070   0.00000  -0.00744  -0.00786   2.07936
   A19        2.11101  -0.00156   0.00000  -0.00645  -0.00649   2.10452
   A20        2.04385   0.00326   0.00000   0.01321   0.01305   2.05690
   A21        2.12832  -0.00169   0.00000  -0.00668  -0.00668   2.12164
   A22        2.08678   0.00191   0.00000   0.00556   0.00530   2.09208
   A23        2.04738   0.00375   0.00000   0.01579   0.01549   2.06287
   A24        2.14662  -0.00557   0.00000  -0.01802  -0.01861   2.12801
   A25        2.04892   0.00483   0.00000   0.01620   0.01634   2.06526
   A26        2.00754   0.00408   0.00000   0.01653   0.01640   2.02394
   A27        2.22643  -0.00892   0.00000  -0.03308  -0.03320   2.19322
   A28        2.06022  -0.00134   0.00000  -0.00572  -0.00563   2.05459
   A29        2.17370  -0.00435   0.00000  -0.01621  -0.01628   2.15742
   A30        2.04919   0.00569   0.00000   0.02206   0.02199   2.07117
   A31        2.01621   0.00186   0.00000   0.00797   0.00785   2.02406
   A32        2.14188  -0.00193   0.00000  -0.00775  -0.00772   2.13415
   A33        2.12500   0.00008   0.00000  -0.00005  -0.00003   2.12497
   A34        2.10943  -0.00093   0.00000  -0.00310  -0.00316   2.10627
   A35        2.11468  -0.00140   0.00000  -0.00564  -0.00565   2.10902
   A36        2.05896   0.00233   0.00000   0.00896   0.00893   2.06789
   A37        2.11176  -0.00082   0.00000  -0.00325  -0.00327   2.10849
   A38        2.05670   0.00075   0.00000   0.00363   0.00363   2.06033
   A39        2.11471   0.00007   0.00000  -0.00035  -0.00034   2.11437
   A40        2.08567   0.00054   0.00000   0.00335   0.00327   2.08894
   A41        2.07549   0.00017   0.00000   0.00090   0.00089   2.07639
   A42        2.12199  -0.00070   0.00000  -0.00415  -0.00415   2.11784
   A43        2.20043  -0.00158   0.00000  -0.00569  -0.00573   2.19470
   A44        2.02023   0.00039   0.00000   0.00131   0.00133   2.02157
   A45        2.06252   0.00119   0.00000   0.00437   0.00439   2.06691
   A46        2.18316  -0.00010   0.00000  -0.00081  -0.00082   2.18233
   A47        2.02959   0.00002   0.00000   0.00031   0.00031   2.02990
   A48        2.07044   0.00008   0.00000   0.00051   0.00051   2.07096
   A49        1.91737  -0.00058   0.00000  -0.00327  -0.00327   1.91411
   A50        1.91808  -0.00055   0.00000  -0.00283  -0.00283   1.91525
[...]
 Alpha  occ. eigenvalues --   -0.62698  -0.60868  -0.59890  -0.59323  -0.59012
 Alpha  occ. eigenvalues --   -0.58071  -0.57795  -0.57424  -0.57113  -0.56766
 Alpha  occ. eigenvalues --   -0.56395  -0.56121  -0.55550  -0.55364  -0.54242
 Alpha  occ. eigenvalues --   -0.54081  -0.53567  -0.53472  -0.53173  -0.52424
 Alpha  occ. eigenvalues --   -0.51663  -0.51236  -0.51173  -0.50380  -0.50283
 Alpha  occ. eigenvalues --   -0.49771  -0.49616  -0.49265  -0.48991  -0.48439
 Alpha  occ. eigenvalues --   -0.48309  -0.47218  -0.46875  -0.45855  -0.45191
 Alpha  occ. eigenvalues --   -0.44161  -0.43705  -0.42219  -0.41531  -0.41150
 Alpha  occ. eigenvalues --   -0.40792  -0.40439  -0.39774  -0.38666  -0.37647
 Alpha  occ. eigenvalues --   -0.37481  -0.37097  -0.37027  -0.36170  -0.34780
 Alpha  occ. eigenvalues --   -0.33387  -0.31550  -0.31299  -0.25428
 Alpha virt. eigenvalues --   -0.07273  -0.00153   0.00522   0.02212   0.02933
 Alpha virt. eigenvalues --    0.04971   0.05914   0.06065   0.06762   0.06880
 Alpha virt. eigenvalues --    0.07320   0.07482   0.07601   0.07728   0.07826
 Alpha virt. eigenvalues --    0.08354   0.08619   0.08858   0.09084   0.09168
 Alpha virt. eigenvalues --    0.09372   0.09637   0.10013   0.10206   0.10328
 Alpha virt. eigenvalues --    0.10431   0.11221   0.11392   0.11603   0.11649
 Alpha virt. eigenvalues --    0.11896   0.12167   0.12368   0.12608   0.12803
 Alpha virt. eigenvalues --    0.13388   0.13519   0.13751   0.13963   0.14215
 Alpha virt. eigenvalues --    0.14729   0.14902   0.15183   0.15260   0.15522
 Alpha virt. eigenvalues --    0.15758   0.15998   0.16261   0.16663   0.17081
 Alpha virt. eigenvalues --    0.17298   0.17445   0.17833   0.18009   0.18299
 Alpha virt. eigenvalues --    0.18514   0.18641   0.18889   0.19310   0.19544
 Alpha virt. eigenvalues --    0.19825   0.19930   0.20423   0.20574   0.20695
 Alpha virt. eigenvalues --    0.20795   0.21188   0.21349   0.21637   0.21789
 Alpha virt. eigenvalues --    0.21836   0.21947   0.22454   0.22640   0.22871
 Alpha virt. eigenvalues --    0.22998   0.23529   0.23722   0.23884   0.24200
 Alpha virt. eigenvalues --    0.24404   0.24553   0.24633   0.24760   0.25035
 Alpha virt. eigenvalues --    0.25364   0.25513   0.25853   0.25962   0.26146
 Alpha virt. eigenvalues --    0.26234   0.26290   0.26654   0.26733   0.26965
 Alpha virt. eigenvalues --    0.27074   0.27446   0.27547   0.27765   0.28016
 Alpha virt. eigenvalues --    0.28114   0.28215   0.28491   0.28755   0.29070
 Alpha virt. eigenvalues --    0.29264   0.29399   0.29564   0.29749   0.29838
 Alpha virt. eigenvalues --    0.30078   0.30492   0.30730   0.30838   0.31140
 Alpha virt. eigenvalues --    0.31210   0.31378   0.31717   0.31796   0.32036
 Alpha virt. eigenvalues --    0.32259   0.32439   0.32602   0.32982   0.33115
 Alpha virt. eigenvalues --    0.33365   0.33520   0.33735   0.33772   0.34117
 Alpha virt. eigenvalues --    0.34171   0.34463   0.34816   0.34882   0.35211
 Alpha virt. eigenvalues --    0.35551   0.35781   0.35965   0.36136   0.36323
 Alpha virt. eigenvalues --    0.36499   0.36988   0.37160   0.37336   0.37456
 Alpha virt. eigenvalues --    0.37689   0.37880   0.38272   0.38469   0.38763
 Alpha virt. eigenvalues --    0.38997   0.39266   0.39410   0.39567   0.39910
 Alpha virt. eigenvalues --    0.40266   0.40299   0.40640   0.41024   0.41254
 Alpha virt. eigenvalues --    0.41679   0.41830   0.42462   0.42576   0.43113
 Alpha virt. eigenvalues --    0.43282   0.43572   0.43784   0.44491   0.45128
 Alpha virt. eigenvalues --    0.45540   0.45815   0.46139   0.46347   0.46645
 Alpha virt. eigenvalues --    0.46820   0.46975   0.47776   0.48058   0.49095
 Alpha virt. eigenvalues --    0.49332   0.49451   0.49867   0.50154   0.50997
 Alpha virt. eigenvalues --    0.51147   0.51782   0.52352   0.52862   0.53053
 Alpha virt. eigenvalues --    0.53282   0.53614   0.53907   0.54379   0.54525
 Alpha virt. eigenvalues --    0.54857   0.55141   0.55958   0.56515   0.57528
 Alpha virt. eigenvalues --    0.57755   0.58217   0.58490   0.58942   0.59368
 Alpha virt. eigenvalues --    0.59705   0.60136   0.61280   0.61446   0.61608
 Alpha virt. eigenvalues --    0.62614   0.62853   0.63435   0.63693   0.64087
 Alpha virt. eigenvalues --    0.64427   0.64938   0.65057   0.65255   0.65465
 Alpha virt. eigenvalues --    0.65803   0.66423   0.66837   0.67185   0.67575
 Alpha virt. eigenvalues --    0.68451   0.68562   0.68940   0.69130   0.69302
 Alpha virt. eigenvalues --    0.69754   0.70206   0.70568   0.70960   0.71016
 Alpha virt. eigenvalues --    0.71947   0.72179   0.72604   0.72908   0.73378
 Alpha virt. eigenvalues --    0.73590   0.73780   0.74205   0.74502   0.74912
 Alpha virt. eigenvalues --    0.75438   0.75828   0.75919   0.76388   0.76898
 Alpha virt. eigenvalues --    0.77429   0.77585   0.77800   0.78328   0.78862
 Alpha virt. eigenvalues --    0.79174   0.79521   0.79889   0.80051   0.80708
 Alpha virt. eigenvalues --    0.81055   0.81474   0.81814   0.82106   0.82478
 Alpha virt. eigenvalues --    0.83006   0.83350   0.83550   0.83754   0.83922
 Alpha virt. eigenvalues --    0.84153   0.84462   0.84743   0.85088   0.85611
 Alpha virt. eigenvalues --    0.85742   0.86299   0.86812   0.87091   0.87286
 Alpha virt. eigenvalues --    0.87598   0.88041   0.88360   0.89381   0.89716
 Alpha virt. eigenvalues --    0.90215   0.91493   0.91881   0.92760   0.93542
 Alpha virt. eigenvalues --    0.94146   0.94712   0.95436   0.95819   0.96832
 Alpha virt. eigenvalues --    0.96881   0.97303   0.97606   0.98013   0.98710
 Alpha virt. eigenvalues --    0.99849   1.00227   1.00529   1.00834   1.01088
 Alpha virt. eigenvalues --    1.01855   1.02198   1.02287   1.02792   1.03682
 Alpha virt. eigenvalues --    1.04061   1.04370   1.05074   1.05358   1.05650
 Alpha virt. eigenvalues --    1.05934   1.05991   1.07021   1.07666   1.08429
 Alpha virt. eigenvalues --    1.08806   1.09041   1.09327   1.09818   1.10233
 Alpha virt. eigenvalues --    1.10741   1.11533   1.11759   1.12502   1.13063
 Alpha virt. eigenvalues --    1.13219   1.13747   1.13973   1.14286   1.14901
 Alpha virt. eigenvalues --    1.15439   1.15795   1.15876   1.16108   1.16492
 Alpha virt. eigenvalues --    1.17583   1.17715   1.18428   1.18954   1.19299
 Alpha virt. eigenvalues --    1.19438   1.20392   1.20706   1.21276   1.22234
 Alpha virt. eigenvalues --    1.23546   1.23655   1.24392   1.25399   1.25985
 Alpha virt. eigenvalues --    1.26214   1.27122   1.27629   1.27718   1.29202
 Alpha virt. eigenvalues --    1.29565   1.30191   1.31348   1.32308   1.33496
 Alpha virt. eigenvalues --    1.33882   1.34402   1.34755   1.34943   1.35450
 Alpha virt. eigenvalues --    1.35744   1.36733   1.37378   1.38655   1.40203
 Alpha virt. eigenvalues --    1.40739   1.41066   1.42041   1.42502   1.43526
 Alpha virt. eigenvalues --    1.44452   1.45086   1.45258   1.46461   1.47013
 Alpha virt. eigenvalues --    1.48092   1.49313   1.49829   1.50532   1.50920
 Alpha virt. eigenvalues --    1.51711   1.52027   1.52111   1.52583   1.53169
 Alpha virt. eigenvalues --    1.53401   1.53591   1.53883   1.54131   1.54378
 Alpha virt. eigenvalues --    1.54881   1.55092   1.55419   1.56497   1.57219
 Alpha virt. eigenvalues --    1.58111   1.58877   1.59810   1.60327   1.60460
 Alpha virt. eigenvalues --    1.61065   1.61580   1.62518   1.63185   1.63296
 Alpha virt. eigenvalues --    1.64031   1.64164   1.64351   1.65046   1.65219
 Alpha virt. eigenvalues --    1.66325   1.67201   1.68324   1.68734   1.69784
 Alpha virt. eigenvalues --    1.70397   1.71424   1.72008   1.72527   1.73131
 Alpha virt. eigenvalues --    1.73906   1.74614   1.75077   1.75805   1.76090
 Alpha virt. eigenvalues --    1.76929   1.77209   1.77826   1.78358   1.78523
 Alpha virt. eigenvalues --    1.78988   1.79350   1.79653   1.79813   1.80350
 Alpha virt. eigenvalues --    1.81381   1.82023   1.82350   1.83332   1.83736
 Alpha virt. eigenvalues --    1.84514   1.85328   1.85623   1.87279   1.87709
 Alpha virt. eigenvalues --    1.88133   1.88980   1.89773   1.90200   1.90886
 Alpha virt. eigenvalues --    1.91760   1.92430   1.93696   1.94700   1.95054
 Alpha virt. eigenvalues --    1.95220   1.95638   1.96014   1.96320   1.97422
 Alpha virt. eigenvalues --    1.97699   1.98654   1.99033   1.99204   1.99572
 Alpha virt. eigenvalues --    2.00577   2.00655   2.01255   2.02991   2.03814
 Alpha virt. eigenvalues --    2.04244   2.04721   2.05730   2.06671   2.07136
 Alpha virt. eigenvalues --    2.07659   2.08528   2.09603   2.10177   2.10863
 Alpha virt. eigenvalues --    2.11063   2.12127   2.12522   2.13324   2.13672
 Alpha virt. eigenvalues --    2.14594   2.15140   2.15666   2.15735   2.16709
 Alpha virt. eigenvalues --    2.17382   2.17895   2.18514   2.19628   2.20875
 Alpha virt. eigenvalues --    2.21284   2.21970   2.22768   2.23722   2.24086
 Alpha virt. eigenvalues --    2.24540   2.25163   2.25421   2.26012   2.26989
 Alpha virt. eigenvalues --    2.27975   2.29010   2.29341   2.29944   2.31078
 Alpha virt. eigenvalues --    2.31447   2.32505   2.34289   2.34569   2.35526
 Alpha virt. eigenvalues --    2.37077   2.40531   2.41985   2.42225   2.43532
 Alpha virt. eigenvalues --    2.46243   2.47441   2.48689   2.49022   2.51567
 Alpha virt. eigenvalues --    2.52899   2.53209   2.53933   2.54165   2.54823
 Alpha virt. eigenvalues --    2.55432   2.56520   2.57011   2.58065   2.59028
 Alpha virt. eigenvalues --    2.59714   2.59840   2.61596   2.61722   2.62205
 Alpha virt. eigenvalues --    2.62568   2.62734   2.63541   2.63949   2.65278
 Alpha virt. eigenvalues --    2.66131   2.66308   2.67854   2.68827   2.69008
 Alpha virt. eigenvalues --    2.70471   2.72229   2.74008   2.74073   2.74387
 Alpha virt. eigenvalues --    2.76531   2.77026   2.77602   2.77725   2.78164
 Alpha virt. eigenvalues --    2.78756   2.79511   2.79872   2.80786   2.80891
 Alpha virt. eigenvalues --    2.81276   2.82056   2.82605   2.83541   2.84257
 Alpha virt. eigenvalues --    2.85119   2.86426   2.88201   2.88859   2.89112
 Alpha virt. eigenvalues --    2.90563   2.92179   2.93555   2.93890   2.94499
 Alpha virt. eigenvalues --    2.94735   2.95118   2.95543   2.95723   2.96450
 Alpha virt. eigenvalues --    2.97514   2.98052   2.98332   2.99082   2.99739
 Alpha virt. eigenvalues --    2.99987   3.01502   3.01816   3.02719   3.04054
 Alpha virt. eigenvalues --    3.05201   3.05589   3.07097   3.08591   3.10309
 Alpha virt. eigenvalues --    3.11418   3.12158   3.12512   3.14154   3.15450
 Alpha virt. eigenvalues --    3.15975   3.16537   3.17662   3.18674   3.19224
 Alpha virt. eigenvalues --    3.19880   3.20671   3.23478   3.24039   3.25133
 Alpha virt. eigenvalues --    3.26387   3.27761   3.28548   3.31691   3.32408
 Alpha virt. eigenvalues --    3.32863   3.34483   3.34941   3.35718   3.36300
 Alpha virt. eigenvalues --    3.37121   3.40043   3.40249   3.43292   3.43628
 Alpha virt. eigenvalues --    3.44072   3.44640   3.44895   3.46225   3.47048
 Alpha virt. eigenvalues --    3.48759   3.50001   3.50897   3.53090   3.54256
 Alpha virt. eigenvalues --    3.54793   3.56070   3.56955   3.57612   3.59791
 Alpha virt. eigenvalues --    3.60419   3.62277   3.64635   3.66796   3.68494
 Alpha virt. eigenvalues --    3.70481   3.71080   3.72240   3.75647   3.76347
 Alpha virt. eigenvalues --    3.77815   3.79798   3.82559   3.82761   3.83736
 Alpha virt. eigenvalues --    3.87336   3.87588   3.87831   3.92468   3.93184
 Alpha virt. eigenvalues --    3.95186   3.95645   3.96046   3.99998   4.02304
 Alpha virt. eigenvalues --    4.03204   4.04335   4.05873   4.06878   4.11022
 Alpha virt. eigenvalues --    4.13305   4.14462   4.19202   4.21691   4.21957
 Alpha virt. eigenvalues --    4.25339   4.29449   4.33756   4.34983   4.37805
 Alpha virt. eigenvalues --    4.45311   4.48365   4.50207   4.60668   4.77702
 Alpha virt. eigenvalues --    4.95099   4.98330   4.98574   5.01241   5.13858
 Alpha virt. eigenvalues --    5.14978   5.15472   5.16507   5.16707   5.20990
 Alpha virt. eigenvalues --    5.22360   5.23635   5.36219   5.37815   5.39911
 Alpha virt. eigenvalues --    5.42327   5.55355   5.56777   5.87398   5.89755
 Alpha virt. eigenvalues --    5.91482   5.93248   5.93396   5.96718   8.15186
 Alpha virt. eigenvalues --    8.18239  17.43854  17.48373  17.64774  17.67785
 Alpha virt. eigenvalues --   17.73039  17.77491  23.61755  23.70633  23.86124
 Alpha virt. eigenvalues --   23.92285  23.95921  23.96834  23.97918  24.00244
 Alpha virt. eigenvalues --   24.01061  24.01979  24.02689  24.04578  24.05261
 Alpha virt. eigenvalues --   24.07179  24.08281  24.09548  24.10565  24.15166
 Alpha virt. eigenvalues --   24.17230  24.20208  24.21041  24.21655  24.27480
 Alpha virt. eigenvalues --   24.28764  24.30463  24.31197  35.69867  35.72462
 Alpha virt. eigenvalues --   50.11249  50.12535  50.16445  50.18222  50.20336
 Alpha virt. eigenvalues --   50.21745 189.40684 189.44407
          Condensed to atoms (all electrons):
 Mulliken charges:
               1
     1  C    0.468449
     2  C   -0.075266
     3  C    0.088187
     4  C    0.164641
     5  C    0.356865
     6  C   -0.820991
     7  C    0.139855
     8  C    0.181044
     9  C    0.572185
    10  C   -0.403808
    11  C    0.382097
    12  C    0.109073
    13  C   -0.568669
    14  C   -0.723063
    15  H    0.188422
    16  H    0.189280
    17  H    0.206556
    18  N   -0.066869
    19  N   -0.096711
    20  O   -0.258983
    21  O   -0.267748
    22  O   -0.273321
    23  O   -0.109611
    24  C   -0.270720
    25  H    0.189666
    26  H    0.201996
    27  H    0.201205
    28  C   -0.282497
    29  H    0.193331
    30  H    0.194820
    31  H    0.200857
    32  C    0.230050
    33  C   -0.390149
    34  S   -0.418128
    35  C   -0.327032
    36  H    0.145728
    37  C    0.445757
    38  O   -0.106107
    39  C    0.909632
    40  C   -0.303452
    41  C    0.036683
    42  S   -0.283172
    43  H    0.181414
    44  H    0.173497
    45  H    0.154819
    46  C   -0.511853
    47  O   -0.116789
    48  C   -0.360251
    49  H    0.154885
    50  C   -0.304456
    51  H    0.184944
    52  H    0.155832
    53  H    0.179256
    54  H    0.158620
 Sum of Mulliken charges =  -0.00000
 Mulliken charges with hydrogens summed into heavy atoms:
               1
     1  C    0.468449
     2  C   -0.075266
     3  C    0.088187
     4  C    0.164641
     5  C    0.356865
     6  C   -0.614435
     7  C    0.139855
     8  C    0.181044
     9  C    0.572185
    10  C   -0.403808
    11  C    0.382097
    12  C    0.109073
    13  C   -0.379389
    14  C   -0.534640
    18  N   -0.066869
    19  N   -0.096711
    20  O   -0.258983
    21  O   -0.267748
    22  O   -0.273321
    23  O   -0.109611
    24  C    0.322147
    28  C    0.306511
    32  C    0.230050
    33  C   -0.244421
    34  S   -0.418128
    35  C   -0.327032
    37  C    0.445757
    38  O   -0.106107
    39  C    0.909632
    40  C    0.206278
    41  C    0.036683
    42  S   -0.283172
    46  C   -0.356968
    47  O   -0.116789
    48  C   -0.175307
    50  C    0.189252
 Electronic spatial extent (au):  <R**2>=          22137.3738
 Charge=             -0.0000 electrons
 Dipole moment (field-independent basis, Debye):
    X=              1.5621    Y=              0.0691    Z=              0.0907  Tot=              1.5663
 Quadrupole moment (field-independent basis, Debye-Ang):
   XX=           -217.3539   YY=           -217.9590   ZZ=           -208.2495
   XY=             -1.8701   XZ=             -7.0639   YZ=             16.3489
 Traceless Quadrupole moment (field-independent basis, Debye-Ang):
   XX=             -2.8331   YY=             -3.4382   ZZ=              6.2714
   XY=             -1.8701   XZ=             -7.0639   YZ=             16.3489
 Octapole moment (field-independent basis, Debye-Ang**2):
  XXX=            281.9996  YYY=            -14.5050  ZZZ=              0.7919  XYY=             66.6264
  XXY=            -63.4517  XXZ=            -41.7860  XZZ=             38.3563  YZZ=              0.1115
  YYZ=             -4.5170  XYZ=             55.2729
 Hexadecapole moment (field-independent basis, Debye-Ang**3):
 XXXX=         -20816.7478 YYYY=          -6594.7947 ZZZZ=          -1643.0163 XXXY=           -475.6695
 XXXZ=           -289.7680 YYYX=            408.6150 YYYZ=            139.2020 ZZZX=            -41.0023
 ZZZY=            111.1541 XXYY=          -4707.0415 XXZZ=          -3709.1212 YYZZ=          -1284.8481
 XXYZ=            295.5348 YYXZ=           -127.1067 ZZXY=             11.4599
 N-N= 4.105769284598D+03 E-N=-1.375139149217D+04  KE= 2.352007631571D+03
 Unable to Open any file for archive entry.
 1\1\GINC-CX3-1-9\FOpt\RwB97XD\6-311+G(d,p)\C26H18N2O6S2\NS5018\27-Nov-
 2020\0\\# opt=modredundant wb97xd/6-311+g(d,p)\\NDI_65.pdb\\0,1\C,-2.6
 234825684,-2.9330473385,-0.710201502\C,-2.2926757779,-1.5070745018,-0.
 4483950877\C,-3.3015758453,-0.6068690042,-0.0504091311\C,-4.6319922008
 ,-1.0441139085,0.1115362979\C,-4.9916015373,-2.4664582936,-0.142105981
 7\C,-1.0000398186,-1.0772674441,-0.5717247025\C,-2.9647228659,0.743321
 8504,0.182304103\C,-1.6251795656,1.185257742,0.0157397036\C,-0.6338890
 965,0.2699126791,-0.3208039402\C,-1.3461581902,2.6491806456,0.13597871
 49\C,-3.6896154081,3.0570609961,0.8573796268\C,-3.9888439746,1.6275150
 79,0.5895680447\C,-5.2807886939,1.1813255657,0.749527547\C,-5.60856928
 73,-0.1608609372,0.5073126948\H,-6.6239606011,-0.5175971361,0.62786000
 93\H,-6.0366611709,1.8890057975,1.0672708997\H,-0.2332330859,-1.791894
 3821,-0.8468026182\N,-2.378852275,3.4609119684,0.6258772177\N,-3.95483
 03729,-3.3138090103,-0.5421972098\O,-1.7921412221,-3.7417079451,-1.053
 7896279\O,-6.1238051243,-2.8717285999,-0.0108311252\O,-4.5371655131,3.
 8304673537,1.2444233647\O,-0.2973789403,3.1606903179,-0.1742460634\C,-
 2.050737553,4.876165882,0.7944066375\H,-1.1412325826,4.9689118086,1.38
 61981302\H,-1.8801647975,5.3411131927,-0.1776114332\H,-2.8858767134,5.
 3557349723,1.2960613698\C,-4.2607188478,-4.7195119665,-0.8054463167\H,
 -3.9883354729,-4.9686326004,-1.8310181768\H,-3.6871541214,-5.354439002
 5,-0.1298521241\H,-5.3251927133,-4.8662046641,-0.6493536162\C,0.801044
 8921,0.5923451006,-0.408191586\C,1.6278033369,0.9769913053,0.604757648
 \S,1.658406411,0.3665683808,-1.8875535669\C,2.9717138041,1.1159500746,
 0.1754769425\H,1.2785128527,1.1650923336,1.6099674952\C,3.1689035676,0
 .8278764286,-1.1576509477\O,4.021841762,1.4832504123,0.947241849\C,4.4
 069623253,0.9030612792,-1.9035347681\C,3.7368321741,1.9792052819,2.238
 6791552\C,4.6051289887,0.575484863,-3.2272149744\S,5.9016782692,1.4637
 016465,-1.2071148586\H,4.6890429157,2.3002597544,2.6574297461\H,3.0520
 772022,2.8328017535,2.1904816271\H,3.3084547963,1.1989339969,2.8776936
 688\C,5.9395365264,0.7727553059,-3.6784749654\O,3.5677697518,0.1144695
 487,-3.9658946525\C,6.7405800002,1.249980093,-2.6859139927\H,6.2872695
 87,0.5713489212,-4.6814618135\C,3.8175720416,-0.2061741608,-5.31804143
 24\H,7.7924349314,1.4845960204,-2.7465805372\H,4.5626694816,-1.0045984
 45,-5.4045909943\H,2.8701854902,-0.5525434727,-5.7273055605\H,4.154154
 8297,0.6732844621,-5.8778591865\\Version=ES64L-G16RevC.01\State=1-A\HF
 =-2358.7739661\RMSD=2.104e-09\RMSF=2.081e-04\Dipole=0.5967157,0.121040
 6,-0.0948831\Quadrupole=-4.6732148,-9.7978634,14.4710783,3.2170993,-2.
 2554521,3.8148207\PG=C01 [X(C26H18N2O6S2)]\\@
 The archive entry for this job was punched.


 A true friend is someone who is there for
 you when he'd rather be anywhere else.
                               -- Len Wein
 Job cpu time:       5 days  2 hours 13 minutes 59.7 seconds.
 Elapsed time:       0 days  7 hours 53 minutes 32.2 seconds.
 File lengths (MBytes):  RWF=    525 Int=      0 D2E=      0 Chk=     77 Scr=      1
 Normal termination of Gaussian 16 at Fri Nov 27 06:16:19 2020.
