 Entering Gaussian System, Link 0=g16
 Input=NDI_-65.gjf
 Output=NDI_-65.log
 Initial command:
 /apps/gaussian/g16-c01-avx/g16/l1.exe "/tmp/pbs.2610759[23].pbs/Gau-3911613.inp" -scrdir="/tmp/pbs.2610759[23].pbs/"
 Entering Link 1 = /apps/gaussian/g16-c01-avx/g16/l1.exe PID=   3911614.
  
 Copyright (c) 1988-2019, Gaussian, Inc.  All Rights Reserved.
  
 This is part of the Gaussian(R) 16 program.  It is based on
 the Gaussian(R) 09 system (copyright 2009, Gaussian, Inc.),
 the Gaussian(R) 03 system (copyright 2003, Gaussian, Inc.),
 the Gaussian(R) 98 system (copyright 1998, Gaussian, Inc.),
 the Gaussian(R) 94 system (copyright 1995, Gaussian, Inc.),
 the Gaussian 92(TM) system (copyright 1992, Gaussian, Inc.),
 the Gaussian 90(TM) system (copyright 1990, Gaussian, Inc.),
 the Gaussian 88(TM) system (copyright 1988, Gaussian, Inc.),
 the Gaussian 86(TM) system (copyright 1986, Carnegie Mellon
 University), and the Gaussian 82(TM) system (copyright 1983,
 Carnegie Mellon University). Gaussian is a federally registered
 trademark of Gaussian, Inc.
  
 This software contains proprietary and confidential information,
 including trade secrets, belonging to Gaussian, Inc.
  
 This software is provided under written license and may be
 used, copied, transmitted, or stored only in accord with that
 written license.
  
 The following legend is applicable only to US Government
 contracts under FAR:
  
                    RESTRICTED RIGHTS LEGEND
  
 Use, reproduction and disclosure by the US Government is
 subject to restrictions as set forth in subparagraphs (a)
 and (c) of the Commercial Computer Software - Restricted
 Rights clause in FAR 52.227-19.
  
 Gaussian, Inc.
 340 Quinnipiac St., Bldg. 40, Wallingford CT 06492
  
  
 ---------------------------------------------------------------
 Warning -- This program may not be used in any manner that
 competes with the business of Gaussian, Inc. or will provide
 assistance to any competitor of Gaussian, Inc.  The licensee
 of this program is prohibited from giving any competitor of
 Gaussian, Inc. access to this program.  By using this program,
 the user acknowledges that Gaussian, Inc. is engaged in the
 business of creating and licensing software in the field of
 computational chemistry and represents and warrants to the
 licensee that it is not a competitor of Gaussian, Inc. and that
 it will not use this program in any manner prohibited above.
 ---------------------------------------------------------------
  

 Cite this work as:
 Gaussian 16, Revision C.01,
 M. J. Frisch, G. W. Trucks, H. B. Schlegel, G. E. Scuseria, 
 M. A. Robb, J. R. Cheeseman, G. Scalmani, V. Barone, 
 G. A. Petersson, H. Nakatsuji, X. Li, M. Caricato, A. V. Marenich, 
 J. Bloino, B. G. Janesko, R. Gomperts, B. Mennucci, H. P. Hratchian, 
 J. V. Ortiz, A. F. Izmaylov, J. L. Sonnenberg, D. Williams-Young, 
 F. Ding, F. Lipparini, F. Egidi, J. Goings, B. Peng, A. Petrone, 
 T. Henderson, D. Ranasinghe, V. G. Zakrzewski, J. Gao, N. Rega, 
 G. Zheng, W. Liang, M. Hada, M. Ehara, K. Toyota, R. Fukuda, 
 J. Hasegawa, M. Ishida, T. Nakajima, Y. Honda, O. Kitao, H. Nakai, 
 T. Vreven, K. Throssell, J. A. Montgomery, Jr., J. E. Peralta, 
 F. Ogliaro, M. J. Bearpark, J. J. Heyd, E. N. Brothers, K. N. Kudin, 
 V. N. Staroverov, T. A. Keith, R. Kobayashi, J. Normand, 
 K. Raghavachari, A. P. Rendell, J. C. Burant, S. S. Iyengar, 
 J. Tomasi, M. Cossi, J. M. Millam, M. Klene, C. Adamo, R. Cammi, 
 J. W. Ochterski, R. L. Martin, K. Morokuma, O. Farkas, 
 J. B. Foresman, and D. J. Fox, Gaussian, Inc., Wallingford CT, 2019.
 
 ******************************************
 Gaussian 16:  ES64L-G16RevC.01  3-Jul-2019
                26-Nov-2020 
 ******************************************
 %mem=10GB
 %nprocshared=16
 Will use up to   16 processors via shared memory.
 --------------------------------------
 # opt=modredundant wb97xd/6-311+g(d,p)
 --------------------------------------
 1/18=120,19=15,26=3,38=1/1,3;
 2/9=110,12=2,17=6,18=5,40=1/2;
 3/5=4,6=6,7=111,11=2,25=1,30=1,71=1,74=-58/1,2,3;
 4//1;
 5/5=2,38=5/2;
 6/7=2,8=2,9=2,10=2,28=1/1;
 7//1,2,3,16;
 1/18=20,19=15,26=3/3(2);
 2/9=110/2;
 99//99;
 2/9=110/2;
 3/5=4,6=6,7=111,11=2,25=1,30=1,71=1,74=-58/1,2,3;
 4/5=5,16=3,69=1/1;
 5/5=2,38=5/2;
 7//1,2,3,16;
 1/18=20,19=15,26=3/3(-5);
 2/9=110/2;
 6/7=2,8=2,9=2,10=2,19=2,28=1/1;
 99/9=1/99;
 -----------
 NDI_-65.pdb
 -----------
 Symbolic Z-matrix:
 Charge =  0 Multiplicity = 1
 C                    -2.563    -2.994    -0.409 
 C                    -2.257    -1.551    -0.224 
 C                    -3.301    -0.607    -0.083 
 C                    -4.65     -1.024    -0.115 
 C                    -4.992    -2.459    -0.304 
 C                    -0.949    -1.137    -0.215 
 C                    -2.962     0.764     0.102 
 C                    -1.595     1.188     0.123 
 C                    -0.561     0.232    -0.072 
 C                    -1.328     2.616     0.446 
 C                    -3.777     3.115     0.508 
 C                    -4.035     1.679     0.268 
 C                    -5.356     1.252     0.23 
 C                    -5.672    -0.098     0.036 
 H                    -6.699    -0.442     0.008 
 H                    -6.133     1.997     0.361 
 H                    -0.19     -1.895    -0.369 
 N                    -2.432     3.476     0.608 
 N                    -3.916    -3.353    -0.438 
 O                    -1.695    -3.847    -0.532 
 O                    -6.149    -2.85     -0.34 
 O                    -4.676     3.938     0.629 
 O                    -0.212     3.097     0.596 
 C                    -2.111     4.875     0.912 
 H                    -1.54      4.931     1.84 
 H                    -1.5       5.299     0.111 
 H                    -3.05      5.414     1.003 
 C                    -4.206    -4.779    -0.625 
 H                    -3.759    -5.126    -1.559 
 H                    -3.775    -5.355     0.196 
 H                    -5.286    -4.897    -0.649 
 C                     0.876     0.482    -0.178 
 C                     1.607     1.167    -1.129 
 S                     1.962    -0.3       0.972 
 C                     3.        1.076    -0.943 
 H                     1.147     1.724    -1.93 
 C                     3.386     0.319     0.168 
 O                     3.96      1.641    -1.722 
 C                     4.718     0.077     0.645 
 C                     3.531     2.521    -2.758 
 C                     5.103    -0.697     1.739 
 S                     6.152     0.757    -0.12 
 H                     4.44      2.924    -3.204 
 H                     2.959     1.983    -3.524 
 H                     2.922     3.339    -2.356 
 C                     6.509    -0.741     1.956 
 O                     4.149    -1.318     2.481 
 C                     7.193    -0.003     1.029 
 H                     6.988    -1.291     2.755 
 C                     4.574    -2.129     3.57 
 H                     8.263     0.135     0.957 
 H                     5.111    -1.537     4.322 
 H                     3.666    -2.537     4.013 
 H                     5.214    -2.951     3.228 
 
 The following ModRedundant input section has been read:
 D       8       9      32      33 F                                           
 

 GradGradGradGradGradGradGradGradGradGradGradGradGradGradGradGradGradGrad
 Berny optimization.
 Initialization pass.
                           ----------------------------
                           !    Initial Parameters    !
                           ! (Angstroms and Degrees)  !
 --------------------------                            --------------------------
 ! Name  Definition              Value          Derivative Info.                !
 --------------------------------------------------------------------------------
 ! R1    R(1,2)                  1.4866         estimate D2E/DX2                !
 ! R2    R(1,19)                 1.4001         estimate D2E/DX2                !
 ! R3    R(1,20)                 1.2232         estimate D2E/DX2                !
 ! R4    R(2,3)                  1.4146         estimate D2E/DX2                !
 ! R5    R(2,6)                  1.372          estimate D2E/DX2                !
 ! R6    R(3,4)                  1.4123         estimate D2E/DX2                !
 ! R7    R(3,7)                  1.4244         estimate D2E/DX2                !
 ! R8    R(4,5)                  1.4872         estimate D2E/DX2                !
 ! R9    R(4,14)                 1.3874         estimate D2E/DX2                !
 ! R10   R(5,19)                 1.4053         estimate D2E/DX2                !
 ! R11   R(5,21)                 1.2218         estimate D2E/DX2                !
 ! R12   R(6,9)                  1.4301         estimate D2E/DX2                !
 ! R13   R(6,17)                 1.0837         estimate D2E/DX2                !
 ! R14   R(7,8)                  1.4314         estimate D2E/DX2                !
 ! R15   R(7,12)                 1.4199         estimate D2E/DX2                !
 ! R16   R(8,9)                  1.4217         estimate D2E/DX2                !
 ! R17   R(8,10)                 1.4882         estimate D2E/DX2                !
 ! R18   R(9,32)                 1.4624         estimate D2E/DX2                !
 ! R19   R(10,18)                1.4088         estimate D2E/DX2                !
 ! R20   R(10,23)                1.2245         estimate D2E/DX2                !
 ! R21   R(11,12)                1.4786         estimate D2E/DX2                !
 ! R22   R(11,18)                1.3962         estimate D2E/DX2                !
 ! R23   R(11,22)                1.2248         estimate D2E/DX2                !
 ! R24   R(12,13)                1.3888         estimate D2E/DX2                !
 ! R25   R(13,14)                1.4            estimate D2E/DX2                !
 ! R26   R(13,16)                1.0844         estimate D2E/DX2                !
 ! R27   R(14,15)                1.0834         estimate D2E/DX2                !
 ! R28   R(18,24)                1.4672         estimate D2E/DX2                !
 ! R29   R(19,28)                1.4672         estimate D2E/DX2                !
 ! R30   R(24,25)                1.091          estimate D2E/DX2                !
 ! R31   R(24,26)                1.093          estimate D2E/DX2                !
 ! R32   R(24,27)                1.0865         estimate D2E/DX2                !
 ! R33   R(28,29)                1.0921         estimate D2E/DX2                !
 ! R34   R(28,30)                1.0916         estimate D2E/DX2                !
 ! R35   R(28,31)                1.0867         estimate D2E/DX2                !
 ! R36   R(32,33)                1.3813         estimate D2E/DX2                !
 ! R37   R(32,34)                1.7645         estimate D2E/DX2                !
 ! R38   R(33,35)                1.4083         estimate D2E/DX2                !
 ! R39   R(33,36)                1.0786         estimate D2E/DX2                !
 ! R40   R(34,37)                1.7485         estimate D2E/DX2                !
 ! R41   R(35,37)                1.3987         estimate D2E/DX2                !
 ! R42   R(35,38)                1.3593         estimate D2E/DX2                !
 ! R43   R(37,39)                1.4354         estimate D2E/DX2                !
 ! R44   R(38,40)                1.4254         estimate D2E/DX2                !
 ! R45   R(39,41)                1.3943         estimate D2E/DX2                !
 ! R46   R(39,42)                1.7618         estimate D2E/DX2                !
 ! R47   R(40,43)                1.0898         estimate D2E/DX2                !
 ! R48   R(40,44)                1.097          estimate D2E/DX2                !
 ! R49   R(40,45)                1.0962         estimate D2E/DX2                !
 ! R50   R(41,46)                1.4233         estimate D2E/DX2                !
 ! R51   R(41,47)                1.3588         estimate D2E/DX2                !
 ! R52   R(42,48)                1.7267         estimate D2E/DX2                !
 ! R53   R(46,48)                1.3681         estimate D2E/DX2                !
 ! R54   R(46,49)                1.0818         estimate D2E/DX2                !
 ! R55   R(47,50)                1.4228         estimate D2E/DX2                !
 ! R56   R(48,51)                1.0813         estimate D2E/DX2                !
 ! R57   R(50,52)                1.0974         estimate D2E/DX2                !
 ! R58   R(50,53)                1.0896         estimate D2E/DX2                !
 ! R59   R(50,54)                1.0965         estimate D2E/DX2                !
 ! A1    A(2,1,19)             116.767          estimate D2E/DX2                !
 ! A2    A(2,1,20)             122.9113         estimate D2E/DX2                !
 ! A3    A(19,1,20)            120.3217         estimate D2E/DX2                !
 ! A4    A(1,2,3)              120.5473         estimate D2E/DX2                !
 ! A5    A(1,2,6)              119.3369         estimate D2E/DX2                !
 ! A6    A(3,2,6)              120.1056         estimate D2E/DX2                !
 ! A7    A(2,3,4)              120.3743         estimate D2E/DX2                !
 ! A8    A(2,3,7)              118.662          estimate D2E/DX2                !
 ! A9    A(4,3,7)              120.9617         estimate D2E/DX2                !
 ! A10   A(3,4,5)              120.4909         estimate D2E/DX2                !
 ! A11   A(3,4,14)             120.2702         estimate D2E/DX2                !
 ! A12   A(5,4,14)             119.2382         estimate D2E/DX2                !
 ! A13   A(4,5,19)             116.7341         estimate D2E/DX2                !
 ! A14   A(4,5,21)             122.024          estimate D2E/DX2                !
 ! A15   A(19,5,21)            121.2418         estimate D2E/DX2                !
 ! A16   A(2,6,9)              123.2421         estimate D2E/DX2                !
 ! A17   A(2,6,17)             117.1119         estimate D2E/DX2                !
 ! A18   A(9,6,17)             119.589          estimate D2E/DX2                !
 ! A19   A(3,7,8)              120.9519         estimate D2E/DX2                !
 ! A20   A(3,7,12)             117.1037         estimate D2E/DX2                !
 ! A21   A(8,7,12)             121.944          estimate D2E/DX2                !
 ! A22   A(7,8,9)              119.5639         estimate D2E/DX2                !
 ! A23   A(7,8,10)             117.3064         estimate D2E/DX2                !
 ! A24   A(9,8,10)             122.9922         estimate D2E/DX2                !
 ! A25   A(6,9,8)              117.3944         estimate D2E/DX2                !
 ! A26   A(6,9,32)             115.0236         estimate D2E/DX2                !
 ! A27   A(8,9,32)             127.5648         estimate D2E/DX2                !
 ! A28   A(8,10,18)            118.042          estimate D2E/DX2                !
 ! A29   A(8,10,23)            124.5436         estimate D2E/DX2                !
 ! A30   A(18,10,23)           117.4097         estimate D2E/DX2                !
 ! A31   A(12,11,18)           115.5202         estimate D2E/DX2                !
 ! A32   A(12,11,22)           122.7205         estimate D2E/DX2                !
 ! A33   A(18,11,22)           121.7534         estimate D2E/DX2                !
 ! A34   A(7,12,11)            120.8614         estimate D2E/DX2                !
 ! A35   A(7,12,13)            121.162          estimate D2E/DX2                !
 ! A36   A(11,12,13)           117.9699         estimate D2E/DX2                !
 ! A37   A(12,13,14)           120.9948         estimate D2E/DX2                !
 ! A38   A(12,13,16)           117.8401         estimate D2E/DX2                !
 ! A39   A(14,13,16)           121.1642         estimate D2E/DX2                !
 ! A40   A(4,14,13)            119.5003         estimate D2E/DX2                !
 ! A41   A(4,14,15)            118.9169         estimate D2E/DX2                !
 ! A42   A(13,14,15)           121.5811         estimate D2E/DX2                !
 ! A43   A(10,18,11)           126.0753         estimate D2E/DX2                !
 ! A44   A(10,18,24)           115.7508         estimate D2E/DX2                !
 ! A45   A(11,18,24)           118.1737         estimate D2E/DX2                !
 ! A46   A(1,19,5)             125.0856         estimate D2E/DX2                !
 ! A47   A(1,19,28)            116.2868         estimate D2E/DX2                !
 ! A48   A(5,19,28)            118.6276         estimate D2E/DX2                !
 ! A49   A(18,24,25)           109.8574         estimate D2E/DX2                !
 ! A50   A(18,24,26)           109.8979         estimate D2E/DX2                !
 ! A51   A(18,24,27)           107.5355         estimate D2E/DX2                !
 ! A52   A(25,24,26)           108.1108         estimate D2E/DX2                !
 ! A53   A(25,24,27)           110.8301         estimate D2E/DX2                !
 ! A54   A(26,24,27)           110.6124         estimate D2E/DX2                !
 ! A55   A(19,28,29)           109.6906         estimate D2E/DX2                !
 ! A56   A(19,28,30)           109.8136         estimate D2E/DX2                !
 ! A57   A(19,28,31)           107.7461         estimate D2E/DX2                !
 ! A58   A(29,28,30)           108.2991         estimate D2E/DX2                !
 ! A59   A(29,28,31)           110.6959         estimate D2E/DX2                !
 ! A60   A(30,28,31)           110.5924         estimate D2E/DX2                !
 ! A61   A(9,32,33)            130.8959         estimate D2E/DX2                !
 ! A62   A(9,32,34)            118.8011         estimate D2E/DX2                !
 ! A63   A(33,32,34)           110.0464         estimate D2E/DX2                !
 ! A64   A(32,33,35)           113.6086         estimate D2E/DX2                !
 ! A65   A(32,33,36)           122.7971         estimate D2E/DX2                !
 ! A66   A(35,33,36)           123.5921         estimate D2E/DX2                !
 ! A67   A(32,34,37)            92.56           estimate D2E/DX2                !
 ! A68   A(33,35,37)           114.384          estimate D2E/DX2                !
 ! A69   A(33,35,38)           126.5859         estimate D2E/DX2                !
 ! A70   A(37,35,38)           119.0301         estimate D2E/DX2                !
 ! A71   A(34,37,35)           109.3952         estimate D2E/DX2                !
 ! A72   A(34,37,39)           122.9055         estimate D2E/DX2                !
 ! A73   A(35,37,39)           127.6837         estimate D2E/DX2                !
 ! A74   A(35,38,40)           117.4253         estimate D2E/DX2                !
 ! A75   A(37,39,41)           127.63           estimate D2E/DX2                !
 ! A76   A(37,39,42)           123.0892         estimate D2E/DX2                !
 ! A77   A(41,39,42)           109.2807         estimate D2E/DX2                !
 ! A78   A(38,40,43)           105.9453         estimate D2E/DX2                !
 ! A79   A(38,40,44)           111.2029         estimate D2E/DX2                !
 ! A80   A(38,40,45)           111.1841         estimate D2E/DX2                !
 ! A81   A(43,40,44)           109.3003         estimate D2E/DX2                !
 ! A82   A(43,40,45)           109.727          estimate D2E/DX2                !
 ! A83   A(44,40,45)           109.4124         estimate D2E/DX2                !
 ! A84   A(39,41,46)           114.1759         estimate D2E/DX2                !
 ! A85   A(39,41,47)           119.2282         estimate D2E/DX2                !
 ! A86   A(46,41,47)           126.5956         estimate D2E/DX2                !
 ! A87   A(39,42,48)            91.8274         estimate D2E/DX2                !
 ! A88   A(41,46,48)           111.9554         estimate D2E/DX2                !
 ! A89   A(41,46,49)           124.4508         estimate D2E/DX2                !
 ! A90   A(48,46,49)           123.5937         estimate D2E/DX2                !
 ! A91   A(41,47,50)           117.9535         estimate D2E/DX2                !
 ! A92   A(42,48,46)           112.7606         estimate D2E/DX2                !
 ! A93   A(42,48,51)           119.7436         estimate D2E/DX2                !
 ! A94   A(46,48,51)           127.4957         estimate D2E/DX2                !
 ! A95   A(47,50,52)           111.2948         estimate D2E/DX2                !
 ! A96   A(47,50,53)           106.0045         estimate D2E/DX2                !
 ! A97   A(47,50,54)           111.2812         estimate D2E/DX2                !
 ! A98   A(52,50,53)           109.3402         estimate D2E/DX2                !
 ! A99   A(52,50,54)           109.4223         estimate D2E/DX2                !
 ! A100  A(53,50,54)           109.4214         estimate D2E/DX2                !
 ! D1    D(19,1,2,3)             0.1578         estimate D2E/DX2                !
 ! D2    D(19,1,2,6)          -178.6792         estimate D2E/DX2                !
 ! D3    D(20,1,2,3)          -179.8231         estimate D2E/DX2                !
 ! D4    D(20,1,2,6)             1.3399         estimate D2E/DX2                !
 ! D5    D(2,1,19,5)            -0.124          estimate D2E/DX2                !
 ! D6    D(2,1,19,28)          179.8267         estimate D2E/DX2                !
 ! D7    D(20,1,19,5)          179.8575         estimate D2E/DX2                !
 ! D8    D(20,1,19,28)          -0.1919         estimate D2E/DX2                !
 ! D9    D(1,2,3,4)              0.0571         estimate D2E/DX2                !
 ! D10   D(1,2,3,7)            179.5453         estimate D2E/DX2                !
 ! D11   D(6,2,3,4)            178.8851         estimate D2E/DX2                !
 ! D12   D(6,2,3,7)             -1.6266         estimate D2E/DX2                !
 ! D13   D(1,2,6,9)            178.625          estimate D2E/DX2                !
 ! D14   D(1,2,6,17)             1.3881         estimate D2E/DX2                !
 ! D15   D(3,2,6,9)             -0.2173         estimate D2E/DX2                !
 ! D16   D(3,2,6,17)          -177.4541         estimate D2E/DX2                !
 ! D17   D(2,3,4,5)             -0.3074         estimate D2E/DX2                !
 ! D18   D(2,3,4,14)           179.3968         estimate D2E/DX2                !
 ! D19   D(7,3,4,5)           -179.7837         estimate D2E/DX2                !
 ! D20   D(7,3,4,14)            -0.0795         estimate D2E/DX2                !
 ! D21   D(2,3,7,8)              1.0523         estimate D2E/DX2                !
 ! D22   D(2,3,7,12)          -178.712          estimate D2E/DX2                !
 ! D23   D(4,3,7,8)           -179.4626         estimate D2E/DX2                !
 ! D24   D(4,3,7,12)             0.7731         estimate D2E/DX2                !
 ! D25   D(3,4,5,19)             0.3343         estimate D2E/DX2                !
 ! D26   D(3,4,5,21)          -179.7799         estimate D2E/DX2                !
 ! D27   D(14,4,5,19)         -179.3729         estimate D2E/DX2                !
 ! D28   D(14,4,5,21)            0.5129         estimate D2E/DX2                !
 ! D29   D(3,4,14,13)           -0.4559         estimate D2E/DX2                !
 ! D30   D(3,4,14,15)         -179.9937         estimate D2E/DX2                !
 ! D31   D(5,4,14,13)          179.252          estimate D2E/DX2                !
 ! D32   D(5,4,14,15)           -0.2858         estimate D2E/DX2                !
 ! D33   D(4,5,19,1)            -0.1141         estimate D2E/DX2                !
 ! D34   D(4,5,19,28)          179.9364         estimate D2E/DX2                !
 ! D35   D(21,5,19,1)          179.9992         estimate D2E/DX2                !
 ! D36   D(21,5,19,28)           0.0496         estimate D2E/DX2                !
 ! D37   D(2,6,9,8)              2.5984         estimate D2E/DX2                !
 ! D38   D(2,6,9,32)          -176.0103         estimate D2E/DX2                !
 ! D39   D(17,6,9,8)           179.77           estimate D2E/DX2                !
 ! D40   D(17,6,9,32)            1.1613         estimate D2E/DX2                !
 ! D41   D(3,7,8,9)              1.3551         estimate D2E/DX2                !
 ! D42   D(3,7,8,10)          -174.5099         estimate D2E/DX2                !
 ! D43   D(12,7,8,9)          -178.8921         estimate D2E/DX2                !
 ! D44   D(12,7,8,10)            5.2428         estimate D2E/DX2                !
 ! D45   D(3,7,12,11)          178.0768         estimate D2E/DX2                !
 ! D46   D(3,7,12,13)           -0.9621         estimate D2E/DX2                !
 ! D47   D(8,7,12,11)           -1.685          estimate D2E/DX2                !
 ! D48   D(8,7,12,13)          179.2761         estimate D2E/DX2                !
 ! D49   D(7,8,9,6)             -3.0809         estimate D2E/DX2                !
 ! D50   D(7,8,9,32)           175.3285         estimate D2E/DX2                !
 ! D51   D(10,8,9,6)           172.5381         estimate D2E/DX2                !
 ! D52   D(10,8,9,32)           -9.0525         estimate D2E/DX2                !
 ! D53   D(7,8,10,18)           -4.7549         estimate D2E/DX2                !
 ! D54   D(7,8,10,23)          174.4235         estimate D2E/DX2                !
 ! D55   D(9,8,10,18)          179.5335         estimate D2E/DX2                !
 ! D56   D(9,8,10,23)           -1.2882         estimate D2E/DX2                !
 ! D57   D(6,9,32,33)          113.4466         estimate D2E/DX2                !
 ! D58   D(6,9,32,34)          -60.0946         estimate D2E/DX2                !
 ! D59   D(8,9,32,33)          -64.9949         Frozen                          !
 ! D60   D(8,9,32,34)          121.4639         estimate D2E/DX2                !
 ! D61   D(8,10,18,11)           0.7189         estimate D2E/DX2                !
 ! D62   D(8,10,18,24)        -179.4089         estimate D2E/DX2                !
 ! D63   D(23,10,18,11)       -178.5188         estimate D2E/DX2                !
 ! D64   D(23,10,18,24)          1.3535         estimate D2E/DX2                !
 ! D65   D(18,11,12,7)          -2.3856         estimate D2E/DX2                !
 ! D66   D(18,11,12,13)        176.6833         estimate D2E/DX2                !
 ! D67   D(22,11,12,7)         178.4862         estimate D2E/DX2                !
 ! D68   D(22,11,12,13)         -2.445          estimate D2E/DX2                !
 ! D69   D(12,11,18,10)          2.8444         estimate D2E/DX2                !
 ! D70   D(12,11,18,24)       -177.0251         estimate D2E/DX2                !
 ! D71   D(22,11,18,10)       -178.0181         estimate D2E/DX2                !
 ! D72   D(22,11,18,24)          2.1124         estimate D2E/DX2                !
 ! D73   D(7,12,13,14)           0.461          estimate D2E/DX2                !
 ! D74   D(7,12,13,16)        -179.8781         estimate D2E/DX2                !
 ! D75   D(11,12,13,14)       -178.6049         estimate D2E/DX2                !
 ! D76   D(11,12,13,16)          1.056          estimate D2E/DX2                !
 ! D77   D(12,13,14,4)           0.2708         estimate D2E/DX2                !
 ! D78   D(12,13,14,15)        179.7958         estimate D2E/DX2                !
 ! D79   D(16,13,14,4)        -179.3788         estimate D2E/DX2                !
 ! D80   D(16,13,14,15)          0.1463         estimate D2E/DX2                !
 ! D81   D(10,18,24,25)        -59.609          estimate D2E/DX2                !
 ! D82   D(10,18,24,26)         59.2209         estimate D2E/DX2                !
 ! D83   D(10,18,24,27)        179.6858         estimate D2E/DX2                !
 ! D84   D(11,18,24,25)        120.2739         estimate D2E/DX2                !
 ! D85   D(11,18,24,26)       -120.8962         estimate D2E/DX2                !
 ! D86   D(11,18,24,27)         -0.4313         estimate D2E/DX2                !
 ! D87   D(1,19,28,29)         -58.1407         estimate D2E/DX2                !
 ! D88   D(1,19,28,30)          60.7668         estimate D2E/DX2                !
 ! D89   D(1,19,28,31)        -178.7139         estimate D2E/DX2                !
 ! D90   D(5,19,28,29)         121.8132         estimate D2E/DX2                !
 ! D91   D(5,19,28,30)        -119.2792         estimate D2E/DX2                !
 ! D92   D(5,19,28,31)           1.2401         estimate D2E/DX2                !
 ! D93   D(9,32,33,35)        -174.2255         estimate D2E/DX2                !
 ! D94   D(9,32,33,36)           6.2996         estimate D2E/DX2                !
 ! D95   D(34,32,33,35)         -0.2487         estimate D2E/DX2                !
 ! D96   D(34,32,33,36)       -179.7235         estimate D2E/DX2                !
 ! D97   D(9,32,34,37)         175.3685         estimate D2E/DX2                !
 ! D98   D(33,32,34,37)          0.5616         estimate D2E/DX2                !
 ! D99   D(32,33,35,37)         -0.3153         estimate D2E/DX2                !
 ! D100  D(32,33,35,38)        179.7326         estimate D2E/DX2                !
 ! D101  D(36,33,35,37)        179.1548         estimate D2E/DX2                !
 ! D102  D(36,33,35,38)         -0.7973         estimate D2E/DX2                !
 ! D103  D(32,34,37,35)         -0.7229         estimate D2E/DX2                !
 ! D104  D(32,34,37,39)        177.9401         estimate D2E/DX2                !
 ! D105  D(33,35,37,34)          0.7247         estimate D2E/DX2                !
 ! D106  D(33,35,37,39)       -177.857          estimate D2E/DX2                !
 ! D107  D(38,35,37,34)       -179.3193         estimate D2E/DX2                !
 ! D108  D(38,35,37,39)          2.0991         estimate D2E/DX2                !
 ! D109  D(33,35,38,40)          6.5207         estimate D2E/DX2                !
 ! D110  D(37,35,38,40)       -173.4294         estimate D2E/DX2                !
 ! D111  D(34,37,39,41)          2.8179         estimate D2E/DX2                !
 ! D112  D(34,37,39,42)       -177.2109         estimate D2E/DX2                !
 ! D113  D(35,37,39,41)       -178.7757         estimate D2E/DX2                !
 ! D114  D(35,37,39,42)          1.1956         estimate D2E/DX2                !
 ! D115  D(35,38,40,43)        175.4911         estimate D2E/DX2                !
 ! D116  D(35,38,40,44)        -65.8534         estimate D2E/DX2                !
 ! D117  D(35,38,40,45)         56.3334         estimate D2E/DX2                !
 ! D118  D(37,39,41,46)       -179.9831         estimate D2E/DX2                !
 ! D119  D(37,39,41,47)         -0.1405         estimate D2E/DX2                !
 ! D120  D(42,39,41,46)          0.0425         estimate D2E/DX2                !
 ! D121  D(42,39,41,47)        179.885          estimate D2E/DX2                !
 ! D122  D(37,39,42,48)        179.9963         estimate D2E/DX2                !
 ! D123  D(41,39,42,48)         -0.0278         estimate D2E/DX2                !
 ! D124  D(39,41,46,48)         -0.0386         estimate D2E/DX2                !
 ! D125  D(39,41,46,49)       -179.9481         estimate D2E/DX2                !
 ! D126  D(47,41,46,48)       -179.8675         estimate D2E/DX2                !
 ! D127  D(47,41,46,49)          0.223          estimate D2E/DX2                !
 ! D128  D(39,41,47,50)        178.3929         estimate D2E/DX2                !
 ! D129  D(46,41,47,50)         -1.786          estimate D2E/DX2                !
 ! D130  D(39,42,48,46)          0.0069         estimate D2E/DX2                !
 ! D131  D(39,42,48,51)        179.8781         estimate D2E/DX2                !
 ! D132  D(41,46,48,42)          0.0159         estimate D2E/DX2                !
 ! D133  D(41,46,48,51)       -179.8431         estimate D2E/DX2                !
 ! D134  D(49,46,48,42)        179.9263         estimate D2E/DX2                !
 ! D135  D(49,46,48,51)          0.0673         estimate D2E/DX2                !
 ! D136  D(41,47,50,52)         62.0194         estimate D2E/DX2                !
 ! D137  D(41,47,50,53)       -179.1921         estimate D2E/DX2                !
 ! D138  D(41,47,50,54)        -60.3133         estimate D2E/DX2                !
 --------------------------------------------------------------------------------
 Trust Radius=3.00D-01 FncErr=1.00D-07 GrdErr=1.00D-06 EigMax=2.50D+02 EigMin=1.00D-04
 Number of steps in this run=    307 maximum allowed number of steps=    324.
 GradGradGradGradGradGradGradGradGradGradGradGradGradGradGradGradGradGrad

 Stoichiometry    C26H18N2O6S2
 Framework group  C1[X(C26H18N2O6S2)]
 Deg. of freedom   156
 Full point group                 C1      NOp   1
 Largest Abelian subgroup         C1      NOp   1
 Largest concise Abelian subgroup C1      NOp   1
                         Standard orientation:                         
 ---------------------------------------------------------------------
 Center     Atomic      Atomic             Coordinates (Angstroms)
 Number     Number       Type             X           Y           Z
 ---------------------------------------------------------------------
      1          6           0        2.796534   -2.914364    0.590782
      2          6           0        2.382810   -1.506558    0.351987
      3          6           0        3.348759   -0.509637    0.079876
      4          6           0        4.721121   -0.839594    0.030246
      5          6           0        5.170433   -2.236962    0.269812
      6          6           0        1.053135   -1.175690    0.421513
      7          6           0        2.906967    0.824388   -0.152469
      8          6           0        1.517038    1.160854   -0.090878
      9          6           0        0.565805    0.155786    0.234870
     10          6           0        1.132970    2.547982   -0.469255
     11          6           0        3.532317    3.193296   -0.747008
     12          6           0        3.901858    1.792737   -0.450133
     13          6           0        5.247462    1.451435   -0.491088
     14          6           0        5.665636    0.137438   -0.249146
     15          1           0        6.712448   -0.139983   -0.281869
     16          1           0        5.961644    2.234126   -0.721851
     17          1           0        0.359417   -1.968859    0.674490
     18          7           0        2.162647    3.463690   -0.762347
     19          7           0        4.168813   -3.186464    0.534712
     20          8           0        1.998367   -3.810773    0.826458
     21          8           0        6.350310   -2.552680    0.237570
     22          8           0        4.363467    4.061854   -0.981458
     23          8           0       -0.020454    2.949178   -0.558548
     24          6           0        1.728162    4.819700   -1.116069
     25          1           0        1.088028    4.785289   -1.998908
     26          1           0        1.150955    5.251577   -0.294478
     27          1           0        2.620142    5.409552   -1.308343
     28          6           0        4.565637   -4.578206    0.775811
     29          1           0        4.212496   -4.896476    1.758954
     30          1           0        4.114564   -5.227298    0.022956
     31          1           0        5.649918   -4.627409    0.722764
     32          6           0       -0.872913    0.322052    0.437730
     33          6           0       -1.575799    1.015392    1.403762
     34         16           0       -1.986306   -0.592317   -0.580948
     35          6           0       -2.969603    0.827392    1.331015
     36          1           0       -1.096080    1.646170    2.135499
     37          6           0       -3.385224   -0.016374    0.295792
     38          8           0       -3.905059    1.376818    2.149990
     39          6           0       -4.729715   -0.368226   -0.063178
     40          6           0       -3.460314    2.341368    3.100560
     41          6           0       -5.141964   -1.227863   -1.080632
     42         16           0       -6.145493    0.265569    0.772200
     43          1           0       -4.358767    2.712883    3.592866
     44          1           0       -2.799154    1.886042    3.848175
     45          1           0       -2.938068    3.170372    2.609010
     46          6           0       -6.554098   -1.371673   -1.185786
     47          8           0       -4.206048   -1.831271   -1.859273
     48          6           0       -7.215492   -0.624032   -0.250147
     49          1           0       -7.053041   -1.996536   -1.914445
     50          6           0       -4.655281   -2.729956   -2.866656
     51          1           0       -8.284090   -0.548613   -0.103383
     52          1           0       -5.284163   -2.217832   -3.605962
     53          1           0       -3.757272   -3.106337   -3.355627
     54          1           0       -5.212521   -3.568410   -2.432230
 ---------------------------------------------------------------------
 Rotational constants (GHZ):           0.1552718           0.0562317           0.0460044
 Standard basis: 6-311+G(d,p) (5D, 7F)
 There are   952 symmetry adapted cartesian basis functions of A   symmetry.
 There are   916 symmetry adapted basis functions of A   symmetry.
   916 basis functions,  1468 primitive gaussians,   952 cartesian basis functions
   134 alpha electrons      134 beta electrons
       nuclear repulsion energy      4075.9955785753 Hartrees.
 NAtoms=   54 NActive=   54 NUniq=   54 SFac= 1.00D+00 NAtFMM=   60 NAOKFM=F Big=F
 Integral buffers will be    131072 words long.
 Raffenetti 2 integral format.
 Two-electron integral symmetry is turned on.
 Nuclear repulsion after empirical dispersion term =     4075.9549753688 Hartrees.
 One-electron integrals computed using PRISM.
 NBasis=   916 RedAO= T EigKep=  1.08D-06  NBF=   916
 NBsUse=   902 1.00D-06 EigRej=  6.48D-07 NBFU=   902
 ExpMin= 4.05D-02 ExpMax= 9.34D+04 ExpMxC= 3.17D+03 IAcc=3 IRadAn=         5 AccDes= 0.00D+00
 Harris functional with IExCor= 4639 and IRadAn=       5 diagonalized for initial guess.
 HarFok:  IExCor= 4639 AccDes= 0.00D+00 IRadAn=         5 IDoV= 1 UseB2=F ITyADJ=14
 ICtDFT=  3500011 ScaDFX=  1.000000  1.000000  1.000000  1.000000
 FoFCou: FMM=F IPFlag=           0 FMFlag=      100000 FMFlg1=           0
         NFxFlg=           0 DoJE=T BraDBF=F KetDBF=T FulRan=T
         wScrn=  0.000000 ICntrl=       500 IOpCl=  0 I1Cent=   200000004 NGrid=           0
         NMat0=    1 NMatS0=      1 NMatT0=    0 NMatD0=    1 NMtDS0=    0 NMtDT0=    0
 Petite list used in FoFCou.
 Requested convergence on RMS density matrix=1.00D-08 within 128 cycles.
 Requested convergence on MAX density matrix=1.00D-06.
 Requested convergence on             energy=1.00D-06.
 No special actions if energy rises.
 SCF Done:  E(RwB97XD) =  -2358.76729969     A.U. after   20 cycles
            NFock= 20  Conv=0.34D-08     -V/T= 2.0032

 **********************************************************************

            Population analysis using the SCF Density.

 **********************************************************************

 Orbital symmetries:
       Occupied  (A) (A) (A) (A) (A) (A) (A) (A) (A) (A) (A) (A)
                 (A) (A) (A) (A) (A) (A) (A) (A) (A) (A) (A) (A)
                 (A) (A) (A) (A) (A) (A) (A) (A) (A) (A) (A) (A)
                 (A) (A) (A) (A) (A) (A) (A) (A) (A) (A) (A) (A)
                 (A) (A) (A) (A) (A) (A) (A) (A) (A) (A) (A) (A)
                 (A) (A) (A) (A) (A) (A) (A) (A) (A) (A) (A) (A)
                 (A) (A) (A) (A) (A) (A) (A) (A) (A) (A) (A) (A)
                 (A) (A) (A) (A) (A) (A) (A) (A) (A) (A) (A) (A)
                 (A) (A) (A) (A) (A) (A) (A) (A) (A) (A) (A) (A)
                 (A) (A) (A) (A) (A) (A) (A) (A) (A) (A) (A) (A)
                 (A) (A) (A) (A) (A) (A) (A) (A) (A) (A) (A) (A)
                 (A) (A)
       Virtual   (A) (A) (A) (A) (A) (A) (A) (A) (A) (A) (A) (A)
                 (A) (A) (A) (A) (A) (A) (A) (A) (A) (A) (A) (A)
                 (A) (A) (A) (A) (A) (A) (A) (A) (A) (A) (A) (A)
                 (A) (A) (A) (A) (A) (A) (A) (A) (A) (A) (A) (A)
                 (A) (A) (A) (A) (A) (A) (A) (A) (A) (A) (A) (A)
                 (A) (A) (A) (A) (A) (A) (A) (A) (A) (A) (A) (A)
                 (A) (A) (A) (A) (A) (A) (A) (A) (A) (A) (A) (A)
                 (A) (A) (A) (A) (A) (A) (A) (A) (A) (A) (A) (A)
                 (A) (A) (A) (A) (A) (A) (A) (A) (A) (A) (A) (A)
                 (A) (A) (A) (A) (A) (A) (A) (A) (A) (A) (A) (A)
                 (A) (A) (A) (A) (A) (A) (A) (A) (A) (A) (A) (A)
                 (A) (A) (A) (A) (A) (A) (A) (A) (A) (A) (A) (A)
                 (A) (A) (A) (A) (A) (A) (A) (A) (A) (A) (A) (A)
                 (A) (A) (A) (A) (A) (A) (A) (A) (A) (A) (A) (A)
                 (A) (A) (A) (A) (A) (A) (A) (A) (A) (A) (A) (A)
                 (A) (A) (A) (A) (A) (A) (A) (A) (A) (A) (A) (A)
                 (A) (A) (A) (A) (A) (A) (A) (A) (A) (A) (A) (A)
                 (A) (A) (A) (A) (A) (A) (A) (A) (A) (A) (A) (A)
                 (A) (A) (A) (A) (A) (A) (A) (A) (A) (A) (A) (A)
                 (A) (A) (A) (A) (A) (A) (A) (A) (A) (A) (A) (A)
                 (A) (A) (A) (A) (A) (A) (A) (A) (A) (A) (A) (A)
                 (A) (A) (A) (A) (A) (A) (A) (A) (A) (A) (A) (A)
                 (A) (A) (A) (A) (A) (A) (A) (A) (A) (A) (A) (A)
                 (A) (A) (A) (A) (A) (A) (A) (A) (A) (A) (A) (A)
                 (A) (A) (A) (A) (A) (A) (A) (A) (A) (A) (A) (A)
                 (A) (A) (A) (A) (A) (A) (A) (A) (A) (A) (A) (A)
                 (A) (A) (A) (A) (A) (A) (A) (A) (A) (A) (A) (A)
                 (A) (A) (A) (A) (A) (A) (A) (A) (A) (A) (A) (A)
                 (A) (A) (A) (A) (A) (A) (A) (A) (A) (A) (A) (A)
                 (A) (A) (A) (A) (A) (A) (A) (A) (A) (A) (A) (A)
                 (A) (A) (A) (A) (A) (A) (A) (A) (A) (A) (A) (A)
                 (A) (A) (A) (A) (A) (A) (A) (A) (A) (A) (A) (A)
                 (A) (A) (A) (A) (A) (A) (A) (A) (A) (A) (A) (A)
                 (A) (A) (A) (A) (A) (A) (A) (A) (A) (A) (A) (A)
                 (A) (A) (A) (A) (A) (A) (A) (A) (A) (A) (A) (A)
                 (A) (A) (A) (A) (A) (A) (A) (A) (A) (A) (A) (A)
                 (A) (A) (A) (A) (A) (A) (A) (A) (A) (A) (A) (A)
                 (A) (A) (A) (A) (A) (A) (A) (A) (A) (A) (A) (A)
                 (A) (A) (A) (A) (A) (A) (A) (A) (A) (A) (A) (A)
                 (A) (A) (A) (A) (A) (A) (A) (A) (A) (A) (A) (A)
                 (A) (A) (A) (A) (A) (A) (A) (A) (A) (A) (A) (A)
                 (A) (A) (A) (A) (A) (A) (A) (A) (A) (A) (A) (A)
                 (A) (A) (A) (A) (A) (A) (A) (A) (A) (A) (A) (A)
                 (A) (A) (A) (A) (A) (A) (A) (A) (A) (A) (A) (A)
                 (A) (A) (A) (A) (A) (A) (A) (A) (A) (A) (A) (A)
                 (A) (A) (A) (A) (A) (A) (A) (A) (A) (A) (A) (A)
                 (A) (A) (A) (A) (A) (A) (A) (A) (A) (A) (A) (A)
                 (A) (A) (A) (A) (A) (A) (A) (A) (A) (A) (A) (A)
                 (A) (A) (A) (A) (A) (A) (A) (A) (A) (A) (A) (A)
                 (A) (A) (A) (A) (A) (A) (A) (A) (A) (A) (A) (A)
                 (A) (A) (A) (A) (A) (A) (A) (A) (A) (A) (A) (A)
                 (A) (A) (A) (A) (A) (A) (A) (A) (A) (A) (A) (A)
                 (A) (A) (A) (A) (A) (A) (A) (A) (A) (A) (A) (A)
                 (A) (A) (A) (A) (A) (A) (A) (A) (A) (A) (A) (A)
                 (A) (A) (A) (A) (A) (A) (A) (A) (A) (A) (A) (A)
                 (A) (A) (A) (A) (A) (A) (A) (A) (A) (A) (A) (A)
                 (A) (A) (A) (A) (A) (A) (A) (A) (A) (A) (A) (A)
                 (A) (A) (A) (A) (A) (A) (A) (A) (A) (A) (A) (A)
                 (A) (A) (A) (A) (A) (A) (A) (A) (A) (A) (A) (A)
                 (A) (A) (A) (A) (A) (A) (A) (A) (A) (A) (A) (A)
                 (A) (A) (A) (A) (A) (A) (A) (A) (A) (A) (A) (A)
                 (A) (A) (A) (A) (A) (A) (A) (A) (A) (A) (A) (A)
                 (A) (A) (A) (A) (A) (A) (A) (A) (A) (A) (A) (A)
                 (A) (A) (A) (A) (A) (A) (A) (A) (A) (A) (A) (A)
 The electronic state is 1-A.
 Alpha  occ. eigenvalues --  -89.04952 -89.04562 -19.28955 -19.28835 -19.25291
 Alpha  occ. eigenvalues --  -19.25197 -19.24759 -19.24635 -14.50924 -14.50462
 Alpha  occ. eigenvalues --  -10.43259 -10.43006 -10.42850 -10.42662 -10.36039
 Alpha  occ. eigenvalues --  -10.35463 -10.35389 -10.35222 -10.35098 -10.34695
 Alpha  occ. eigenvalues --  -10.34598 -10.34496 -10.34360 -10.34217 -10.34207
 Alpha  occ. eigenvalues --  -10.33447 -10.33254 -10.33222 -10.33164 -10.32935
 Alpha  occ. eigenvalues --  -10.32480 -10.32412 -10.32016 -10.31818 -10.30126
 Alpha  occ. eigenvalues --  -10.29687  -8.08880  -8.08516  -6.03740  -6.03365
 Alpha  occ. eigenvalues --   -6.03346  -6.02973  -6.02947  -6.02601  -1.19007
 Alpha  occ. eigenvalues --   -1.18575  -1.18160  -1.18008  -1.17038  -1.16505
 Alpha  occ. eigenvalues --   -1.06567  -1.05983  -1.03003  -0.99905  -0.98356
 Alpha  occ. eigenvalues --   -0.96811  -0.94767  -0.90517  -0.88799  -0.87181
 Alpha  occ. eigenvalues --   -0.85645  -0.85231  -0.84438  -0.82582  -0.82160
 Alpha  occ. eigenvalues --   -0.81664  -0.79469  -0.78249  -0.76812  -0.75619
 Alpha  occ. eigenvalues --   -0.75161  -0.74203  -0.70201  -0.68748  -0.67888
 Alpha  occ. eigenvalues --   -0.66744  -0.65633  -0.64728  -0.64535  -0.63202
 Alpha  occ. eigenvalues --   -0.62565  -0.60800  -0.59552  -0.58920  -0.58882
 Alpha  occ. eigenvalues --   -0.58010  -0.57649  -0.57293  -0.56997  -0.56662
 Alpha  occ. eigenvalues --   -0.56428  -0.55953  -0.55385  -0.55149  -0.54228
 Alpha  occ. eigenvalues --   -0.53820  -0.53357  -0.53335  -0.53172  -0.52405
 Alpha  occ. eigenvalues --   -0.51385  -0.51109  -0.50769  -0.50404  -0.50056
 Alpha  occ. eigenvalues --   -0.49745  -0.49591  -0.49441  -0.48872  -0.48194
 Alpha  occ. eigenvalues --   -0.47996  -0.47125  -0.46730  -0.45782  -0.45386
 Alpha  occ. eigenvalues --   -0.44070  -0.43783  -0.42179  -0.41520  -0.41260
 Alpha  occ. eigenvalues --   -0.41002  -0.40238  -0.39686  -0.38675  -0.37583
 Alpha  occ. eigenvalues --   -0.37393  -0.37015  -0.36818  -0.36146  -0.34849
 Alpha  occ. eigenvalues --   -0.33253  -0.31784  -0.31498  -0.25278
 Alpha virt. eigenvalues --   -0.07791  -0.00650   0.00187   0.01808   0.02436
 Alpha virt. eigenvalues --    0.05058   0.05812   0.06100   0.06698   0.06776
 Alpha virt. eigenvalues --    0.07151   0.07444   0.07532   0.07678   0.07840
 Alpha virt. eigenvalues --    0.08111   0.08443   0.08709   0.09002   0.09177
 Alpha virt. eigenvalues --    0.09339   0.09508   0.09921   0.10089   0.10288
 Alpha virt. eigenvalues --    0.10330   0.10977   0.11317   0.11535   0.11694
 Alpha virt. eigenvalues --    0.11815   0.12156   0.12279   0.12504   0.12682
 Alpha virt. eigenvalues --    0.13298   0.13385   0.13610   0.13820   0.14098
 Alpha virt. eigenvalues --    0.14620   0.14928   0.15083   0.15230   0.15317
 Alpha virt. eigenvalues --    0.15528   0.15851   0.16202   0.16529   0.16910
 Alpha virt. eigenvalues --    0.17148   0.17349   0.17738   0.17933   0.18252
 Alpha virt. eigenvalues --    0.18321   0.18530   0.18781   0.19168   0.19553
 Alpha virt. eigenvalues --    0.19753   0.19955   0.20171   0.20502   0.20682
 Alpha virt. eigenvalues --    0.20742   0.21082   0.21148   0.21403   0.21552
 Alpha virt. eigenvalues --    0.21719   0.21738   0.22194   0.22404   0.22714
 Alpha virt. eigenvalues --    0.22743   0.23353   0.23476   0.23795   0.24089
 Alpha virt. eigenvalues --    0.24209   0.24386   0.24538   0.24728   0.24909
 Alpha virt. eigenvalues --    0.25230   0.25494   0.25569   0.25831   0.26013
 Alpha virt. eigenvalues --    0.26109   0.26273   0.26385   0.26697   0.26739
 Alpha virt. eigenvalues --    0.26904   0.27095   0.27251   0.27493   0.27784
 Alpha virt. eigenvalues --    0.27976   0.28027   0.28388   0.28640   0.28809
 Alpha virt. eigenvalues --    0.29163   0.29295   0.29414   0.29564   0.29659
 Alpha virt. eigenvalues --    0.29782   0.30250   0.30460   0.30701   0.30884
 Alpha virt. eigenvalues --    0.30969   0.31252   0.31446   0.31469   0.31913
 Alpha virt. eigenvalues --    0.32066   0.32247   0.32592   0.32780   0.32871
 Alpha virt. eigenvalues --    0.33094   0.33166   0.33416   0.33605   0.33662
 Alpha virt. eigenvalues --    0.34181   0.34398   0.34660   0.34859   0.35112
 Alpha virt. eigenvalues --    0.35239   0.35551   0.35715   0.35901   0.36060
 Alpha virt. eigenvalues --    0.36294   0.36513   0.36699   0.37163   0.37280
 Alpha virt. eigenvalues --    0.37345   0.37593   0.38168   0.38392   0.38614
 Alpha virt. eigenvalues --    0.38763   0.39074   0.39298   0.39529   0.39706
 Alpha virt. eigenvalues --    0.40089   0.40302   0.40523   0.40759   0.41088
 Alpha virt. eigenvalues --    0.41374   0.41815   0.42331   0.42552   0.42848
 Alpha virt. eigenvalues --    0.42995   0.43315   0.43710   0.44435   0.44960
 Alpha virt. eigenvalues --    0.45286   0.45514   0.45777   0.46216   0.46364
 Alpha virt. eigenvalues --    0.46503   0.47118   0.47551   0.48008   0.48732
 Alpha virt. eigenvalues --    0.49076   0.49290   0.49630   0.50208   0.50660
 Alpha virt. eigenvalues --    0.51151   0.51783   0.52301   0.52402   0.52852
 Alpha virt. eigenvalues --    0.53135   0.53441   0.53502   0.53714   0.54122
 Alpha virt. eigenvalues --    0.54348   0.54857   0.55086   0.55824   0.57074
 Alpha virt. eigenvalues --    0.57479   0.57786   0.58069   0.58393   0.59128
 Alpha virt. eigenvalues --    0.59248   0.59461   0.60310   0.60942   0.61348
 Alpha virt. eigenvalues --    0.62179   0.62247   0.63172   0.63331   0.63943
 Alpha virt. eigenvalues --    0.64176   0.64521   0.64668   0.64803   0.65167
 Alpha virt. eigenvalues --    0.65345   0.66287   0.66513   0.67043   0.67379
 Alpha virt. eigenvalues --    0.67843   0.67987   0.68942   0.68993   0.69196
 Alpha virt. eigenvalues --    0.69473   0.69858   0.70138   0.70648   0.71216
 Alpha virt. eigenvalues --    0.71661   0.72245   0.72357   0.72540   0.72908
 Alpha virt. eigenvalues --    0.73192   0.73375   0.73794   0.74420   0.74778
 Alpha virt. eigenvalues --    0.74932   0.75370   0.75848   0.76273   0.76746
 Alpha virt. eigenvalues --    0.76973   0.77262   0.77432   0.77906   0.78301
 Alpha virt. eigenvalues --    0.79025   0.79161   0.79718   0.79956   0.80302
 Alpha virt. eigenvalues --    0.80747   0.81073   0.81638   0.81965   0.82079
 Alpha virt. eigenvalues --    0.82663   0.82692   0.83047   0.83162   0.83677
 Alpha virt. eigenvalues --    0.83942   0.84290   0.84582   0.84870   0.85472
 Alpha virt. eigenvalues --    0.85513   0.85944   0.86452   0.87119   0.87234
 Alpha virt. eigenvalues --    0.87346   0.87637   0.88244   0.88992   0.89504
 Alpha virt. eigenvalues --    0.89877   0.91362   0.91752   0.92146   0.93080
 Alpha virt. eigenvalues --    0.94503   0.94800   0.95124   0.95681   0.96360
 Alpha virt. eigenvalues --    0.96699   0.97444   0.97675   0.98009   0.98387
 Alpha virt. eigenvalues --    0.99229   0.99894   1.00003   1.00576   1.00884
 Alpha virt. eigenvalues --    1.01591   1.01872   1.02169   1.02813   1.03791
 Alpha virt. eigenvalues --    1.03805   1.04164   1.04458   1.04822   1.05104
 Alpha virt. eigenvalues --    1.05544   1.05910   1.06868   1.07682   1.08046
 Alpha virt. eigenvalues --    1.08580   1.09115   1.09525   1.09648   1.10077
 Alpha virt. eigenvalues --    1.10343   1.11288   1.11869   1.11903   1.12556
 Alpha virt. eigenvalues --    1.13014   1.13060   1.13543   1.13848   1.14068
 Alpha virt. eigenvalues --    1.14783   1.15204   1.15464   1.15609   1.16172
 Alpha virt. eigenvalues --    1.16612   1.17834   1.18149   1.18328   1.18729
 Alpha virt. eigenvalues --    1.19424   1.19764   1.20195   1.21122   1.22291
 Alpha virt. eigenvalues --    1.22855   1.24018   1.24067   1.24953   1.25830
 Alpha virt. eigenvalues --    1.26249   1.26821   1.27119   1.27434   1.27994
 Alpha virt. eigenvalues --    1.29393   1.30394   1.31125   1.32801   1.32951
 Alpha virt. eigenvalues --    1.33580   1.34271   1.34477   1.34671   1.34861
 Alpha virt. eigenvalues --    1.35552   1.36084   1.37571   1.37724   1.39807
 Alpha virt. eigenvalues --    1.40118   1.40583   1.41467   1.42177   1.43308
 Alpha virt. eigenvalues --    1.43624   1.44447   1.45043   1.45856   1.46712
 Alpha virt. eigenvalues --    1.48130   1.49007   1.49071   1.50232   1.50768
 Alpha virt. eigenvalues --    1.51065   1.51360   1.51519   1.51971   1.52410
 Alpha virt. eigenvalues --    1.52782   1.53248   1.53506   1.53837   1.54076
 Alpha virt. eigenvalues --    1.54099   1.54522   1.55507   1.56048   1.56304
 Alpha virt. eigenvalues --    1.57823   1.58662   1.59258   1.59692   1.60490
 Alpha virt. eigenvalues --    1.60674   1.61439   1.62126   1.62654   1.62945
 Alpha virt. eigenvalues --    1.63458   1.63575   1.63914   1.64310   1.64729
 Alpha virt. eigenvalues --    1.65401   1.66651   1.67432   1.68371   1.69565
 Alpha virt. eigenvalues --    1.70239   1.70611   1.71627   1.71880   1.72575
 Alpha virt. eigenvalues --    1.73103   1.74130   1.74715   1.75153   1.75444
 Alpha virt. eigenvalues --    1.75957   1.76598   1.77114   1.77953   1.78001
 Alpha virt. eigenvalues --    1.78360   1.78772   1.79117   1.79559   1.79761
 Alpha virt. eigenvalues --    1.80344   1.81178   1.82128   1.83009   1.83242
 Alpha virt. eigenvalues --    1.83972   1.85041   1.85288   1.86544   1.86874
 Alpha virt. eigenvalues --    1.87642   1.87982   1.88778   1.89414   1.89572
 Alpha virt. eigenvalues --    1.90648   1.91736   1.92671   1.94008   1.94777
 Alpha virt. eigenvalues --    1.94834   1.95076   1.95110   1.95603   1.96343
 Alpha virt. eigenvalues --    1.97028   1.98327   1.98417   1.98742   1.98958
 Alpha virt. eigenvalues --    2.00070   2.00243   2.00673   2.02659   2.03376
 Alpha virt. eigenvalues --    2.03694   2.03814   2.05420   2.06029   2.06399
 Alpha virt. eigenvalues --    2.06974   2.08211   2.09146   2.09819   2.10346
 Alpha virt. eigenvalues --    2.10443   2.11799   2.12102   2.12788   2.12888
 Alpha virt. eigenvalues --    2.13602   2.14647   2.14926   2.15332   2.15886
 Alpha virt. eigenvalues --    2.16346   2.17360   2.17725   2.19277   2.20114
 Alpha virt. eigenvalues --    2.20795   2.21318   2.22058   2.22951   2.23340
 Alpha virt. eigenvalues --    2.23995   2.24632   2.24770   2.25508   2.26725
 Alpha virt. eigenvalues --    2.27541   2.28056   2.28703   2.29424   2.30688
 Alpha virt. eigenvalues --    2.31275   2.32215   2.34284   2.34559   2.35067
 Alpha virt. eigenvalues --    2.36387   2.40130   2.40620   2.41526   2.43277
 Alpha virt. eigenvalues --    2.45063   2.46381   2.47704   2.47997   2.50722
 Alpha virt. eigenvalues --    2.52341   2.52674   2.53204   2.53596   2.54134
 Alpha virt. eigenvalues --    2.54959   2.55683   2.56497   2.57307   2.58315
 Alpha virt. eigenvalues --    2.58960   2.59265   2.60797   2.61513   2.61818
 Alpha virt. eigenvalues --    2.61999   2.62218   2.62498   2.63333   2.64356
 Alpha virt. eigenvalues --    2.64913   2.65472   2.67428   2.67972   2.68666
 Alpha virt. eigenvalues --    2.69519   2.71471   2.73001   2.73533   2.73892
 Alpha virt. eigenvalues --    2.75535   2.76001   2.76605   2.77296   2.77632
 Alpha virt. eigenvalues --    2.78090   2.79200   2.79253   2.79688   2.80435
 Alpha virt. eigenvalues --    2.80659   2.81556   2.82032   2.83021   2.83832
 Alpha virt. eigenvalues --    2.84785   2.85729   2.87513   2.88207   2.88419
 Alpha virt. eigenvalues --    2.90133   2.91606   2.92628   2.92970   2.93543
 Alpha virt. eigenvalues --    2.93920   2.94152   2.94357   2.95034   2.95736
 Alpha virt. eigenvalues --    2.96181   2.96855   2.97882   2.98529   2.99034
 Alpha virt. eigenvalues --    2.99530   3.00945   3.01001   3.02069   3.03407
 Alpha virt. eigenvalues --    3.04289   3.04781   3.05776   3.07562   3.08437
 Alpha virt. eigenvalues --    3.09493   3.10415   3.12043   3.13228   3.14181
 Alpha virt. eigenvalues --    3.14839   3.15759   3.16575   3.18227   3.18351
 Alpha virt. eigenvalues --    3.19754   3.20854   3.22862   3.23353   3.24540
 Alpha virt. eigenvalues --    3.25315   3.26968   3.27288   3.29451   3.29976
 Alpha virt. eigenvalues --    3.31451   3.33216   3.33537   3.33817   3.34205
 Alpha virt. eigenvalues --    3.35994   3.37847   3.38394   3.41255   3.42095
 Alpha virt. eigenvalues --    3.42663   3.43172   3.43404   3.44140   3.45271
 Alpha virt. eigenvalues --    3.46863   3.47776   3.48900   3.51031   3.51588
 Alpha virt. eigenvalues --    3.52468   3.53824   3.54971   3.56136   3.58060
 Alpha virt. eigenvalues --    3.58648   3.60267   3.63254   3.65979   3.66772
 Alpha virt. eigenvalues --    3.68636   3.69455   3.71059   3.74079   3.75005
 Alpha virt. eigenvalues --    3.76312   3.78467   3.80450   3.81889   3.82539
 Alpha virt. eigenvalues --    3.85808   3.86231   3.86465   3.91187   3.92380
 Alpha virt. eigenvalues --    3.94524   3.94834   3.95883   3.99481   4.01609
 Alpha virt. eigenvalues --    4.02262   4.03697   4.04712   4.06425   4.10589
 Alpha virt. eigenvalues --    4.13091   4.14086   4.18433   4.20702   4.21910
 Alpha virt. eigenvalues --    4.24059   4.28493   4.33289   4.34700   4.37182
 Alpha virt. eigenvalues --    4.44643   4.47905   4.49462   4.60410   4.76961
 Alpha virt. eigenvalues --    4.93427   4.95879   4.97217   5.00359   5.13475
 Alpha virt. eigenvalues --    5.14598   5.14832   5.16228   5.16561   5.19628
 Alpha virt. eigenvalues --    5.21289   5.22876   5.35772   5.37448   5.39450
 Alpha virt. eigenvalues --    5.41680   5.54017   5.55498   5.86028   5.87906
 Alpha virt. eigenvalues --    5.90391   5.91509   5.92419   5.95685   8.13489
 Alpha virt. eigenvalues --    8.15638  17.43535  17.47758  17.63807  17.66849
 Alpha virt. eigenvalues --   17.71455  17.76730  23.61749  23.69792  23.85374
 Alpha virt. eigenvalues --   23.91800  23.94643  23.95575  23.96187  23.98889
 Alpha virt. eigenvalues --   23.99212  24.00435  24.02593  24.03724  24.04592
 Alpha virt. eigenvalues --   24.05530  24.07579  24.08053  24.08880  24.10447
 Alpha virt. eigenvalues --   24.12646  24.15451  24.16180  24.17196  24.25174
 Alpha virt. eigenvalues --   24.25975  24.26269  24.28189  35.68924  35.71744
 Alpha virt. eigenvalues --   50.10513  50.11870  50.15360  50.17090  50.19148
 Alpha virt. eigenvalues --   50.20717 189.38835 189.41590
          Condensed to atoms (all electrons):
 Mulliken charges:
               1
     1  C    0.388251
     2  C   -0.044662
     3  C    0.066037
     4  C    0.209959
     5  C    0.294797
     6  C   -0.832281
     7  C    0.176793
     8  C    0.222609
     9  C    0.558443
    10  C   -0.363874
    11  C    0.396292
    12  C    0.131605
    13  C   -0.610043
    14  C   -0.723759
    15  H    0.190665
    16  H    0.192767
    17  H    0.212232
    18  N   -0.089726
    19  N   -0.087843
    20  O   -0.264295
    21  O   -0.269504
    22  O   -0.278821
    23  O   -0.144151
    24  C   -0.273562
    25  H    0.198165
    26  H    0.192808
    27  H    0.202177
    28  C   -0.277032
    29  H    0.193628
    30  H    0.194738
    31  H    0.201390
    32  C    0.048321
    33  C   -0.197567
    34  S   -0.514222
    35  C   -0.273198
    36  H    0.149708
    37  C    0.529864
    38  O   -0.108120
    39  C    0.894863
    40  C   -0.296500
    41  C    0.009133
    42  S   -0.289310
    43  H    0.183166
    44  H    0.159386
    45  H    0.173074
    46  C   -0.494604
    47  O   -0.119130
    48  C   -0.357349
    49  H    0.156011
    50  C   -0.304061
    51  H    0.187298
    52  H    0.158918
    53  H    0.180982
    54  H    0.159536
 Sum of Mulliken charges =  -0.00000
 Mulliken charges with hydrogens summed into heavy atoms:
               1
     1  C    0.388251
     2  C   -0.044662
     3  C    0.066037
     4  C    0.209959
     5  C    0.294797
     6  C   -0.620050
     7  C    0.176793
     8  C    0.222609
     9  C    0.558443
    10  C   -0.363874
    11  C    0.396292
    12  C    0.131605
    13  C   -0.417276
    14  C   -0.533094
    18  N   -0.089726
    19  N   -0.087843
    20  O   -0.264295
    21  O   -0.269504
    22  O   -0.278821
    23  O   -0.144151
    24  C    0.319588
    28  C    0.312724
    32  C    0.048321
    33  C   -0.047859
    34  S   -0.514222
    35  C   -0.273198
    37  C    0.529864
    38  O   -0.108120
    39  C    0.894863
    40  C    0.219126
    41  C    0.009133
    42  S   -0.289310
    46  C   -0.338593
    47  O   -0.119130
    48  C   -0.170050
    50  C    0.195374
 Electronic spatial extent (au):  <R**2>=          22425.1796
 Charge=             -0.0000 electrons
 Dipole moment (field-independent basis, Debye):
    X=             -2.0738    Y=             -0.3098    Z=              0.1463  Tot=              2.1019
 Quadrupole moment (field-independent basis, Debye-Ang):
   XX=           -216.8695   YY=           -220.1022   ZZ=           -206.3712
   XY=              2.3697   XZ=              7.2678   YZ=             16.9305
 Traceless Quadrupole moment (field-independent basis, Debye-Ang):
   XX=             -2.4218   YY=             -5.6546   ZZ=              8.0764
   XY=              2.3697   XZ=              7.2678   YZ=             16.9305
 Octapole moment (field-independent basis, Debye-Ang**2):
  XXX=           -303.6171  YYY=            -17.1518  ZZZ=              2.3218  XYY=            -67.3358
  XXY=            -64.0513  XXZ=            -40.8169  XZZ=            -49.5845  YZZ=              0.6809
  YYZ=             -3.5638  XYZ=            -57.4325
 Hexadecapole moment (field-independent basis, Debye-Ang**3):
 XXXX=         -20878.6222 YYYY=          -6674.6852 ZZZZ=          -1720.3092 XXXY=            486.8110
 XXXZ=            295.1612 YYYX=           -381.0861 YYYZ=            119.5084 ZZZX=             34.0234
 ZZZY=            131.5106 XXYY=          -4869.5984 XXZZ=          -3721.9710 YYZZ=          -1310.9212
 XXYZ=            333.4052 YYXZ=            127.2839 ZZXY=            -11.4949
 N-N= 4.075954975369D+03 E-N=-1.369096914836D+04  KE= 2.351130687463D+03
 Calling FoFJK, ICntrl=      2127 FMM=F ISym2X=0 I1Cent= 0 IOpClX= 0 NMat=1 NMatS=1 NMatT=0.
 ***** Axes restored to original set *****
 -------------------------------------------------------------------
 Center     Atomic                   Forces (Hartrees/Bohr)
 Number     Number              X              Y              Z
 -------------------------------------------------------------------
      1        6           0.007387022   -0.014580222   -0.001889548
      2        6           0.001906977    0.005574893    0.000661925
      3        6           0.004169849    0.002745756    0.000226251
      4        6          -0.004275556    0.007699930    0.001368440
      5        6          -0.011377883   -0.009709114   -0.001117419
      6        6          -0.002317306    0.002528653   -0.000623389
      7        6          -0.002848594   -0.004375845   -0.000097249
      8        6           0.007766313   -0.014844736   -0.002104268
      9        6          -0.024645574    0.002732054   -0.000087241
     10        6           0.019007302    0.016754743    0.002963204
     11        6          -0.005885778    0.015610658    0.002418194
     12        6          -0.005719425   -0.006160233   -0.000811462
     13        6           0.008042185    0.002466822    0.000190623
     14        6           0.008087513   -0.005917646   -0.000993428
     15        1           0.000334179    0.000552022    0.000034002
     16        1           0.000431629   -0.000895693   -0.000157891
     17        1           0.001854968    0.001388099    0.000823201
     18        7          -0.002030021   -0.002105827   -0.000865158
     19        7           0.000126166    0.002366372    0.000212808
     20        8          -0.014789437    0.015242561    0.002135545
     21        8           0.018258341    0.006447334    0.000562816
     22        8           0.014852998   -0.014748355   -0.002171932
     23        8          -0.018350324   -0.014538916   -0.004611519
     24        6           0.000939927   -0.001635705   -0.001388472
     25        1          -0.000906376   -0.000419409   -0.000416779
     26        1          -0.001508687   -0.000944344    0.001017878
     27        1           0.000702198    0.000047135    0.000068350
     28        6           0.001180520    0.001796992   -0.000137179
     29        1          -0.000832360    0.000858813    0.000934225
     30        1          -0.000608316    0.000861544   -0.000345858
     31        1           0.000633742   -0.000242164   -0.000008006
     32        6           0.026179818    0.004390870    0.003274497
     33        6          -0.014446096   -0.003719423    0.008544863
     34       16          -0.005198268    0.007143327   -0.011393981
     35        6           0.011026719   -0.007595233    0.012311920
     36        1          -0.001978627    0.000391034   -0.000901575
     37        6          -0.014865348    0.007596466   -0.011582741
     38        8          -0.006410643    0.002984979   -0.003179878
     39        6           0.015726024   -0.005473527    0.008504885
     40        6           0.001137035   -0.003767575    0.003978915
     41        6          -0.005371388    0.005320112   -0.007700274
     42       16          -0.003054190   -0.006496209    0.008603504
     43        1          -0.000814957   -0.000408092    0.000635947
     44        1           0.000828075   -0.000157648    0.001037681
     45        1           0.001092569   -0.000585525    0.000387928
     46        6           0.000805988    0.002915401   -0.003929940
     47        8           0.004883473   -0.001354544    0.002015344
     48        6          -0.006455393   -0.000361134   -0.000136600
     49        1          -0.000098936    0.000534704   -0.000704057
     50        6          -0.000081806    0.003099971   -0.003183278
     51        1          -0.001297604   -0.000204806    0.000102479
     52        1          -0.000987289   -0.000095115   -0.001377261
     53        1           0.000589930    0.000474729   -0.000629814
     54        1          -0.000795280    0.000811065   -0.000469226
 -------------------------------------------------------------------
 Cartesian Forces:  Max     0.026179818 RMS     0.006766673

 GradGradGradGradGradGradGradGradGradGradGradGradGradGradGradGradGradGrad
 Berny optimization.
 FormGI is forming the generalized inverse of G from B-inverse, IUseBI=4.
 Internal  Forces:  Max     0.026848138 RMS     0.004366095
 Search for a local minimum.
 Step number   1 out of a maximum of  307
 All quantities printed in internal units (Hartrees-Bohrs-Radians)
 Mixed Optimization -- RFO/linear search
 Second derivative matrix not updated -- first step.
 ITU=  0
     Eigenvalues ---    0.00803   0.00803   0.01176   0.01203   0.01245
     Eigenvalues ---    0.01292   0.01308   0.01311   0.01356   0.01391
     Eigenvalues ---    0.01419   0.01429   0.01456   0.01496   0.01515
     Eigenvalues ---    0.01568   0.01572   0.01577   0.01621   0.01651
     Eigenvalues ---    0.01692   0.01711   0.01712   0.01719   0.01754
     Eigenvalues ---    0.01783   0.01803   0.01847   0.01966   0.02040
     Eigenvalues ---    0.02048   0.02071   0.02079   0.02085   0.02135
     Eigenvalues ---    0.02149   0.02163   0.02181   0.02197   0.02230
     Eigenvalues ---    0.02237   0.02256   0.07556   0.07572   0.07690
     Eigenvalues ---    0.07700   0.10059   0.10067   0.10635   0.10639
     Eigenvalues ---    0.15983   0.15999   0.15999   0.16000   0.16000
     Eigenvalues ---    0.16000   0.16000   0.16000   0.16000   0.16000
     Eigenvalues ---    0.16000   0.16000   0.16000   0.16000   0.16000
     Eigenvalues ---    0.16000   0.16000   0.16000   0.22530   0.22583
     Eigenvalues ---    0.23518   0.23581   0.24516   0.24747   0.24865
     Eigenvalues ---    0.24931   0.24952   0.24985   0.24987   0.24988
     Eigenvalues ---    0.24991   0.24994   0.24997   0.24997   0.24998
     Eigenvalues ---    0.24998   0.25000   0.25000   0.25000   0.25000
     Eigenvalues ---    0.25000   0.25000   0.25000   0.25000   0.25000
     Eigenvalues ---    0.25000   0.28773   0.28877   0.30085   0.32106
     Eigenvalues ---    0.32582   0.32774   0.33111   0.33787   0.33969
     Eigenvalues ---    0.34017   0.34075   0.34108   0.34354   0.34466
     Eigenvalues ---    0.34577   0.34629   0.34693   0.34839   0.34862
     Eigenvalues ---    0.35198   0.35218   0.35468   0.35553   0.35582
     Eigenvalues ---    0.35775   0.35842   0.36078   0.36083   0.36160
     Eigenvalues ---    0.36396   0.36662   0.39352   0.40194   0.40226
     Eigenvalues ---    0.40651   0.40775   0.41524   0.41659   0.42046
     Eigenvalues ---    0.42300   0.42784   0.43455   0.43892   0.44092
     Eigenvalues ---    0.44526   0.44594   0.45014   0.45406   0.46251
     Eigenvalues ---    0.47305   0.47605   0.49310   0.49684   0.53092
     Eigenvalues ---    0.53192   0.93281   0.93432   0.93989   0.94585
     Eigenvalues --- 1000.000001000.000001000.000001000.000001000.00000
     Eigenvalues --- 1000.000001000.000001000.000001000.000001000.00000
     Eigenvalues --- 1000.000001000.000001000.000001000.000001000.00000
     Eigenvalues --- 1000.000001000.000001000.000001000.000001000.00000
     Eigenvalues --- 1000.000001000.000001000.000001000.000001000.00000
     Eigenvalues --- 1000.000001000.000001000.000001000.000001000.00000
     Eigenvalues --- 1000.000001000.000001000.000001000.000001000.00000
     Eigenvalues --- 1000.000001000.000001000.000001000.000001000.00000
     Eigenvalues --- 1000.000001000.000001000.000001000.000001000.00000
     Eigenvalues --- 1000.000001000.000001000.000001000.000001000.00000
     Eigenvalues --- 1000.000001000.000001000.000001000.000001000.00000
     Eigenvalues --- 1000.000001000.000001000.000001000.000001000.00000
     Eigenvalues --- 1000.000001000.000001000.000001000.000001000.00000
     Eigenvalues --- 1000.000001000.000001000.000001000.000001000.00000
     Eigenvalues --- 1000.000001000.000001000.000001000.000001000.00000
     Eigenvalues --- 1000.000001000.000001000.000001000.000001000.00000
     Eigenvalues --- 1000.000001000.000001000.000001000.000001000.00000
     Eigenvalues --- 1000.000001000.000001000.000001000.000001000.00000
     Eigenvalues --- 1000.000001000.000001000.000001000.000001000.00000
     Eigenvalues --- 1000.000001000.000001000.000001000.000001000.00000
     Eigenvalues --- 1000.000001000.000001000.000001000.000001000.00000
     Eigenvalues --- 1000.000001000.000001000.000001000.000001000.00000
     Eigenvalues --- 1000.000001000.000001000.000001000.000001000.00000
     Eigenvalues --- 1000.000001000.000001000.000001000.000001000.00000
     Eigenvalues --- 1000.000001000.000001000.000001000.000001000.00000
     Eigenvalues --- 1000.000001000.000001000.000001000.000001000.00000
     Eigenvalues --- 1000.000001000.000001000.000001000.000001000.00000
     Eigenvalues --- 1000.000001000.000001000.000001000.000001000.00000
     Eigenvalues --- 1000.000001000.00000
 RFO step:  Lambda=-1.28094724D-02 EMin= 8.02933640D-03
 Linear search not attempted -- first point.
 Iteration  1 RMS(Cart)=  0.11418756 RMS(Int)=  0.00117504
 Iteration  2 RMS(Cart)=  0.00365922 RMS(Int)=  0.00015930
 Iteration  3 RMS(Cart)=  0.00000308 RMS(Int)=  0.00015930
 Iteration  4 RMS(Cart)=  0.00000000 RMS(Int)=  0.00015930
 Iteration  1 RMS(Cart)=  0.00006241 RMS(Int)=  0.00000998
 Iteration  2 RMS(Cart)=  0.00003573 RMS(Int)=  0.00001113
 Iteration  3 RMS(Cart)=  0.00002046 RMS(Int)=  0.00001264
 Iteration  4 RMS(Cart)=  0.00001171 RMS(Int)=  0.00001369
 Iteration  5 RMS(Cart)=  0.00000671 RMS(Int)=  0.00001434
 Iteration  6 RMS(Cart)=  0.00000384 RMS(Int)=  0.00001473
 Iteration  7 RMS(Cart)=  0.00000220 RMS(Int)=  0.00001495
 Iteration  8 RMS(Cart)=  0.00000126 RMS(Int)=  0.00001508
 Iteration  9 RMS(Cart)=  0.00000072 RMS(Int)=  0.00001516
 Variable       Old X    -DE/DX   Delta X   Delta X   Delta X     New X
                                 (Linear)    (Quad)   (Total)
    R1        2.80935  -0.00173   0.00000  -0.00472  -0.00472   2.80463
    R2        2.64584  -0.00588   0.00000  -0.01278  -0.01277   2.63307
    R3        2.31147  -0.02134   0.00000  -0.02240  -0.02240   2.28907
    R4        2.67311  -0.00500   0.00000  -0.00928  -0.00939   2.66372
    R5        2.59267  -0.00444   0.00000  -0.00734  -0.00737   2.58531
    R6        2.66894  -0.00554   0.00000  -0.01197  -0.01199   2.65696
    R7        2.69164  -0.01088   0.00000  -0.02547  -0.02552   2.66612
    R8        2.81049  -0.00130   0.00000  -0.00390  -0.00391   2.80659
    R9        2.62173  -0.00922   0.00000  -0.01841  -0.01843   2.60329
   R10        2.65570  -0.00671   0.00000  -0.01497  -0.01496   2.64074
   R11        2.30889  -0.01937   0.00000  -0.02020  -0.02020   2.28869
   R12        2.70248  -0.00830   0.00000  -0.01966  -0.01959   2.68289
   R13        2.04786   0.00021   0.00000   0.00057   0.00057   2.04843
   R14        2.70495  -0.01050   0.00000  -0.02713  -0.02707   2.67788
   R15        2.68322  -0.00749   0.00000  -0.01778  -0.01776   2.66546
   R16        2.68655  -0.02685   0.00000  -0.06330  -0.06321   2.62333
   R17        2.81233  -0.00348   0.00000  -0.01049  -0.01045   2.80188
   R18        2.76359   0.00103   0.00000   0.00271   0.00271   2.76631
   R19        2.66221  -0.00572   0.00000  -0.01233  -0.01234   2.64987
   R20        2.31391  -0.02300   0.00000  -0.02428  -0.02428   2.28962
   R21        2.79415   0.00215   0.00000   0.00649   0.00646   2.80061
   R22        2.63842  -0.00504   0.00000  -0.01000  -0.01004   2.62837
   R23        2.31456  -0.02103   0.00000  -0.02224  -0.02224   2.29233
   R24        2.62448  -0.00955   0.00000  -0.01967  -0.01966   2.60483
   R25        2.64561  -0.00035   0.00000  -0.00045  -0.00046   2.64515
   R26        2.04921  -0.00094   0.00000  -0.00257  -0.00257   2.04664
   R27        2.04741  -0.00049   0.00000  -0.00134  -0.00134   2.04607
   R28        2.77259  -0.00313   0.00000  -0.00838  -0.00838   2.76421
   R29        2.77252  -0.00331   0.00000  -0.00887  -0.00887   2.76365
   R30        2.06176  -0.00085   0.00000  -0.00236  -0.00236   2.05940
   R31        2.06551  -0.00196   0.00000  -0.00547  -0.00547   2.06004
   R32        2.05322  -0.00058   0.00000  -0.00158  -0.00158   2.05164
   R33        2.06368  -0.00141   0.00000  -0.00394  -0.00394   2.05974
   R34        2.06281  -0.00096   0.00000  -0.00266  -0.00266   2.06015
   R35        2.05355  -0.00060   0.00000  -0.00165  -0.00165   2.05190
   R36        2.61028  -0.01731   0.00000  -0.03476  -0.03471   2.57556
   R37        3.33440  -0.01524   0.00000  -0.04992  -0.04987   3.28453
   R38        2.66131   0.00186   0.00000   0.00375   0.00373   2.66505
   R39        2.03832   0.00172   0.00000   0.00458   0.00458   2.04290
   R40        3.30424  -0.00601   0.00000  -0.01835  -0.01838   3.28586
   R41        2.64316  -0.01590   0.00000  -0.03375  -0.03381   2.60935
   R42        2.56868  -0.00539   0.00000  -0.00991  -0.00991   2.55878
   R43        2.71248   0.00409   0.00000   0.00985   0.00985   2.72233
   R44        2.69360  -0.00810   0.00000  -0.01887  -0.01887   2.67472
   R45        2.63489  -0.01409   0.00000  -0.02999  -0.02999   2.60490
   R46        3.32934  -0.00859   0.00000  -0.02803  -0.02802   3.30132
   R47        2.05937  -0.00109   0.00000  -0.00302  -0.00302   2.05635
   R48        2.07301  -0.00108   0.00000  -0.00306  -0.00306   2.06995
   R49        2.07148  -0.00090   0.00000  -0.00255  -0.00255   2.06893
   R50        2.68970  -0.00273   0.00000  -0.00676  -0.00677   2.68293
   R51        2.56775  -0.00586   0.00000  -0.01076  -0.01076   2.55699
   R52        3.26298  -0.00745   0.00000  -0.02100  -0.02101   3.24198
   R53        2.58543  -0.00739   0.00000  -0.01382  -0.01383   2.57159
   R54        2.04435  -0.00084   0.00000  -0.00225  -0.00225   2.04210
   R55        2.68864  -0.00716   0.00000  -0.01652  -0.01652   2.67212
   R56        2.04329  -0.00132   0.00000  -0.00355  -0.00355   2.03974
   R57        2.07383  -0.00148   0.00000  -0.00419  -0.00419   2.06963
   R58        2.05900  -0.00092   0.00000  -0.00256  -0.00256   2.05644
   R59        2.07203  -0.00093   0.00000  -0.00262  -0.00262   2.06941
    A1        2.03797   0.00069   0.00000   0.00319   0.00318   2.04114
    A2        2.14521  -0.00093   0.00000  -0.00380  -0.00380   2.14141
    A3        2.10001   0.00024   0.00000   0.00062   0.00062   2.10063
    A4        2.10395  -0.00159   0.00000  -0.00684  -0.00684   2.09711
    A5        2.08282   0.00272   0.00000   0.00693   0.00697   2.08979
    A6        2.09624  -0.00113   0.00000   0.00001  -0.00005   2.09619
    A7        2.10093   0.00154   0.00000   0.00641   0.00644   2.10736
    A8        2.07104   0.00021   0.00000   0.00288   0.00279   2.07384
    A9        2.11118  -0.00175   0.00000  -0.00928  -0.00922   2.10196
   A10        2.10296  -0.00132   0.00000  -0.00465  -0.00465   2.09831
   A11        2.09911  -0.00029   0.00000  -0.00049  -0.00053   2.09858
   A12        2.08110   0.00161   0.00000   0.00515   0.00519   2.08629
   A13        2.03739   0.00052   0.00000   0.00167   0.00165   2.03904
   A14        2.12972  -0.00056   0.00000  -0.00197  -0.00196   2.12776
   A15        2.11607   0.00004   0.00000   0.00031   0.00032   2.11639
   A16        2.15098  -0.00557   0.00000  -0.02107  -0.02100   2.12998
   A17        2.04399   0.00520   0.00000   0.02494   0.02483   2.06882
   A18        2.08722   0.00040   0.00000  -0.00299  -0.00313   2.08409
   A19        2.11101  -0.00239   0.00000  -0.00966  -0.00966   2.10134
   A20        2.04385   0.00442   0.00000   0.01781   0.01781   2.06166
   A21        2.12832  -0.00203   0.00000  -0.00814  -0.00814   2.12019
   A22        2.08678   0.00352   0.00000   0.01007   0.01012   2.09690
   A23        2.04738   0.00580   0.00000   0.02266   0.02259   2.06997
   A24        2.14662  -0.00929   0.00000  -0.03108  -0.03134   2.11528
   A25        2.04892   0.00540   0.00000   0.01815   0.01815   2.06707
   A26        2.00754   0.00957   0.00000   0.03808   0.03774   2.04528
   A27        2.22643  -0.01497   0.00000  -0.05535  -0.05566   2.17076
   A28        2.06022  -0.00225   0.00000  -0.00944  -0.00939   2.05083
   A29        2.17370  -0.00619   0.00000  -0.02304  -0.02309   2.15061
   A30        2.04919   0.00844   0.00000   0.03260   0.03255   2.08174
   A31        2.01621   0.00207   0.00000   0.00924   0.00915   2.02536
   A32        2.14188  -0.00202   0.00000  -0.00830  -0.00829   2.13359
   A33        2.12500  -0.00005   0.00000  -0.00079  -0.00077   2.12423
   A34        2.10943  -0.00154   0.00000  -0.00567  -0.00572   2.10371
   A35        2.11468  -0.00194   0.00000  -0.00807  -0.00804   2.10664
   A36        2.05896   0.00348   0.00000   0.01382   0.01383   2.07279
   A37        2.11176  -0.00105   0.00000  -0.00402  -0.00404   2.10772
   A38        2.05670   0.00088   0.00000   0.00409   0.00409   2.06079
   A39        2.11471   0.00017   0.00000  -0.00005  -0.00005   2.11467
   A40        2.08567   0.00061   0.00000   0.00416   0.00411   2.08978
   A41        2.07549   0.00012   0.00000   0.00040   0.00043   2.07592
   A42        2.12199  -0.00073   0.00000  -0.00453  -0.00451   2.11748
   A43        2.20043  -0.00201   0.00000  -0.00676  -0.00679   2.19364
   A44        2.02023   0.00060   0.00000   0.00183   0.00184   2.02208
   A45        2.06252   0.00141   0.00000   0.00493   0.00495   2.06747
   A46        2.18316   0.00016   0.00000   0.00023   0.00022   2.18338
   A47        2.02959  -0.00010   0.00000  -0.00020  -0.00020   2.02939
   A48        2.07044  -0.00006   0.00000  -0.00003  -0.00002   2.07042
   A49        1.91737  -0.00059   0.00000  -0.00326  -0.00326   1.91411
   A50        1.91808  -0.00049   0.00000  -0.00254  -0.00254   1.91554
[...]
 Alpha  occ. eigenvalues --   -0.66790  -0.65595  -0.64859  -0.64617  -0.63233
 Alpha  occ. eigenvalues --   -0.62698  -0.60867  -0.59890  -0.59323  -0.59012
 Alpha  occ. eigenvalues --   -0.58071  -0.57795  -0.57424  -0.57113  -0.56767
 Alpha  occ. eigenvalues --   -0.56395  -0.56121  -0.55550  -0.55364  -0.54242
 Alpha  occ. eigenvalues --   -0.54081  -0.53567  -0.53472  -0.53173  -0.52424
 Alpha  occ. eigenvalues --   -0.51662  -0.51236  -0.51173  -0.50380  -0.50283
 Alpha  occ. eigenvalues --   -0.49771  -0.49616  -0.49265  -0.48991  -0.48439
 Alpha  occ. eigenvalues --   -0.48309  -0.47218  -0.46875  -0.45855  -0.45191
 Alpha  occ. eigenvalues --   -0.44161  -0.43705  -0.42219  -0.41533  -0.41149
 Alpha  occ. eigenvalues --   -0.40792  -0.40439  -0.39773  -0.38665  -0.37647
 Alpha  occ. eigenvalues --   -0.37481  -0.37097  -0.37027  -0.36170  -0.34780
 Alpha  occ. eigenvalues --   -0.33387  -0.31550  -0.31299  -0.25428
 Alpha virt. eigenvalues --   -0.07273  -0.00153   0.00522   0.02212   0.02934
 Alpha virt. eigenvalues --    0.04971   0.05914   0.06065   0.06762   0.06880
 Alpha virt. eigenvalues --    0.07320   0.07482   0.07601   0.07728   0.07826
 Alpha virt. eigenvalues --    0.08354   0.08619   0.08858   0.09084   0.09168
 Alpha virt. eigenvalues --    0.09372   0.09638   0.10014   0.10206   0.10328
 Alpha virt. eigenvalues --    0.10431   0.11221   0.11392   0.11603   0.11649
 Alpha virt. eigenvalues --    0.11896   0.12167   0.12369   0.12608   0.12803
 Alpha virt. eigenvalues --    0.13388   0.13519   0.13750   0.13963   0.14216
 Alpha virt. eigenvalues --    0.14730   0.14902   0.15183   0.15259   0.15522
 Alpha virt. eigenvalues --    0.15758   0.15998   0.16261   0.16663   0.17081
 Alpha virt. eigenvalues --    0.17299   0.17444   0.17834   0.18009   0.18298
 Alpha virt. eigenvalues --    0.18515   0.18641   0.18888   0.19310   0.19545
 Alpha virt. eigenvalues --    0.19825   0.19930   0.20424   0.20573   0.20695
 Alpha virt. eigenvalues --    0.20795   0.21188   0.21349   0.21638   0.21790
 Alpha virt. eigenvalues --    0.21836   0.21947   0.22453   0.22641   0.22871
 Alpha virt. eigenvalues --    0.22999   0.23529   0.23722   0.23883   0.24200
 Alpha virt. eigenvalues --    0.24404   0.24554   0.24633   0.24760   0.25035
 Alpha virt. eigenvalues --    0.25364   0.25513   0.25853   0.25963   0.26146
 Alpha virt. eigenvalues --    0.26233   0.26291   0.26653   0.26733   0.26964
 Alpha virt. eigenvalues --    0.27073   0.27444   0.27547   0.27767   0.28017
 Alpha virt. eigenvalues --    0.28115   0.28215   0.28490   0.28756   0.29069
 Alpha virt. eigenvalues --    0.29264   0.29399   0.29564   0.29749   0.29838
 Alpha virt. eigenvalues --    0.30079   0.30492   0.30730   0.30838   0.31141
 Alpha virt. eigenvalues --    0.31209   0.31378   0.31717   0.31796   0.32036
 Alpha virt. eigenvalues --    0.32259   0.32439   0.32602   0.32981   0.33115
 Alpha virt. eigenvalues --    0.33364   0.33522   0.33734   0.33771   0.34117
 Alpha virt. eigenvalues --    0.34171   0.34462   0.34817   0.34882   0.35210
 Alpha virt. eigenvalues --    0.35551   0.35782   0.35965   0.36138   0.36324
 Alpha virt. eigenvalues --    0.36499   0.36987   0.37158   0.37335   0.37455
 Alpha virt. eigenvalues --    0.37690   0.37881   0.38273   0.38469   0.38764
 Alpha virt. eigenvalues --    0.38998   0.39266   0.39409   0.39567   0.39910
 Alpha virt. eigenvalues --    0.40267   0.40299   0.40640   0.41024   0.41254
 Alpha virt. eigenvalues --    0.41679   0.41830   0.42464   0.42576   0.43113
 Alpha virt. eigenvalues --    0.43283   0.43574   0.43785   0.44492   0.45129
 Alpha virt. eigenvalues --    0.45540   0.45813   0.46140   0.46347   0.46645
 Alpha virt. eigenvalues --    0.46823   0.46976   0.47777   0.48058   0.49101
 Alpha virt. eigenvalues --    0.49332   0.49451   0.49865   0.50156   0.51000
 Alpha virt. eigenvalues --    0.51147   0.51781   0.52354   0.52861   0.53053
 Alpha virt. eigenvalues --    0.53283   0.53612   0.53908   0.54371   0.54523
 Alpha virt. eigenvalues --    0.54855   0.55138   0.55958   0.56513   0.57529
 Alpha virt. eigenvalues --    0.57756   0.58218   0.58490   0.58945   0.59367
 Alpha virt. eigenvalues --    0.59706   0.60135   0.61283   0.61446   0.61607
 Alpha virt. eigenvalues --    0.62615   0.62853   0.63436   0.63696   0.64087
 Alpha virt. eigenvalues --    0.64428   0.64938   0.65058   0.65255   0.65464
 Alpha virt. eigenvalues --    0.65802   0.66424   0.66838   0.67186   0.67578
 Alpha virt. eigenvalues --    0.68451   0.68557   0.68941   0.69136   0.69302
 Alpha virt. eigenvalues --    0.69754   0.70206   0.70566   0.70962   0.71017
 Alpha virt. eigenvalues --    0.71947   0.72179   0.72604   0.72909   0.73380
 Alpha virt. eigenvalues --    0.73591   0.73781   0.74205   0.74497   0.74913
 Alpha virt. eigenvalues --    0.75438   0.75826   0.75918   0.76387   0.76898
 Alpha virt. eigenvalues --    0.77429   0.77585   0.77798   0.78326   0.78861
 Alpha virt. eigenvalues --    0.79174   0.79518   0.79891   0.80051   0.80706
 Alpha virt. eigenvalues --    0.81058   0.81476   0.81817   0.82105   0.82479
 Alpha virt. eigenvalues --    0.83003   0.83351   0.83551   0.83755   0.83922
 Alpha virt. eigenvalues --    0.84157   0.84463   0.84743   0.85089   0.85613
 Alpha virt. eigenvalues --    0.85743   0.86299   0.86813   0.87091   0.87286
 Alpha virt. eigenvalues --    0.87598   0.88041   0.88360   0.89382   0.89719
 Alpha virt. eigenvalues --    0.90216   0.91493   0.91879   0.92761   0.93541
 Alpha virt. eigenvalues --    0.94153   0.94711   0.95438   0.95818   0.96837
 Alpha virt. eigenvalues --    0.96875   0.97305   0.97604   0.98013   0.98711
 Alpha virt. eigenvalues --    0.99845   1.00228   1.00531   1.00831   1.01091
 Alpha virt. eigenvalues --    1.01857   1.02198   1.02287   1.02792   1.03683
 Alpha virt. eigenvalues --    1.04060   1.04371   1.05073   1.05357   1.05651
 Alpha virt. eigenvalues --    1.05933   1.05989   1.07021   1.07663   1.08427
 Alpha virt. eigenvalues --    1.08805   1.09038   1.09326   1.09817   1.10233
 Alpha virt. eigenvalues --    1.10742   1.11536   1.11761   1.12502   1.13063
 Alpha virt. eigenvalues --    1.13217   1.13747   1.13970   1.14287   1.14899
 Alpha virt. eigenvalues --    1.15439   1.15795   1.15875   1.16102   1.16496
 Alpha virt. eigenvalues --    1.17580   1.17713   1.18426   1.18953   1.19294
 Alpha virt. eigenvalues --    1.19437   1.20394   1.20707   1.21274   1.22233
 Alpha virt. eigenvalues --    1.23545   1.23657   1.24389   1.25399   1.25984
 Alpha virt. eigenvalues --    1.26214   1.27121   1.27628   1.27717   1.29199
 Alpha virt. eigenvalues --    1.29565   1.30191   1.31346   1.32311   1.33496
 Alpha virt. eigenvalues --    1.33880   1.34403   1.34756   1.34939   1.35451
 Alpha virt. eigenvalues --    1.35748   1.36734   1.37380   1.38654   1.40202
 Alpha virt. eigenvalues --    1.40741   1.41066   1.42042   1.42502   1.43525
 Alpha virt. eigenvalues --    1.44452   1.45086   1.45260   1.46465   1.47014
 Alpha virt. eigenvalues --    1.48095   1.49312   1.49829   1.50531   1.50919
 Alpha virt. eigenvalues --    1.51712   1.52027   1.52109   1.52584   1.53173
 Alpha virt. eigenvalues --    1.53401   1.53587   1.53884   1.54126   1.54375
 Alpha virt. eigenvalues --    1.54880   1.55093   1.55413   1.56495   1.57205
 Alpha virt. eigenvalues --    1.58109   1.58877   1.59808   1.60327   1.60463
 Alpha virt. eigenvalues --    1.61068   1.61580   1.62520   1.63185   1.63297
 Alpha virt. eigenvalues --    1.64031   1.64165   1.64349   1.65046   1.65210
 Alpha virt. eigenvalues --    1.66325   1.67202   1.68325   1.68735   1.69784
 Alpha virt. eigenvalues --    1.70403   1.71425   1.72012   1.72527   1.73134
 Alpha virt. eigenvalues --    1.73907   1.74613   1.75077   1.75804   1.76091
 Alpha virt. eigenvalues --    1.76930   1.77209   1.77827   1.78357   1.78524
 Alpha virt. eigenvalues --    1.78991   1.79351   1.79653   1.79807   1.80350
 Alpha virt. eigenvalues --    1.81378   1.82023   1.82350   1.83332   1.83736
 Alpha virt. eigenvalues --    1.84514   1.85329   1.85621   1.87281   1.87710
 Alpha virt. eigenvalues --    1.88134   1.88980   1.89772   1.90200   1.90885
 Alpha virt. eigenvalues --    1.91761   1.92433   1.93696   1.94702   1.95055
 Alpha virt. eigenvalues --    1.95219   1.95639   1.96014   1.96322   1.97423
 Alpha virt. eigenvalues --    1.97699   1.98658   1.99037   1.99205   1.99573
 Alpha virt. eigenvalues --    2.00581   2.00657   2.01257   2.02993   2.03816
 Alpha virt. eigenvalues --    2.04242   2.04720   2.05730   2.06670   2.07135
 Alpha virt. eigenvalues --    2.07659   2.08527   2.09604   2.10178   2.10866
 Alpha virt. eigenvalues --    2.11064   2.12131   2.12522   2.13321   2.13669
 Alpha virt. eigenvalues --    2.14594   2.15139   2.15663   2.15738   2.16709
 Alpha virt. eigenvalues --    2.17380   2.17895   2.18514   2.19627   2.20871
 Alpha virt. eigenvalues --    2.21283   2.21973   2.22767   2.23724   2.24085
 Alpha virt. eigenvalues --    2.24542   2.25164   2.25421   2.26013   2.26990
 Alpha virt. eigenvalues --    2.27977   2.29010   2.29340   2.29942   2.31080
 Alpha virt. eigenvalues --    2.31449   2.32505   2.34292   2.34576   2.35528
 Alpha virt. eigenvalues --    2.37077   2.40532   2.41983   2.42227   2.43535
 Alpha virt. eigenvalues --    2.46242   2.47442   2.48688   2.49021   2.51567
 Alpha virt. eigenvalues --    2.52902   2.53209   2.53931   2.54165   2.54825
 Alpha virt. eigenvalues --    2.55433   2.56522   2.57011   2.58067   2.59027
 Alpha virt. eigenvalues --    2.59718   2.59841   2.61596   2.61723   2.62205
 Alpha virt. eigenvalues --    2.62566   2.62737   2.63535   2.63950   2.65278
 Alpha virt. eigenvalues --    2.66127   2.66302   2.67855   2.68827   2.69008
 Alpha virt. eigenvalues --    2.70466   2.72231   2.74007   2.74072   2.74388
 Alpha virt. eigenvalues --    2.76533   2.77023   2.77603   2.77729   2.78165
 Alpha virt. eigenvalues --    2.78758   2.79513   2.79873   2.80785   2.80893
 Alpha virt. eigenvalues --    2.81277   2.82059   2.82604   2.83542   2.84256
 Alpha virt. eigenvalues --    2.85120   2.86423   2.88202   2.88859   2.89109
 Alpha virt. eigenvalues --    2.90561   2.92178   2.93556   2.93890   2.94499
 Alpha virt. eigenvalues --    2.94738   2.95114   2.95543   2.95724   2.96450
 Alpha virt. eigenvalues --    2.97513   2.98054   2.98334   2.99083   2.99740
 Alpha virt. eigenvalues --    2.99985   3.01502   3.01813   3.02720   3.04053
 Alpha virt. eigenvalues --    3.05201   3.05591   3.07096   3.08591   3.10310
 Alpha virt. eigenvalues --    3.11416   3.12158   3.12512   3.14154   3.15450
 Alpha virt. eigenvalues --    3.15977   3.16539   3.17663   3.18675   3.19222
 Alpha virt. eigenvalues --    3.19889   3.20681   3.23493   3.24038   3.25135
 Alpha virt. eigenvalues --    3.26387   3.27764   3.28545   3.31693   3.32409
 Alpha virt. eigenvalues --    3.32863   3.34482   3.34942   3.35718   3.36301
 Alpha virt. eigenvalues --    3.37122   3.40044   3.40250   3.43293   3.43628
 Alpha virt. eigenvalues --    3.44072   3.44640   3.44895   3.46225   3.47048
 Alpha virt. eigenvalues --    3.48759   3.50001   3.50897   3.53090   3.54257
 Alpha virt. eigenvalues --    3.54793   3.56071   3.56957   3.57614   3.59793
 Alpha virt. eigenvalues --    3.60419   3.62279   3.64636   3.66796   3.68494
 Alpha virt. eigenvalues --    3.70482   3.71080   3.72243   3.75649   3.76348
 Alpha virt. eigenvalues --    3.77815   3.79802   3.82560   3.82763   3.83732
 Alpha virt. eigenvalues --    3.87336   3.87588   3.87830   3.92467   3.93185
 Alpha virt. eigenvalues --    3.95186   3.95649   3.96046   4.00001   4.02306
 Alpha virt. eigenvalues --    4.03205   4.04335   4.05868   4.06883   4.11023
 Alpha virt. eigenvalues --    4.13310   4.14462   4.19202   4.21689   4.21958
 Alpha virt. eigenvalues --    4.25339   4.29449   4.33756   4.34984   4.37806
 Alpha virt. eigenvalues --    4.45312   4.48367   4.50208   4.60668   4.77700
 Alpha virt. eigenvalues --    4.95100   4.98331   4.98575   5.01244   5.13859
 Alpha virt. eigenvalues --    5.14978   5.15472   5.16505   5.16708   5.20989
 Alpha virt. eigenvalues --    5.22362   5.23638   5.36221   5.37819   5.39913
 Alpha virt. eigenvalues --    5.42336   5.55355   5.56776   5.87398   5.89755
 Alpha virt. eigenvalues --    5.91483   5.93247   5.93396   5.96722   8.15185
 Alpha virt. eigenvalues --    8.18235  17.43854  17.48373  17.64771  17.67785
 Alpha virt. eigenvalues --   17.73038  17.77488  23.61754  23.70632  23.86123
 Alpha virt. eigenvalues --   23.92286  23.95922  23.96835  23.97920  24.00245
 Alpha virt. eigenvalues --   24.01062  24.01979  24.02690  24.04577  24.05258
 Alpha virt. eigenvalues --   24.07179  24.08282  24.09550  24.10566  24.15167
 Alpha virt. eigenvalues --   24.17230  24.20209  24.21042  24.21655  24.27481
 Alpha virt. eigenvalues --   24.28765  24.30463  24.31197  35.69868  35.72464
 Alpha virt. eigenvalues --   50.11248  50.12535  50.16446  50.18223  50.20337
 Alpha virt. eigenvalues --   50.21746 189.40684 189.44402
          Condensed to atoms (all electrons):
 Mulliken charges:
               1
     1  C    0.468427
     2  C   -0.075438
     3  C    0.088085
     4  C    0.164784
     5  C    0.356832
     6  C   -0.820943
     7  C    0.140039
     8  C    0.181157
     9  C    0.571951
    10  C   -0.403647
    11  C    0.382193
    12  C    0.109239
    13  C   -0.569035
    14  C   -0.723077
    15  H    0.188422
    16  H    0.189276
    17  H    0.206575
    18  N   -0.066971
    19  N   -0.096717
    20  O   -0.258986
    21  O   -0.267743
    22  O   -0.273305
    23  O   -0.109677
    24  C   -0.270731
    25  H    0.201967
    26  H    0.189692
    27  H    0.201232
    28  C   -0.282498
    29  H    0.194829
    30  H    0.193321
    31  H    0.200856
    32  C    0.229366
    33  C   -0.388421
    34  S   -0.418530
    35  C   -0.326860
    36  H    0.145732
    37  C    0.445206
    38  O   -0.106119
    39  C    0.909025
    40  C   -0.303442
    41  C    0.036748
    42  S   -0.283257
    43  H    0.181413
    44  H    0.154821
    45  H    0.173513
    46  C   -0.511455
    47  O   -0.116814
    48  C   -0.360097
    49  H    0.154884
    50  C   -0.304488
    51  H    0.184942
    52  H    0.158664
    53  H    0.179255
    54  H    0.155800
 Sum of Mulliken charges =  -0.00000
 Mulliken charges with hydrogens summed into heavy atoms:
               1
     1  C    0.468427
     2  C   -0.075438
     3  C    0.088085
     4  C    0.164784
     5  C    0.356832
     6  C   -0.614367
     7  C    0.140039
     8  C    0.181157
     9  C    0.571951
    10  C   -0.403647
    11  C    0.382193
    12  C    0.109239
    13  C   -0.379759
    14  C   -0.534655
    18  N   -0.066971
    19  N   -0.096717
    20  O   -0.258986
    21  O   -0.267743
    22  O   -0.273305
    23  O   -0.109677
    24  C    0.322160
    28  C    0.306508
    32  C    0.229366
    33  C   -0.242688
    34  S   -0.418530
    35  C   -0.326860
    37  C    0.445206
    38  O   -0.106119
    39  C    0.909025
    40  C    0.206305
    41  C    0.036748
    42  S   -0.283257
    46  C   -0.356571
    47  O   -0.116814
    48  C   -0.175155
    50  C    0.189231
 Electronic spatial extent (au):  <R**2>=          22137.2963
 Charge=             -0.0000 electrons
 Dipole moment (field-independent basis, Debye):
    X=             -1.5627    Y=              0.0693    Z=              0.0894  Tot=              1.5668
 Quadrupole moment (field-independent basis, Debye-Ang):
   XX=           -217.3540   YY=           -217.9565   ZZ=           -208.2523
   XY=              1.8683   XZ=              7.0653   YZ=             16.3481
 Traceless Quadrupole moment (field-independent basis, Debye-Ang):
   XX=             -2.8331   YY=             -3.4355   ZZ=              6.2686
   XY=              1.8683   XZ=              7.0653   YZ=             16.3481
 Octapole moment (field-independent basis, Debye-Ang**2):
  XXX=           -282.0196  YYY=            -14.5293  ZZZ=              0.8043  XYY=            -66.6512
  XXY=            -63.4355  XXZ=            -41.8004  XZZ=            -38.3314  YZZ=              0.1195
  YYZ=             -4.5275  XYZ=            -55.2788
 Hexadecapole moment (field-independent basis, Debye-Ang**3):
 XXXX=         -20816.3246 YYYY=          -6595.4847 ZZZZ=          -1642.4507 XXXY=            475.5437
 XXXZ=            289.8462 YYYX=           -408.4861 YYYZ=            139.2043 ZZZX=             40.9246
 ZZZY=            111.1032 XXYY=          -4707.1013 XXZZ=          -3709.1405 YYZZ=          -1284.8425
 XXYZ=            295.5440 YYXZ=            127.0728 ZZXY=            -11.4632
 N-N= 4.105773419103D+03 E-N=-1.375139991928D+04  KE= 2.352007860174D+03
 Unable to Open any file for archive entry.
 1\1\GINC-CX3-6-24\FOpt\RwB97XD\6-311+G(d,p)\C26H18N2O6S2\NS5018\26-Nov
 -2020\0\\# opt=modredundant wb97xd/6-311+g(d,p)\\NDI_-65.pdb\\0,1\C,-2
 .6604724213,-3.0562648424,-0.4181344473\C,-2.2934628909,-1.6281805924,
 -0.2251686454\C,-3.2990547262,-0.6507544492,-0.0835144574\C,-4.6616345
 767,-1.0094740273,-0.1293552608\C,-5.0581656955,-2.4314404626,-0.32294
 15949\C,-0.9754223008,-1.2629737578,-0.2100643823\C,-2.9255970348,0.69
 61935314,0.108552247\C,-1.5529221131,1.0577098601,0.1585206719\C,-0.57
 66880112,0.0877689001,-0.0413848347\C,-1.2087002471,2.4709375004,0.504
 4240929\C,-3.6136806503,3.0952113704,0.433844135\C,-3.9488214,1.661831
 4233,0.2390770888\C,-5.2738502923,1.2942536082,0.1845556544\C,-5.63617
 55152,-0.0485252587,0.0022473105\H,-6.6770178306,-0.3449044628,-0.0379
 465948\H,-6.0287011051,2.0645516881,0.2843329563\H,-0.2180153795,-2.02
 46313787,-0.353468984\N,-2.2598881336,3.3979597373,0.5358041626\N,-4.0
 215143499,-3.3600211771,-0.4496471261\O,-1.8332372914,-3.9297476183,-0
 .5439148216\O,-6.2186489243,-2.7700465739,-0.3675173371\O,-4.466928086
 8,3.9510198083,0.5103996835\O,-0.0909554171,2.8452346065,0.765913059\C
 ,-1.8792439811,4.7829838356,0.8111702589\H,-1.5047327979,4.8743116321,
 1.8316919071\H,-1.0892735887,5.0846494286,0.1248804621\H,-2.759980242,
 5.4043806017,0.6797733184\C,-4.3625364223,-4.769527901,-0.6389949782\H
 ,-3.9622094233,-5.121187052,-1.5901070023\H,-3.9248837795,-5.364010292
 1,0.1629391231\H,-5.4447583652,-4.8571895567,-0.6289825356\C,0.8677495
 282,0.3659350483,-0.1239468111\C,1.5199721979,1.0885803174,-1.07784919
 05\S,1.9628995427,-0.3645146218,0.9903574077\C,2.9254432389,1.07355879
 56,-0.8932196341\H,1.0069872899,1.6185636915,-1.8676558022\C,3.3422555
 947,0.3332068756,0.1917908081\O,3.8394724028,1.6958069422,-1.674659157
 6\C,4.697149998,0.1460400752,0.6650701248\C,3.3571365402,2.6152472323,
 -2.6322495061\C,5.11077737,-0.6283872246,1.7270873769\S,6.0732141606,0
 .9256375931,-0.0644170629\H,4.2360761959,3.0687511492,-3.0871468062\H,
 2.7718298662,2.1094156574,-3.4082813396\H,2.7475841006,3.3929024696,-2
 .1594511291\C,6.5145234479,-0.5963001241,1.9543458513\O,4.1974902459,-
 1.3272805759,2.4424478685\C,7.150927607,0.2063574123,1.0569512638\H,7.
 0247932528,-1.1382236865,2.7375506317\C,4.6671840391,-2.1037486165,3.5
 241063671\H,8.2089886773,0.4101754864,0.9930221109\H,5.1536298082,-1.4
 770448298,4.2795830301\H,3.7896998213,-2.5778241097,3.9603211258\H,5.3
 643880679,-2.8769730867,3.1832593435\\Version=ES64L-G16RevC.01\State=1
 -A\HF=-2358.7739664\RMSD=2.012e-09\RMSF=2.078e-04\Dipole=0.6106367,0.0
 828728,0.0153532\Quadrupole=-2.9532912,-4.2084105,7.1617017,0.0840253,
 5.6222723,-11.0956777\PG=C01 [X(C26H18N2O6S2)]\\@
 The archive entry for this job was punched.


 CONFIDENCE: THAT QUIET ASSURED FEELING YOU HAVE
 JUST BEFORE YOU FALL FLAT ON YOUR FACE.
 Job cpu time:       3 days 14 hours  9 minutes 52.0 seconds.
 Elapsed time:       0 days  5 hours 25 minutes 37.8 seconds.
 File lengths (MBytes):  RWF=    496 Int=      0 D2E=      0 Chk=     70 Scr=      1
 Normal termination of Gaussian 16 at Thu Nov 26 22:03:17 2020.
