 Entering Gaussian System, Link 0=g16
 Input=pBTTT_5.gjf
 Output=pBTTT_5.log
 Initial command:
 /apps/gaussian/g16-c01-avx/g16/l1.exe "/tmp/pbs.4766302[180].pbs/Gau-523852.inp" -scrdir="/tmp/pbs.4766302[180].pbs/"
 Entering Link 1 = /apps/gaussian/g16-c01-avx/g16/l1.exe PID=    523853.
  
 Copyright (c) 1988-2019, Gaussian, Inc.  All Rights Reserved.
  
 This is part of the Gaussian(R) 16 program.  It is based on
 the Gaussian(R) 09 system (copyright 2009, Gaussian, Inc.),
 the Gaussian(R) 03 system (copyright 2003, Gaussian, Inc.),
 the Gaussian(R) 98 system (copyright 1998, Gaussian, Inc.),
 the Gaussian(R) 94 system (copyright 1995, Gaussian, Inc.),
 the Gaussian 92(TM) system (copyright 1992, Gaussian, Inc.),
 the Gaussian 90(TM) system (copyright 1990, Gaussian, Inc.),
 the Gaussian 88(TM) system (copyright 1988, Gaussian, Inc.),
 the Gaussian 86(TM) system (copyright 1986, Carnegie Mellon
 University), and the Gaussian 82(TM) system (copyright 1983,
 Carnegie Mellon University). Gaussian is a federally registered
 trademark of Gaussian, Inc.
  
 This software contains proprietary and confidential information,
 including trade secrets, belonging to Gaussian, Inc.
  
 This software is provided under written license and may be
 used, copied, transmitted, or stored only in accord with that
 written license.
  
 The following legend is applicable only to US Government
 contracts under FAR:
  
                    RESTRICTED RIGHTS LEGEND
  
 Use, reproduction and disclosure by the US Government is
 subject to restrictions as set forth in subparagraphs (a)
 and (c) of the Commercial Computer Software - Restricted
 Rights clause in FAR 52.227-19.
  
 Gaussian, Inc.
 340 Quinnipiac St., Bldg. 40, Wallingford CT 06492
  
  
 ---------------------------------------------------------------
 Warning -- This program may not be used in any manner that
 competes with the business of Gaussian, Inc. or will provide
 assistance to any competitor of Gaussian, Inc.  The licensee
 of this program is prohibited from giving any competitor of
 Gaussian, Inc. access to this program.  By using this program,
 the user acknowledges that Gaussian, Inc. is engaged in the
 business of creating and licensing software in the field of
 computational chemistry and represents and warrants to the
 licensee that it is not a competitor of Gaussian, Inc. and that
 it will not use this program in any manner prohibited above.
 ---------------------------------------------------------------
  

 Cite this work as:
 Gaussian 16, Revision C.01,
 M. J. Frisch, G. W. Trucks, H. B. Schlegel, G. E. Scuseria, 
 M. A. Robb, J. R. Cheeseman, G. Scalmani, V. Barone, 
 G. A. Petersson, H. Nakatsuji, X. Li, M. Caricato, A. V. Marenich, 
 J. Bloino, B. G. Janesko, R. Gomperts, B. Mennucci, H. P. Hratchian, 
 J. V. Ortiz, A. F. Izmaylov, J. L. Sonnenberg, D. Williams-Young, 
 F. Ding, F. Lipparini, F. Egidi, J. Goings, B. Peng, A. Petrone, 
 T. Henderson, D. Ranasinghe, V. G. Zakrzewski, J. Gao, N. Rega, 
 G. Zheng, W. Liang, M. Hada, M. Ehara, K. Toyota, R. Fukuda, 
 J. Hasegawa, M. Ishida, T. Nakajima, Y. Honda, O. Kitao, H. Nakai, 
 T. Vreven, K. Throssell, J. A. Montgomery, Jr., J. E. Peralta, 
 F. Ogliaro, M. J. Bearpark, J. J. Heyd, E. N. Brothers, K. N. Kudin, 
 V. N. Staroverov, T. A. Keith, R. Kobayashi, J. Normand, 
 K. Raghavachari, A. P. Rendell, J. C. Burant, S. S. Iyengar, 
 J. Tomasi, M. Cossi, J. M. Millam, M. Klene, C. Adamo, R. Cammi, 
 J. W. Ochterski, R. L. Martin, K. Morokuma, O. Farkas, 
 J. B. Foresman, and D. J. Fox, Gaussian, Inc., Wallingford CT, 2019.
 
 ******************************************
 Gaussian 16:  ES64L-G16RevC.01  3-Jul-2019
                27-Oct-2021 
 ******************************************
 %mem=100GB
 %nprocshared=16
 Will use up to   16 processors via shared memory.
 ----------------------------------
 # opt=modredundant mp2/aug-cc-pvdz
 ----------------------------------
 1/18=120,19=15,38=1/1,3;
 2/9=110,12=2,17=6,18=5,40=1/2;
 3/5=16,7=10,11=9,25=1,30=1,71=1/1,2,3;
 4//1;
 5/5=2,38=5/2;
 8/6=4,10=1/1;
 9/15=2,16=-3/6;
 10/5=1/2;
 6/7=2,8=2,9=2,10=2/1;
 7/12=2/1,2,3,16;
 1/18=20,19=15/3(2);
 2/9=110/2;
 99//99;
 2/9=110/2;
 3/5=16,7=10,11=9,25=1,30=1,71=1/1,2,3;
 4/5=5,16=3,69=1/1;
 5/5=2,38=5/2;
 8/6=4,10=1/1;
 9/15=2,16=-3/6;
 10/5=1/2;
 7/12=2/1,2,3,16;
 1/18=20,19=15/3(-8);
 2/9=110/2;
 6/7=2,8=2,9=2,10=2/1;
 99/9=10/99;
 -----------
 pBTTT_5.pdb
 -----------
 Symbolic Z-matrix:
 Charge =  0 Multiplicity = 1
 C                    -4.042     0.257    -0.026 
 C                    -2.721     0.833    -0.047 
 C                    -1.749    -0.122    -0.008 
 C                    -2.53      2.33     -0.108 
 C                    -4.051    -1.088     0.03 
 H                    -4.94      0.856    -0.054 
 S                    -2.45     -1.725     0.063 
 H                    -4.902    -1.746     0.053 
 C                    -0.284    -0.005    -0.005 
 S                     0.541     1.553     0.072 
 C                     2.091     0.777     0.04 
 C                     1.958    -0.578    -0.027 
 C                     0.604    -1.032    -0.055 
 H                     0.316    -2.068    -0.111 
 S                     3.511    -1.357    -0.065 
 C                     4.31      0.192     0.013 
 C                     3.451     1.232     0.063 
 H                     5.386     0.236     0.017 
 H                     3.759     2.264     0.115 
 H                    -3.498     2.82     -0.2 
 H                    -1.925     2.625    -0.964 
 H                    -2.05      2.712     0.792 
 
 The following ModRedundant input section has been read:
 D       2       3       9      10 F                                           
 

 GradGradGradGradGradGradGradGradGradGradGradGradGradGradGradGradGradGrad
 Berny optimization.
 Initialization pass.
                           ----------------------------
                           !    Initial Parameters    !
                           ! (Angstroms and Degrees)  !
 --------------------------                            --------------------------
 ! Name  Definition              Value          Derivative Info.                !
 --------------------------------------------------------------------------------
 ! R1    R(1,2)                  1.4413         estimate D2E/DX2                !
 ! R2    R(1,5)                  1.3462         estimate D2E/DX2                !
 ! R3    R(1,6)                  1.0798         estimate D2E/DX2                !
 ! R4    R(2,3)                  1.3632         estimate D2E/DX2                !
 ! R5    R(2,4)                  1.5104         estimate D2E/DX2                !
 ! R6    R(3,7)                  1.751          estimate D2E/DX2                !
 ! R7    R(3,9)                  1.4697         estimate D2E/DX2                !
 ! R8    R(4,20)                 1.0888         estimate D2E/DX2                !
 ! R9    R(4,21)                 1.0889         estimate D2E/DX2                !
 ! R10   R(4,22)                 1.0892         estimate D2E/DX2                !
 ! R11   R(5,7)                  1.7234         estimate D2E/DX2                !
 ! R12   R(5,8)                  1.076          estimate D2E/DX2                !
 ! R13   R(9,10)                 1.7646         estimate D2E/DX2                !
 ! R14   R(9,13)                 1.3586         estimate D2E/DX2                !
 ! R15   R(10,11)                1.7337         estimate D2E/DX2                !
 ! R16   R(11,12)                1.3632         estimate D2E/DX2                !
 ! R17   R(11,17)                1.4343         estimate D2E/DX2                !
 ! R18   R(12,13)                1.4284         estimate D2E/DX2                !
 ! R19   R(12,15)                1.7378         estimate D2E/DX2                !
 ! R20   R(13,14)                1.0767         estimate D2E/DX2                !
 ! R21   R(15,16)                1.7447         estimate D2E/DX2                !
 ! R22   R(16,17)                1.3498         estimate D2E/DX2                !
 ! R23   R(16,18)                1.0769         estimate D2E/DX2                !
 ! R24   R(17,19)                1.0782         estimate D2E/DX2                !
 ! A1    A(2,1,5)              113.9555         estimate D2E/DX2                !
 ! A2    A(2,1,6)              122.6944         estimate D2E/DX2                !
 ! A3    A(5,1,6)              123.3501         estimate D2E/DX2                !
 ! A4    A(1,2,3)              111.909          estimate D2E/DX2                !
 ! A5    A(1,2,4)              120.8375         estimate D2E/DX2                !
 ! A6    A(3,2,4)              127.2534         estimate D2E/DX2                !
 ! A7    A(2,3,7)              110.9188         estimate D2E/DX2                !
 ! A8    A(2,3,9)              130.9233         estimate D2E/DX2                !
 ! A9    A(7,3,9)              118.1555         estimate D2E/DX2                !
 ! A10   A(2,4,20)             109.6956         estimate D2E/DX2                !
 ! A11   A(2,4,21)             111.7474         estimate D2E/DX2                !
 ! A12   A(2,4,22)             111.714          estimate D2E/DX2                !
 ! A13   A(20,4,21)            107.7939         estimate D2E/DX2                !
 ! A14   A(20,4,22)            107.6843         estimate D2E/DX2                !
 ! A15   A(21,4,22)            108.0406         estimate D2E/DX2                !
 ! A16   A(1,5,7)              111.3386         estimate D2E/DX2                !
 ! A17   A(1,5,8)              128.1105         estimate D2E/DX2                !
 ! A18   A(7,5,8)              120.5509         estimate D2E/DX2                !
 ! A19   A(3,7,5)               91.8771         estimate D2E/DX2                !
 ! A20   A(3,9,10)             122.4397         estimate D2E/DX2                !
 ! A21   A(3,9,13)             126.2484         estimate D2E/DX2                !
 ! A22   A(10,9,13)            111.3116         estimate D2E/DX2                !
 ! A23   A(9,10,11)             91.2601         estimate D2E/DX2                !
 ! A24   A(10,11,12)           111.0141         estimate D2E/DX2                !
 ! A25   A(10,11,17)           134.8663         estimate D2E/DX2                !
 ! A26   A(12,11,17)           114.1192         estimate D2E/DX2                !
 ! A27   A(11,12,13)           114.1669         estimate D2E/DX2                !
 ! A28   A(11,12,15)           111.067          estimate D2E/DX2                !
 ! A29   A(13,12,15)           134.7656         estimate D2E/DX2                !
 ! A30   A(9,13,12)            112.2469         estimate D2E/DX2                !
 ! A31   A(9,13,14)            123.6704         estimate D2E/DX2                !
 ! A32   A(12,13,14)           124.0826         estimate D2E/DX2                !
 ! A33   A(12,15,16)            90.5898         estimate D2E/DX2                !
 ! A34   A(15,16,17)           113.2211         estimate D2E/DX2                !
 ! A35   A(15,16,18)           119.6052         estimate D2E/DX2                !
 ! A36   A(17,16,18)           127.1737         estimate D2E/DX2                !
 ! A37   A(11,17,16)           111.0028         estimate D2E/DX2                !
 ! A38   A(11,17,19)           125.1179         estimate D2E/DX2                !
 ! A39   A(16,17,19)           123.8791         estimate D2E/DX2                !
 ! D1    D(5,1,2,3)              0.1348         estimate D2E/DX2                !
 ! D2    D(5,1,2,4)           -179.9594         estimate D2E/DX2                !
 ! D3    D(6,1,2,3)           -179.8011         estimate D2E/DX2                !
 ! D4    D(6,1,2,4)              0.1047         estimate D2E/DX2                !
 ! D5    D(2,1,5,7)              0.1014         estimate D2E/DX2                !
 ! D6    D(2,1,5,8)           -179.8323         estimate D2E/DX2                !
 ! D7    D(6,1,5,7)           -179.9632         estimate D2E/DX2                !
 ! D8    D(6,1,5,8)              0.1031         estimate D2E/DX2                !
 ! D9    D(1,2,3,7)             -0.3018         estimate D2E/DX2                !
 ! D10   D(1,2,3,9)           -179.707          estimate D2E/DX2                !
 ! D11   D(4,2,3,7)            179.7998         estimate D2E/DX2                !
 ! D12   D(4,2,3,9)              0.3946         estimate D2E/DX2                !
 ! D13   D(1,2,4,20)            -3.9116         estimate D2E/DX2                !
 ! D14   D(1,2,4,21)          -123.4002         estimate D2E/DX2                !
 ! D15   D(1,2,4,22)           115.4187         estimate D2E/DX2                !
 ! D16   D(3,2,4,20)           175.9786         estimate D2E/DX2                !
 ! D17   D(3,2,4,21)            56.49           estimate D2E/DX2                !
 ! D18   D(3,2,4,22)           -64.6911         estimate D2E/DX2                !
 ! D19   D(2,3,7,5)              0.3073         estimate D2E/DX2                !
 ! D20   D(9,3,7,5)            179.7976         estimate D2E/DX2                !
 ! D21   D(2,3,9,10)             4.9577         Frozen                          !
 ! D22   D(2,3,9,13)          -175.2301         estimate D2E/DX2                !
 ! D23   D(7,3,9,10)          -174.4121         estimate D2E/DX2                !
 ! D24   D(7,3,9,13)             5.4001         estimate D2E/DX2                !
 ! D25   D(1,5,7,3)             -0.2304         estimate D2E/DX2                !
 ! D26   D(8,5,7,3)            179.7091         estimate D2E/DX2                !
 ! D27   D(3,9,10,11)          179.6619         estimate D2E/DX2                !
 ! D28   D(13,9,10,11)          -0.1755         estimate D2E/DX2                !
 ! D29   D(3,9,13,12)         -179.6146         estimate D2E/DX2                !
 ! D30   D(3,9,13,14)            0.4854         estimate D2E/DX2                !
 ! D31   D(10,9,13,12)           0.2153         estimate D2E/DX2                !
 ! D32   D(10,9,13,14)        -179.6848         estimate D2E/DX2                !
 ! D33   D(9,10,11,12)           0.0866         estimate D2E/DX2                !
 ! D34   D(9,10,11,17)         179.8248         estimate D2E/DX2                !
 ! D35   D(10,11,12,13)          0.0185         estimate D2E/DX2                !
 ! D36   D(10,11,12,15)        179.793          estimate D2E/DX2                !
 ! D37   D(17,11,12,13)       -179.7782         estimate D2E/DX2                !
 ! D38   D(17,11,12,15)         -0.0036         estimate D2E/DX2                !
 ! D39   D(10,11,17,16)       -179.7802         estimate D2E/DX2                !
 ! D40   D(10,11,17,19)          0.3257         estimate D2E/DX2                !
 ! D41   D(12,11,17,16)         -0.048          estimate D2E/DX2                !
 ! D42   D(12,11,17,19)       -179.9421         estimate D2E/DX2                !
 ! D43   D(11,12,13,9)          -0.1552         estimate D2E/DX2                !
 ! D44   D(11,12,13,14)        179.7444         estimate D2E/DX2                !
 ! D45   D(15,12,13,9)        -179.8589         estimate D2E/DX2                !
 ! D46   D(15,12,13,14)          0.0407         estimate D2E/DX2                !
 ! D47   D(11,12,15,16)          0.0394         estimate D2E/DX2                !
 ! D48   D(13,12,15,16)        179.7497         estimate D2E/DX2                !
 ! D49   D(12,15,16,17)         -0.0689         estimate D2E/DX2                !
 ! D50   D(12,15,16,18)        179.9313         estimate D2E/DX2                !
 ! D51   D(15,16,17,11)          0.0779         estimate D2E/DX2                !
 ! D52   D(15,16,17,19)        179.9735         estimate D2E/DX2                !
 ! D53   D(18,16,17,11)       -179.9224         estimate D2E/DX2                !
 ! D54   D(18,16,17,19)         -0.0268         estimate D2E/DX2                !
 --------------------------------------------------------------------------------
 Trust Radius=3.00D-01 FncErr=1.00D-07 GrdErr=1.00D-07 EigMax=2.50D+02 EigMin=1.00D-04
 Number of steps in this run=    127 maximum allowed number of steps=    132.
 GradGradGradGradGradGradGradGradGradGradGradGradGradGradGradGradGradGrad

                          Input orientation:                          
 ---------------------------------------------------------------------
 Center     Atomic      Atomic             Coordinates (Angstroms)
 Number     Number       Type             X           Y           Z
 ---------------------------------------------------------------------
      1          6           0       -4.042000    0.257000   -0.026000
      2          6           0       -2.721000    0.833000   -0.047000
      3          6           0       -1.749000   -0.122000   -0.008000
      4          6           0       -2.530000    2.330000   -0.108000
      5          6           0       -4.051000   -1.088000    0.030000
      6          1           0       -4.940000    0.856000   -0.054000
      7         16           0       -2.450000   -1.725000    0.063000
      8          1           0       -4.902000   -1.746000    0.053000
      9          6           0       -0.284000   -0.005000   -0.005000
     10         16           0        0.541000    1.553000    0.072000
     11          6           0        2.091000    0.777000    0.040000
     12          6           0        1.958000   -0.578000   -0.027000
     13          6           0        0.604000   -1.032000   -0.055000
     14          1           0        0.316000   -2.068000   -0.111000
     15         16           0        3.511000   -1.357000   -0.065000
     16          6           0        4.310000    0.192000    0.013000
     17          6           0        3.451000    1.232000    0.063000
     18          1           0        5.386000    0.236000    0.017000
     19          1           0        3.759000    2.264000    0.115000
     20          1           0       -3.498000    2.820000   -0.200000
     21          1           0       -1.925000    2.625000   -0.964000
     22          1           0       -2.050000    2.712000    0.792000
 ---------------------------------------------------------------------
                    Distance matrix (angstroms):
                    1          2          3          4          5
     1  C    0.000000
     2  C    1.441270   0.000000
     3  C    2.324180   1.363206   0.000000
     4  C    2.567138   1.510368   2.575318   0.000000
     5  C    1.346195   2.337749   2.496759   3.743689   0.000000
     6  H    1.079810   2.219130   3.337826   2.825543   2.139279
     7  S    2.543759   2.574666   1.751014   4.059392   1.723386
     8  H    2.181250   3.379053   3.547183   4.718695   1.075962
     9  C    3.767181   2.577397   1.469668   3.241504   3.919745
    10  S    4.763728   3.342634   2.838331   3.172880   5.297463
    11  C    6.155359   4.813112   3.944123   4.877228   6.418916
    12  C    6.057824   4.887163   3.734989   5.348380   6.030873
    13  C    4.821585   3.812337   2.523275   4.596500   4.656113
    14  H    4.940143   4.200389   2.839322   5.238524   4.477831
    15  S    7.723621   6.605622   5.403339   7.077394   7.567379
    16  C    8.352344   7.060414   6.067167   7.167376   8.458428
    17  C    7.556692   6.185862   5.373859   6.083355   7.852611
    18  H    9.428121   8.129204   7.144019   8.189232   9.529434
    19  H    8.056273   6.638103   6.003848   6.293298   8.499366
    20  H    2.625868   2.138997   3.428007   1.088847   3.953628
    21  H    3.311942   2.164664   2.913918   1.088938   4.392526
    22  H    3.265611   2.164441   2.960094   1.089185   4.361725
                    6          7          8          9         10
     6  H    0.000000
     7  S    3.588224   0.000000
     8  H    2.604476   2.452110   0.000000
     9  C    4.735194   2.766691   4.935622   0.000000
    10  S    5.526576   4.437504   6.364748   1.764630   0.000000
    11  C    7.032072   5.184710   7.434228   2.500835   1.733695
    12  C    7.045530   4.555675   6.959183   2.314169   2.561025
    13  C    5.856661   3.133862   5.553152   1.358592   2.588885
    14  H    6.014862   2.792612   5.230497   2.151094   3.632596
    15  S    8.735954   5.973720   8.422815   4.029085   4.160261
    16  C    9.274044   7.026734   9.413734   4.598257   4.007638
    17  C    8.400235   6.600428   8.867987   3.935101   2.927665
    18  H   10.344840   8.077780  10.477240   5.675162   5.021109
    19  H    8.813832   7.380143   9.544468   4.637738   3.295890
    20  H    2.440897   4.671670   4.783679   4.283509   4.241791
    21  H    3.612158   4.500317   5.385393   3.244913   2.881603
    22  H    3.537309   4.514245   5.343575   3.337073   2.928304
                   11         12         13         14         15
    11  C    0.000000
    12  C    1.363159   0.000000
    13  C    2.343646   1.428361   0.000000
    14  H    3.356702   2.218856   1.076743   0.000000
    15  S    2.565420   1.737842   2.925128   3.273479   0.000000
    16  C    2.294976   2.475157   3.903490   4.590753   1.744674
    17  C    1.434278   2.348031   3.639372   4.555052   2.592857
    18  H    3.339197   3.523594   4.947781   5.570431   2.461706
    19  H    2.235848   3.367600   4.565801   5.538190   3.633943
    20  H    5.955533   6.429951   5.628973   6.200569   8.160370
    21  H    4.533363   5.120046   4.538256   5.270099   6.798134
    22  H    4.632236   5.249660   4.666761   5.409414   6.943769
                   16         17         18         19         20
    16  C    0.000000
    17  C    1.349808   0.000000
    18  H    1.076907   2.176777   0.000000
    19  H    2.146436   1.078236   2.601830   0.000000
    20  H    8.241154   7.132988   9.254707   7.285081   0.000000
    21  H    6.763819   5.647703   7.753735   5.796759   1.759560
    22  H    6.885263   5.743069   7.875614   5.865451   1.758531
                   21         22
    21  H    0.000000
    22  H    1.762592   0.000000
 Stoichiometry    C11H8S3
 Framework group  C1[X(C11H8S3)]
 Deg. of freedom    60
 Full point group                 C1      NOp   1
 Largest Abelian subgroup         C1      NOp   1
 Largest concise Abelian subgroup C1      NOp   1
                         Standard orientation:                         
 ---------------------------------------------------------------------
 Center     Atomic      Atomic             Coordinates (Angstroms)
 Number     Number       Type             X           Y           Z
 ---------------------------------------------------------------------
      1          6           0        4.041987    0.257121    0.025902
      2          6           0        2.720956    0.833052    0.046902
      3          6           0        1.749006   -0.121999    0.007902
      4          6           0        2.529878    2.330042    0.107902
      5          6           0        4.051057   -1.087878   -0.030098
      6          1           0        4.939955    0.856168    0.053902
      7         16           0        2.450090   -1.724962   -0.063098
      8          1           0        4.902091   -1.745834   -0.053098
      9          6           0        0.284000   -0.005075    0.004902
     10         16           0       -0.541081    1.552882   -0.072098
     11          6           0       -2.091041    0.776801   -0.040098
     12          6           0       -1.957970   -0.578193    0.026902
     13          6           0       -0.603946   -1.032122    0.054902
     14          1           0       -0.315892   -2.068107    0.110902
     15         16           0       -3.510929   -1.357274    0.064902
     16          6           0       -4.310010    0.191685   -0.013098
     17          6           0       -3.451064    1.231729   -0.063098
     18          1           0       -5.386012    0.235628   -0.017098
     19          1           0       -3.759118    2.263713   -0.115098
     20          1           0        3.497853    2.820093    0.199902
     21          1           0        1.924863    2.625010    0.963902
     22          1           0        2.049858    2.712017   -0.792098
 ---------------------------------------------------------------------
 Rotational constants (GHZ):           1.2626184           0.2846843           0.2328124
 Standard basis: Aug-CC-pVDZ (5D, 7F)
 There are   434 symmetry adapted cartesian basis functions of A   symmetry.
 There are   406 symmetry adapted basis functions of A   symmetry.
   406 basis functions,   804 primitive gaussians,   434 cartesian basis functions
    61 alpha electrons       61 beta electrons
       nuclear repulsion energy      1125.3774611543 Hartrees.
 NAtoms=   22 NActive=   22 NUniq=   22 SFac= 1.00D+00 NAtFMM=   60 NAOKFM=F Big=F
 Integral buffers will be    131072 words long.
 Raffenetti 1 integral format.
 Two-electron integral symmetry is turned on.
 One-electron integrals computed using PRISM.
 NBasis=   406 RedAO= T EigKep=  2.02D-06  NBF=   406
 NBsUse=   406 1.00D-06 EigRej= -1.00D+00 NBFU=   406
 ExpMin= 2.97D-02 ExpMax= 1.11D+05 ExpMxC= 1.07D+03 IAcc=3 IRadAn=         5 AccDes= 0.00D+00
 Harris functional with IExCor=  205 and IRadAn=       5 diagonalized for initial guess.
 HarFok:  IExCor=  205 AccDes= 0.00D+00 IRadAn=         5 IDoV= 1 UseB2=F ITyADJ=14
 ICtDFT=  3500011 ScaDFX=  1.000000  1.000000  1.000000  1.000000
 FoFCou: FMM=F IPFlag=           0 FMFlag=      100000 FMFlg1=           0
         NFxFlg=           0 DoJE=T BraDBF=F KetDBF=T FulRan=T
         wScrn=  0.000000 ICntrl=       500 IOpCl=  0 I1Cent=   200000004 NGrid=           0
         NMat0=    1 NMatS0=      1 NMatT0=    0 NMatD0=    1 NMtDS0=    0 NMtDT0=    0
 Petite list used in FoFCou.
 Requested convergence on RMS density matrix=1.00D-08 within 128 cycles.
 Requested convergence on MAX density matrix=1.00D-06.
 Requested convergence on             energy=1.00D-06.
 No special actions if energy rises.
 SCF Done:  E(RHF) =  -1613.81183892     A.U. after   17 cycles
            NFock= 17  Conv=0.88D-08     -V/T= 2.0000
 ExpMin= 2.97D-02 ExpMax= 1.11D+05 ExpMxC= 1.07D+03 IAcc=3 IRadAn=         5 AccDes= 0.00D+00
 HarFok:  IExCor=  205 AccDes= 0.00D+00 IRadAn=         5 IDoV=-2 UseB2=F ITyADJ=14
 ICtDFT= 12500011 ScaDFX=  1.000000  1.000000  1.000000  1.000000
 GSVD:  LWork=        -884 too small for GESVD, short by        3770 words or        3770 for optimal perf.
 Range of M.O.s used for correlation:    27   406
 NBasis=   406 NAE=    61 NBE=    61 NFC=    26 NFV=     0
 NROrb=    380 NOA=    35 NOB=    35 NVA=   345 NVB=   345

 **** Warning!!: The largest alpha MO coefficient is  0.13827734D+03

 Disk-based method using ON**2 memory for 35 occupieds at a time.
 Estimated scratch disk usage=  5830703404 words.
 Actual    scratch disk usage=  4755612460 words.
 JobTyp=1 Pass  1:  I=  27 to  61 NPSUse= 16 ParTrn=T ParDer=T DoDerP=T.
 (rs|ai) integrals will be sorted in core.
 Spin components of T(2) and E(2):
     alpha-alpha T2 =       0.1139517130D+00 E2=     -0.2650896654D+00
     alpha-beta  T2 =       0.5611992220D+00 E2=     -0.1399952940D+01
     beta-beta   T2 =       0.1139517130D+00 E2=     -0.2650896654D+00
 ANorm=    0.1337573418D+01
 E2 =    -0.1930132271D+01 EUMP2 =    -0.16157419711897D+04
          IDoAtm=1111111111111111111111
          Differentiating once with respect to electric field.
                with respect to dipole field.
          Differentiating once with respect to nuclear coordinates.
 Keep R1 ints in memory in canonical form, NReq=3454318301.
          There are     1 degrees of freedom in the 1st order CPHF.  IDoFFX=0 NUNeed=     1.
 LinEq1:  Iter=  0 NonCon=     1 RMS=2.71D-03 Max=6.05D-02 NDo=     1
 AX will form     1 AO Fock derivatives at one time.
 LinEq1:  Iter=  1 NonCon=     1 RMS=5.86D-04 Max=1.43D-02 NDo=     1
 LinEq1:  Iter=  2 NonCon=     1 RMS=3.23D-04 Max=1.50D-02 NDo=     1
 LinEq1:  Iter=  3 NonCon=     1 RMS=9.06D-05 Max=1.97D-03 NDo=     1
 LinEq1:  Iter=  4 NonCon=     1 RMS=3.63D-05 Max=7.79D-04 NDo=     1
 LinEq1:  Iter=  5 NonCon=     1 RMS=1.33D-05 Max=5.85D-04 NDo=     1
 LinEq1:  Iter=  6 NonCon=     1 RMS=5.30D-06 Max=2.28D-04 NDo=     1
 LinEq1:  Iter=  7 NonCon=     1 RMS=2.77D-06 Max=9.21D-05 NDo=     1
 LinEq1:  Iter=  8 NonCon=     1 RMS=1.14D-06 Max=4.53D-05 NDo=     1
 LinEq1:  Iter=  9 NonCon=     1 RMS=4.29D-07 Max=1.50D-05 NDo=     1
 LinEq1:  Iter= 10 NonCon=     1 RMS=1.52D-07 Max=5.58D-06 NDo=     1
 LinEq1:  Iter= 11 NonCon=     1 RMS=6.84D-08 Max=2.97D-06 NDo=     1
 LinEq1:  Iter= 12 NonCon=     1 RMS=2.40D-08 Max=5.77D-07 NDo=     1
 LinEq1:  Iter= 13 NonCon=     1 RMS=9.79D-09 Max=2.23D-07 NDo=     1
 LinEq1:  Iter= 14 NonCon=     1 RMS=3.47D-09 Max=7.60D-08 NDo=     1
 LinEq1:  Iter= 15 NonCon=     1 RMS=1.59D-09 Max=4.37D-08 NDo=     1
 LinEq1:  Iter= 16 NonCon=     1 RMS=6.44D-10 Max=1.92D-08 NDo=     1
 LinEq1:  Iter= 17 NonCon=     1 RMS=2.38D-10 Max=6.36D-09 NDo=     1
 LinEq1:  Iter= 18 NonCon=     1 RMS=6.81D-11 Max=1.39D-09 NDo=     1
 LinEq1:  Iter= 19 NonCon=     0 RMS=2.44D-11 Max=4.86D-10 NDo=     1
 Linear equations converged to 1.000D-10 1.000D-09 after    19 iterations.
 End of Minotr F.D. properties file   721 does not exist.
 End of Minotr F.D. properties file   722 does not exist.
 End of Minotr F.D. properties file   788 does not exist.

 **********************************************************************

            Population analysis using the SCF Density.

 **********************************************************************

 Orbital symmetries:
       Occupied  (A) (A) (A) (A) (A) (A) (A) (A) (A) (A) (A) (A)
                 (A) (A) (A) (A) (A) (A) (A) (A) (A) (A) (A) (A)
                 (A) (A) (A) (A) (A) (A) (A) (A) (A) (A) (A) (A)
                 (A) (A) (A) (A) (A) (A) (A) (A) (A) (A) (A) (A)
                 (A) (A) (A) (A) (A) (A) (A) (A) (A) (A) (A) (A)
                 (A)
       Virtual   (A) (A) (A) (A) (A) (A) (A) (A) (A) (A) (A) (A)
                 (A) (A) (A) (A) (A) (A) (A) (A) (A) (A) (A) (A)
                 (A) (A) (A) (A) (A) (A) (A) (A) (A) (A) (A) (A)
                 (A) (A) (A) (A) (A) (A) (A) (A) (A) (A) (A) (A)
                 (A) (A) (A) (A) (A) (A) (A) (A) (A) (A) (A) (A)
                 (A) (A) (A) (A) (A) (A) (A) (A) (A) (A) (A) (A)
                 (A) (A) (A) (A) (A) (A) (A) (A) (A) (A) (A) (A)
                 (A) (A) (A) (A) (A) (A) (A) (A) (A) (A) (A) (A)
                 (A) (A) (A) (A) (A) (A) (A) (A) (A) (A) (A) (A)
                 (A) (A) (A) (A) (A) (A) (A) (A) (A) (A) (A) (A)
                 (A) (A) (A) (A) (A) (A) (A) (A) (A) (A) (A) (A)
                 (A) (A) (A) (A) (A) (A) (A) (A) (A) (A) (A) (A)
                 (A) (A) (A) (A) (A) (A) (A) (A) (A) (A) (A) (A)
                 (A) (A) (A) (A) (A) (A) (A) (A) (A) (A) (A) (A)
                 (A) (A) (A) (A) (A) (A) (A) (A) (A) (A) (A) (A)
                 (A) (A) (A) (A) (A) (A) (A) (A) (A) (A) (A) (A)
                 (A) (A) (A) (A) (A) (A) (A) (A) (A) (A) (A) (A)
                 (A) (A) (A) (A) (A) (A) (A) (A) (A) (A) (A) (A)
                 (A) (A) (A) (A) (A) (A) (A) (A) (A) (A) (A) (A)
                 (A) (A) (A) (A) (A) (A) (A) (A) (A) (A) (A) (A)
                 (A) (A) (A) (A) (A) (A) (A) (A) (A) (A) (A) (A)
                 (A) (A) (A) (A) (A) (A) (A) (A) (A) (A) (A) (A)
                 (A) (A) (A) (A) (A) (A) (A) (A) (A) (A) (A) (A)
                 (A) (A) (A) (A) (A) (A) (A) (A) (A) (A) (A) (A)
                 (A) (A) (A) (A) (A) (A) (A) (A) (A) (A) (A) (A)
                 (A) (A) (A) (A) (A) (A) (A) (A) (A) (A) (A) (A)
                 (A) (A) (A) (A) (A) (A) (A) (A) (A) (A) (A) (A)
                 (A) (A) (A) (A) (A) (A) (A) (A) (A) (A) (A) (A)
                 (A) (A) (A) (A) (A) (A) (A) (A) (A)
 The electronic state is 1-A.
 Alpha  occ. eigenvalues --  -91.99139 -91.99003 -91.98473 -11.29370 -11.28102
 Alpha  occ. eigenvalues --  -11.27718 -11.27293 -11.27214 -11.27094 -11.25832
 Alpha  occ. eigenvalues --  -11.25740 -11.25495 -11.24480 -11.23884  -8.99324
 Alpha  occ. eigenvalues --   -8.99184  -8.98740  -6.67491  -6.67412  -6.67350
 Alpha  occ. eigenvalues --   -6.67273  -6.67200  -6.67066  -6.66913  -6.66819
 Alpha  occ. eigenvalues --   -6.66625  -1.21838  -1.18745  -1.12894  -1.04178
 Alpha  occ. eigenvalues --   -1.02845  -1.01787  -0.95541  -0.94771  -0.92261
 Alpha  occ. eigenvalues --   -0.82355  -0.78032  -0.76690  -0.71592  -0.70509
 Alpha  occ. eigenvalues --   -0.67687  -0.66984  -0.60475  -0.59329  -0.59093
 Alpha  occ. eigenvalues --   -0.56784  -0.56611  -0.55019  -0.53963  -0.52206
 Alpha  occ. eigenvalues --   -0.52061  -0.51700  -0.49652  -0.47156  -0.46834
 Alpha  occ. eigenvalues --   -0.45782  -0.39428  -0.35705  -0.34415  -0.32349
 Alpha  occ. eigenvalues --   -0.27649
 Alpha virt. eigenvalues --    0.03404   0.03457   0.03991   0.04756   0.05027
 Alpha virt. eigenvalues --    0.05940   0.06084   0.06483   0.07423   0.08450
 Alpha virt. eigenvalues --    0.09656   0.10021   0.10335   0.10721   0.11049
 Alpha virt. eigenvalues --    0.12121   0.12205   0.12591   0.12890   0.13184
 Alpha virt. eigenvalues --    0.13307   0.13790   0.14251   0.14713   0.14925
 Alpha virt. eigenvalues --    0.15259   0.15326   0.15817   0.16236   0.16681
 Alpha virt. eigenvalues --    0.17208   0.17366   0.17566   0.18238   0.18795
 Alpha virt. eigenvalues --    0.18920   0.19141   0.19843   0.19992   0.20099
 Alpha virt. eigenvalues --    0.20440   0.20895   0.21222   0.21929   0.22069
 Alpha virt. eigenvalues --    0.22669   0.23099   0.23337   0.24093   0.24351
 Alpha virt. eigenvalues --    0.25021   0.25518   0.25777   0.26304   0.26726
 Alpha virt. eigenvalues --    0.27285   0.27419   0.27700   0.28171   0.28675
 Alpha virt. eigenvalues --    0.29556   0.30188   0.31081   0.31449   0.32157
 Alpha virt. eigenvalues --    0.32647   0.33337   0.33737   0.33886   0.34588
 Alpha virt. eigenvalues --    0.34958   0.35748   0.36187   0.36581   0.37031
 Alpha virt. eigenvalues --    0.37393   0.38391   0.39075   0.39694   0.40574
 Alpha virt. eigenvalues --    0.40650   0.41252   0.42123   0.42530   0.43289
 Alpha virt. eigenvalues --    0.43523   0.44020   0.44317   0.44436   0.45250
 Alpha virt. eigenvalues --    0.46168   0.46451   0.47110   0.47691   0.47834
 Alpha virt. eigenvalues --    0.48053   0.48625   0.49198   0.50262   0.51187
 Alpha virt. eigenvalues --    0.51542   0.52020   0.53432   0.53957   0.54887
 Alpha virt. eigenvalues --    0.54991   0.55954   0.57233   0.58046   0.59266
 Alpha virt. eigenvalues --    0.59688   0.60444   0.61240   0.61900   0.62137
 Alpha virt. eigenvalues --    0.62844   0.63337   0.63549   0.64150   0.64716
 Alpha virt. eigenvalues --    0.64994   0.65812   0.66246   0.66846   0.67166
 Alpha virt. eigenvalues --    0.67228   0.68116   0.68651   0.69226   0.69381
 Alpha virt. eigenvalues --    0.69554   0.70707   0.70753   0.71138   0.71984
 Alpha virt. eigenvalues --    0.72343   0.72829   0.73861   0.74017   0.74403
 Alpha virt. eigenvalues --    0.74941   0.75298   0.76290   0.77616   0.78166
 Alpha virt. eigenvalues --    0.78377   0.78825   0.79478   0.80489   0.80867
 Alpha virt. eigenvalues --    0.81572   0.82244   0.83113   0.83247   0.83927
 Alpha virt. eigenvalues --    0.85043   0.85238   0.85772   0.86412   0.87089
 Alpha virt. eigenvalues --    0.87366   0.88264   0.89537   0.90002   0.90747
 Alpha virt. eigenvalues --    0.90981   0.92612   0.93214   0.93705   0.94547
 Alpha virt. eigenvalues --    0.95494   0.95964   0.97054   0.97357   0.97814
 Alpha virt. eigenvalues --    0.98773   0.99131   0.99848   1.01611   1.02412
 Alpha virt. eigenvalues --    1.02798   1.04202   1.04373   1.05146   1.06538
 Alpha virt. eigenvalues --    1.07772   1.08508   1.08873   1.09996   1.10261
 Alpha virt. eigenvalues --    1.11032   1.11808   1.12402   1.13287   1.16641
 Alpha virt. eigenvalues --    1.17394   1.17935   1.18760   1.19951   1.20771
 Alpha virt. eigenvalues --    1.22218   1.23454   1.23885   1.24835   1.26148
 Alpha virt. eigenvalues --    1.27856   1.28504   1.29261   1.29755   1.30463
 Alpha virt. eigenvalues --    1.31691   1.32073   1.33582   1.33832   1.34822
 Alpha virt. eigenvalues --    1.35515   1.36624   1.37774   1.39317   1.40837
 Alpha virt. eigenvalues --    1.41171   1.42628   1.43787   1.44686   1.47724
 Alpha virt. eigenvalues --    1.49395   1.49776   1.52075   1.52921   1.54346
 Alpha virt. eigenvalues --    1.55594   1.56701   1.57208   1.57852   1.58880
 Alpha virt. eigenvalues --    1.61250   1.62181   1.62916   1.64597   1.66052
 Alpha virt. eigenvalues --    1.66346   1.67928   1.69090   1.69613   1.70460
 Alpha virt. eigenvalues --    1.71352   1.71786   1.72903   1.73709   1.73954
 Alpha virt. eigenvalues --    1.75993   1.77138   1.77632   1.78757   1.80159
 Alpha virt. eigenvalues --    1.81670   1.81975   1.82331   1.84212   1.85077
 Alpha virt. eigenvalues --    1.85572   1.86888   1.88238   1.89239   1.90654
 Alpha virt. eigenvalues --    1.91303   1.92124   1.95563   1.95684   1.96409
 Alpha virt. eigenvalues --    1.97750   1.98781   2.00151   2.01680   2.01892
 Alpha virt. eigenvalues --    2.03502   2.04009   2.07768   2.08633   2.10615
 Alpha virt. eigenvalues --    2.10961   2.12286   2.12974   2.13852   2.16084
 Alpha virt. eigenvalues --    2.17959   2.18872   2.19125   2.19454   2.21793
 Alpha virt. eigenvalues --    2.21886   2.24198   2.25608   2.28106   2.28790
 Alpha virt. eigenvalues --    2.29109   2.31721   2.34768   2.36313   2.36635
 Alpha virt. eigenvalues --    2.37080   2.37463   2.38491   2.40430   2.42644
 Alpha virt. eigenvalues --    2.42750   2.43650   2.46146   2.49459   2.49684
 Alpha virt. eigenvalues --    2.50954   2.53571   2.53707   2.55059   2.56760
 Alpha virt. eigenvalues --    2.58645   2.63199   2.66348   2.68925   2.71592
 Alpha virt. eigenvalues --    2.73476   2.78802   2.81929   2.83705   2.86415
 Alpha virt. eigenvalues --    2.88383   2.92782   2.93690   2.97811   3.01523
 Alpha virt. eigenvalues --    3.02268   3.08775   3.12701   3.14478   3.21240
 Alpha virt. eigenvalues --    3.29395   3.34709   3.39092   3.45676   3.57381
 Alpha virt. eigenvalues --    3.70885   3.78532   3.95783   4.11607   4.21750
          Condensed to atoms (all electrons):
               1          2          3          4          5          6
     1  C   11.040983  -1.726694  -1.268165  -1.085712  -0.101149  -0.641399
     2  C   -1.726694  13.380650  -3.906190   0.395275  -0.129675   0.326042
     3  C   -1.268165  -3.906190  18.440358  -0.867941  -1.536675   0.133060
     4  C   -1.085712   0.395275  -0.867941   6.062661   0.007582   0.095777
     5  C   -0.101149  -0.129675  -1.536675   0.007582   7.557552  -0.041959
     6  H   -0.641399   0.326042   0.133060   0.095777  -0.041959   1.830106
     7  S   -0.685190  -0.003493  -0.637510   0.120861   0.171928  -0.019155
     8  H    0.135526   0.131715  -0.093878   0.027806   0.065665  -0.064483
     9  C    0.086717  -0.801360  -4.919041  -0.020020   0.834216  -0.070515
    10  S   -0.186297   0.283953  -0.893153   0.090473   0.160553   0.011298
    11  C   -0.016058   0.075577  -0.137255  -0.103642   0.056743   0.004010
    12  C   -0.050197  -0.014482   0.633774   0.075755  -0.068716  -0.005162
    13  C   -0.063511  -1.483114   1.061862  -0.000597  -0.690215   0.002442
    14  H   -0.020762   0.109446  -0.061935   0.016462   0.019660  -0.001040
    15  S    0.000925  -0.014132  -0.045700  -0.002108   0.002231   0.000047
    16  C   -0.001265  -0.006803   0.018004  -0.006263   0.001775   0.000132
    17  C    0.004039   0.052984  -0.343510  -0.047592   0.004582   0.000363
    18  H    0.000108   0.000512  -0.001114  -0.000425   0.000007   0.000011
    19  H   -0.000424   0.001730  -0.000522  -0.000807   0.000741  -0.000008
    20  H    0.077912  -0.046512   0.079242  -0.027212   0.036568  -0.034387
    21  H   -0.021092   0.022754  -0.072260   0.302979  -0.016394   0.007265
    22  H    0.000789   0.005982  -0.055101   0.324332  -0.010187   0.005736
               7          8          9         10         11         12
     1  C   -0.685190   0.135526   0.086717  -0.186297  -0.016058  -0.050197
     2  C   -0.003493   0.131715  -0.801360   0.283953   0.075577  -0.014482
     3  C   -0.637510  -0.093878  -4.919041  -0.893153  -0.137255   0.633774
     4  C    0.120861   0.027806  -0.020020   0.090473  -0.103642   0.075755
     5  C    0.171928   0.065665   0.834216   0.160553   0.056743  -0.068716
     6  H   -0.019155  -0.064483  -0.070515   0.011298   0.004010  -0.005162
     7  S   16.699970  -0.119334  -0.042340   0.138301   0.050050  -0.176909
     8  H   -0.119334   1.301372   0.009386   0.004317  -0.000280   0.001507
     9  C   -0.042340   0.009386  19.561760   0.557934  -1.204300  -0.945818
    10  S    0.138301   0.004317   0.557934  17.511522   0.237000  -0.886399
    11  C    0.050050  -0.000280  -1.204300   0.237000  12.957075  -1.523348
    12  C   -0.176909   0.001507  -0.945818  -0.886399  -1.523348  15.295469
    13  C   -0.176950  -0.012792  -7.640031  -1.627415  -0.950230  -3.730986
    14  H    0.020025   0.003701   1.439495   0.051674  -0.222754   0.422178
    15  S    0.020154  -0.000088  -0.516304   0.183809   0.229284  -0.776878
    16  C    0.013098   0.000014  -0.008261  -0.204380  -0.145875  -1.179803
    17  C    0.001353   0.000132  -0.320470  -0.057872  -3.296300  -0.869482
    18  H    0.000234  -0.000003   0.008794   0.015224   0.156431  -0.110094
    19  H    0.000549   0.000017   0.060777   0.060303   0.648986   0.028447
    20  H   -0.013882  -0.000057  -0.012827  -0.048220  -0.008540   0.005039
    21  H    0.014092   0.001268   0.028459   0.032752   0.011919   0.004291
    22  H    0.012200   0.001359   0.005443   0.026299   0.012176   0.003732
              13         14         15         16         17         18
     1  C   -0.063511  -0.020762   0.000925  -0.001265   0.004039   0.000108
     2  C   -1.483114   0.109446  -0.014132  -0.006803   0.052984   0.000512
     3  C    1.061862  -0.061935  -0.045700   0.018004  -0.343510  -0.001114
     4  C   -0.000597   0.016462  -0.002108  -0.006263  -0.047592  -0.000425
     5  C   -0.690215   0.019660   0.002231   0.001775   0.004582   0.000007
     6  H    0.002442  -0.001040   0.000047   0.000132   0.000363   0.000011
     7  S   -0.176950   0.020025   0.020154   0.013098   0.001353   0.000234
     8  H   -0.012792   0.003701  -0.000088   0.000014   0.000132  -0.000003
     9  C   -7.640031   1.439495  -0.516304  -0.008261  -0.320470   0.008794
    10  S   -1.627415   0.051674   0.183809  -0.204380  -0.057872   0.015224
    11  C   -0.950230  -0.222754   0.229284  -0.145875  -3.296300   0.156431
    12  C   -3.730986   0.422178  -0.776878  -1.179803  -0.869482  -0.110094
    13  C   23.099922  -2.101927   0.278360   0.165454  -0.536147   0.019370
    14  H   -2.101927   1.967252  -0.072232   0.015996  -0.044110   0.002076
    15  S    0.278360  -0.072232  16.236916   0.247019  -0.124540  -0.139451
    16  C    0.165454   0.015996   0.247019   7.081433   0.101696   0.181608
    17  C   -0.536147  -0.044110  -0.124540   0.101696  11.644013   0.005568
    18  H    0.019370   0.002076  -0.139451   0.181608   0.005568   1.326099
    19  H   -0.040372  -0.000350  -0.002757  -0.105132  -0.665446  -0.071436
    20  H    0.037206   0.000530   0.000175  -0.000526   0.001121  -0.000017
    21  H   -0.044227   0.002031  -0.000721   0.000799  -0.011510   0.000034
    22  H   -0.040383   0.001403  -0.000500   0.000887  -0.010354   0.000040
              19         20         21         22
     1  C   -0.000424   0.077912  -0.021092   0.000789
     2  C    0.001730  -0.046512   0.022754   0.005982
     3  C   -0.000522   0.079242  -0.072260  -0.055101
     4  C   -0.000807  -0.027212   0.302979   0.324332
     5  C    0.000741   0.036568  -0.016394  -0.010187
     6  H   -0.000008  -0.034387   0.007265   0.005736
     7  S    0.000549  -0.013882   0.014092   0.012200
     8  H    0.000017  -0.000057   0.001268   0.001359
     9  C    0.060777  -0.012827   0.028459   0.005443
    10  S    0.060303  -0.048220   0.032752   0.026299
    11  C    0.648986  -0.008540   0.011919   0.012176
    12  C    0.028447   0.005039   0.004291   0.003732
    13  C   -0.040372   0.037206  -0.044227  -0.040383
    14  H   -0.000350   0.000530   0.002031   0.001403
    15  S   -0.002757   0.000175  -0.000721  -0.000500
    16  C   -0.105132  -0.000526   0.000799   0.000887
    17  C   -0.665446   0.001121  -0.011510  -0.010354
    18  H   -0.071436  -0.000017   0.000034   0.000040
    19  H    1.415671   0.000403   0.000264   0.000324
    20  H    0.000403   1.575262  -0.199188  -0.185767
    21  H    0.000264  -0.199188   0.859934  -0.110502
    22  H    0.000324  -0.185767  -0.110502   0.826980
 Mulliken charges:
               1
     1  C    0.520915
     2  C   -0.654165
     3  C    0.473650
     4  C    0.642355
     5  C   -0.324832
     6  H   -0.538183
     7  S    0.611949
     8  H   -0.392869
     9  C   -0.091695
    10  S    0.538324
    11  C   -0.830672
    12  C   -0.131918
    13  C    0.474280
    14  H   -0.546819
    15  S    0.496492
    16  C   -0.169605
    17  C    0.511481
    18  H   -0.393577
    19  H   -0.330957
    20  H   -0.236323
    21  H    0.187054
    22  H    0.185114
 Sum of Mulliken charges =  -0.00000
 Mulliken charges with hydrogens summed into heavy atoms:
               1
     1  C   -0.017268
     2  C   -0.654165
     3  C    0.473650
     4  C    0.778199
     5  C   -0.717701
     7  S    0.611949
     9  C   -0.091695
    10  S    0.538324
    11  C   -0.830672
    12  C   -0.131918
    13  C   -0.072538
    15  S    0.496492
    16  C   -0.563182
    17  C    0.180524
 Electronic spatial extent (au):  <R**2>=           4366.2802
 Charge=             -0.0000 electrons
 Dipole moment (field-independent basis, Debye):
    X=              0.6640    Y=              1.2624    Z=              0.0551  Tot=              1.4274
 Quadrupole moment (field-independent basis, Debye-Ang):
   XX=            -85.8640   YY=            -98.5140   ZZ=           -111.7555
   XY=             -2.3703   XZ=              0.3468   YZ=             -0.1128
 Traceless Quadrupole moment (field-independent basis, Debye-Ang):
   XX=             12.8472   YY=              0.1972   ZZ=            -13.0444
   XY=             -2.3703   XZ=              0.3468   YZ=             -0.1128
 Octapole moment (field-independent basis, Debye-Ang**2):
  XXX=              3.4780  YYY=              4.6420  ZZZ=              0.2126  XYY=              8.0935
  XXY=             16.3926  XXZ=             -0.8164  XZZ=              1.0384  YZZ=              2.4490
  YYZ=             -0.0650  XYZ=              1.9748
 Hexadecapole moment (field-independent basis, Debye-Ang**3):
 XXXX=          -4156.8586 YYYY=          -1153.6870 ZZZZ=           -150.3514 XXXY=            -94.7639
 XXXZ=              4.3148 YYYX=            -27.8243 YYYZ=             -1.8184 ZZZX=             -0.1634
 ZZZY=              0.6097 XXYY=           -927.3467 XXZZ=           -925.5050 YYZZ=           -234.6435
 XXYZ=              1.8093 YYXZ=              1.1803 ZZXY=              8.3734
 N-N= 1.125377461154D+03 E-N=-6.070826278378D+03  KE= 1.613750790839D+03
 Calling FoFJK, ICntrl=  10002127 FMM=F ISym2X=0 I1Cent= 0 IOpClX= 0 NMat=1 NMatS=1 NMatT=0.
 ***** Axes restored to original set *****
 -------------------------------------------------------------------
 Center     Atomic                   Forces (Hartrees/Bohr)
 Number     Number              X              Y              Z
 -------------------------------------------------------------------
      1        6           0.010505781    0.036186278   -0.001486513
      2        6          -0.032132728    0.025414995   -0.001309598
      3        6           0.031894949   -0.019325235    0.001724624
      4        6           0.000231394   -0.007689370    0.000148445
      5        6           0.003340545   -0.029791528    0.001270103
      6        1          -0.007936253    0.005551006   -0.000282686
      7       16           0.005467097   -0.007861571    0.000357260
      8        1          -0.007389918   -0.007773236    0.000267290
      9        6          -0.029985743    0.020364449    0.000307510
     10       16          -0.005369205    0.010211914    0.000646326
     11        6           0.007957899    0.041067737    0.002023178
     12        6          -0.008523666   -0.041717426   -0.002043549
     13        6           0.029381474   -0.019718408   -0.000799715
     14        1          -0.003748325   -0.010847790   -0.000622661
     15       16           0.002691007   -0.008204868   -0.000352189
     16        6           0.014269929   -0.024061672   -0.001234668
     17        6          -0.027375727    0.021566108    0.001052130
     18        1           0.010311070   -0.000797154   -0.000014766
     19        1           0.002920651    0.009265720    0.000450721
     20        1          -0.006990102    0.003068006   -0.000626235
     21        1           0.005720191    0.002196402   -0.006867265
     22        1           0.004759682    0.002895646    0.007392258
 -------------------------------------------------------------------
 Cartesian Forces:  Max     0.041717426 RMS     0.014906132

 GradGradGradGradGradGradGradGradGradGradGradGradGradGradGradGradGradGrad
 Berny optimization.
 FormGI is forming the generalized inverse of G from B-inverse, IUseBI=4.
 Internal  Forces:  Max     0.043162317 RMS     0.008832603
 Search for a local minimum.
 Step number   1 out of a maximum of  127
 All quantities printed in internal units (Hartrees-Bohrs-Radians)
 Mixed Optimization -- RFO/linear search
 Second derivative matrix not updated -- first step.
 ITU=  0
     Eigenvalues ---    0.00629   0.01349   0.01448   0.01580   0.01631
     Eigenvalues ---    0.01662   0.01772   0.01865   0.01984   0.02045
     Eigenvalues ---    0.02065   0.02131   0.02240   0.02259   0.02372
     Eigenvalues ---    0.02441   0.07009   0.07280   0.16000   0.16000
     Eigenvalues ---    0.16000   0.16000   0.16000   0.16000   0.16000
     Eigenvalues ---    0.16000   0.22519   0.22567   0.23646   0.24762
     Eigenvalues ---    0.24784   0.24999   0.24999   0.25000   0.25000
     Eigenvalues ---    0.28688   0.29784   0.30316   0.30988   0.31314
     Eigenvalues ---    0.31427   0.32438   0.34907   0.34936   0.34946
     Eigenvalues ---    0.35780   0.36017   0.36208   0.36371   0.36391
     Eigenvalues ---    0.36487   0.38430   0.39269   0.40027   0.45909
     Eigenvalues ---    0.49463   0.51515   0.53441   0.541351000.00000
     Eigenvalues --- 1000.000001000.000001000.000001000.000001000.00000
     Eigenvalues --- 1000.000001000.000001000.000001000.000001000.00000
     Eigenvalues --- 1000.000001000.000001000.000001000.000001000.00000
     Eigenvalues --- 1000.000001000.000001000.000001000.000001000.00000
     Eigenvalues --- 1000.000001000.000001000.000001000.000001000.00000
     Eigenvalues --- 1000.000001000.000001000.000001000.000001000.00000
     Eigenvalues --- 1000.000001000.000001000.000001000.000001000.00000
     Eigenvalues --- 1000.000001000.000001000.000001000.000001000.00000
     Eigenvalues --- 1000.000001000.000001000.000001000.000001000.00000
     Eigenvalues --- 1000.000001000.000001000.000001000.000001000.00000
     Eigenvalues --- 1000.000001000.000001000.000001000.000001000.00000
     Eigenvalues --- 1000.000001000.00000
 RFO step:  Lambda=-1.79515534D-02 EMin= 6.28800932D-03
 Linear search not attempted -- first point.
 Iteration  1 RMS(Cart)=  0.03838866 RMS(Int)=  0.00032842
 Iteration  2 RMS(Cart)=  0.00071003 RMS(Int)=  0.00004273
 Iteration  3 RMS(Cart)=  0.00000016 RMS(Int)=  0.00004272
 Iteration  1 RMS(Cart)=  0.00000122 RMS(Int)=  0.00000055
 Iteration  2 RMS(Cart)=  0.00000067 RMS(Int)=  0.00000062
 Variable       Old X    -DE/DX   Delta X   Delta X   Delta X     New X
                                 (Linear)    (Quad)   (Total)
    R1        2.72360  -0.00472   0.00000  -0.00923  -0.00916   2.71444
    R2        2.54394   0.04115   0.00000   0.07263   0.07265   2.61659
    R3        2.04054   0.00969   0.00000   0.02562   0.02562   2.06616
    R4        2.57609   0.03537   0.00000   0.06539   0.06542   2.64150
    R5        2.85418   0.00094   0.00000   0.00283   0.00283   2.85701
    R6        3.30894   0.00430   0.00000   0.01049   0.01045   3.31939
    R7        2.77727  -0.00768   0.00000  -0.02043  -0.02043   2.75684
    R8        2.05762   0.00765   0.00000   0.02082   0.02082   2.07844
    R9        2.05779   0.00917   0.00000   0.02497   0.02497   2.08276
   R10        2.05826   0.00922   0.00000   0.02513   0.02513   2.08339
   R11        3.25673   0.00724   0.00000   0.01956   0.01951   3.27624
   R12        2.03327   0.01060   0.00000   0.02770   0.02770   2.06097
   R13        3.33467   0.00660   0.00000   0.01807   0.01801   3.35267
   R14        2.56737   0.03793   0.00000   0.06901   0.06903   2.63640
   R15        3.27621   0.00608   0.00000   0.01654   0.01649   3.29270
   R16        2.57600   0.04316   0.00000   0.08255   0.08263   2.65863
   R17        2.71039  -0.00230   0.00000  -0.00300  -0.00294   2.70745
   R18        2.69921  -0.00302   0.00000  -0.00460  -0.00452   2.69469
   R19        3.28404   0.00526   0.00000   0.01428   0.01425   3.29829
   R20        2.03475   0.01147   0.00000   0.03004   0.03004   2.06479
   R21        3.29696   0.00690   0.00000   0.01803   0.01798   3.31493
   R22        2.55077   0.03839   0.00000   0.06760   0.06761   2.61837
   R23        2.03506   0.01027   0.00000   0.02691   0.02691   2.06197
   R24        2.03757   0.00972   0.00000   0.02559   0.02559   2.06316
    A1        1.98890  -0.00380   0.00000  -0.00914  -0.00905   1.97985
    A2        2.14142   0.00168   0.00000   0.00334   0.00329   2.14471
    A3        2.15287   0.00212   0.00000   0.00580   0.00576   2.15862
    A4        1.95318  -0.00253   0.00000  -0.00583  -0.00574   1.94744
    A5        2.10901   0.00676   0.00000   0.02343   0.02338   2.13239
    A6        2.22099  -0.00423   0.00000  -0.01760  -0.01764   2.20335
    A7        1.93590   0.00392   0.00000   0.01188   0.01187   1.94777
    A8        2.28504  -0.00401   0.00000  -0.01361  -0.01361   2.27144
    A9        2.06220   0.00010   0.00000   0.00174   0.00174   2.06394
   A10        1.91455  -0.00023   0.00000   0.00015   0.00015   1.91470
   A11        1.95036  -0.00031   0.00000  -0.00249  -0.00250   1.94786
   A12        1.94978  -0.00035   0.00000  -0.00271  -0.00272   1.94706
   A13        1.88136   0.00059   0.00000   0.00473   0.00473   1.88609
   A14        1.87945   0.00060   0.00000   0.00475   0.00475   1.88420
   A15        1.88566  -0.00023   0.00000  -0.00393  -0.00395   1.88172
   A16        1.94323   0.00156   0.00000   0.00843   0.00841   1.95164
   A17        2.23595   0.00088   0.00000   0.00509   0.00510   2.24105
   A18        2.10401  -0.00243   0.00000  -0.01352  -0.01351   2.09050
   A19        1.60356   0.00085   0.00000  -0.00534  -0.00550   1.59806
   A20        2.13698  -0.00757   0.00000  -0.02743  -0.02742   2.10956
   A21        2.20345   0.00285   0.00000   0.01146   0.01147   2.21492
   A22        1.94275   0.00472   0.00000   0.01597   0.01595   1.95870
   A23        1.59279   0.00079   0.00000  -0.00510  -0.00529   1.58750
   A24        1.93756   0.00214   0.00000   0.00702   0.00698   1.94454
   A25        2.35386   0.00112   0.00000  -0.00099  -0.00106   2.35281
   A26        1.99176  -0.00327   0.00000  -0.00603  -0.00592   1.98583
   A27        1.99259  -0.00320   0.00000  -0.00525  -0.00513   1.98746
   A28        1.93848   0.00146   0.00000   0.00394   0.00389   1.94238
   A29        2.35210   0.00174   0.00000   0.00131   0.00124   2.35334
   A30        1.95908  -0.00445   0.00000  -0.01263  -0.01251   1.94657
   A31        2.15846   0.00151   0.00000   0.00228   0.00222   2.16067
   A32        2.16565   0.00294   0.00000   0.01035   0.01029   2.17594
   A33        1.58109   0.00228   0.00000   0.00014   0.00000   1.58109
   A34        1.97608   0.00266   0.00000   0.00927   0.00926   1.98534
   A35        2.08750  -0.00257   0.00000  -0.01161  -0.01160   2.07591
   A36        2.21960  -0.00009   0.00000   0.00234   0.00234   2.22194
   A37        1.93737  -0.00314   0.00000  -0.00732  -0.00723   1.93014
   A38        2.18372   0.00172   0.00000   0.00451   0.00447   2.18819
   A39        2.16210   0.00142   0.00000   0.00280   0.00276   2.16486
    D1        0.00235  -0.00001   0.00000   0.00015   0.00015   0.00250
    D2       -3.14088  -0.00000   0.00000   0.00059   0.00059  -3.14029
    D3       -3.13812   0.00000   0.00000   0.00038   0.00038  -3.13775
    D4        0.00183   0.00001   0.00000   0.00082   0.00082   0.00265
    D5        0.00177  -0.00001   0.00000   0.00013   0.00013   0.00190
    D6       -3.13867   0.00001   0.00000   0.00027   0.00027  -3.13840
    D7       -3.14095  -0.00003   0.00000  -0.00010  -0.00010  -3.14105
    D8        0.00180  -0.00000   0.00000   0.00004   0.00004   0.00184
    D9       -0.00527  -0.00000   0.00000  -0.00044  -0.00044  -0.00571
   D10       -3.13648  -0.00010   0.00000  -0.00156  -0.00156  -3.13804
   D11        3.13810  -0.00003   0.00000  -0.00096  -0.00095   3.13715
   D12        0.00689  -0.00013   0.00000  -0.00208  -0.00207   0.00481
   D13       -0.06827   0.00001   0.00000   0.00042   0.00042  -0.06786
   D14       -2.15374  -0.00038   0.00000  -0.00401  -0.00400  -2.15774
   D15        2.01444   0.00039   0.00000   0.00473   0.00473   2.01916
   D16        3.07141   0.00003   0.00000   0.00095   0.00095   3.07235
   D17        0.98594  -0.00036   0.00000  -0.00348  -0.00347   0.98247
   D18       -1.12907   0.00041   0.00000   0.00526   0.00526  -1.12382
   D19        0.00536   0.00000   0.00000   0.00043   0.00043   0.00579
   D20        3.13806   0.00005   0.00000   0.00127   0.00129   3.13935
   D21        0.08653   0.00015   0.00000   0.00000  -0.00000   0.08653
   D22       -3.05834   0.00005   0.00000  -0.00138  -0.00138  -3.05972
   D23       -3.04407   0.00003   0.00000  -0.00123  -0.00123  -3.04529
   D24        0.09425  -0.00007   0.00000  -0.00261  -0.00260   0.09165
   D25       -0.00402  -0.00000   0.00000  -0.00033  -0.00033  -0.00435
   D26        3.13651  -0.00002   0.00000  -0.00044  -0.00044   3.13608
   D27        3.13569  -0.00003   0.00000  -0.00030  -0.00028   3.13541
   D28       -0.00306   0.00005   0.00000   0.00089   0.00090  -0.00216
   D29       -3.13487   0.00007   0.00000   0.00068   0.00070  -3.13417
   D30        0.00847   0.00009   0.00000   0.00107   0.00108   0.00955
   D31        0.00376  -0.00004   0.00000  -0.00065  -0.00065   0.00311
   D32       -3.13609  -0.00002   0.00000  -0.00026  -0.00026  -3.13635
   D33        0.00151  -0.00004   0.00000  -0.00090  -0.00090   0.00061
   D34        3.13853  -0.00003   0.00000  -0.00081  -0.00080   3.13773
   D35        0.00032   0.00003   0.00000   0.00073   0.00073   0.00105
   D36        3.13798   0.00004   0.00000   0.00062   0.00062   3.13860
   D37       -3.13772   0.00002   0.00000   0.00065   0.00065  -3.13707
   D38       -0.00006   0.00003   0.00000   0.00054   0.00054   0.00048
   D39       -3.13776  -0.00001   0.00000  -0.00002  -0.00002  -3.13778
   D40        0.00568  -0.00002   0.00000  -0.00040  -0.00040   0.00529
   D41       -0.00084   0.00000   0.00000   0.00010   0.00010  -0.00074
   D42       -3.14058  -0.00000   0.00000  -0.00027  -0.00027  -3.14086
   D43       -0.00271   0.00003   0.00000   0.00001   0.00001  -0.00270
   D44        3.13713   0.00001   0.00000  -0.00039  -0.00039   3.13674
   D45       -3.13913   0.00003   0.00000   0.00015   0.00015  -3.13898
   D46        0.00071   0.00000   0.00000  -0.00025  -0.00025   0.00046
   D47        0.00069  -0.00003   0.00000  -0.00076  -0.00076  -0.00007
   D48        3.13722  -0.00004   0.00000  -0.00092  -0.00092   3.13631
   D49       -0.00120   0.00003   0.00000   0.00084   0.00084  -0.00036
   D50        3.14039   0.00001   0.00000   0.00021   0.00022   3.14061
   D51        0.00136  -0.00002   0.00000  -0.00068  -0.00068   0.00068
   D52        3.14113  -0.00002   0.00000  -0.00031  -0.00031   3.14082
   D53       -3.14024   0.00000   0.00000   0.00000   0.00001  -3.14023
   D54       -0.00047   0.00001   0.00000   0.00038   0.00038  -0.00009
         Item               Value     Threshold  Converged?
 Maximum Force            0.043162     0.000450     NO 
 RMS     Force            0.008871     0.000300     NO 
 Maximum Displacement     0.141393     0.001800     NO 
 RMS     Displacement     0.038707     0.001200     NO 
 Predicted change in Energy=-9.304523D-03
 GradGradGradGradGradGradGradGradGradGradGradGradGradGradGradGradGradGrad

                          Input orientation:                          
 ---------------------------------------------------------------------
 Center     Atomic      Atomic             Coordinates (Angstroms)
 Number     Number       Type             X           Y           Z
 ---------------------------------------------------------------------
      1          6           0       -4.056947    0.287736   -0.026769
      2          6           0       -2.733603    0.845993   -0.047037
      3          6           0       -1.754445   -0.150785   -0.007169
      4          6           0       -2.489509    2.336843   -0.106325
      5          6           0       -4.070265   -1.095665    0.030234
      6          1           0       -4.960910    0.902141   -0.055209
      7         16           0       -2.467055   -1.754716    0.063794
      8          1           0       -4.931409   -1.764509    0.053289
      9          6           0       -0.299748   -0.040703   -0.005888
     10         16           0        0.493092    1.544585    0.070943
     11          6           0        2.064634    0.792709    0.039645
     12          6           0        1.962262   -0.608840   -0.027504
     13          6           0        0.619767   -1.088737   -0.055667
     14          1           0        0.337505   -2.142822   -0.111343
     15         16           0        3.538105   -1.358355   -0.063549
     16          6           0        4.308541    0.215793    0.011687
     17          6           0        3.414281    1.272967    0.061920
     18          1           0        5.398300    0.270666    0.015126
     19          1           0        3.710943    2.322436    0.112734
     20          1           0       -3.449051    2.866309   -0.199286
     21          1           0       -1.862588    2.611363   -0.970238
     22          1           0       -1.986899    2.701590    0.804612
 ---------------------------------------------------------------------
                    Distance matrix (angstroms):
                    1          2          3          4          5
     1  C    0.000000
     2  C    1.436420   0.000000
     3  C    2.343972   1.397822   0.000000
     4  C    2.581091   1.511863   2.595852   0.000000
     5  C    1.384639   2.358531   2.501444   3.781474   0.000000
     6  H    1.093366   2.228029   3.375260   2.858112   2.189012
     7  S    2.589898   2.616681   1.756543   4.095156   1.733712
     8  H    2.232219   3.413962   3.563827   4.775922   1.090620
     9  C    3.771585   2.590670   1.458856   3.233862   3.915488
    10  S    4.721449   3.303561   2.816346   3.091118   5.272268
    11  C    6.142732   4.799315   3.934175   4.811016   6.418958
    12  C    6.085617   4.916103   3.744881   5.338682   6.052414
    13  C    4.875158   3.871478   2.553230   4.626528   4.690823
    14  H    5.022547   4.285889   2.890556   5.297115   4.532661
    15  S    7.771473   6.647837   5.428856   7.070251   7.613481
    16  C    8.365886   7.070529   6.074086   7.122237   8.480840
    17  C    7.536431   6.163656   5.361676   6.001240   7.850468
    18  H    9.455356   8.152467   7.165185   8.154837   9.566651
    19  H    8.031163   6.613440   6.000138   6.204337   8.499260
    20  H    2.654870   2.148656   3.465755   1.099862   4.016941
    21  H    3.332355   2.174281   2.927228   1.102151   4.429090
    22  H    3.286789   2.173963   2.974739   1.102481   4.399911
                    6          7          8          9         10
     6  H    0.000000
     7  S    3.645869   0.000000
     8  H    2.669019   2.464396   0.000000
     9  C    4.755819   2.764040   4.942397   0.000000
    10  S    5.493158   4.432597   6.354182   1.774158   0.000000
    11  C    7.027036   5.198669   7.448769   2.507379   1.742423
    12  C    7.086193   4.576048   6.990336   2.332367   2.608714
    13  C    5.925162   3.160105   5.593218   1.395121   2.639406
    14  H    6.111313   2.836697   5.285043   2.199117   3.695187
    15  S    8.794496   6.019573   8.480052   4.058158   4.209186
    16  C    9.295066   7.056509   9.449867   4.615455   4.040649
    17  C    8.384214   6.614906   8.881265   3.940094   2.933803
    18  H   10.378677   8.122090  10.528356   5.706588   5.068239
    19  H    8.788997   7.402244   9.560172   4.656623   3.310795
    20  H    2.482827   4.731532   4.868845   4.290248   4.166590
    21  H    3.654903   4.527389   5.441831   3.225816   2.787705
    22  H    3.580789   4.542910   5.401913   3.320175   2.833247
                   11         12         13         14         15
    11  C    0.000000
    12  C    1.406886   0.000000
    13  C    2.374145   1.425969   0.000000
    14  H    3.409269   2.236060   1.092642   0.000000
    15  S    2.609376   1.745380   2.930777   3.295681   0.000000
    16  C    2.317052   2.487283   3.913233   4.620317   1.754188
    17  C    1.432722   2.378561   3.660708   4.600455   2.637220
    18  H    3.374383   3.547070   4.968639   5.608259   2.473909
    19  H    2.248498   3.416128   4.606499   5.600788   3.689061
    20  H    5.895560   6.433387   5.676116   6.279899   8.166184
    21  H    4.444146   5.088018   4.548546   5.308520   6.763744
    22  H    4.543558   5.219889   4.679890   5.450702   6.911044
                   16         17         18         19         20
    16  C    0.000000
    17  C    1.385583   0.000000
    18  H    1.091146   2.223315   0.000000
    19  H    2.192094   1.091776   2.658282   0.000000
    20  H    8.200608   7.050695   9.222741   7.187397   0.000000
    21  H    6.692216   5.540938   7.692223   5.685117   1.782198
    22  H    6.814725   5.636072   7.814976   5.752205   1.781244
                   21         22
    21  H    0.000000
    22  H    1.781484   0.000000
 Stoichiometry    C11H8S3
 Framework group  C1[X(C11H8S3)]
 Deg. of freedom    60
 Full point group                 C1      NOp   1
 Largest Abelian subgroup         C1      NOp   1
 Largest concise Abelian subgroup C1      NOp   1
                         Standard orientation:                         
 ---------------------------------------------------------------------
 Center     Atomic      Atomic             Coordinates (Angstroms)
 Number     Number       Type             X           Y           Z
 ---------------------------------------------------------------------
      1          6           0        4.048961    0.298753    0.027902
      2          6           0        2.724912    0.855357    0.047620
      3          6           0        1.747015   -0.142656    0.007684
      4          6           0        2.478934    2.345914    0.106473
      5          6           0        4.064029   -1.084644   -0.028764
      6          1           0        4.952144    0.914296    0.056479
      7         16           0        2.461656   -1.745710   -0.062669
      8          1           0        4.926017   -1.752415   -0.051386
      9          6           0        0.292183   -0.034395    0.005918
     10         16           0       -0.502618    1.549880   -0.071543
     11          6           0       -2.073226    0.796044   -0.040559
     12          6           0       -1.969121   -0.605359    0.026959
     13          6           0       -0.626035   -1.083568    0.055660
     14          1           0       -0.342471   -2.137285    0.111679
     15         16           0       -3.544035   -1.356838    0.062688
     16          6           0       -4.316418    0.216326   -0.013169
     17          6           0       -3.423467    1.274607   -0.063375
     18          1           0       -5.406244    0.269834   -0.016964
     19          1           0       -3.721426    2.323691   -0.114535
     20          1           0        3.437783    2.876604    0.199608
     21          1           0        1.851397    2.619857    0.970122
     22          1           0        1.976154    2.709814   -0.804710
 ---------------------------------------------------------------------
 Rotational constants (GHZ):           1.2376878           0.2839170           0.2314453
 Standard basis: Aug-CC-pVDZ (5D, 7F)
 There are   434 symmetry adapted cartesian basis functions of A   symmetry.
 There are   406 symmetry adapted basis functions of A   symmetry.
   406 basis functions,   804 primitive gaussians,   434 cartesian basis functions
    61 alpha electrons       61 beta electrons
       nuclear repulsion energy      1118.5644825227 Hartrees.
 NAtoms=   22 NActive=   22 NUniq=   22 SFac= 1.00D+00 NAtFMM=   60 NAOKFM=F Big=F
 Integral buffers will be    131072 words long.
 Raffenetti 1 integral format.
 Two-electron integral symmetry is turned on.
 One-electron integrals computed using PRISM.
 NBasis=   406 RedAO= T EigKep=  2.24D-06  NBF=   406
 NBsUse=   406 1.00D-06 EigRej= -1.00D+00 NBFU=   406
 Initial guess from the checkpoint file:  "/tmp/pbs.4766302[180].pbs/Gau-523853.chk"
 B after Tr=    -0.000000    0.000000   -0.000000
         Rot=    1.000000   -0.000003    0.000211    0.000509 Ang=  -0.06 deg.
 ExpMin= 2.97D-02 ExpMax= 1.11D+05 ExpMxC= 1.07D+03 IAcc=3 IRadAn=         5 AccDes= 0.00D+00
 Harris functional with IExCor=  205 and IRadAn=       5 diagonalized for initial guess.
 HarFok:  IExCor=  205 AccDes= 0.00D+00 IRadAn=         5 IDoV= 1 UseB2=F ITyADJ=14
 ICtDFT=  3500011 ScaDFX=  1.000000  1.000000  1.000000  1.000000
 FoFCou: FMM=F IPFlag=           0 FMFlag=      100000 FMFlg1=           0
         NFxFlg=           0 DoJE=T BraDBF=F KetDBF=T FulRan=T
         wScrn=  0.000000 ICntrl=       500 IOpCl=  0 I1Cent=   200000004 NGrid=           0
         NMat0=    1 NMatS0=      1 NMatT0=    0 NMatD0=    1 NMtDS0=    0 NMtDT0=    0
 Petite list used in FoFCou.
 Requested convergence on RMS density matrix=1.00D-08 within 128 cycles.
 Requested convergence on MAX density matrix=1.00D-06.
 Requested convergence on             energy=1.00D-06.
 No special actions if energy rises.
 SCF Done:  E(RHF) =  -1613.80290839     A.U. after   16 cycles
            NFock= 16  Conv=0.73D-08     -V/T= 2.0005
 ExpMin= 2.97D-02 ExpMax= 1.11D+05 ExpMxC= 1.07D+03 IAcc=3 IRadAn=         5 AccDes= 0.00D+00
 HarFok:  IExCor=  205 AccDes= 0.00D+00 IRadAn=         5 IDoV=-2 UseB2=F ITyADJ=14
 ICtDFT= 12500011 ScaDFX=  1.000000  1.000000  1.000000  1.000000
 GSVD:  LWork=        -884 too small for GESVD, short by        3770 words or        3770 for optimal perf.
 Range of M.O.s used for correlation:    27   406
 NBasis=   406 NAE=    61 NBE=    61 NFC=    26 NFV=     0
 NROrb=    380 NOA=    35 NOB=    35 NVA=   345 NVB=   345

 **** Warning!!: The largest alpha MO coefficient is  0.12790147D+03

 Disk-based method using ON**2 memory for 35 occupieds at a time.
 Estimated scratch disk usage=  5829894106 words.
 Actual    scratch disk usage=  4754185690 words.
 JobTyp=1 Pass  1:  I=  27 to  61 NPSUse= 16 ParTrn=T ParDer=T DoDerP=T.
 (rs|ai) integrals will be sorted in core.
 Spin components of T(2) and E(2):
     alpha-alpha T2 =       0.1172303580D+00 E2=     -0.2678382078D+00
     alpha-beta  T2 =       0.5761305862D+00 E2=     -0.1412648395D+01
     beta-beta   T2 =       0.1172303580D+00 E2=     -0.2678382078D+00
 ANorm=    0.1345582142D+01
 E2 =    -0.1948324810D+01 EUMP2 =    -0.16157512332022D+04
          IDoAtm=1111111111111111111111
          Differentiating once with respect to electric field.
                with respect to dipole field.
          Differentiating once with respect to nuclear coordinates.
 Keep R1 ints in memory in canonical form, NReq=3454318301.
          There are     1 degrees of freedom in the 1st order CPHF.  IDoFFX=0 NUNeed=     1.
 LinEq1:  Iter=  0 NonCon=     1 RMS=2.73D-03 Max=7.12D-02 NDo=     1
 AX will form     1 AO Fock derivatives at one time.
 LinEq1:  Iter=  1 NonCon=     1 RMS=6.18D-04 Max=1.39D-02 NDo=     1
 LinEq1:  Iter=  2 NonCon=     1 RMS=3.44D-04 Max=1.50D-02 NDo=     1
 LinEq1:  Iter=  3 NonCon=     1 RMS=1.02D-04 Max=2.53D-03 NDo=     1
 LinEq1:  Iter=  4 NonCon=     1 RMS=4.34D-05 Max=1.22D-03 NDo=     1
 LinEq1:  Iter=  5 NonCon=     1 RMS=1.72D-05 Max=7.38D-04 NDo=     1
 LinEq1:  Iter=  6 NonCon=     1 RMS=7.66D-06 Max=4.56D-04 NDo=     1
 LinEq1:  Iter=  7 NonCon=     1 RMS=3.98D-06 Max=1.52D-04 NDo=     1
 LinEq1:  Iter=  8 NonCon=     1 RMS=1.56D-06 Max=6.10D-05 NDo=     1
 LinEq1:  Iter=  9 NonCon=     1 RMS=6.17D-07 Max=2.00D-05 NDo=     1
 LinEq1:  Iter= 10 NonCon=     1 RMS=2.15D-07 Max=6.01D-06 NDo=     1
 LinEq1:  Iter= 11 NonCon=     1 RMS=9.77D-08 Max=4.55D-06 NDo=     1
 LinEq1:  Iter= 12 NonCon=     1 RMS=3.50D-08 Max=9.17D-07 NDo=     1
 LinEq1:  Iter= 13 NonCon=     1 RMS=1.45D-08 Max=3.20D-07 NDo=     1
 LinEq1:  Iter= 14 NonCon=     1 RMS=5.29D-09 Max=1.41D-07 NDo=     1
 LinEq1:  Iter= 15 NonCon=     1 RMS=2.53D-09 Max=8.98D-08 NDo=     1
 LinEq1:  Iter= 16 NonCon=     1 RMS=1.04D-09 Max=3.35D-08 NDo=     1
 LinEq1:  Iter= 17 NonCon=     1 RMS=3.68D-10 Max=8.25D-09 NDo=     1
 LinEq1:  Iter= 18 NonCon=     1 RMS=1.07D-10 Max=1.95D-09 NDo=     1
 LinEq1:  Iter= 19 NonCon=     0 RMS=3.96D-11 Max=7.22D-10 NDo=     1
 Linear equations converged to 1.000D-10 1.000D-09 after    19 iterations.
 End of Minotr F.D. properties file   721 does not exist.
 End of Minotr F.D. properties file   722 does not exist.
 End of Minotr F.D. properties file   788 does not exist.
 Calling FoFJK, ICntrl=  10002127 FMM=F ISym2X=0 I1Cent= 0 IOpClX= 0 NMat=1 NMatS=1 NMatT=0.
 ***** Axes restored to original set *****
 -------------------------------------------------------------------
 Center     Atomic                   Forces (Hartrees/Bohr)
 Number     Number              X              Y              Z
 -------------------------------------------------------------------
      1        6           0.006777138    0.004462673   -0.000191672
      2        6          -0.011558069    0.003132923   -0.000374470
      3        6           0.010333325   -0.004717582    0.000886134
      4        6           0.000542275   -0.001881233    0.000017063
      5        6          -0.002216090   -0.004443995    0.000177783
      6        1          -0.000371670   -0.001070334    0.000033544
      7       16          -0.001668611    0.004808949   -0.000270014
      8        1           0.000135111   -0.000147256    0.000000672
      9        6          -0.008926347    0.001819865   -0.000496907
     10       16           0.002860540   -0.003224693   -0.000006757
     11        6           0.005817207    0.008131842    0.000476009
     12        6          -0.005476594   -0.008212136   -0.000344536
     13        6           0.008614453   -0.000540851    0.000083689
     14        1          -0.001222504    0.000609696   -0.000019831
     15       16          -0.001075926    0.004021841    0.000166514
     16        6           0.003553350   -0.002305109   -0.000116225
     17        6          -0.006975228   -0.000001340   -0.000015542
     18        1           0.000038809   -0.000150840    0.000010205
     19        1           0.000891475   -0.000572136   -0.000044899
     20        1          -0.000317718   -0.000013074    0.000032399
     21        1           0.000077416    0.000134467   -0.000104069
     22        1           0.000167658    0.000158322    0.000100911
 -------------------------------------------------------------------
 Cartesian Forces:  Max     0.011558069 RMS     0.003602048

 GradGradGradGradGradGradGradGradGradGradGradGradGradGradGradGradGradGrad
 Berny optimization.
 Using GEDIIS/GDIIS optimizer.
 FormGI is forming the generalized inverse of G from B-inverse, IUseBI=4.
 Internal  Forces:  Max     0.007098373 RMS     0.001517115
 Search for a local minimum.
 Step number   2 out of a maximum of  127
 All quantities printed in internal units (Hartrees-Bohrs-Radians)
 Mixed Optimization -- RFO/linear search
 Update second derivatives using D2CorX and points    1    2
 DE= -9.26D-03 DEPred=-9.30D-03 R= 9.95D-01
 TightC=F SS=  1.41D+00  RLast= 1.92D-01 DXNew= 5.0454D-01 5.7683D-01
 Trust test= 9.95D-01 RLast= 1.92D-01 DXMaxT set to 5.05D-01
 ITU=  1  0
 Use linear search instead of GDIIS.
     Eigenvalues ---    0.00629   0.01342   0.01454   0.01579   0.01629
     Eigenvalues ---    0.01670   0.01771   0.01861   0.01984   0.02053
     Eigenvalues ---    0.02070   0.02139   0.02245   0.02259   0.02374
     Eigenvalues ---    0.02446   0.07056   0.07276   0.15920   0.16000
     Eigenvalues ---    0.16000   0.16000   0.16000   0.16000   0.16000
     Eigenvalues ---    0.16029   0.22552   0.22618   0.23718   0.24540
     Eigenvalues ---    0.24769   0.24919   0.24999   0.25000   0.25661
     Eigenvalues ---    0.28707   0.29806   0.30335   0.31048   0.31296
     Eigenvalues ---    0.31547   0.32549   0.34917   0.34942   0.35033
     Eigenvalues ---    0.35600   0.36061   0.36251   0.36376   0.36455
     Eigenvalues ---    0.36822   0.38414   0.39361   0.40084   0.45215
     Eigenvalues ---    0.47620   0.51271   0.53523   0.539291000.00000
     Eigenvalues --- 1000.000001000.000001000.000001000.000001000.00000
     Eigenvalues --- 1000.000001000.000001000.000001000.000001000.00000
     Eigenvalues --- 1000.000001000.000001000.000001000.000001000.00000
     Eigenvalues --- 1000.000001000.000001000.000001000.000001000.00000
     Eigenvalues --- 1000.000001000.000001000.000001000.000001000.00000
     Eigenvalues --- 1000.000001000.000001000.000001000.000001000.00000
     Eigenvalues --- 1000.000001000.000001000.000001000.000001000.00000
     Eigenvalues --- 1000.000001000.000001000.000001000.000001000.00000
     Eigenvalues --- 1000.000001000.000001000.000001000.000001000.00000
     Eigenvalues --- 1000.000001000.000001000.000001000.000001000.00000
     Eigenvalues --- 1000.000001000.000001000.000001000.000001000.00000
     Eigenvalues --- 1000.000001000.00000
 RFO step:  Lambda=-8.64697778D-04 EMin= 6.28790211D-03
 Quartic linear search produced a step of  0.07068.
 Iteration  1 RMS(Cart)=  0.01750054 RMS(Int)=  0.00007176
 Iteration  2 RMS(Cart)=  0.00009870 RMS(Int)=  0.00000682
 Iteration  3 RMS(Cart)=  0.00000000 RMS(Int)=  0.00000682
 Iteration  1 RMS(Cart)=  0.00000177 RMS(Int)=  0.00000081
 Iteration  2 RMS(Cart)=  0.00000097 RMS(Int)=  0.00000090
 Variable       Old X    -DE/DX   Delta X   Delta X   Delta X     New X
                                 (Linear)    (Quad)   (Total)
    R1        2.71444  -0.00386  -0.00065  -0.01024  -0.01090   2.70354
    R2        2.61659   0.00226   0.00513   0.00275   0.00788   2.62447
    R3        2.06616  -0.00030   0.00181  -0.00130   0.00051   2.06667
    R4        2.64150   0.00710   0.00462   0.01365   0.01827   2.65977
    R5        2.85701  -0.00151   0.00020  -0.00518  -0.00498   2.85203
    R6        3.31939  -0.00182   0.00074  -0.00626  -0.00551   3.31387
    R7        2.75684  -0.00193  -0.00144  -0.00542  -0.00686   2.74998
    R8        2.07844   0.00027   0.00147   0.00048   0.00195   2.08039
    R9        2.08276   0.00016   0.00176   0.00008   0.00184   2.08461
   R10        2.08339   0.00021   0.00178   0.00024   0.00201   2.08540
   R11        3.27624  -0.00147   0.00138  -0.00547  -0.00408   3.27216
[...]
     22          1           0        1.970771    2.699999   -0.806577
 ---------------------------------------------------------------------
 Rotational constants (GHZ):           1.2420381           0.2832813           0.2311469

 **********************************************************************

            Population analysis using the SCF Density.

 **********************************************************************

 Orbital symmetries:
       Occupied  (A) (A) (A) (A) (A) (A) (A) (A) (A) (A) (A) (A)
                 (A) (A) (A) (A) (A) (A) (A) (A) (A) (A) (A) (A)
                 (A) (A) (A) (A) (A) (A) (A) (A) (A) (A) (A) (A)
                 (A) (A) (A) (A) (A) (A) (A) (A) (A) (A) (A) (A)
                 (A) (A) (A) (A) (A) (A) (A) (A) (A) (A) (A) (A)
                 (A)
       Virtual   (A) (A) (A) (A) (A) (A) (A) (A) (A) (A) (A) (A)
                 (A) (A) (A) (A) (A) (A) (A) (A) (A) (A) (A) (A)
                 (A) (A) (A) (A) (A) (A) (A) (A) (A) (A) (A) (A)
                 (A) (A) (A) (A) (A) (A) (A) (A) (A) (A) (A) (A)
                 (A) (A) (A) (A) (A) (A) (A) (A) (A) (A) (A) (A)
                 (A) (A) (A) (A) (A) (A) (A) (A) (A) (A) (A) (A)
                 (A) (A) (A) (A) (A) (A) (A) (A) (A) (A) (A) (A)
                 (A) (A) (A) (A) (A) (A) (A) (A) (A) (A) (A) (A)
                 (A) (A) (A) (A) (A) (A) (A) (A) (A) (A) (A) (A)
                 (A) (A) (A) (A) (A) (A) (A) (A) (A) (A) (A) (A)
                 (A) (A) (A) (A) (A) (A) (A) (A) (A) (A) (A) (A)
                 (A) (A) (A) (A) (A) (A) (A) (A) (A) (A) (A) (A)
                 (A) (A) (A) (A) (A) (A) (A) (A) (A) (A) (A) (A)
                 (A) (A) (A) (A) (A) (A) (A) (A) (A) (A) (A) (A)
                 (A) (A) (A) (A) (A) (A) (A) (A) (A) (A) (A) (A)
                 (A) (A) (A) (A) (A) (A) (A) (A) (A) (A) (A) (A)
                 (A) (A) (A) (A) (A) (A) (A) (A) (A) (A) (A) (A)
                 (A) (A) (A) (A) (A) (A) (A) (A) (A) (A) (A) (A)
                 (A) (A) (A) (A) (A) (A) (A) (A) (A) (A) (A) (A)
                 (A) (A) (A) (A) (A) (A) (A) (A) (A) (A) (A) (A)
                 (A) (A) (A) (A) (A) (A) (A) (A) (A) (A) (A) (A)
                 (A) (A) (A) (A) (A) (A) (A) (A) (A) (A) (A) (A)
                 (A) (A) (A) (A) (A) (A) (A) (A) (A) (A) (A) (A)
                 (A) (A) (A) (A) (A) (A) (A) (A) (A) (A) (A) (A)
                 (A) (A) (A) (A) (A) (A) (A) (A) (A) (A) (A) (A)
                 (A) (A) (A) (A) (A) (A) (A) (A) (A) (A) (A) (A)
                 (A) (A) (A) (A) (A) (A) (A) (A) (A) (A) (A) (A)
                 (A) (A) (A) (A) (A) (A) (A) (A) (A) (A) (A) (A)
                 (A) (A) (A) (A) (A) (A) (A) (A) (A)
 The electronic state is 1-A.
 Alpha  occ. eigenvalues --  -91.99536 -91.99420 -91.99033 -11.29956 -11.28595
 Alpha  occ. eigenvalues --  -11.28348 -11.28075 -11.28063 -11.27799 -11.26524
 Alpha  occ. eigenvalues --  -11.26414 -11.26230 -11.25312 -11.24412  -8.99651
 Alpha  occ. eigenvalues --   -8.99530  -8.99227  -6.67815  -6.67732  -6.67696
 Alpha  occ. eigenvalues --   -6.67615  -6.67530  -6.67419  -6.67396  -6.67302
 Alpha  occ. eigenvalues --   -6.67120  -1.20684  -1.17843  -1.11836  -1.03964
 Alpha  occ. eigenvalues --   -1.02679  -1.01463  -0.94894  -0.94341  -0.91663
 Alpha  occ. eigenvalues --   -0.82188  -0.77579  -0.76193  -0.71426  -0.70117
 Alpha  occ. eigenvalues --   -0.67049  -0.66336  -0.59985  -0.59013  -0.58950
 Alpha  occ. eigenvalues --   -0.56862  -0.55898  -0.54636  -0.53766  -0.52229
 Alpha  occ. eigenvalues --   -0.51727  -0.51577  -0.49730  -0.47036  -0.46610
 Alpha  occ. eigenvalues --   -0.45739  -0.39547  -0.35035  -0.34509  -0.32323
 Alpha  occ. eigenvalues --   -0.26120
 Alpha virt. eigenvalues --    0.03404   0.03478   0.03971   0.04726   0.04987
 Alpha virt. eigenvalues --    0.05083   0.06042   0.06118   0.07386   0.08398
 Alpha virt. eigenvalues --    0.09644   0.09816   0.10316   0.10693   0.10834
 Alpha virt. eigenvalues --    0.12073   0.12204   0.12531   0.12921   0.13140
 Alpha virt. eigenvalues --    0.13324   0.13711   0.14232   0.14732   0.14928
 Alpha virt. eigenvalues --    0.15148   0.15210   0.15693   0.16137   0.16719
 Alpha virt. eigenvalues --    0.17158   0.17374   0.17508   0.18238   0.18693
 Alpha virt. eigenvalues --    0.18745   0.19080   0.19807   0.19919   0.20034
 Alpha virt. eigenvalues --    0.20174   0.20864   0.21090   0.21514   0.22000
 Alpha virt. eigenvalues --    0.22521   0.22910   0.23221   0.23808   0.24274
 Alpha virt. eigenvalues --    0.24824   0.25409   0.25671   0.26133   0.26782
 Alpha virt. eigenvalues --    0.27269   0.27382   0.27577   0.28052   0.28608
 Alpha virt. eigenvalues --    0.29496   0.30167   0.31062   0.31455   0.31941
 Alpha virt. eigenvalues --    0.32581   0.33240   0.33554   0.33656   0.34394
 Alpha virt. eigenvalues --    0.34931   0.35567   0.36135   0.36354   0.36952
 Alpha virt. eigenvalues --    0.37163   0.38195   0.38801   0.39467   0.40284
 Alpha virt. eigenvalues --    0.40584   0.40939   0.41651   0.42047   0.43094
 Alpha virt. eigenvalues --    0.43246   0.43673   0.43960   0.44328   0.44829
 Alpha virt. eigenvalues --    0.45780   0.46259   0.46935   0.47029   0.47473
 Alpha virt. eigenvalues --    0.47928   0.48459   0.49000   0.50058   0.50886
 Alpha virt. eigenvalues --    0.51387   0.51931   0.53365   0.53671   0.54462
 Alpha virt. eigenvalues --    0.54766   0.55803   0.56906   0.57550   0.58765
 Alpha virt. eigenvalues --    0.59322   0.59840   0.60988   0.61227   0.61857
 Alpha virt. eigenvalues --    0.62456   0.62893   0.63193   0.63769   0.64219
 Alpha virt. eigenvalues --    0.64507   0.65616   0.66028   0.66582   0.66838
 Alpha virt. eigenvalues --    0.66883   0.67472   0.68339   0.68572   0.69007
 Alpha virt. eigenvalues --    0.69300   0.70237   0.70390   0.70810   0.71463
 Alpha virt. eigenvalues --    0.71930   0.72597   0.73558   0.73723   0.74174
 Alpha virt. eigenvalues --    0.74635   0.74780   0.75871   0.77139   0.77707
 Alpha virt. eigenvalues --    0.77803   0.78022   0.78976   0.79911   0.80573
 Alpha virt. eigenvalues --    0.81185   0.82043   0.82522   0.83124   0.83892
 Alpha virt. eigenvalues --    0.85023   0.85204   0.85360   0.86155   0.86590
 Alpha virt. eigenvalues --    0.86946   0.88391   0.89389   0.89536   0.90325
 Alpha virt. eigenvalues --    0.90614   0.92209   0.92695   0.93442   0.93910
 Alpha virt. eigenvalues --    0.94538   0.95604   0.96568   0.96898   0.97501
 Alpha virt. eigenvalues --    0.97659   0.98749   0.99860   1.00527   1.01199
 Alpha virt. eigenvalues --    1.02063   1.03413   1.04053   1.04772   1.06860
 Alpha virt. eigenvalues --    1.07186   1.07800   1.08174   1.09521   1.09953
 Alpha virt. eigenvalues --    1.10510   1.11057   1.12180   1.13204   1.16480
 Alpha virt. eigenvalues --    1.17131   1.17430   1.18452   1.19392   1.19615
 Alpha virt. eigenvalues --    1.21465   1.22704   1.23409   1.24079   1.25453
 Alpha virt. eigenvalues --    1.27430   1.27857   1.28864   1.29211   1.30160
 Alpha virt. eigenvalues --    1.31187   1.31854   1.32799   1.33283   1.34868
 Alpha virt. eigenvalues --    1.35290   1.35873   1.36597   1.39399   1.40111
 Alpha virt. eigenvalues --    1.40534   1.42268   1.43581   1.44252   1.47470
 Alpha virt. eigenvalues --    1.48941   1.49770   1.52384   1.52766   1.54892
 Alpha virt. eigenvalues --    1.55565   1.56717   1.57537   1.57958   1.58498
 Alpha virt. eigenvalues --    1.61197   1.62618   1.62902   1.64060   1.65942
 Alpha virt. eigenvalues --    1.66074   1.68276   1.68787   1.69159   1.70523
 Alpha virt. eigenvalues --    1.70981   1.71445   1.72738   1.73297   1.73783
 Alpha virt. eigenvalues --    1.76081   1.76282   1.77111   1.78465   1.79910
 Alpha virt. eigenvalues --    1.80915   1.81612   1.81997   1.83376   1.84143
 Alpha virt. eigenvalues --    1.85427   1.86544   1.87092   1.88916   1.90473
 Alpha virt. eigenvalues --    1.90548   1.92184   1.94737   1.95289   1.95484
 Alpha virt. eigenvalues --    1.96786   1.98339   1.99865   2.00551   2.01632
 Alpha virt. eigenvalues --    2.02293   2.03394   2.06817   2.07557   2.09636
 Alpha virt. eigenvalues --    2.09657   2.10859   2.11485   2.12851   2.15922
 Alpha virt. eigenvalues --    2.16950   2.17106   2.17493   2.18431   2.19130
 Alpha virt. eigenvalues --    2.20717   2.21885   2.23626   2.26606   2.27055
 Alpha virt. eigenvalues --    2.27555   2.30110   2.32239   2.34371   2.34949
 Alpha virt. eigenvalues --    2.36102   2.36425   2.37438   2.39204   2.40234
 Alpha virt. eigenvalues --    2.40850   2.41631   2.44097   2.46688   2.46832
 Alpha virt. eigenvalues --    2.48704   2.50999   2.52378   2.52710   2.54379
 Alpha virt. eigenvalues --    2.55547   2.60568   2.63330   2.66501   2.69830
 Alpha virt. eigenvalues --    2.70628   2.76101   2.77994   2.80231   2.82303
 Alpha virt. eigenvalues --    2.84257   2.88966   2.89330   2.94701   2.98046
 Alpha virt. eigenvalues --    2.99151   3.05499   3.10367   3.10897   3.18135
 Alpha virt. eigenvalues --    3.27193   3.30099   3.36366   3.39331   3.51391
 Alpha virt. eigenvalues --    3.64886   3.74446   3.91480   4.09849   4.20091
          Condensed to atoms (all electrons):
               1          2          3          4          5          6
     1  C   10.782194  -1.901686  -1.208629  -0.989832   0.188874  -0.495145
     2  C   -1.901686  12.402397  -2.778788   0.363280  -0.086741   0.324423
     3  C   -1.208629  -2.778788  17.442592  -0.711850  -1.587478   0.121580
     4  C   -0.989832   0.363280  -0.711850   5.918013  -0.006023   0.088165
     5  C    0.188874  -0.086741  -1.587478  -0.006023   7.336786  -0.090575
     6  H   -0.495145   0.324423   0.121580   0.088165  -0.090575   1.681862
     7  S   -0.584108   0.010186  -0.511561   0.107278   0.106589  -0.016540
     8  H    0.052086   0.093197  -0.072999   0.024468   0.174717  -0.059974
     9  C   -0.092598  -1.089563  -4.820593  -0.028274   0.890438  -0.059290
    10  S   -0.240228   0.323641  -0.897140   0.078765   0.162924   0.012899
    11  C   -0.035578   0.066661  -0.049222  -0.103601   0.062286   0.003695
    12  C   -0.031390  -0.013920   0.608212   0.063979  -0.090052  -0.004380
    13  C    0.065299  -1.372205   0.494610   0.041969  -0.691360  -0.001626
    14  H   -0.018565   0.090907  -0.016252   0.012931   0.012722  -0.001095
    15  S    0.000692  -0.013437  -0.055105  -0.001483   0.002069   0.000038
    16  C   -0.001274  -0.005681   0.011058  -0.006311   0.001497   0.000099
    17  C    0.004361   0.048062  -0.332383  -0.044580   0.004525   0.000364
    18  H    0.000086   0.000499  -0.001508  -0.000399   0.000010   0.000009
    19  H   -0.000285   0.001420   0.000028  -0.000794   0.000619  -0.000003
    20  H    0.055903  -0.032256   0.067605   0.026867   0.029683  -0.024229
    21  H   -0.022834   0.019235  -0.064190   0.314363  -0.012493   0.005778
    22  H   -0.009076   0.000826  -0.050955   0.339263  -0.008904   0.004984
               7          8          9         10         11         12
     1  C   -0.584108   0.052086  -0.092598  -0.240228  -0.035578  -0.031390
     2  C    0.010186   0.093197  -1.089563   0.323641   0.066661  -0.013920
     3  C   -0.511561  -0.072999  -4.820593  -0.897140  -0.049222   0.608212
     4  C    0.107278   0.024468  -0.028274   0.078765  -0.103601   0.063979
     5  C    0.106589   0.174717   0.890438   0.162924   0.062286  -0.090052
     6  H   -0.016540  -0.059974  -0.059290   0.012899   0.003695  -0.004380
     7  S   16.629393  -0.100145  -0.186175   0.127989   0.041386  -0.184932
     8  H   -0.100145   1.258852  -0.003850   0.003284  -0.000098   0.000942
     9  C   -0.186175  -0.003850  18.407534   0.598303  -1.016967  -1.330276
    10  S    0.127989   0.003284   0.598303  17.477030   0.046730  -0.692037
    11  C    0.041386  -0.000098  -1.016967   0.046730  12.174545  -0.640368
    12  C   -0.184932   0.000942  -1.330276  -0.692037  -0.640368  13.696868
    13  C   -0.098304  -0.005504  -5.733058  -1.544942  -0.973116  -3.212499
    14  H    0.008405   0.003432   1.174903   0.036619  -0.179164   0.332190
    15  S    0.022632  -0.000075  -0.428457   0.162662   0.180398  -0.673646
    16  C    0.011318   0.000006  -0.003307  -0.201248  -0.177588  -0.970643
    17  C    0.002627   0.000120  -0.311319  -0.088465  -3.373195  -0.645483
    18  H    0.000275  -0.000002   0.008987   0.009140   0.120688  -0.087267
    19  H    0.000253   0.000013   0.061864   0.072387   0.592853  -0.014883
    20  H   -0.012606   0.000255  -0.014135  -0.037525  -0.003525   0.003356
    21  H    0.013301   0.001109   0.016641   0.031325   0.007723   0.003605
    22  H    0.012243   0.001145  -0.000185   0.026450   0.007319   0.003475
              13         14         15         16         17         18
     1  C    0.065299  -0.018565   0.000692  -0.001274   0.004361   0.000086
     2  C   -1.372205   0.090907  -0.013437  -0.005681   0.048062   0.000499
     3  C    0.494610  -0.016252  -0.055105   0.011058  -0.332383  -0.001508
     4  C    0.041969   0.012931  -0.001483  -0.006311  -0.044580  -0.000399
     5  C   -0.691360   0.012722   0.002069   0.001497   0.004525   0.000010
     6  H   -0.001626  -0.001095   0.000038   0.000099   0.000364   0.000009
     7  S   -0.098304   0.008405   0.022632   0.011318   0.002627   0.000275
     8  H   -0.005504   0.003432  -0.000075   0.000006   0.000120  -0.000002
     9  C   -5.733058   1.174903  -0.428457  -0.003307  -0.311319   0.008987
    10  S   -1.544942   0.036619   0.162662  -0.201248  -0.088465   0.009140
    11  C   -0.973116  -0.179164   0.180398  -0.177588  -3.373195   0.120688
    12  C   -3.212499   0.332190  -0.673646  -0.970643  -0.645483  -0.087267
    13  C   20.467983  -1.678067   0.222018   0.155463  -0.362900   0.021464
    14  H   -1.678067   1.817902  -0.068348   0.015151  -0.044401   0.001674
    15  S    0.222018  -0.068348  16.144661   0.239231  -0.101118  -0.132266
    16  C    0.155463   0.015151   0.239231   6.672696   0.313083   0.274266
    17  C   -0.362900  -0.044401  -0.101118   0.313083  11.044954  -0.058032
    18  H    0.021464   0.001674  -0.132266   0.274266  -0.058032   1.272691
    19  H   -0.039763  -0.000470  -0.000265  -0.119360  -0.523848  -0.062891
    20  H    0.026613   0.000402   0.000160  -0.000427   0.001247  -0.000012
    21  H   -0.034617   0.001740  -0.000634   0.000571  -0.011756   0.000032
    22  H   -0.032911   0.001201  -0.000471   0.000799  -0.010560   0.000041
              19         20         21         22
     1  C   -0.000285   0.055903  -0.022834  -0.009076
     2  C    0.001420  -0.032256   0.019235   0.000826
     3  C    0.000028   0.067605  -0.064190  -0.050955
     4  C   -0.000794   0.026867   0.314363   0.339263
     5  C    0.000619   0.029683  -0.012493  -0.008904
     6  H   -0.000003  -0.024229   0.005778   0.004984
     7  S    0.000253  -0.012606   0.013301   0.012243
     8  H    0.000013   0.000255   0.001109   0.001145
     9  C    0.061864  -0.014135   0.016641  -0.000185
    10  S    0.072387  -0.037525   0.031325   0.026450
    11  C    0.592853  -0.003525   0.007723   0.007319
    12  C   -0.014883   0.003356   0.003605   0.003475
    13  C   -0.039763   0.026613  -0.034617  -0.032911
    14  H   -0.000470   0.000402   0.001740   0.001201
    15  S   -0.000265   0.000160  -0.000634  -0.000471
    16  C   -0.119360  -0.000427   0.000571   0.000799
    17  C   -0.523848   0.001247  -0.011756  -0.010560
    18  H   -0.062891  -0.000012   0.000032   0.000041
    19  H    1.334820   0.000378   0.000271   0.000385
    20  H    0.000378   1.476134  -0.176395  -0.167520
    21  H    0.000271  -0.176395   0.800181  -0.099291
    22  H    0.000385  -0.167520  -0.099291   0.774087
 Mulliken charges:
               1
     1  C    0.481733
     2  C   -0.450457
     3  C    0.412968
     4  C    0.513807
     5  C   -0.400113
     6  H   -0.491038
     7  S    0.600498
     8  H   -0.370978
     9  C   -0.040623
    10  S    0.531437
    11  C   -0.751863
    12  C   -0.120850
    13  C    0.285451
    14  H   -0.503815
    15  S    0.500744
    16  C   -0.209400
    17  C    0.488698
    18  H   -0.367482
    19  H   -0.302728
    20  H   -0.219974
    21  H    0.206334
    22  H    0.207652
 Sum of Mulliken charges =  -0.00000
 Mulliken charges with hydrogens summed into heavy atoms:
               1
     1  C   -0.009306
     2  C   -0.450457
     3  C    0.412968
     4  C    0.707820
     5  C   -0.771091
     7  S    0.600498
     9  C   -0.040623
    10  S    0.531437
    11  C   -0.751863
    12  C   -0.120850
    13  C   -0.218363
    15  S    0.500744
    16  C   -0.576882
    17  C    0.185969
 Electronic spatial extent (au):  <R**2>=           4396.0817
 Charge=             -0.0000 electrons
 Dipole moment (field-independent basis, Debye):
    X=              0.7150    Y=              1.1861    Z=              0.0521  Tot=              1.3859
 Quadrupole moment (field-independent basis, Debye-Ang):
   XX=            -86.7901   YY=            -97.8371   ZZ=           -112.5478
   XY=             -2.3045   XZ=              0.3060   YZ=             -0.1200
 Traceless Quadrupole moment (field-independent basis, Debye-Ang):
   XX=             12.2682   YY=              1.2213   ZZ=            -13.4894
   XY=             -2.3045   XZ=              0.3060   YZ=             -0.1200
 Octapole moment (field-independent basis, Debye-Ang**2):
  XXX=              4.0740  YYY=              4.0457  ZZZ=              0.1725  XYY=              8.0301
  XXY=             15.1961  XXZ=             -0.5556  XZZ=              0.9562  YZZ=              2.2328
  YYZ=             -0.0680  XYZ=              1.8987
 Hexadecapole moment (field-independent basis, Debye-Ang**3):
 XXXX=          -4202.2762 YYYY=          -1167.0124 ZZZZ=           -152.1730 XXXY=            -90.6288
 XXXZ=              3.7753 YYYX=            -29.2988 YYYZ=             -1.8605 ZZZX=             -0.4707
 ZZZY=              0.6027 XXYY=           -931.3437 XXZZ=           -939.5433 YYZZ=           -238.5291
 XXYZ=              1.5746 YYXZ=              1.1072 ZZXY=              9.1452
 N-N= 1.118613771694D+03 E-N=-6.056462038294D+03  KE= 1.612938210798D+03
 Unable to Open any file for archive entry.
 1\1\GINC-CX3-11-3\FOpt\RMP2-FC\Aug-CC-pVDZ\C11H8S3\NS5018\27-Oct-2021\
 0\\# opt=modredundant mp2/aug-cc-pvdz\\pBTTT_5.pdb\\0,1\C,-4.059396087
 6,0.2856489257,-0.0302834311\C,-2.7496021202,0.8506791701,-0.046427979
 1\C,-1.750869587,-0.1425106908,-0.0055125647\C,-2.500201474,2.33792190
 5,-0.1025283338\C,-4.0718067224,-1.1027144573,0.0237542575\H,-4.972757
 4,0.8856674975,-0.0586888562\S,-2.4643925333,-1.7410563339,0.058943035
 9\H,-4.9272704519,-1.778303904,0.0443046949\C,-0.3023817204,-0.0306228
 131,-0.0073578706\S,0.5063725196,1.5469874983,0.0626891025\C,2.0762718
 331,0.7987984898,0.0381998147\C,1.9615777775,-0.6116394194,-0.02201333
 21\C,0.6240025925,-1.0818822061,-0.0497781679\H,0.3247627611,-2.131291
 3916,-0.1011978048\S,3.5365991072,-1.3562914871,-0.0538535776\C,4.3173
 524377,0.2087059894,0.0128230017\C,3.4211875451,1.2700376154,0.0571372
 758\H,5.4072182007,0.2581776954,0.0169864428\H,3.7325230467,2.31519192
 63,0.101756579\H,-3.4586859289,2.8735195565,-0.1758871016\H,-1.8864497
 891,2.6143049736,-0.9758490322\H,-1.9790540066,2.6966714604,0.80078384
 7\\Version=ES64L-G16RevC.01\State=1-A\HF=-1613.801094\MP2=-1615.751796
 3\RMSD=4.688e-09\RMSF=4.685e-05\Dipole=-0.1485036,0.3384101,-0.0157148
 \PG=C01 [X(C11H8S3)]\\@
 The archive entry for this job was punched.


 YOU KNOW YOU'VE SPOKEN TOO LONG WHEN THE AUDIENCE STOPS LOOKING AT
 THEIR WATCHES AND STARTS SHAKING THEM.
 Job cpu time:       0 days 10 hours 53 minutes 58.8 seconds.
 Elapsed time:       0 days  0 hours 47 minutes 35.3 seconds.
 File lengths (MBytes):  RWF=  36373 Int=      0 D2E=      0 Chk=     18 Scr=      1
 Normal termination of Gaussian 16 at Wed Oct 27 03:41:18 2021.
