 Entering Gaussian System, Link 0=g16
 Input=pBTTT_165.gjf
 Output=pBTTT_165.log
 Initial command:
 /apps/gaussian/g16-c01-avx/g16/l1.exe "/tmp/pbs.4766302[340].pbs/Gau-4132452.inp" -scrdir="/tmp/pbs.4766302[340].pbs/"
 Entering Link 1 = /apps/gaussian/g16-c01-avx/g16/l1.exe PID=   4132468.
  
 Copyright (c) 1988-2019, Gaussian, Inc.  All Rights Reserved.
  
 This is part of the Gaussian(R) 16 program.  It is based on
 the Gaussian(R) 09 system (copyright 2009, Gaussian, Inc.),
 the Gaussian(R) 03 system (copyright 2003, Gaussian, Inc.),
 the Gaussian(R) 98 system (copyright 1998, Gaussian, Inc.),
 the Gaussian(R) 94 system (copyright 1995, Gaussian, Inc.),
 the Gaussian 92(TM) system (copyright 1992, Gaussian, Inc.),
 the Gaussian 90(TM) system (copyright 1990, Gaussian, Inc.),
 the Gaussian 88(TM) system (copyright 1988, Gaussian, Inc.),
 the Gaussian 86(TM) system (copyright 1986, Carnegie Mellon
 University), and the Gaussian 82(TM) system (copyright 1983,
 Carnegie Mellon University). Gaussian is a federally registered
 trademark of Gaussian, Inc.
  
 This software contains proprietary and confidential information,
 including trade secrets, belonging to Gaussian, Inc.
  
 This software is provided under written license and may be
 used, copied, transmitted, or stored only in accord with that
 written license.
  
 The following legend is applicable only to US Government
 contracts under FAR:
  
                    RESTRICTED RIGHTS LEGEND
  
 Use, reproduction and disclosure by the US Government is
 subject to restrictions as set forth in subparagraphs (a)
 and (c) of the Commercial Computer Software - Restricted
 Rights clause in FAR 52.227-19.
  
 Gaussian, Inc.
 340 Quinnipiac St., Bldg. 40, Wallingford CT 06492
  
  
 ---------------------------------------------------------------
 Warning -- This program may not be used in any manner that
 competes with the business of Gaussian, Inc. or will provide
 assistance to any competitor of Gaussian, Inc.  The licensee
 of this program is prohibited from giving any competitor of
 Gaussian, Inc. access to this program.  By using this program,
 the user acknowledges that Gaussian, Inc. is engaged in the
 business of creating and licensing software in the field of
 computational chemistry and represents and warrants to the
 licensee that it is not a competitor of Gaussian, Inc. and that
 it will not use this program in any manner prohibited above.
 ---------------------------------------------------------------
  

 Cite this work as:
 Gaussian 16, Revision C.01,
 M. J. Frisch, G. W. Trucks, H. B. Schlegel, G. E. Scuseria, 
 M. A. Robb, J. R. Cheeseman, G. Scalmani, V. Barone, 
 G. A. Petersson, H. Nakatsuji, X. Li, M. Caricato, A. V. Marenich, 
 J. Bloino, B. G. Janesko, R. Gomperts, B. Mennucci, H. P. Hratchian, 
 J. V. Ortiz, A. F. Izmaylov, J. L. Sonnenberg, D. Williams-Young, 
 F. Ding, F. Lipparini, F. Egidi, J. Goings, B. Peng, A. Petrone, 
 T. Henderson, D. Ranasinghe, V. G. Zakrzewski, J. Gao, N. Rega, 
 G. Zheng, W. Liang, M. Hada, M. Ehara, K. Toyota, R. Fukuda, 
 J. Hasegawa, M. Ishida, T. Nakajima, Y. Honda, O. Kitao, H. Nakai, 
 T. Vreven, K. Throssell, J. A. Montgomery, Jr., J. E. Peralta, 
 F. Ogliaro, M. J. Bearpark, J. J. Heyd, E. N. Brothers, K. N. Kudin, 
 V. N. Staroverov, T. A. Keith, R. Kobayashi, J. Normand, 
 K. Raghavachari, A. P. Rendell, J. C. Burant, S. S. Iyengar, 
 J. Tomasi, M. Cossi, J. M. Millam, M. Klene, C. Adamo, R. Cammi, 
 J. W. Ochterski, R. L. Martin, K. Morokuma, O. Farkas, 
 J. B. Foresman, and D. J. Fox, Gaussian, Inc., Wallingford CT, 2019.
 
 ******************************************
 Gaussian 16:  ES64L-G16RevC.01  3-Jul-2019
                27-Oct-2021 
 ******************************************
 %mem=100GB
 %nprocshared=16
 Will use up to   16 processors via shared memory.
 ----------------------------------
 # opt=modredundant mp2/aug-cc-pvdz
 ----------------------------------
 1/18=120,19=15,38=1/1,3;
 2/9=110,12=2,17=6,18=5,40=1/2;
 3/5=16,7=10,11=9,25=1,30=1,71=1/1,2,3;
 4//1;
 5/5=2,38=5/2;
 8/6=4,10=1/1;
 9/15=2,16=-3/6;
 10/5=1/2;
 6/7=2,8=2,9=2,10=2/1;
 7/12=2/1,2,3,16;
 1/18=20,19=15/3(2);
 2/9=110/2;
 99//99;
 2/9=110/2;
 3/5=16,7=10,11=9,25=1,30=1,71=1/1,2,3;
 4/5=5,16=3,69=1/1;
 5/5=2,38=5/2;
 8/6=4,10=1/1;
 9/15=2,16=-3/6;
 10/5=1/2;
 7/12=2/1,2,3,16;
 1/18=20,19=15/3(-8);
 2/9=110/2;
 6/7=2,8=2,9=2,10=2/1;
 99/9=10/99;
 -------------
 pBTTT_165.pdb
 -------------
 Symbolic Z-matrix:
 Charge =  0 Multiplicity = 1
 C                    -3.963     0.772    -0.013 
 C                    -2.576     1.13      0.129 
 C                    -1.756     0.046     0.029 
 C                    -2.158     2.554     0.393 
 C                    -4.165    -0.545    -0.22 
 H                    -4.763     1.493     0.05 
 S                    -2.678    -1.412    -0.262 
 H                    -5.102    -1.06     -0.347 
 C                    -0.288    -0.015     0.057 
 S                     0.524    -1.562     0.304 
 C                     2.08     -0.815     0.132 
 C                     1.956     0.523    -0.095 
 C                     0.604     0.988    -0.15 
 H                     0.33      2.004    -0.363 
 S                     3.514     1.275    -0.265 
 C                     4.302    -0.262    -0.019 
 C                     3.437    -1.279     0.179 
 H                     5.377    -0.317    -0.038 
 H                     3.738    -2.3       0.348 
 H                    -3.003     3.126     0.772 
 H                    -1.813     3.045    -0.52 
 H                    -1.359     2.606     1.13 
 
 The following ModRedundant input section has been read:
 D       2       3       9      10 F                                           
 

 GradGradGradGradGradGradGradGradGradGradGradGradGradGradGradGradGradGrad
 Berny optimization.
 Initialization pass.
                           ----------------------------
                           !    Initial Parameters    !
                           ! (Angstroms and Degrees)  !
 --------------------------                            --------------------------
 ! Name  Definition              Value          Derivative Info.                !
 --------------------------------------------------------------------------------
 ! R1    R(1,2)                  1.4395         estimate D2E/DX2                !
 ! R2    R(1,5)                  1.3484         estimate D2E/DX2                !
 ! R3    R(1,6)                  1.0788         estimate D2E/DX2                !
 ! R4    R(2,3)                  1.3629         estimate D2E/DX2                !
 ! R5    R(2,4)                  1.5074         estimate D2E/DX2                !
 ! R6    R(3,7)                  1.7494         estimate D2E/DX2                !
 ! R7    R(3,9)                  1.4695         estimate D2E/DX2                !
 ! R8    R(4,20)                 1.0885         estimate D2E/DX2                !
 ! R9    R(4,21)                 1.0926         estimate D2E/DX2                !
 ! R10   R(4,22)                 1.0882         estimate D2E/DX2                !
 ! R11   R(5,7)                  1.7218         estimate D2E/DX2                !
 ! R12   R(5,8)                  1.0767         estimate D2E/DX2                !
 ! R13   R(9,10)                 1.7645         estimate D2E/DX2                !
 ! R14   R(9,13)                 1.3581         estimate D2E/DX2                !
 ! R15   R(10,11)                1.7346         estimate D2E/DX2                !
 ! R16   R(11,12)                1.3628         estimate D2E/DX2                !
 ! R17   R(11,17)                1.4349         estimate D2E/DX2                !
 ! R18   R(12,13)                1.4308         estimate D2E/DX2                !
 ! R19   R(12,15)                1.7383         estimate D2E/DX2                !
 ! R20   R(13,14)                1.0736         estimate D2E/DX2                !
 ! R21   R(15,16)                1.7447         estimate D2E/DX2                !
 ! R22   R(16,17)                1.3497         estimate D2E/DX2                !
 ! R23   R(16,18)                1.0766         estimate D2E/DX2                !
 ! R24   R(17,19)                1.0778         estimate D2E/DX2                !
 ! A1    A(2,1,5)              113.7285         estimate D2E/DX2                !
 ! A2    A(2,1,6)              122.8576         estimate D2E/DX2                !
 ! A3    A(5,1,6)              123.4117         estimate D2E/DX2                !
 ! A4    A(1,2,3)              112.0047         estimate D2E/DX2                !
 ! A5    A(1,2,4)              121.293          estimate D2E/DX2                !
 ! A6    A(3,2,4)              126.6827         estimate D2E/DX2                !
 ! A7    A(2,3,7)              110.9764         estimate D2E/DX2                !
 ! A8    A(2,3,9)              129.2462         estimate D2E/DX2                !
 ! A9    A(7,3,9)              119.6731         estimate D2E/DX2                !
 ! A10   A(2,4,20)             110.007          estimate D2E/DX2                !
 ! A11   A(2,4,21)             111.4541         estimate D2E/DX2                !
 ! A12   A(2,4,22)             111.5522         estimate D2E/DX2                !
 ! A13   A(20,4,21)            107.4537         estimate D2E/DX2                !
 ! A14   A(20,4,22)            108.0019         estimate D2E/DX2                !
 ! A15   A(21,4,22)            108.2172         estimate D2E/DX2                !
 ! A16   A(1,5,7)              111.4806         estimate D2E/DX2                !
 ! A17   A(1,5,8)              127.9991         estimate D2E/DX2                !
 ! A18   A(7,5,8)              120.5199         estimate D2E/DX2                !
 ! A19   A(3,7,5)               91.8017         estimate D2E/DX2                !
 ! A20   A(3,9,10)             119.9179         estimate D2E/DX2                !
 ! A21   A(3,9,13)             128.5018         estimate D2E/DX2                !
 ! A22   A(10,9,13)            111.5041         estimate D2E/DX2                !
 ! A23   A(9,10,11)             91.224          estimate D2E/DX2                !
 ! A24   A(10,11,12)           110.9602         estimate D2E/DX2                !
 ! A25   A(10,11,17)           134.8976         estimate D2E/DX2                !
 ! A26   A(12,11,17)           114.1417         estimate D2E/DX2                !
 ! A27   A(11,12,13)           114.2973         estimate D2E/DX2                !
 ! A28   A(11,12,15)           111.0679         estimate D2E/DX2                !
 ! A29   A(13,12,15)           134.6327         estimate D2E/DX2                !
 ! A30   A(9,13,12)            112.0086         estimate D2E/DX2                !
 ! A31   A(9,13,14)            124.1588         estimate D2E/DX2                !
 ! A32   A(12,13,14)           123.8022         estimate D2E/DX2                !
 ! A33   A(12,15,16)            90.5679         estimate D2E/DX2                !
 ! A34   A(15,16,17)           113.268          estimate D2E/DX2                !
 ! A35   A(15,16,18)           119.5724         estimate D2E/DX2                !
 ! A36   A(17,16,18)           127.1595         estimate D2E/DX2                !
 ! A37   A(11,17,16)           110.9543         estimate D2E/DX2                !
 ! A38   A(11,17,19)           125.1405         estimate D2E/DX2                !
 ! A39   A(16,17,19)           123.9052         estimate D2E/DX2                !
 ! D1    D(5,1,2,3)             -0.3091         estimate D2E/DX2                !
 ! D2    D(5,1,2,4)           -178.7993         estimate D2E/DX2                !
 ! D3    D(6,1,2,3)            179.174          estimate D2E/DX2                !
 ! D4    D(6,1,2,4)              0.6838         estimate D2E/DX2                !
 ! D5    D(2,1,5,7)             -0.3527         estimate D2E/DX2                !
 ! D6    D(2,1,5,8)            179.3889         estimate D2E/DX2                !
 ! D7    D(6,1,5,7)           -179.8325         estimate D2E/DX2                !
 ! D8    D(6,1,5,8)             -0.0909         estimate D2E/DX2                !
 ! D9    D(1,2,3,7)              0.8107         estimate D2E/DX2                !
 ! D10   D(1,2,3,9)            177.0224         estimate D2E/DX2                !
 ! D11   D(4,2,3,7)            179.202          estimate D2E/DX2                !
 ! D12   D(4,2,3,9)             -4.5863         estimate D2E/DX2                !
 ! D13   D(1,2,4,20)            18.6781         estimate D2E/DX2                !
 ! D14   D(1,2,4,21)          -100.4034         estimate D2E/DX2                !
 ! D15   D(1,2,4,22)           138.5083         estimate D2E/DX2                !
 ! D16   D(3,2,4,20)          -159.5765         estimate D2E/DX2                !
 ! D17   D(3,2,4,21)            81.3421         estimate D2E/DX2                !
 ! D18   D(3,2,4,22)           -39.7462         estimate D2E/DX2                !
 ! D19   D(2,3,7,5)             -0.8619         estimate D2E/DX2                !
 ! D20   D(9,3,7,5)           -177.4858         estimate D2E/DX2                !
 ! D21   D(2,3,9,10)           165.0059         Frozen                          !
 ! D22   D(2,3,9,13)           -18.454          estimate D2E/DX2                !
 ! D23   D(7,3,9,10)           -19.0656         estimate D2E/DX2                !
 ! D24   D(7,3,9,13)           157.4745         estimate D2E/DX2                !
 ! D25   D(1,5,7,3)              0.686          estimate D2E/DX2                !
 ! D26   D(8,5,7,3)           -179.0776         estimate D2E/DX2                !
 ! D27   D(3,9,10,11)          177.4682         estimate D2E/DX2                !
 ! D28   D(13,9,10,11)           0.3779         estimate D2E/DX2                !
 ! D29   D(3,9,13,12)         -177.5148         estimate D2E/DX2                !
 ! D30   D(3,9,13,14)            0.5424         estimate D2E/DX2                !
 ! D31   D(10,9,13,12)          -0.7378         estimate D2E/DX2                !
 ! D32   D(10,9,13,14)         177.3195         estimate D2E/DX2                !
 ! D33   D(9,10,11,12)           0.1013         estimate D2E/DX2                !
 ! D34   D(9,10,11,17)         179.8304         estimate D2E/DX2                !
 ! D35   D(10,11,12,13)         -0.5439         estimate D2E/DX2                !
 ! D36   D(10,11,12,15)        179.8985         estimate D2E/DX2                !
 ! D37   D(17,11,12,13)        179.6663         estimate D2E/DX2                !
 ! D38   D(17,11,12,15)          0.1088         estimate D2E/DX2                !
 ! D39   D(10,11,17,16)       -179.826          estimate D2E/DX2                !
 ! D40   D(10,11,17,19)          0.2283         estimate D2E/DX2                !
 ! D41   D(12,11,17,16)         -0.1031         estimate D2E/DX2                !
 ! D42   D(12,11,17,19)        179.9511         estimate D2E/DX2                !
 ! D43   D(11,12,13,9)           0.8456         estimate D2E/DX2                !
 ! D44   D(11,12,13,14)       -177.2198         estimate D2E/DX2                !
 ! D45   D(15,12,13,9)        -179.7345         estimate D2E/DX2                !
 ! D46   D(15,12,13,14)          2.2001         estimate D2E/DX2                !
 ! D47   D(11,12,15,16)         -0.0667         estimate D2E/DX2                !
 ! D48   D(13,12,15,16)       -179.5001         estimate D2E/DX2                !
 ! D49   D(12,15,16,17)          0.0084         estimate D2E/DX2                !
 ! D50   D(12,15,16,18)        179.9357         estimate D2E/DX2                !
 ! D51   D(15,16,17,11)          0.0493         estimate D2E/DX2                !
 ! D52   D(15,16,17,19)        179.9959         estimate D2E/DX2                !
 ! D53   D(18,16,17,11)       -179.8714         estimate D2E/DX2                !
 ! D54   D(18,16,17,19)          0.0751         estimate D2E/DX2                !
 --------------------------------------------------------------------------------
 Trust Radius=3.00D-01 FncErr=1.00D-07 GrdErr=1.00D-07 EigMax=2.50D+02 EigMin=1.00D-04
 Number of steps in this run=    127 maximum allowed number of steps=    132.
 GradGradGradGradGradGradGradGradGradGradGradGradGradGradGradGradGradGrad

                          Input orientation:                          
 ---------------------------------------------------------------------
 Center     Atomic      Atomic             Coordinates (Angstroms)
 Number     Number       Type             X           Y           Z
 ---------------------------------------------------------------------
      1          6           0       -3.963000    0.772000   -0.013000
      2          6           0       -2.576000    1.130000    0.129000
      3          6           0       -1.756000    0.046000    0.029000
      4          6           0       -2.158000    2.554000    0.393000
      5          6           0       -4.165000   -0.545000   -0.220000
      6          1           0       -4.763000    1.493000    0.050000
      7         16           0       -2.678000   -1.412000   -0.262000
      8          1           0       -5.102000   -1.060000   -0.347000
      9          6           0       -0.288000   -0.015000    0.057000
     10         16           0        0.524000   -1.562000    0.304000
     11          6           0        2.080000   -0.815000    0.132000
     12          6           0        1.956000    0.523000   -0.095000
     13          6           0        0.604000    0.988000   -0.150000
     14          1           0        0.330000    2.004000   -0.363000
     15         16           0        3.514000    1.275000   -0.265000
     16          6           0        4.302000   -0.262000   -0.019000
     17          6           0        3.437000   -1.279000    0.179000
     18          1           0        5.377000   -0.317000   -0.038000
     19          1           0        3.738000   -2.300000    0.348000
     20          1           0       -3.003000    3.126000    0.772000
     21          1           0       -1.813000    3.045000   -0.520000
     22          1           0       -1.359000    2.606000    1.130000
 ---------------------------------------------------------------------
                    Distance matrix (angstroms):
                    1          2          3          4          5
     1  C    0.000000
     2  C    1.439478   0.000000
     3  C    2.323723   1.362885   0.000000
     4  C    2.568732   1.507381   2.565963   0.000000
     5  C    1.348385   2.335026   2.492903   3.742675   0.000000
     6  H    1.078800   2.218328   3.337109   2.833619   2.141016
     7  S    2.546190   2.573917   1.749437   4.053219   1.721808
     8  H    2.182911   3.376885   3.544055   4.719717   1.076719
     9  C    3.758975   2.559522   1.469534   3.195240   3.922851
    10  S    5.067664   4.109439   2.803514   4.913502   4.826550
    11  C    6.249595   5.045926   3.932789   5.420233   6.260737
    12  C    5.924803   4.577952   3.744576   4.613903   6.214732
    13  C    4.574157   3.195372   2.547353   3.221156   5.009825
    14  H    4.479975   3.074211   2.887702   2.657853   5.169417
    15  S    7.498136   6.104454   5.419389   5.851529   7.891861
    16  C    8.329431   7.019006   6.066015   7.059122   8.474112
    17  C    7.681371   6.477804   5.361471   6.785404   7.647768
    18  H    9.403305   8.085290   7.142545   8.074938   9.546459
    19  H    8.298970   7.188843   5.982434   7.637156   8.115421
    20  H    2.660666   2.140045   3.404917   1.088508   3.976248
    21  H    3.169555   2.161156   3.049369   1.092554   4.302325
    22  H    3.383906   2.159089   2.814855   1.088244   4.430004
                    6          7          8          9         10
     6  H    0.000000
     7  S    3.589372   0.000000
     8  H    2.605828   2.450899   0.000000
     9  C    4.722260   2.786659   4.942655   0.000000
    10  S    6.111457   3.255098   5.685744   1.764529   0.000000
    11  C    7.222204   4.811466   7.202124   2.500610   1.734569
    12  C    6.790205   5.024547   7.237731   2.312592   2.560674
    13  C    5.394415   4.067440   6.065604   1.358132   2.591335
    14  H    5.135206   4.552727   6.236584   2.152832   3.633026
    15  S    8.285860   6.749877   8.927172   4.027777   4.160821
    16  C    9.233581   7.078273   9.443495   4.597269   4.008443
    17  C    8.656825   6.132324   8.557988   3.935506   2.929383
    18  H   10.300653   8.132172  10.509851   5.673839   5.021812
    19  H    9.313574   6.505820   8.953559   4.638381   3.297935
    20  H    2.507105   4.665643   4.814619   4.212877   5.885244
    21  H    3.381731   4.547487   5.262934   3.467298   5.231156
    22  H    3.740640   4.452162   5.443449   3.027872   4.647600
                   11         12         13         14         15
    11  C    0.000000
    12  C    1.362773   0.000000
    13  C    2.347107   1.430788   0.000000
    14  H    3.354741   2.215640   1.073639   0.000000
    15  S    2.565554   1.738323   2.926379   3.267859   0.000000
    16  C    2.294754   2.475019   3.905748   4.585834   1.744657
    17  C    1.434906   2.348540   3.643270   4.552505   2.593450
    18  H    3.338729   3.523080   4.949454   5.564609   2.461049
    19  H    2.236257   3.367655   4.569563   5.535739   3.634084
    20  H    6.463588   5.667361   4.293201   3.695402   6.853675
    21  H    5.520883   4.554829   3.195315   2.387630   5.619151
    22  H    4.952370   4.102285   2.847752   2.333275   5.240583
                   16         17         18         19         20
    16  C    0.000000
    17  C    1.349710   0.000000
    18  H    1.076574   2.176266   0.000000
    19  H    2.146213   1.077777   2.601462   0.000000
    20  H    8.091183   7.824914   9.095864   8.663852   0.000000
    21  H    6.969970   6.837257   7.951822   7.754744   1.758387
    22  H    6.449228   6.244937   7.435176   7.117568   1.761051
                   21         22
    21  H    0.000000
    22  H    1.766731   0.000000
 Stoichiometry    C11H8S3
 Framework group  C1[X(C11H8S3)]
 Deg. of freedom    60
 Full point group                 C1      NOp   1
 Largest Abelian subgroup         C1      NOp   1
 Largest concise Abelian subgroup C1      NOp   1
                         Standard orientation:                         
 ---------------------------------------------------------------------
 Center     Atomic      Atomic             Coordinates (Angstroms)
 Number     Number       Type             X           Y           Z
 ---------------------------------------------------------------------
      1          6           0       -3.963049    0.771915   -0.012967
      2          6           0       -2.576061    1.129959    0.129033
      3          6           0       -1.756026    0.045985    0.029033
      4          6           0       -2.158106    2.553972    0.393033
      5          6           0       -4.165007   -0.545092   -0.219967
      6          1           0       -4.763072    1.492889    0.050033
      7         16           0       -2.677980   -1.412044   -0.261967
      8          1           0       -5.101991   -1.060122   -0.346967
      9          6           0       -0.288024   -0.014968    0.057033
     10         16           0        0.524025   -1.561942    0.304033
     11          6           0        2.080001   -0.814893    0.132033
     12          6           0        1.955959    0.523103   -0.094967
     13          6           0        0.603944    0.988060   -0.149967
     14          1           0        0.329912    2.004051   -0.362967
     15         16           0        3.513935    1.275153   -0.264967
     16          6           0        4.301984   -0.261822   -0.018967
     17          6           0        3.437016   -1.278850    0.179033
     18          1           0        5.376986   -0.316788   -0.037967
     19          1           0        3.738049   -2.299840    0.348033
     20          1           0       -3.003124    3.125945    0.772033
     21          1           0       -1.813122    3.044983   -0.519967
     22          1           0       -1.359108    2.605998    1.130033
 ---------------------------------------------------------------------
 Rotational constants (GHZ):           1.2858031           0.2823714           0.2344418
 Standard basis: Aug-CC-pVDZ (5D, 7F)
 There are   434 symmetry adapted cartesian basis functions of A   symmetry.
 There are   406 symmetry adapted basis functions of A   symmetry.
   406 basis functions,   804 primitive gaussians,   434 cartesian basis functions
    61 alpha electrons       61 beta electrons
       nuclear repulsion energy      1125.7380192871 Hartrees.
 NAtoms=   22 NActive=   22 NUniq=   22 SFac= 1.00D+00 NAtFMM=   60 NAOKFM=F Big=F
 Integral buffers will be    131072 words long.
 Raffenetti 1 integral format.
 Two-electron integral symmetry is turned on.
 One-electron integrals computed using PRISM.
 NBasis=   406 RedAO= T EigKep=  2.67D-06  NBF=   406
 NBsUse=   406 1.00D-06 EigRej= -1.00D+00 NBFU=   406
 ExpMin= 2.97D-02 ExpMax= 1.11D+05 ExpMxC= 1.07D+03 IAcc=3 IRadAn=         5 AccDes= 0.00D+00
 Harris functional with IExCor=  205 and IRadAn=       5 diagonalized for initial guess.
 HarFok:  IExCor=  205 AccDes= 0.00D+00 IRadAn=         5 IDoV= 1 UseB2=F ITyADJ=14
 ICtDFT=  3500011 ScaDFX=  1.000000  1.000000  1.000000  1.000000
 FoFCou: FMM=F IPFlag=           0 FMFlag=      100000 FMFlg1=           0
         NFxFlg=           0 DoJE=T BraDBF=F KetDBF=T FulRan=T
         wScrn=  0.000000 ICntrl=       500 IOpCl=  0 I1Cent=   200000004 NGrid=           0
         NMat0=    1 NMatS0=      1 NMatT0=    0 NMatD0=    1 NMtDS0=    0 NMtDT0=    0
 Petite list used in FoFCou.
 Requested convergence on RMS density matrix=1.00D-08 within 128 cycles.
 Requested convergence on MAX density matrix=1.00D-06.
 Requested convergence on             energy=1.00D-06.
 No special actions if energy rises.
 SCF Done:  E(RHF) =  -1613.81151002     A.U. after   16 cycles
            NFock= 16  Conv=0.97D-08     -V/T= 2.0000
 ExpMin= 2.97D-02 ExpMax= 1.11D+05 ExpMxC= 1.07D+03 IAcc=3 IRadAn=         5 AccDes= 0.00D+00
 HarFok:  IExCor=  205 AccDes= 0.00D+00 IRadAn=         5 IDoV=-2 UseB2=F ITyADJ=14
 ICtDFT= 12500011 ScaDFX=  1.000000  1.000000  1.000000  1.000000
 GSVD:  LWork=        -884 too small for GESVD, short by        3770 words or        3770 for optimal perf.
 Range of M.O.s used for correlation:    27   406
 NBasis=   406 NAE=    61 NBE=    61 NFC=    26 NFV=     0
 NROrb=    380 NOA=    35 NOB=    35 NVA=   345 NVB=   345

 **** Warning!!: The largest alpha MO coefficient is  0.95907225D+02

 Disk-based method using ON**2 memory for 35 occupieds at a time.
 Estimated scratch disk usage=  5833444230 words.
 Actual    scratch disk usage=  4757673350 words.
 JobTyp=1 Pass  1:  I=  27 to  61 NPSUse= 16 ParTrn=T ParDer=T DoDerP=T.
 (rs|ai) integrals will be sorted in core.
 Spin components of T(2) and E(2):
     alpha-alpha T2 =       0.1139970943D+00 E2=     -0.2651441694D+00
     alpha-beta  T2 =       0.5612345266D+00 E2=     -0.1400010750D+01
     beta-beta   T2 =       0.1139970943D+00 E2=     -0.2651441694D+00
 ANorm=    0.1337620542D+01
 E2 =    -0.1930299089D+01 EUMP2 =    -0.16157418091129D+04
          IDoAtm=1111111111111111111111
          Differentiating once with respect to electric field.
                with respect to dipole field.
          Differentiating once with respect to nuclear coordinates.
 Keep R1 ints in memory in canonical form, NReq=3454318301.
          There are     1 degrees of freedom in the 1st order CPHF.  IDoFFX=0 NUNeed=     1.
 LinEq1:  Iter=  0 NonCon=     1 RMS=2.71D-03 Max=6.56D-02 NDo=     1
 AX will form     1 AO Fock derivatives at one time.
 LinEq1:  Iter=  1 NonCon=     1 RMS=5.93D-04 Max=1.33D-02 NDo=     1
 LinEq1:  Iter=  2 NonCon=     1 RMS=3.34D-04 Max=1.52D-02 NDo=     1
 LinEq1:  Iter=  3 NonCon=     1 RMS=9.50D-05 Max=2.32D-03 NDo=     1
 LinEq1:  Iter=  4 NonCon=     1 RMS=3.83D-05 Max=9.56D-04 NDo=     1
 LinEq1:  Iter=  5 NonCon=     1 RMS=1.38D-05 Max=5.17D-04 NDo=     1
 LinEq1:  Iter=  6 NonCon=     1 RMS=4.72D-06 Max=2.63D-04 NDo=     1
 LinEq1:  Iter=  7 NonCon=     1 RMS=2.40D-06 Max=7.70D-05 NDo=     1
 LinEq1:  Iter=  8 NonCon=     1 RMS=9.05D-07 Max=3.71D-05 NDo=     1
 LinEq1:  Iter=  9 NonCon=     1 RMS=3.95D-07 Max=1.45D-05 NDo=     1
 LinEq1:  Iter= 10 NonCon=     1 RMS=1.75D-07 Max=7.13D-06 NDo=     1
 LinEq1:  Iter= 11 NonCon=     1 RMS=8.32D-08 Max=2.66D-06 NDo=     1
 LinEq1:  Iter= 12 NonCon=     1 RMS=2.74D-08 Max=4.81D-07 NDo=     1
 LinEq1:  Iter= 13 NonCon=     1 RMS=9.10D-09 Max=1.78D-07 NDo=     1
 LinEq1:  Iter= 14 NonCon=     1 RMS=2.87D-09 Max=6.18D-08 NDo=     1
 LinEq1:  Iter= 15 NonCon=     1 RMS=1.05D-09 Max=2.50D-08 NDo=     1
 LinEq1:  Iter= 16 NonCon=     1 RMS=4.14D-10 Max=1.36D-08 NDo=     1
 LinEq1:  Iter= 17 NonCon=     1 RMS=1.78D-10 Max=4.77D-09 NDo=     1
 LinEq1:  Iter= 18 NonCon=     1 RMS=6.32D-11 Max=1.88D-09 NDo=     1
 LinEq1:  Iter= 19 NonCon=     0 RMS=2.30D-11 Max=3.94D-10 NDo=     1
 Linear equations converged to 1.000D-10 1.000D-09 after    19 iterations.
 End of Minotr F.D. properties file   721 does not exist.
 End of Minotr F.D. properties file   722 does not exist.
 End of Minotr F.D. properties file   788 does not exist.

 **********************************************************************

            Population analysis using the SCF Density.

 **********************************************************************

 Orbital symmetries:
       Occupied  (A) (A) (A) (A) (A) (A) (A) (A) (A) (A) (A) (A)
                 (A) (A) (A) (A) (A) (A) (A) (A) (A) (A) (A) (A)
                 (A) (A) (A) (A) (A) (A) (A) (A) (A) (A) (A) (A)
                 (A) (A) (A) (A) (A) (A) (A) (A) (A) (A) (A) (A)
                 (A) (A) (A) (A) (A) (A) (A) (A) (A) (A) (A) (A)
                 (A)
       Virtual   (A) (A) (A) (A) (A) (A) (A) (A) (A) (A) (A) (A)
                 (A) (A) (A) (A) (A) (A) (A) (A) (A) (A) (A) (A)
                 (A) (A) (A) (A) (A) (A) (A) (A) (A) (A) (A) (A)
                 (A) (A) (A) (A) (A) (A) (A) (A) (A) (A) (A) (A)
                 (A) (A) (A) (A) (A) (A) (A) (A) (A) (A) (A) (A)
                 (A) (A) (A) (A) (A) (A) (A) (A) (A) (A) (A) (A)
                 (A) (A) (A) (A) (A) (A) (A) (A) (A) (A) (A) (A)
                 (A) (A) (A) (A) (A) (A) (A) (A) (A) (A) (A) (A)
                 (A) (A) (A) (A) (A) (A) (A) (A) (A) (A) (A) (A)
                 (A) (A) (A) (A) (A) (A) (A) (A) (A) (A) (A) (A)
                 (A) (A) (A) (A) (A) (A) (A) (A) (A) (A) (A) (A)
                 (A) (A) (A) (A) (A) (A) (A) (A) (A) (A) (A) (A)
                 (A) (A) (A) (A) (A) (A) (A) (A) (A) (A) (A) (A)
                 (A) (A) (A) (A) (A) (A) (A) (A) (A) (A) (A) (A)
                 (A) (A) (A) (A) (A) (A) (A) (A) (A) (A) (A) (A)
                 (A) (A) (A) (A) (A) (A) (A) (A) (A) (A) (A) (A)
                 (A) (A) (A) (A) (A) (A) (A) (A) (A) (A) (A) (A)
                 (A) (A) (A) (A) (A) (A) (A) (A) (A) (A) (A) (A)
                 (A) (A) (A) (A) (A) (A) (A) (A) (A) (A) (A) (A)
                 (A) (A) (A) (A) (A) (A) (A) (A) (A) (A) (A) (A)
                 (A) (A) (A) (A) (A) (A) (A) (A) (A) (A) (A) (A)
                 (A) (A) (A) (A) (A) (A) (A) (A) (A) (A) (A) (A)
                 (A) (A) (A) (A) (A) (A) (A) (A) (A) (A) (A) (A)
                 (A) (A) (A) (A) (A) (A) (A) (A) (A) (A) (A) (A)
                 (A) (A) (A) (A) (A) (A) (A) (A) (A) (A) (A) (A)
                 (A) (A) (A) (A) (A) (A) (A) (A) (A) (A) (A) (A)
                 (A) (A) (A) (A) (A) (A) (A) (A) (A) (A) (A) (A)
                 (A) (A) (A) (A) (A) (A) (A) (A) (A) (A) (A) (A)
                 (A) (A) (A) (A) (A) (A) (A) (A) (A)
 The electronic state is 1-A.
 Alpha  occ. eigenvalues --  -91.99055 -91.98946 -91.98538 -11.29333 -11.28031
 Alpha  occ. eigenvalues --  -11.27761 -11.27304 -11.27178 -11.27150 -11.25837
 Alpha  occ. eigenvalues --  -11.25658 -11.25651 -11.24490 -11.24172  -8.99236
 Alpha  occ. eigenvalues --   -8.99144  -8.98796  -6.67403  -6.67326  -6.67312
 Alpha  occ. eigenvalues --   -6.67230  -6.67119  -6.67018  -6.66964  -6.66871
 Alpha  occ. eigenvalues --   -6.66678  -1.21820  -1.18773  -1.12880  -1.04359
 Alpha  occ. eigenvalues --   -1.02446  -1.01984  -0.95923  -0.94527  -0.92300
 Alpha  occ. eigenvalues --   -0.82349  -0.77396  -0.77028  -0.72713  -0.70264
 Alpha  occ. eigenvalues --   -0.67503  -0.66928  -0.60675  -0.59415  -0.59090
 Alpha  occ. eigenvalues --   -0.56709  -0.56366  -0.54911  -0.54243  -0.52452
 Alpha  occ. eigenvalues --   -0.52154  -0.51409  -0.49409  -0.47433  -0.46967
 Alpha  occ. eigenvalues --   -0.45722  -0.39297  -0.35606  -0.34383  -0.32260
 Alpha  occ. eigenvalues --   -0.27905
 Alpha virt. eigenvalues --    0.03340   0.03530   0.03973   0.04926   0.05032
 Alpha virt. eigenvalues --    0.05537   0.06508   0.06763   0.08070   0.08229
 Alpha virt. eigenvalues --    0.09018   0.09808   0.10294   0.10802   0.10874
 Alpha virt. eigenvalues --    0.11898   0.12207   0.12419   0.12692   0.13111
 Alpha virt. eigenvalues --    0.13271   0.13748   0.14246   0.14558   0.14640
 Alpha virt. eigenvalues --    0.15025   0.15324   0.15717   0.16087   0.16476
 Alpha virt. eigenvalues --    0.17038   0.17426   0.17455   0.18286   0.18645
 Alpha virt. eigenvalues --    0.18787   0.19028   0.19488   0.20082   0.20515
 Alpha virt. eigenvalues --    0.20828   0.21070   0.21426   0.21940   0.22195
 Alpha virt. eigenvalues --    0.23104   0.23154   0.23448   0.24234   0.24793
 Alpha virt. eigenvalues --    0.25065   0.25651   0.25959   0.26283   0.26629
 Alpha virt. eigenvalues --    0.27270   0.27423   0.27900   0.28262   0.29050
 Alpha virt. eigenvalues --    0.29146   0.29880   0.30621   0.30779   0.31627
 Alpha virt. eigenvalues --    0.32296   0.32662   0.33462   0.33728   0.34236
 Alpha virt. eigenvalues --    0.34768   0.35310   0.35494   0.35625   0.36547
 Alpha virt. eigenvalues --    0.37229   0.38121   0.38464   0.39166   0.39830
 Alpha virt. eigenvalues --    0.40349   0.40656   0.41027   0.41707   0.43564
 Alpha virt. eigenvalues --    0.44027   0.44198   0.44520   0.45144   0.45321
 Alpha virt. eigenvalues --    0.46139   0.46574   0.46789   0.47072   0.47661
 Alpha virt. eigenvalues --    0.48071   0.49035   0.49327   0.49601   0.51943
 Alpha virt. eigenvalues --    0.52602   0.52846   0.53410   0.54732   0.55342
 Alpha virt. eigenvalues --    0.55872   0.56377   0.57528   0.58040   0.59035
 Alpha virt. eigenvalues --    0.59285   0.60393   0.60671   0.61599   0.61956
 Alpha virt. eigenvalues --    0.62122   0.62640   0.63628   0.64011   0.64176
 Alpha virt. eigenvalues --    0.65536   0.65985   0.66242   0.66799   0.67443
 Alpha virt. eigenvalues --    0.67800   0.67916   0.68156   0.68990   0.69137
 Alpha virt. eigenvalues --    0.69694   0.70432   0.70919   0.71435   0.71845
 Alpha virt. eigenvalues --    0.72285   0.72700   0.73688   0.74228   0.74575
 Alpha virt. eigenvalues --    0.74801   0.75149   0.76317   0.76798   0.77244
 Alpha virt. eigenvalues --    0.78082   0.78636   0.79810   0.80591   0.81574
 Alpha virt. eigenvalues --    0.81781   0.82120   0.82356   0.84109   0.84372
 Alpha virt. eigenvalues --    0.84770   0.85160   0.86625   0.87108   0.87773
 Alpha virt. eigenvalues --    0.88946   0.89248   0.89467   0.90141   0.90796
 Alpha virt. eigenvalues --    0.91458   0.92383   0.93240   0.93744   0.94088
 Alpha virt. eigenvalues --    0.95222   0.95883   0.96076   0.97413   0.97865
 Alpha virt. eigenvalues --    0.97928   0.99035   0.99755   1.00607   1.01317
 Alpha virt. eigenvalues --    1.02137   1.02953   1.04474   1.04807   1.05447
 Alpha virt. eigenvalues --    1.05846   1.07401   1.09081   1.10349   1.11144
 Alpha virt. eigenvalues --    1.11333   1.12581   1.13459   1.15260   1.15959
 Alpha virt. eigenvalues --    1.16903   1.18092   1.19401   1.21462   1.21686
 Alpha virt. eigenvalues --    1.22265   1.23455   1.24283   1.24440   1.25411
 Alpha virt. eigenvalues --    1.26922   1.27872   1.28338   1.29082   1.29829
 Alpha virt. eigenvalues --    1.31475   1.31914   1.32693   1.33504   1.34526
 Alpha virt. eigenvalues --    1.34882   1.36824   1.37439   1.38554   1.39434
 Alpha virt. eigenvalues --    1.40211   1.42780   1.44154   1.44838   1.46800
 Alpha virt. eigenvalues --    1.47969   1.49509   1.49920   1.51417   1.54102
 Alpha virt. eigenvalues --    1.55646   1.56996   1.58086   1.58540   1.59174
 Alpha virt. eigenvalues --    1.61787   1.62667   1.64160   1.64696   1.66525
 Alpha virt. eigenvalues --    1.67094   1.67310   1.68414   1.69372   1.71588
 Alpha virt. eigenvalues --    1.71693   1.71938   1.72100   1.73859   1.74195
 Alpha virt. eigenvalues --    1.74620   1.76125   1.77111   1.79078   1.80239
 Alpha virt. eigenvalues --    1.80600   1.81498   1.82173   1.83548   1.84862
 Alpha virt. eigenvalues --    1.86626   1.87040   1.87579   1.90010   1.91115
 Alpha virt. eigenvalues --    1.91669   1.93242   1.93633   1.94777   1.96767
 Alpha virt. eigenvalues --    1.97244   1.98710   1.99272   2.00557   2.02106
 Alpha virt. eigenvalues --    2.04361   2.05923   2.07790   2.08246   2.10391
 Alpha virt. eigenvalues --    2.11335   2.11760   2.12236   2.13288   2.15013
 Alpha virt. eigenvalues --    2.16183   2.17762   2.19841   2.20886   2.21727
 Alpha virt. eigenvalues --    2.22581   2.23312   2.26084   2.27203   2.28156
 Alpha virt. eigenvalues --    2.29699   2.30562   2.32215   2.33855   2.35078
 Alpha virt. eigenvalues --    2.36012   2.37075   2.38955   2.39250   2.41467
 Alpha virt. eigenvalues --    2.42713   2.46500   2.46843   2.47430   2.47803
 Alpha virt. eigenvalues --    2.50936   2.51352   2.52234   2.54245   2.55130
 Alpha virt. eigenvalues --    2.58858   2.61115   2.62908   2.68176   2.72479
 Alpha virt. eigenvalues --    2.74516   2.77304   2.80567   2.84829   2.85801
 Alpha virt. eigenvalues --    2.87518   2.89970   2.92302   3.00508   3.01292
 Alpha virt. eigenvalues --    3.04187   3.07249   3.08424   3.13377   3.19959
 Alpha virt. eigenvalues --    3.27703   3.31766   3.38618   3.43505   3.56795
 Alpha virt. eigenvalues --    3.69613   3.75985   3.82569   4.11587   4.25123
          Condensed to atoms (all electrons):
               1          2          3          4          5          6
     1  C   10.863751  -2.510530  -0.965134  -1.103369  -0.085966  -0.545682
     2  C   -2.510530  12.643057  -3.047205   0.507555   0.012885   0.300826
     3  C   -0.965134  -3.047205  15.173170  -0.907489  -1.038511   0.192783
     4  C   -1.103369   0.507555  -0.907489   6.204713   0.006318   0.047275
     5  C   -0.085966   0.012885  -1.038511   0.006318   7.151470  -0.063850
     6  H   -0.545682   0.300826   0.192783   0.047275  -0.063850   1.758657
     7  S   -0.446597  -0.141063  -0.317371   0.141961   0.128836  -0.037612
     8  H    0.050310   0.144291  -0.089136   0.034991   0.090289  -0.066727
     9  C    0.484817  -0.874236  -2.540932   0.248678   0.057110  -0.086212
    10  S    0.004107   0.048090  -0.465204   0.030607  -0.052672  -0.007747
    11  C    0.066887   0.107012  -0.195764  -0.108386  -0.026896  -0.001054
    12  C   -0.111449  -0.136566   0.649915   0.264453   0.002363  -0.001005
    13  C   -0.303809  -0.721322  -0.230085  -0.550641   0.089719   0.046724
    14  H    0.046787  -0.029271   0.024433   0.124844  -0.007608   0.003306
    15  S   -0.001729   0.008660  -0.064927  -0.007874   0.000885  -0.000101
    16  C    0.002002   0.000359  -0.012502  -0.002006  -0.000297   0.000034
    17  C    0.006859  -0.012926  -0.274476  -0.019442  -0.000513   0.000349
    18  H    0.000145   0.000612  -0.001672  -0.000520  -0.000032   0.000007
    19  H   -0.000259   0.002137  -0.004595   0.000582   0.000123  -0.000038
    20  H    0.087373   0.016664   0.034202  -0.035474   0.026868  -0.022597
    21  H   -0.001159   0.006473  -0.053497   0.331959   0.009008  -0.002629
    22  H   -0.052343   0.035720  -0.040068   0.275946  -0.017458   0.004041
               7          8          9         10         11         12
     1  C   -0.446597   0.050310   0.484817   0.004107   0.066887  -0.111449
     2  C   -0.141063   0.144291  -0.874236   0.048090   0.107012  -0.136566
     3  C   -0.317371  -0.089136  -2.540932  -0.465204  -0.195764   0.649915
     4  C    0.141961   0.034991   0.248678   0.030607  -0.108386   0.264453
     5  C    0.128836   0.090289   0.057110  -0.052672  -0.026896   0.002363
     6  H   -0.037612  -0.066727  -0.086212  -0.007747  -0.001054  -0.001005
     7  S   16.480682  -0.088044  -0.113648   0.116551  -0.020926  -0.008406
     8  H   -0.088044   1.295801   0.002636   0.010569   0.003630  -0.001496
     9  C   -0.113648   0.002636  13.692667   0.177831  -0.863768   0.372919
    10  S    0.116551   0.010569   0.177831  16.961372   0.067080  -0.547160
    11  C   -0.020926   0.003630  -0.863768   0.067080  11.616920  -1.838512
    12  C   -0.008406  -0.001496   0.372919  -0.547160  -1.838512  14.985142
    13  C   -0.219557  -0.010489  -4.503228  -0.805884  -0.065037  -5.163265
    14  H   -0.007391  -0.000964   0.631810   0.016470  -0.132592   0.638614
    15  S    0.000828   0.000011  -0.442413   0.155504   0.203780  -0.851782
    16  C   -0.005207   0.000011   0.065377  -0.131020  -0.056963  -1.253386
    17  C    0.023622  -0.000272  -0.306860  -0.126334  -2.884124  -0.618697
    18  H   -0.000195  -0.000001   0.005365   0.015202   0.120790  -0.088826
    19  H    0.001058   0.000028   0.088356   0.036809   0.612866   0.044318
    20  H   -0.008797   0.000694   0.045496   0.004163  -0.000777   0.023260
    21  H    0.011034   0.002026  -0.006630   0.001649  -0.005089  -0.016058
    22  H    0.008366   0.000994   0.025620  -0.000826  -0.002114  -0.036272
              13         14         15         16         17         18
     1  C   -0.303809   0.046787  -0.001729   0.002002   0.006859   0.000145
     2  C   -0.721322  -0.029271   0.008660   0.000359  -0.012926   0.000612
     3  C   -0.230085   0.024433  -0.064927  -0.012502  -0.274476  -0.001672
     4  C   -0.550641   0.124844  -0.007874  -0.002006  -0.019442  -0.000520
     5  C    0.089719  -0.007608   0.000885  -0.000297  -0.000513  -0.000032
     6  H    0.046724   0.003306  -0.000101   0.000034   0.000349   0.000007
     7  S   -0.219557  -0.007391   0.000828  -0.005207   0.023622  -0.000195
     8  H   -0.010489  -0.000964   0.000011   0.000011  -0.000272  -0.000001
     9  C   -4.503228   0.631810  -0.442413   0.065377  -0.306860   0.005365
    10  S   -0.805884   0.016470   0.155504  -0.131020  -0.126334   0.015202
    11  C   -0.065037  -0.132592   0.203780  -0.056963  -2.884124   0.120790
    12  C   -5.163265   0.638614  -0.851782  -1.253386  -0.618697  -0.088826
    13  C   19.331177  -1.760854   0.368297   0.033815  -0.294031   0.025411
    14  H   -1.760854   2.243680  -0.043612   0.020460  -0.054031   0.002917
    15  S    0.368297  -0.043612  16.162133   0.243867  -0.115747  -0.143696
    16  C    0.033815   0.020460   0.243867   7.027826   0.131103   0.178379
    17  C   -0.294031  -0.054031  -0.115747   0.131103  10.675599   0.023127
    18  H    0.025411   0.002917  -0.143696   0.178379   0.023127   1.320880
    19  H   -0.058458  -0.000621  -0.001608  -0.114461  -0.625554  -0.070540
    20  H   -0.070052   0.032836  -0.000222   0.000435  -0.000211   0.000005
    21  H    0.044125  -0.071090  -0.002225  -0.001329   0.000224  -0.000102
    22  H    0.074602  -0.046249   0.001281  -0.001538  -0.002301  -0.000010
              19         20         21         22
     1  C   -0.000259   0.087373  -0.001159  -0.052343
     2  C    0.002137   0.016664   0.006473   0.035720
     3  C   -0.004595   0.034202  -0.053497  -0.040068
     4  C    0.000582  -0.035474   0.331959   0.275946
     5  C    0.000123   0.026868   0.009008  -0.017458
     6  H   -0.000038  -0.022597  -0.002629   0.004041
     7  S    0.001058  -0.008797   0.011034   0.008366
     8  H    0.000028   0.000694   0.002026   0.000994
     9  C    0.088356   0.045496  -0.006630   0.025620
    10  S    0.036809   0.004163   0.001649  -0.000826
    11  C    0.612866  -0.000777  -0.005089  -0.002114
    12  C    0.044318   0.023260  -0.016058  -0.036272
    13  C   -0.058458  -0.070052   0.044125   0.074602
    14  H   -0.000621   0.032836  -0.071090  -0.046249
    15  S   -0.001608  -0.000222  -0.002225   0.001281
    16  C   -0.114461   0.000435  -0.001329  -0.001538
    17  C   -0.625554  -0.000211   0.000224  -0.002301
    18  H   -0.070540   0.000005  -0.000102  -0.000010
    19  H    1.422410   0.000082   0.000100   0.000088
    20  H    0.000082   1.535771  -0.186476  -0.218310
    21  H    0.000100  -0.186476   0.815074  -0.094841
    22  H    0.000088  -0.218310  -0.094841   0.901537
 Mulliken charges:
               1
     1  C    0.514987
     2  C   -0.361222
     3  C    0.174066
     4  C    0.515316
     5  C   -0.282072
     6  H   -0.518747
     7  S    0.501876
     8  H   -0.379151
     9  C   -0.160753
    10  S    0.490844
    11  C   -0.596961
    12  C   -0.308106
    13  C    0.742840
    14  H   -0.631875
    15  S    0.530691
    16  C   -0.124957
    17  C    0.474635
    18  H   -0.387245
    19  H   -0.332824
    20  H   -0.264931
    21  H    0.219453
    22  H    0.184136
 Sum of Mulliken charges =  -0.00000
 Mulliken charges with hydrogens summed into heavy atoms:
               1
     1  C   -0.003760
     2  C   -0.361222
     3  C    0.174066
     4  C    0.653974
     5  C   -0.661223
     7  S    0.501876
     9  C   -0.160753
    10  S    0.490844
    11  C   -0.596961
    12  C   -0.308106
    13  C    0.110965
    15  S    0.530691
    16  C   -0.512202
    17  C    0.141811
 Electronic spatial extent (au):  <R**2>=           4356.1591
 Charge=              0.0000 electrons
 Dipole moment (field-independent basis, Debye):
    X=             -0.4727    Y=              1.1385    Z=              0.0772  Tot=              1.2351
 Quadrupole moment (field-independent basis, Debye-Ang):
   XX=            -86.5462   YY=            -98.4886   ZZ=           -111.3513
   XY=             -7.1323   XZ=              0.6775   YZ=             -0.2540
 Traceless Quadrupole moment (field-independent basis, Debye-Ang):
   XX=             12.2492   YY=              0.3068   ZZ=            -12.5560
   XY=             -7.1323   XZ=              0.6775   YZ=             -0.2540
 Octapole moment (field-independent basis, Debye-Ang**2):
  XXX=             -3.6932  YYY=              4.8567  ZZZ=              0.7290  XYY=             -5.7575
  XXY=            -18.5251  XXZ=             -1.5007  XZZ=             -1.2724  YZZ=              2.2198
  YYZ=              0.7807  XYZ=             -6.7602
 Hexadecapole moment (field-independent basis, Debye-Ang**3):
 XXXX=          -4138.1292 YYYY=          -1121.1903 ZZZZ=           -182.2709 XXXY=            -43.1720
 XXXZ=             21.9428 YYYX=            -44.0519 YYYZ=             -5.7672 ZZZX=             -2.6470
 ZZZY=              2.1143 XXYY=           -934.3836 XXZZ=           -923.3847 YYZZ=           -229.5278
 XXYZ=              8.6380 YYXZ=              3.6872 ZZXY=              0.0929
 N-N= 1.125738019287D+03 E-N=-6.071531283871D+03  KE= 1.613748224183D+03
 Calling FoFJK, ICntrl=  10002127 FMM=F ISym2X=0 I1Cent= 0 IOpClX= 0 NMat=1 NMatS=1 NMatT=0.
 ***** Axes restored to original set *****
 -------------------------------------------------------------------
 Center     Atomic                   Forces (Hartrees/Bohr)
 Number     Number              X              Y              Z
 -------------------------------------------------------------------
      1        6           0.016508916    0.031727234    0.005566191
      2        6          -0.027677093    0.029612748    0.005289880
      3        6           0.027989886   -0.026921829   -0.004952127
      4        6          -0.000380056   -0.006005964   -0.002664194
      5        6          -0.002223959   -0.029041754   -0.004435934
      6        1          -0.007695835    0.007111766    0.000677589
      7       16           0.004819643   -0.008339542   -0.001053588
      8        1          -0.008010525   -0.006192585   -0.001257936
      9        6          -0.029475674   -0.023843959    0.003185028
     10       16          -0.004679518   -0.008643242    0.003529703
     11        6           0.008545687   -0.041293747    0.006603244
     12        6          -0.008363542    0.041287146   -0.006804192
     13        6           0.028421660    0.019701743   -0.003426749
     14        1          -0.004017624    0.011296083   -0.002357618
     15       16           0.002670915    0.007767248   -0.001327583
     16        6           0.014381656    0.023841010   -0.004576756
     17        6          -0.028242432   -0.020240564    0.004307580
     18        1           0.010603835    0.000678139   -0.000393434
     19        1           0.002916122   -0.009446237    0.001556789
     20        1          -0.006564170    0.003886494    0.002677666
     21        1           0.003046701    0.003147209   -0.006084182
     22        1           0.007425406   -0.000087397    0.005940624
 -------------------------------------------------------------------
 Cartesian Forces:  Max     0.041293747 RMS     0.014977827

 GradGradGradGradGradGradGradGradGradGradGradGradGradGradGradGradGradGrad
 Berny optimization.
 FormGI is forming the generalized inverse of G from B-inverse, IUseBI=4.
 Internal  Forces:  Max     0.043251407 RMS     0.008782412
 Search for a local minimum.
 Step number   1 out of a maximum of  127
 All quantities printed in internal units (Hartrees-Bohrs-Radians)
 Mixed Optimization -- RFO/linear search
 Second derivative matrix not updated -- first step.
 ITU=  0
     Eigenvalues ---    0.00668   0.01374   0.01460   0.01573   0.01627
     Eigenvalues ---    0.01682   0.01761   0.01870   0.01978   0.02047
     Eigenvalues ---    0.02062   0.02126   0.02242   0.02259   0.02371
     Eigenvalues ---    0.02425   0.07070   0.07286   0.15987   0.15999
     Eigenvalues ---    0.16000   0.16000   0.16000   0.16000   0.16000
     Eigenvalues ---    0.16000   0.22520   0.22567   0.23643   0.24749
     Eigenvalues ---    0.24783   0.24945   0.24961   0.24988   0.24997
     Eigenvalues ---    0.28695   0.29921   0.30315   0.30945   0.31346
     Eigenvalues ---    0.31615   0.32591   0.34519   0.34986   0.35016
     Eigenvalues ---    0.35796   0.36140   0.36264   0.36394   0.36411
     Eigenvalues ---    0.36774   0.38660   0.39188   0.39709   0.45956
     Eigenvalues ---    0.49436   0.51591   0.53474   0.537811000.00000
     Eigenvalues --- 1000.000001000.000001000.000001000.000001000.00000
     Eigenvalues --- 1000.000001000.000001000.000001000.000001000.00000
     Eigenvalues --- 1000.000001000.000001000.000001000.000001000.00000
     Eigenvalues --- 1000.000001000.000001000.000001000.000001000.00000
     Eigenvalues --- 1000.000001000.000001000.000001000.000001000.00000
     Eigenvalues --- 1000.000001000.000001000.000001000.000001000.00000
     Eigenvalues --- 1000.000001000.000001000.000001000.000001000.00000
     Eigenvalues --- 1000.000001000.000001000.000001000.000001000.00000
     Eigenvalues --- 1000.000001000.000001000.000001000.000001000.00000
     Eigenvalues --- 1000.000001000.000001000.000001000.000001000.00000
     Eigenvalues --- 1000.000001000.000001000.000001000.000001000.00000
     Eigenvalues --- 1000.000001000.00000
 RFO step:  Lambda=-1.76281598D-02 EMin= 6.68317536D-03
 Linear search not attempted -- first point.
 Iteration  1 RMS(Cart)=  0.02359926 RMS(Int)=  0.00014835
 Iteration  2 RMS(Cart)=  0.00034627 RMS(Int)=  0.00004221
 Iteration  3 RMS(Cart)=  0.00000005 RMS(Int)=  0.00004221
 Iteration  1 RMS(Cart)=  0.00000437 RMS(Int)=  0.00000163
 Iteration  2 RMS(Cart)=  0.00000240 RMS(Int)=  0.00000182
 Iteration  3 RMS(Cart)=  0.00000132 RMS(Int)=  0.00000206
 Iteration  4 RMS(Cart)=  0.00000073 RMS(Int)=  0.00000222
 Variable       Old X    -DE/DX   Delta X   Delta X   Delta X     New X
                                 (Linear)    (Quad)   (Total)
    R1        2.72022  -0.00432   0.00000  -0.00828  -0.00822   2.71200
    R2        2.54808   0.04020   0.00000   0.07146   0.07148   2.61956
    R3        2.03864   0.01050   0.00000   0.02770   0.02770   2.06634
    R4        2.57548   0.03584   0.00000   0.06634   0.06636   2.64184
    R5        2.84854   0.00184   0.00000   0.00552   0.00552   2.85406
    R6        3.30596   0.00412   0.00000   0.01010   0.01006   3.31602
    R7        2.77702  -0.00727   0.00000  -0.01936  -0.01936   2.75766
    R8        2.05698   0.00807   0.00000   0.02196   0.02196   2.07894
    R9        2.06463   0.00746   0.00000   0.02056   0.02056   2.08519
   R10        2.05648   0.00947   0.00000   0.02575   0.02575   2.08223
   R11        3.25375   0.00744   0.00000   0.01996   0.01992   3.27366
   R12        2.03470   0.01008   0.00000   0.02642   0.02642   2.06112
   R13        3.33448   0.00623   0.00000   0.01686   0.01680   3.35128
   R14        2.56650   0.03768   0.00000   0.06846   0.06848   2.63497
   R15        3.27786   0.00634   0.00000   0.01741   0.01736   3.29522
   R16        2.57527   0.04325   0.00000   0.08267   0.08274   2.65801
   R17        2.71158  -0.00282   0.00000  -0.00427  -0.00421   2.70737
   R18        2.70380  -0.00308   0.00000  -0.00478  -0.00471   2.69909
   R19        3.28496   0.00515   0.00000   0.01398   0.01395   3.29891
   R20        2.02888   0.01218   0.00000   0.03161   0.03161   2.06050
   R21        3.29692   0.00664   0.00000   0.01727   0.01722   3.31415
   R22        2.55058   0.03858   0.00000   0.06793   0.06795   2.61853
   R23        2.03443   0.01056   0.00000   0.02766   0.02766   2.06209
   R24        2.03670   0.01001   0.00000   0.02632   0.02632   2.06302
    A1        1.98494  -0.00301   0.00000  -0.00624  -0.00616   1.97878
    A2        2.14427   0.00136   0.00000   0.00232   0.00227   2.14654
    A3        2.15394   0.00165   0.00000   0.00391   0.00387   2.15781
    A4        1.95485  -0.00314   0.00000  -0.00800  -0.00791   1.94694
    A5        2.11696   0.00635   0.00000   0.02190   0.02186   2.13882
    A6        2.21103  -0.00321   0.00000  -0.01385  -0.01390   2.19713
    A7        1.93690   0.00392   0.00000   0.01218   0.01217   1.94907
    A8        2.25577  -0.00311   0.00000  -0.01046  -0.01045   2.24532
    A9        2.08869  -0.00076   0.00000  -0.00161  -0.00160   2.08709
   A10        1.91998  -0.00032   0.00000  -0.00050  -0.00050   1.91949
   A11        1.94524   0.00016   0.00000   0.00037   0.00037   1.94561
   A12        1.94695  -0.00075   0.00000  -0.00508  -0.00508   1.94187
   A13        1.87542   0.00045   0.00000   0.00414   0.00414   1.87956
   A14        1.88499   0.00077   0.00000   0.00524   0.00524   1.89023
   A15        1.88875  -0.00023   0.00000  -0.00372  -0.00373   1.88501
   A16        1.94570   0.00117   0.00000   0.00635   0.00634   1.95204
   A17        2.23401   0.00101   0.00000   0.00580   0.00581   2.23981
   A18        2.10347  -0.00218   0.00000  -0.01215  -0.01215   2.09132
   A19        1.60224   0.00107   0.00000  -0.00434  -0.00449   1.59775
   A20        2.09296  -0.00284   0.00000  -0.00961  -0.00961   2.08335
   A21        2.24278  -0.00187   0.00000  -0.00605  -0.00605   2.23673
   A22        1.94611   0.00476   0.00000   0.01602   0.01599   1.96210
   A23        1.59216   0.00090   0.00000  -0.00465  -0.00484   1.58732
   A24        1.93662   0.00184   0.00000   0.00601   0.00597   1.94259
   A25        2.35441   0.00151   0.00000   0.00043   0.00037   2.35478
   A26        1.99215  -0.00336   0.00000  -0.00645  -0.00635   1.98579
   A27        1.99486  -0.00310   0.00000  -0.00484  -0.00472   1.99014
   A28        1.93850   0.00146   0.00000   0.00392   0.00388   1.94238
   A29        2.34978   0.00163   0.00000   0.00092   0.00084   2.35063
   A30        1.95492  -0.00440   0.00000  -0.01250  -0.01238   1.94253
   A31        2.16698   0.00124   0.00000   0.00085   0.00079   2.16777
   A32        2.16076   0.00316   0.00000   0.01159   0.01153   2.17229
   A33        1.58071   0.00234   0.00000   0.00044   0.00031   1.58102
   A34        1.97690   0.00248   0.00000   0.00853   0.00852   1.98542
   A35        2.08693  -0.00250   0.00000  -0.01135  -0.01134   2.07559
   A36        2.21935   0.00002   0.00000   0.00282   0.00282   2.22218
   A37        1.93652  -0.00292   0.00000  -0.00644  -0.00635   1.93017
   A38        2.18411   0.00159   0.00000   0.00395   0.00390   2.18801
   A39        2.16255   0.00133   0.00000   0.00250   0.00245   2.16500
    D1       -0.00539   0.00021   0.00000   0.00020   0.00020  -0.00519
    D2       -3.12064   0.00019   0.00000  -0.00137  -0.00138  -3.12202
    D3        3.12718   0.00006   0.00000  -0.00105  -0.00104   3.12614
    D4        0.01193   0.00005   0.00000  -0.00261  -0.00262   0.00931
    D5       -0.00616   0.00002   0.00000  -0.00191  -0.00190  -0.00806
    D6        3.13093  -0.00013   0.00000  -0.00152  -0.00152   3.12940
    D7       -3.13867   0.00017   0.00000  -0.00065  -0.00065  -3.13932
    D8       -0.00159   0.00002   0.00000  -0.00026  -0.00027  -0.00185
    D9        0.01415  -0.00025   0.00000   0.00177   0.00177   0.01592
   D10        3.08962   0.00065   0.00000   0.00397   0.00398   3.09360
   D11        3.12766  -0.00006   0.00000   0.00410   0.00408   3.13174
   D12       -0.08005   0.00084   0.00000   0.00630   0.00629  -0.07376
   D13        0.32599   0.00004   0.00000  -0.00026  -0.00026   0.32573
   D14       -1.75237  -0.00041   0.00000  -0.00534  -0.00533  -1.75770
   D15        2.41743   0.00030   0.00000   0.00270   0.00270   2.42013
   D16       -2.78513  -0.00001   0.00000  -0.00229  -0.00229  -2.78743
   D17        1.41969  -0.00046   0.00000  -0.00737  -0.00737   1.41232
   D18       -0.69370   0.00025   0.00000   0.00068   0.00067  -0.69303
   D19       -0.01504   0.00021   0.00000  -0.00241  -0.00241  -0.01745
   D20       -3.09771  -0.00047   0.00000  -0.00392  -0.00395  -3.10166
   D21        2.87990  -0.00219   0.00000   0.00000   0.00000   2.87990
   D22       -0.32208  -0.00088   0.00000   0.00859   0.00856  -0.31352
   D23       -0.33276  -0.00108   0.00000   0.00277   0.00277  -0.32999
   D24        2.74845   0.00023   0.00000   0.01136   0.01133   2.75978
   D25        0.01197  -0.00011   0.00000   0.00247   0.00247   0.01444
   D26       -3.12549   0.00003   0.00000   0.00208   0.00207  -3.12342
   D27        3.09740   0.00045   0.00000   0.00136   0.00138   3.09878
   D28        0.00660  -0.00048   0.00000  -0.00529  -0.00532   0.00127
   D29       -3.09822  -0.00056   0.00000  -0.00245  -0.00248  -3.10070
   D30        0.00947  -0.00069   0.00000  -0.00418  -0.00419   0.00528
   D31       -0.01288   0.00046   0.00000   0.00489   0.00491  -0.00796
   D32        3.09481   0.00033   0.00000   0.00315   0.00320   3.09801
   D33        0.00177   0.00028   0.00000   0.00411   0.00411   0.00588
   D34        3.13863   0.00008   0.00000   0.00155   0.00155   3.14019
   D35       -0.00949  -0.00012   0.00000  -0.00226  -0.00225  -0.01174
   D36        3.13982  -0.00020   0.00000  -0.00233  -0.00231   3.13751
   D37        3.13577   0.00002   0.00000  -0.00029  -0.00028   3.13549
   D38        0.00190  -0.00006   0.00000  -0.00036  -0.00035   0.00155
   D39       -3.13856   0.00019   0.00000   0.00186   0.00185  -3.13670
   D40        0.00398   0.00016   0.00000   0.00209   0.00209   0.00607
   D41       -0.00180  -0.00000   0.00000  -0.00073  -0.00073  -0.00253
   D42        3.14074  -0.00003   0.00000  -0.00050  -0.00049   3.14025
   D43        0.01476  -0.00036   0.00000  -0.00206  -0.00203   0.01273
   D44       -3.09307  -0.00019   0.00000  -0.00009  -0.00007  -3.09314
   D45       -3.13696  -0.00026   0.00000  -0.00196  -0.00194  -3.13890
   D46        0.03840  -0.00009   0.00000   0.00001   0.00003   0.03842
   D47       -0.00116   0.00009   0.00000   0.00102   0.00102  -0.00015
   D48       -3.13287   0.00002   0.00000   0.00096   0.00096  -3.13191
   D49        0.00015  -0.00010   0.00000  -0.00148  -0.00148  -0.00133
   D50        3.14047   0.00000   0.00000  -0.00006  -0.00007   3.14040
   D51        0.00086   0.00009   0.00000   0.00154   0.00154   0.00240
   D52        3.14152   0.00011   0.00000   0.00131   0.00131  -3.14036
   D53       -3.13935  -0.00002   0.00000  -0.00000  -0.00000  -3.13935
   D54        0.00131   0.00001   0.00000  -0.00023  -0.00024   0.00108
         Item               Value     Threshold  Converged?
 Maximum Force            0.043243     0.000450     NO 
 RMS     Force            0.008815     0.000300     NO 
 Maximum Displacement     0.086769     0.001800     NO 
 RMS     Displacement     0.023649     0.001200     NO 
 Predicted change in Energy=-9.130878D-03
 GradGradGradGradGradGradGradGradGradGradGradGradGradGradGradGradGradGrad

                          Input orientation:                          
 ---------------------------------------------------------------------
 Center     Atomic      Atomic             Coordinates (Angstroms)
 Number     Number       Type             X           Y           Z
 ---------------------------------------------------------------------
      1          6           0       -3.974320    0.785044   -0.008504
      2          6           0       -2.591783    1.144640    0.128886
      3          6           0       -1.757755    0.027586    0.024054
      4          6           0       -2.143154    2.563202    0.388562
      5          6           0       -4.171701   -0.570897   -0.218385
      6          1           0       -4.788045    1.512504    0.057120
      7         16           0       -2.674158   -1.440434   -0.266307
      8          1           0       -5.113861   -1.105916   -0.343743
      9          6           0       -0.299770   -0.027090    0.052569
     10         16           0        0.507374   -1.586650    0.300174
     11          6           0        2.072377   -0.836060    0.132630
     12          6           0        1.954108    0.547081   -0.093945
     13          6           0        0.605440    1.013951   -0.150136
     14          1           0        0.317476    2.044457   -0.359986
     15         16           0        3.521190    1.299265   -0.255073
     16          6           0        4.309003   -0.249310   -0.016366
     17          6           0        3.427072   -1.299864    0.180110
     18          1           0        5.399085   -0.295315   -0.035144
     19          1           0        3.735458   -2.333891    0.345943
     20          1           0       -2.983642    3.158395    0.775358
     21          1           0       -1.785213    3.049184   -0.535165
     22          1           0       -1.327182    2.595120    1.128351
 ---------------------------------------------------------------------
                    Distance matrix (angstroms):
                    1          2          3          4          5
     1  C    0.000000
     2  C    1.435129   0.000000
     3  C    2.342640   1.397999   0.000000
     4  C    2.583152   1.510304   2.590511   0.000000
     5  C    1.386213   2.357924   2.498818   3.782323   0.000000
     6  H    1.093459   2.228013   3.374720   2.865183   2.190056
     7  S    2.590297   2.616405   1.754761   4.091445   1.732347
     8  H    2.233086   3.413102   3.561397   4.777426   1.090700
     9  C    3.763723   2.575286   1.459289   3.196963   3.919310
    10  S    5.079941   4.134496   2.795141   4.924874   4.816056
    11  C    6.261824   5.067304   3.927796   5.421364   6.259555
    12  C    5.933817   4.590409   3.749897   4.591854   6.228234
    13  C    4.587664   3.212035   2.566701   3.200804   5.033635
    14  H    4.486555   3.084227   2.919219   2.623761   5.197388
    15  S    7.517172   6.126970   5.437126   5.839229   7.917033
    16  C    8.347658   7.041665   6.073209   7.050144   8.489203
    17  C    7.691750   6.496525   5.354336   6.781899   7.644053
    18  H    9.435497   8.121228   7.164365   8.076881   9.576505
    19  H    8.324306   7.223660   5.987953   7.651237   8.120946
    20  H    2.688620   2.150973   3.445173   1.100129   4.038147
    21  H    3.193100   2.172281   3.073033   1.103436   4.347489
    22  H    3.402375   2.168418   2.827914   1.101870   4.464152
                    6          7          8          9         10
     6  H    0.000000
     7  S    3.645952   0.000000
     8  H    2.668889   2.463748   0.000000
     9  C    4.744996   2.781535   4.949384   0.000000
    10  S    6.140464   3.234876   5.678382   1.773420   0.000000
    11  C    7.251679   4.801459   7.207064   2.507573   1.743758
    12  C    6.812599   5.039917   7.262988   2.330473   2.607907
    13  C    5.420443   4.097959   6.102601   1.394368   2.641122
    14  H    5.150078   4.593812   6.278897   2.200568   3.695512
    15  S    8.317832   6.774098   8.964199   4.056303   4.209500
    16  C    9.266374   7.088426   9.467383   4.614643   4.042408
    17  C    8.684048   6.119154   8.559181   3.940250   2.936205
    18  H   10.346707   8.157326  10.548665   5.705838   5.070386
    19  H    9.355655   6.500483   8.960694   4.657302   3.313758
    20  H    2.545721   4.725471   4.896384   4.227636   5.910029
    21  H    3.424790   4.584667   5.327419   3.466328   5.238769
    22  H    3.781160   4.477177   5.495787   3.014775   4.640978
                   11         12         13         14         15
    11  C    0.000000
    12  C    1.406557   0.000000
    13  C    2.377898   1.428296   0.000000
    14  H    3.408772   2.234162   1.090368   0.000000
    15  S    2.609403   1.745705   2.931554   3.290911   0.000000
    16  C    2.317105   2.487124   3.915368   4.616463   1.753772
    17  C    1.432678   2.378221   3.663933   4.598453   2.636990
    18  H    3.374543   3.546963   4.970556   5.603820   2.473367
    19  H    2.248297   3.415656   4.609897   5.599184   3.688761
    20  H    6.475499   5.652966   4.282136   3.664320   6.843317
    21  H    5.515620   4.520809   3.163170   2.336978   5.594513
    22  H    4.931679   4.056518   2.805290   2.285449   5.205747
                   16         17         18         19         20
    16  C    0.000000
    17  C    1.385666   0.000000
    18  H    1.091213   2.223575   0.000000
    19  H    2.192191   1.091703   2.658698   0.000000
    20  H    8.088384   7.831197   9.102479   8.688838   0.000000
    21  H    6.949006   6.825961   7.940392   7.760905   1.779222
    22  H    6.416210   6.218761   7.412894   7.108983   1.784865
                   21         22
    21  H    0.000000
    22  H    1.784167   0.000000
 Stoichiometry    C11H8S3
 Framework group  C1[X(C11H8S3)]
 Deg. of freedom    60
 Full point group                 C1      NOp   1
 Largest Abelian subgroup         C1      NOp   1
 Largest concise Abelian subgroup C1      NOp   1
                         Standard orientation:                         
 ---------------------------------------------------------------------
 Center     Atomic      Atomic             Coordinates (Angstroms)
 Number     Number       Type             X           Y           Z
 ---------------------------------------------------------------------
      1          6           0       -3.968054    0.807602   -0.006424
      2          6           0       -2.583709    1.160689    0.129637
      3          6           0       -1.755123    0.039555    0.025214
      4          6           0       -2.128096    2.577318    0.387701
      5          6           0       -4.172086   -0.547567   -0.214931
      6          1           0       -4.778235    1.539013    0.059130
      7         16           0       -2.678763   -1.424317   -0.263151
      8          1           0       -5.116891   -1.078176   -0.339121
      9          6           0       -0.297396   -0.022085    0.052721
     10         16           0        0.502443   -1.585273    0.301156
     11          6           0        2.070903   -0.842346    0.131797
     12          6           0        1.959101    0.541140   -0.095948
     13          6           0        0.612647    1.014420   -0.151584
     14          1           0        0.329473    2.046105   -0.362160
     15         16           0        3.529653    1.285657   -0.258894
     16          6           0        4.310208   -0.266461   -0.019354
     17          6           0        3.423394   -1.312597    0.178715
     18          1           0        5.400042   -0.317709   -0.038880
     19          1           0        3.726940   -2.347940    0.345262
     20          1           0       -2.965438    3.176883    0.774566
     21          1           0       -1.768503    3.060743   -0.536726
     22          1           0       -1.311441    2.605992    1.126869
 ---------------------------------------------------------------------
 Rotational constants (GHZ):           1.2521192           0.2819910           0.2329934
 Standard basis: Aug-CC-pVDZ (5D, 7F)
 There are   434 symmetry adapted cartesian basis functions of A   symmetry.
 There are   406 symmetry adapted basis functions of A   symmetry.
   406 basis functions,   804 primitive gaussians,   434 cartesian basis functions
    61 alpha electrons       61 beta electrons
       nuclear repulsion energy      1118.4105279176 Hartrees.
 NAtoms=   22 NActive=   22 NUniq=   22 SFac= 1.00D+00 NAtFMM=   60 NAOKFM=F Big=F
 Integral buffers will be    131072 words long.
 Raffenetti 1 integral format.
 Two-electron integral symmetry is turned on.
 One-electron integrals computed using PRISM.
 NBasis=   406 RedAO= T EigKep=  2.97D-06  NBF=   406
 NBsUse=   406 1.00D-06 EigRej= -1.00D+00 NBFU=   406
 Initial guess from the checkpoint file:  "/tmp/pbs.4766302[340].pbs/Gau-4132468.chk"
 B after Tr=    -0.000000    0.000000   -0.000000
         Rot=    0.999999   -0.000514    0.000082    0.001633 Ang=  -0.20 deg.
 ExpMin= 2.97D-02 ExpMax= 1.11D+05 ExpMxC= 1.07D+03 IAcc=3 IRadAn=         5 AccDes= 0.00D+00
 Harris functional with IExCor=  205 and IRadAn=       5 diagonalized for initial guess.
 HarFok:  IExCor=  205 AccDes= 0.00D+00 IRadAn=         5 IDoV= 1 UseB2=F ITyADJ=14
 ICtDFT=  3500011 ScaDFX=  1.000000  1.000000  1.000000  1.000000
 FoFCou: FMM=F IPFlag=           0 FMFlag=      100000 FMFlg1=           0
         NFxFlg=           0 DoJE=T BraDBF=F KetDBF=T FulRan=T
         wScrn=  0.000000 ICntrl=       500 IOpCl=  0 I1Cent=   200000004 NGrid=           0
         NMat0=    1 NMatS0=      1 NMatT0=    0 NMatD0=    1 NMtDS0=    0 NMtDT0=    0
 Petite list used in FoFCou.
 Requested convergence on RMS density matrix=1.00D-08 within 128 cycles.
 Requested convergence on MAX density matrix=1.00D-06.
 Requested convergence on             energy=1.00D-06.
 No special actions if energy rises.
 SCF Done:  E(RHF) =  -1613.80291039     A.U. after   15 cycles
            NFock= 15  Conv=0.96D-08     -V/T= 2.0005
 ExpMin= 2.97D-02 ExpMax= 1.11D+05 ExpMxC= 1.07D+03 IAcc=3 IRadAn=         5 AccDes= 0.00D+00
 HarFok:  IExCor=  205 AccDes= 0.00D+00 IRadAn=         5 IDoV=-2 UseB2=F ITyADJ=14
 ICtDFT= 12500011 ScaDFX=  1.000000  1.000000  1.000000  1.000000
 GSVD:  LWork=        -884 too small for GESVD, short by        3770 words or        3770 for optimal perf.
 Range of M.O.s used for correlation:    27   406
 NBasis=   406 NAE=    61 NBE=    61 NFC=    26 NFV=     0
 NROrb=    380 NOA=    35 NOB=    35 NVA=   345 NVB=   345

 **** Warning!!: The largest alpha MO coefficient is  0.94105096D+02

 Disk-based method using ON**2 memory for 35 occupieds at a time.
 Estimated scratch disk usage=  5830673430 words.
 Actual    scratch disk usage=  4755559958 words.
 JobTyp=1 Pass  1:  I=  27 to  61 NPSUse= 16 ParTrn=T ParDer=T DoDerP=T.
 (rs|ai) integrals will be sorted in core.
 Spin components of T(2) and E(2):
     alpha-alpha T2 =       0.1172148475D+00 E2=     -0.2677868849D+00
     alpha-beta  T2 =       0.5760535052D+00 E2=     -0.1412494651D+01
     beta-beta   T2 =       0.1172148475D+00 E2=     -0.2677868849D+00
 ANorm=    0.1345541973D+01
 E2 =    -0.1948068420D+01 EUMP2 =    -0.16157509788099D+04
          IDoAtm=1111111111111111111111
          Differentiating once with respect to electric field.
                with respect to dipole field.
          Differentiating once with respect to nuclear coordinates.
 Keep R1 ints in memory in canonical form, NReq=3454318301.
          There are     1 degrees of freedom in the 1st order CPHF.  IDoFFX=0 NUNeed=     1.
 LinEq1:  Iter=  0 NonCon=     1 RMS=2.73D-03 Max=6.17D-02 NDo=     1
 AX will form     1 AO Fock derivatives at one time.
 LinEq1:  Iter=  1 NonCon=     1 RMS=6.26D-04 Max=1.56D-02 NDo=     1
 LinEq1:  Iter=  2 NonCon=     1 RMS=3.54D-04 Max=1.25D-02 NDo=     1
 LinEq1:  Iter=  3 NonCon=     1 RMS=1.07D-04 Max=3.05D-03 NDo=     1
 LinEq1:  Iter=  4 NonCon=     1 RMS=4.50D-05 Max=1.33D-03 NDo=     1
 LinEq1:  Iter=  5 NonCon=     1 RMS=1.71D-05 Max=6.65D-04 NDo=     1
 LinEq1:  Iter=  6 NonCon=     1 RMS=6.53D-06 Max=3.70D-04 NDo=     1
 LinEq1:  Iter=  7 NonCon=     1 RMS=3.48D-06 Max=9.75D-05 NDo=     1
 LinEq1:  Iter=  8 NonCon=     1 RMS=1.33D-06 Max=3.97D-05 NDo=     1
 LinEq1:  Iter=  9 NonCon=     1 RMS=6.29D-07 Max=1.59D-05 NDo=     1
 LinEq1:  Iter= 10 NonCon=     1 RMS=2.74D-07 Max=6.72D-06 NDo=     1
 LinEq1:  Iter= 11 NonCon=     1 RMS=1.22D-07 Max=3.41D-06 NDo=     1
 LinEq1:  Iter= 12 NonCon=     1 RMS=3.92D-08 Max=7.01D-07 NDo=     1
 LinEq1:  Iter= 13 NonCon=     1 RMS=1.31D-08 Max=2.07D-07 NDo=     1
 LinEq1:  Iter= 14 NonCon=     1 RMS=4.23D-09 Max=9.24D-08 NDo=     1
 LinEq1:  Iter= 15 NonCon=     1 RMS=1.66D-09 Max=4.16D-08 NDo=     1
 LinEq1:  Iter= 16 NonCon=     1 RMS=7.24D-10 Max=1.79D-08 NDo=     1
 LinEq1:  Iter= 17 NonCon=     1 RMS=2.96D-10 Max=7.18D-09 NDo=     1
 LinEq1:  Iter= 18 NonCon=     1 RMS=1.03D-10 Max=2.47D-09 NDo=     1
 LinEq1:  Iter= 19 NonCon=     0 RMS=3.83D-11 Max=5.42D-10 NDo=     1
 Linear equations converged to 1.000D-10 1.000D-09 after    19 iterations.
 End of Minotr F.D. properties file   721 does not exist.
 End of Minotr F.D. properties file   722 does not exist.
 End of Minotr F.D. properties file   788 does not exist.
 Calling FoFJK, ICntrl=  10002127 FMM=F ISym2X=0 I1Cent= 0 IOpClX= 0 NMat=1 NMatS=1 NMatT=0.
 ***** Axes restored to original set *****
 -------------------------------------------------------------------
 Center     Atomic                   Forces (Hartrees/Bohr)
 Number     Number              X              Y              Z
 -------------------------------------------------------------------
      1        6           0.007312637    0.003301215    0.000988148
      2        6          -0.010839312    0.004153750    0.002305788
      3        6           0.008903074   -0.005634088   -0.003309950
      4        6           0.000820224   -0.001782580   -0.000271662
      5        6          -0.003005523   -0.003855945   -0.000766896
      6        1          -0.000580427   -0.000991001   -0.000140775
      7       16          -0.000946050    0.004766148    0.000781796
      8        1           0.000162009   -0.000145500    0.000045915
      9        6          -0.008228523   -0.003037915   -0.000614432
     10       16           0.001256251    0.003859921    0.000910374
     11        6           0.006585817   -0.008042560    0.001075126
     12        6          -0.005432152    0.008073785   -0.001150766
     13        6           0.008528645    0.001641164   -0.000096126
     14        1          -0.000913676   -0.001099316   -0.000032201
     15       16          -0.001147103   -0.004237961    0.000713497
     16        6           0.003616878    0.002552157   -0.000475605
     17        6          -0.007277357   -0.000076206    0.000214758
     18        1          -0.000000512    0.000122425   -0.000020072
     19        1           0.000894286    0.000561091   -0.000147695
     20        1          -0.000253472    0.000013626   -0.000071673
     21        1           0.000361990    0.000042703   -0.000100957
     22        1           0.000182295   -0.000184912    0.000163406
 -------------------------------------------------------------------
 Cartesian Forces:  Max     0.010839312 RMS     0.003594632

 GradGradGradGradGradGradGradGradGradGradGradGradGradGradGradGradGradGrad
 Berny optimization.
 Using GEDIIS/GDIIS optimizer.
 FormGI is forming the generalized inverse of G from B-inverse, IUseBI=4.
 Internal  Forces:  Max     0.005668978 RMS     0.001469607
 Search for a local minimum.
 Step number   2 out of a maximum of  127
 All quantities printed in internal units (Hartrees-Bohrs-Radians)
 Mixed Optimization -- RFO/linear search
 Update second derivatives using D2CorX and points    1    2
 DE= -9.17D-03 DEPred=-9.13D-03 R= 1.00D+00
 TightC=F SS=  1.41D+00  RLast= 1.90D-01 DXNew= 5.0454D-01 5.7135D-01
 Trust test= 1.00D+00 RLast= 1.90D-01 DXMaxT set to 5.05D-01
 ITU=  1  0
 Use linear search instead of GDIIS.
     Eigenvalues ---    0.00668   0.01367   0.01462   0.01572   0.01625
     Eigenvalues ---    0.01684   0.01760   0.01866   0.01978   0.02054
     Eigenvalues ---    0.02068   0.02134   0.02246   0.02257   0.02374
     Eigenvalues ---    0.02430   0.07112   0.07284   0.15909   0.15992
     Eigenvalues ---    0.16000   0.16000   0.16000   0.16000   0.16000
     Eigenvalues ---    0.16028   0.22534   0.22594   0.23719   0.24434
     Eigenvalues ---    0.24765   0.24918   0.24955   0.24972   0.25276
     Eigenvalues ---    0.28739   0.29937   0.30329   0.31001   0.31456
     Eigenvalues ---    0.31623   0.32695   0.34542   0.34996   0.35064
     Eigenvalues ---    0.35595   0.36175   0.36307   0.36402   0.36534
     Eigenvalues ---    0.37122   0.38646   0.39259   0.39774   0.45473
     Eigenvalues ---    0.48176   0.50994   0.53303   0.537081000.00000
     Eigenvalues --- 1000.000001000.000001000.000001000.000001000.00000
     Eigenvalues --- 1000.000001000.000001000.000001000.000001000.00000
     Eigenvalues --- 1000.000001000.000001000.000001000.000001000.00000
     Eigenvalues --- 1000.000001000.000001000.000001000.000001000.00000
     Eigenvalues --- 1000.000001000.000001000.000001000.000001000.00000
     Eigenvalues --- 1000.000001000.000001000.000001000.000001000.00000
     Eigenvalues --- 1000.000001000.000001000.000001000.000001000.00000
     Eigenvalues --- 1000.000001000.000001000.000001000.000001000.00000
     Eigenvalues --- 1000.000001000.000001000.000001000.000001000.00000
     Eigenvalues --- 1000.000001000.000001000.000001000.000001000.00000
     Eigenvalues --- 1000.000001000.000001000.000001000.000001000.00000
     Eigenvalues --- 1000.000001000.00000
 RFO step:  Lambda=-7.82156690D-04 EMin= 6.68213530D-03
 Quartic linear search produced a step of  0.08404.
 Iteration  1 RMS(Cart)=  0.00937469 RMS(Int)=  0.00006902
 Iteration  2 RMS(Cart)=  0.00008278 RMS(Int)=  0.00000802
 Iteration  3 RMS(Cart)=  0.00000001 RMS(Int)=  0.00000802
 Iteration  1 RMS(Cart)=  0.00000212 RMS(Int)=  0.00000079
 Iteration  2 RMS(Cart)=  0.00000116 RMS(Int)=  0.00000088
 Iteration  3 RMS(Cart)=  0.00000064 RMS(Int)=  0.00000100
 Variable       Old X    -DE/DX   Delta X   Delta X   Delta X     New X
                                 (Linear)    (Quad)   (Total)
    R1        2.71200  -0.00391  -0.00069  -0.01036  -0.01105   2.70095
    R2        2.61956   0.00243   0.00601   0.00207   0.00808   2.62764
    R3        2.06634  -0.00024   0.00233  -0.00162   0.00071   2.06705
    R4        2.64184   0.00567   0.00558   0.00959   0.01516   2.65700
    R5        2.85406  -0.00151   0.00046  -0.00535  -0.00489   2.84917
    R6        3.31602  -0.00188   0.00085  -0.00678  -0.00593   3.31008
    R7        2.75766  -0.00212  -0.00163  -0.00577  -0.00740   2.75026
    R8        2.07894   0.00018   0.00185  -0.00017   0.00167   2.08062
[...]
     22          1           0       -1.334244    2.601314    1.131692
 ---------------------------------------------------------------------
 Rotational constants (GHZ):           1.2618448           0.2814856           0.2326145

 **********************************************************************

            Population analysis using the SCF Density.

 **********************************************************************

 Orbital symmetries:
       Occupied  (A) (A) (A) (A) (A) (A) (A) (A) (A) (A) (A) (A)
                 (A) (A) (A) (A) (A) (A) (A) (A) (A) (A) (A) (A)
                 (A) (A) (A) (A) (A) (A) (A) (A) (A) (A) (A) (A)
                 (A) (A) (A) (A) (A) (A) (A) (A) (A) (A) (A) (A)
                 (A) (A) (A) (A) (A) (A) (A) (A) (A) (A) (A) (A)
                 (A)
       Virtual   (A) (A) (A) (A) (A) (A) (A) (A) (A) (A) (A) (A)
                 (A) (A) (A) (A) (A) (A) (A) (A) (A) (A) (A) (A)
                 (A) (A) (A) (A) (A) (A) (A) (A) (A) (A) (A) (A)
                 (A) (A) (A) (A) (A) (A) (A) (A) (A) (A) (A) (A)
                 (A) (A) (A) (A) (A) (A) (A) (A) (A) (A) (A) (A)
                 (A) (A) (A) (A) (A) (A) (A) (A) (A) (A) (A) (A)
                 (A) (A) (A) (A) (A) (A) (A) (A) (A) (A) (A) (A)
                 (A) (A) (A) (A) (A) (A) (A) (A) (A) (A) (A) (A)
                 (A) (A) (A) (A) (A) (A) (A) (A) (A) (A) (A) (A)
                 (A) (A) (A) (A) (A) (A) (A) (A) (A) (A) (A) (A)
                 (A) (A) (A) (A) (A) (A) (A) (A) (A) (A) (A) (A)
                 (A) (A) (A) (A) (A) (A) (A) (A) (A) (A) (A) (A)
                 (A) (A) (A) (A) (A) (A) (A) (A) (A) (A) (A) (A)
                 (A) (A) (A) (A) (A) (A) (A) (A) (A) (A) (A) (A)
                 (A) (A) (A) (A) (A) (A) (A) (A) (A) (A) (A) (A)
                 (A) (A) (A) (A) (A) (A) (A) (A) (A) (A) (A) (A)
                 (A) (A) (A) (A) (A) (A) (A) (A) (A) (A) (A) (A)
                 (A) (A) (A) (A) (A) (A) (A) (A) (A) (A) (A) (A)
                 (A) (A) (A) (A) (A) (A) (A) (A) (A) (A) (A) (A)
                 (A) (A) (A) (A) (A) (A) (A) (A) (A) (A) (A) (A)
                 (A) (A) (A) (A) (A) (A) (A) (A) (A) (A) (A) (A)
                 (A) (A) (A) (A) (A) (A) (A) (A) (A) (A) (A) (A)
                 (A) (A) (A) (A) (A) (A) (A) (A) (A) (A) (A) (A)
                 (A) (A) (A) (A) (A) (A) (A) (A) (A) (A) (A) (A)
                 (A) (A) (A) (A) (A) (A) (A) (A) (A) (A) (A) (A)
                 (A) (A) (A) (A) (A) (A) (A) (A) (A) (A) (A) (A)
                 (A) (A) (A) (A) (A) (A) (A) (A) (A) (A) (A) (A)
                 (A) (A) (A) (A) (A) (A) (A) (A) (A) (A) (A) (A)
                 (A) (A) (A) (A) (A) (A) (A) (A) (A)
 The electronic state is 1-A.
 Alpha  occ. eigenvalues --  -91.99501 -91.99381 -91.99119 -11.29884 -11.28507
 Alpha  occ. eigenvalues --  -11.28430 -11.28069 -11.28002 -11.27928 -11.26552
 Alpha  occ. eigenvalues --  -11.26389 -11.26295 -11.25323 -11.24698  -8.99613
 Alpha  occ. eigenvalues --   -8.99509  -8.99303  -6.67778  -6.67698  -6.67676
 Alpha  occ. eigenvalues --   -6.67590  -6.67502  -6.67469  -6.67387  -6.67375
 Alpha  occ. eigenvalues --   -6.67194  -1.20703  -1.17868  -1.11865  -1.04049
 Alpha  occ. eigenvalues --   -1.02524  -1.01549  -0.95003  -0.94389  -0.91674
 Alpha  occ. eigenvalues --   -0.82210  -0.76845  -0.76609  -0.72362  -0.70039
 Alpha  occ. eigenvalues --   -0.66838  -0.66276  -0.60241  -0.59063  -0.58883
 Alpha  occ. eigenvalues --   -0.56414  -0.55992  -0.54814  -0.53897  -0.52435
 Alpha  occ. eigenvalues --   -0.51819  -0.51157  -0.49710  -0.47566  -0.46480
 Alpha  occ. eigenvalues --   -0.45736  -0.39443  -0.35008  -0.34410  -0.32258
 Alpha  occ. eigenvalues --   -0.26388
 Alpha virt. eigenvalues --    0.03357   0.03545   0.03956   0.04904   0.04998
 Alpha virt. eigenvalues --    0.05163   0.05668   0.06714   0.08052   0.08148
 Alpha virt. eigenvalues --    0.09103   0.09749   0.10343   0.10754   0.10804
 Alpha virt. eigenvalues --    0.11674   0.12113   0.12363   0.12708   0.13009
 Alpha virt. eigenvalues --    0.13207   0.13696   0.14205   0.14461   0.14667
 Alpha virt. eigenvalues --    0.15009   0.15297   0.15646   0.16091   0.16476
 Alpha virt. eigenvalues --    0.16993   0.17375   0.17439   0.18243   0.18569
 Alpha virt. eigenvalues --    0.18826   0.18931   0.19445   0.20023   0.20278
 Alpha virt. eigenvalues --    0.20650   0.20943   0.21321   0.21723   0.22089
 Alpha virt. eigenvalues --    0.22850   0.22914   0.23335   0.24151   0.24751
 Alpha virt. eigenvalues --    0.25005   0.25571   0.25740   0.26106   0.26698
 Alpha virt. eigenvalues --    0.27114   0.27454   0.27970   0.28164   0.28907
 Alpha virt. eigenvalues --    0.29038   0.29811   0.30478   0.30605   0.31592
 Alpha virt. eigenvalues --    0.32238   0.32597   0.33207   0.33685   0.34135
 Alpha virt. eigenvalues --    0.34788   0.35274   0.35404   0.35619   0.36365
 Alpha virt. eigenvalues --    0.37007   0.38000   0.38290   0.38868   0.39187
 Alpha virt. eigenvalues --    0.40154   0.40674   0.40694   0.41327   0.43226
 Alpha virt. eigenvalues --    0.43704   0.44015   0.44134   0.44711   0.45138
 Alpha virt. eigenvalues --    0.45905   0.46474   0.46639   0.46923   0.47395
 Alpha virt. eigenvalues --    0.47803   0.48857   0.49043   0.49599   0.51850
 Alpha virt. eigenvalues --    0.52277   0.52764   0.53266   0.54597   0.55064
 Alpha virt. eigenvalues --    0.55725   0.56186   0.57058   0.57462   0.58530
 Alpha virt. eigenvalues --    0.59000   0.59710   0.60476   0.60840   0.61587
 Alpha virt. eigenvalues --    0.61843   0.62475   0.63039   0.63779   0.64123
 Alpha virt. eigenvalues --    0.65279   0.65637   0.65876   0.66603   0.66989
 Alpha virt. eigenvalues --    0.67407   0.67658   0.67765   0.68417   0.68869
 Alpha virt. eigenvalues --    0.69364   0.70176   0.70558   0.71188   0.71679
 Alpha virt. eigenvalues --    0.72020   0.72530   0.73381   0.73874   0.74091
 Alpha virt. eigenvalues --    0.74580   0.74902   0.75619   0.76573   0.76746
 Alpha virt. eigenvalues --    0.77623   0.78205   0.79278   0.80093   0.81130
 Alpha virt. eigenvalues --    0.81432   0.82015   0.82251   0.83783   0.83970
 Alpha virt. eigenvalues --    0.84611   0.84920   0.86030   0.86885   0.87468
 Alpha virt. eigenvalues --    0.88528   0.88895   0.89087   0.89573   0.90658
 Alpha virt. eigenvalues --    0.90868   0.92057   0.93005   0.93092   0.93921
 Alpha virt. eigenvalues --    0.94577   0.95687   0.95820   0.96994   0.97462
 Alpha virt. eigenvalues --    0.97584   0.98595   0.99344   1.00012   1.00998
 Alpha virt. eigenvalues --    1.01679   1.02335   1.04028   1.04686   1.04846
 Alpha virt. eigenvalues --    1.05423   1.06770   1.08468   1.10040   1.10272
 Alpha virt. eigenvalues --    1.10855   1.12187   1.12798   1.14841   1.15349
 Alpha virt. eigenvalues --    1.16369   1.17685   1.19220   1.20395   1.20613
 Alpha virt. eigenvalues --    1.21515   1.23163   1.23864   1.24022   1.24759
 Alpha virt. eigenvalues --    1.26400   1.27468   1.27954   1.28840   1.29360
 Alpha virt. eigenvalues --    1.30802   1.31432   1.32153   1.32687   1.34055
 Alpha virt. eigenvalues --    1.34743   1.36351   1.36885   1.37820   1.39054
 Alpha virt. eigenvalues --    1.40190   1.42421   1.44009   1.44604   1.46260
 Alpha virt. eigenvalues --    1.47398   1.49291   1.49989   1.50846   1.53877
 Alpha virt. eigenvalues --    1.55422   1.57389   1.58127   1.58831   1.59647
 Alpha virt. eigenvalues --    1.61647   1.62515   1.64092   1.64943   1.66152
 Alpha virt. eigenvalues --    1.66974   1.67578   1.68018   1.68989   1.71014
 Alpha virt. eigenvalues --    1.71205   1.71682   1.72276   1.73391   1.73964
 Alpha virt. eigenvalues --    1.74679   1.76444   1.77437   1.78807   1.79864
 Alpha virt. eigenvalues --    1.80447   1.81289   1.81882   1.82551   1.84342
 Alpha virt. eigenvalues --    1.86166   1.86823   1.87093   1.89343   1.90309
 Alpha virt. eigenvalues --    1.91162   1.93121   1.93638   1.94724   1.96347
 Alpha virt. eigenvalues --    1.97033   1.97930   1.98140   1.99739   2.02150
 Alpha virt. eigenvalues --    2.02946   2.05098   2.06715   2.07374   2.09144
 Alpha virt. eigenvalues --    2.10147   2.10951   2.11361   2.12823   2.14163
 Alpha virt. eigenvalues --    2.14761   2.16765   2.18137   2.18509   2.20158
 Alpha virt. eigenvalues --    2.21243   2.21501   2.23838   2.25278   2.25887
 Alpha virt. eigenvalues --    2.28313   2.28380   2.30231   2.31813   2.33545
 Alpha virt. eigenvalues --    2.34372   2.35475   2.37457   2.37740   2.40028
 Alpha virt. eigenvalues --    2.40763   2.44164   2.44590   2.45258   2.46047
 Alpha virt. eigenvalues --    2.48904   2.49203   2.49704   2.51956   2.53182
 Alpha virt. eigenvalues --    2.56916   2.59735   2.61617   2.65792   2.67629
 Alpha virt. eigenvalues --    2.71762   2.74088   2.77165   2.80508   2.81461
 Alpha virt. eigenvalues --    2.83815   2.85953   2.88531   2.96024   2.98748
 Alpha virt. eigenvalues --    3.03260   3.04185   3.04846   3.09920   3.17051
 Alpha virt. eigenvalues --    3.24151   3.29473   3.35674   3.37152   3.51346
 Alpha virt. eigenvalues --    3.63467   3.70726   3.79634   4.10095   4.22157
          Condensed to atoms (all electrons):
               1          2          3          4          5          6
     1  C   10.625491  -2.581806  -1.050456  -1.076844   0.232048  -0.445377
     2  C   -2.581806  11.954330  -2.248587   0.499957  -0.047921   0.311133
     3  C   -1.050456  -2.248587  14.569952  -0.780808  -0.999730   0.174546
     4  C   -1.076844   0.499957  -0.780808   6.053032   0.021469   0.058984
     5  C    0.232048  -0.047921  -0.999730   0.021469   6.879512  -0.103042
     6  H   -0.445377   0.311133   0.174546   0.058984  -0.103042   1.636431
     7  S   -0.360108  -0.168793  -0.299100   0.123414   0.083398  -0.031314
     8  H   -0.015398   0.107174  -0.071061   0.029693   0.186265  -0.060551
     9  C    0.465747  -0.982583  -2.802185   0.230300   0.122656  -0.083198
    10  S    0.005470   0.063877  -0.462344   0.031802  -0.052521  -0.006576
    11  C    0.062321   0.083897  -0.094873  -0.085407  -0.024842  -0.001286
    12  C   -0.107368  -0.101357   0.573763   0.214049  -0.000074  -0.000216
    13  C   -0.276198  -0.712765  -0.322014  -0.460705   0.046999   0.039934
    14  H    0.044149  -0.034452   0.050891   0.118901  -0.008747   0.002940
    15  S   -0.001842   0.007198  -0.063832  -0.005674   0.000856  -0.000106
    16  C    0.002007  -0.000442  -0.019015  -0.002129  -0.000427   0.000037
    17  C    0.006660  -0.008485  -0.261889  -0.016390   0.000139   0.000264
    18  H    0.000142   0.000561  -0.002002  -0.000491  -0.000042   0.000006
    19  H   -0.000292   0.001709  -0.003405   0.000509   0.000207  -0.000035
    20  H    0.070559   0.006793   0.062721   0.002535   0.018094  -0.018304
    21  H   -0.014890   0.008470  -0.053023   0.341429   0.006277  -0.000063
    22  H   -0.053500   0.042928  -0.080161   0.297200  -0.010653   0.003018
               7          8          9         10         11         12
     1  C   -0.360108  -0.015398   0.465747   0.005470   0.062321  -0.107368
     2  C   -0.168793   0.107174  -0.982583   0.063877   0.083897  -0.101357
     3  C   -0.299100  -0.071061  -2.802185  -0.462344  -0.094873   0.573763
     4  C    0.123414   0.029693   0.230300   0.031802  -0.085407   0.214049
     5  C    0.083398   0.186265   0.122656  -0.052521  -0.024842  -0.000074
     6  H   -0.031314  -0.060551  -0.083198  -0.006576  -0.001286  -0.000216
     7  S   16.473727  -0.076508  -0.155750   0.116823  -0.015540  -0.022673
     8  H   -0.076508   1.249071   0.002077   0.010064   0.003646  -0.001702
     9  C   -0.155750   0.002077  13.172045   0.165028  -0.781889   0.071252
    10  S    0.116823   0.010064   0.165028  16.880469  -0.013893  -0.412437
    11  C   -0.015540   0.003646  -0.781889  -0.013893  10.704077  -0.998602
    12  C   -0.022673  -0.001702   0.071252  -0.412437  -0.998602  13.576145
    13  C   -0.186429  -0.008626  -3.369380  -0.755782   0.006562  -4.721812
    14  H   -0.004201  -0.000745   0.465269   0.006317  -0.107650   0.544243
    15  S    0.000873   0.000008  -0.395541   0.142737   0.210156  -0.786950
    16  C   -0.004478  -0.000006   0.052940  -0.117048  -0.108801  -1.045659
    17  C    0.026731  -0.000200  -0.208177  -0.156372  -2.936550  -0.386050
    18  H   -0.000173  -0.000002   0.005530   0.011178   0.083904  -0.065725
    19  H    0.001194   0.000032   0.081039   0.041602   0.553921   0.015474
    20  H   -0.010445   0.000536   0.009538   0.001834  -0.000559   0.024709
    21  H    0.010634   0.001589   0.006333   0.003135  -0.005259  -0.020485
    22  H    0.008073   0.000911   0.078314   0.003674  -0.002776  -0.043208
              13         14         15         16         17         18
     1  C   -0.276198   0.044149  -0.001842   0.002007   0.006660   0.000142
     2  C   -0.712765  -0.034452   0.007198  -0.000442  -0.008485   0.000561
     3  C   -0.322014   0.050891  -0.063832  -0.019015  -0.261889  -0.002002
     4  C   -0.460705   0.118901  -0.005674  -0.002129  -0.016390  -0.000491
     5  C    0.046999  -0.008747   0.000856  -0.000427   0.000139  -0.000042
     6  H    0.039934   0.002940  -0.000106   0.000037   0.000264   0.000006
     7  S   -0.186429  -0.004201   0.000873  -0.004478   0.026731  -0.000173
     8  H   -0.008626  -0.000745   0.000008  -0.000006  -0.000200  -0.000002
     9  C   -3.369380   0.465269  -0.395541   0.052940  -0.208177   0.005530
    10  S   -0.755782   0.006317   0.142737  -0.117048  -0.156372   0.011178
    11  C    0.006562  -0.107650   0.210156  -0.108801  -2.936550   0.083904
    12  C   -4.721812   0.544243  -0.786950  -1.045659  -0.386050  -0.065725
    13  C   17.446101  -1.440295   0.311280   0.063286  -0.261440   0.024818
    14  H   -1.440295   2.157470  -0.038195   0.021055  -0.062533   0.002709
    15  S    0.311280  -0.038195  16.087824   0.240561  -0.103398  -0.136104
    16  C    0.063286   0.021055   0.240561   6.636274   0.316070   0.268917
    17  C   -0.261440  -0.062533  -0.103398   0.316070  10.132964  -0.037728
    18  H    0.024818   0.002709  -0.136104   0.268917  -0.037728   1.266835
    19  H   -0.057179  -0.000878  -0.000457  -0.128325  -0.481286  -0.062411
    20  H   -0.045747   0.034096  -0.000224   0.000420  -0.000240   0.000009
    21  H    0.042319  -0.083287  -0.002164  -0.001695   0.001402  -0.000123
    22  H    0.033764  -0.050437   0.001103  -0.001505  -0.001133  -0.000011
              19         20         21         22
     1  C   -0.000292   0.070559  -0.014890  -0.053500
     2  C    0.001709   0.006793   0.008470   0.042928
     3  C   -0.003405   0.062721  -0.053023  -0.080161
     4  C    0.000509   0.002535   0.341429   0.297200
     5  C    0.000207   0.018094   0.006277  -0.010653
     6  H   -0.000035  -0.018304  -0.000063   0.003018
     7  S    0.001194  -0.010445   0.010634   0.008073
     8  H    0.000032   0.000536   0.001589   0.000911
     9  C    0.081039   0.009538   0.006333   0.078314
    10  S    0.041602   0.001834   0.003135   0.003674
    11  C    0.553921  -0.000559  -0.005259  -0.002776
    12  C    0.015474   0.024709  -0.020485  -0.043208
    13  C   -0.057179  -0.045747   0.042319   0.033764
    14  H   -0.000878   0.034096  -0.083287  -0.050437
    15  S   -0.000457  -0.000224  -0.002164   0.001103
    16  C   -0.128325   0.000420  -0.001695  -0.001505
    17  C   -0.481286  -0.000240   0.001402  -0.001133
    18  H   -0.062411   0.000009  -0.000123  -0.000011
    19  H    1.341177   0.000061   0.000125   0.000117
    20  H    0.000061   1.480685  -0.184533  -0.192035
    21  H    0.000125  -0.184533   0.782961  -0.083540
    22  H    0.000117  -0.192035  -0.083540   0.826625
 Mulliken charges:
               1
     1  C    0.469484
     2  C   -0.200833
     3  C    0.182612
     4  C    0.405174
     5  C   -0.349922
     6  H   -0.477225
     7  S    0.490645
     8  H   -0.356267
     9  C   -0.149365
    10  S    0.492965
    11  C   -0.530558
    12  C   -0.305315
    13  C    0.603308
    14  H   -0.616622
    15  S    0.531891
    16  C   -0.172038
    17  C    0.437640
    18  H   -0.359794
    19  H   -0.302898
    20  H   -0.260501
    21  H    0.244387
    22  H    0.223232
 Sum of Mulliken charges =  -0.00000
 Mulliken charges with hydrogens summed into heavy atoms:
               1
     1  C   -0.007740
     2  C   -0.200833
     3  C    0.182612
     4  C    0.612292
     5  C   -0.706189
     7  S    0.490645
     9  C   -0.149365
    10  S    0.492965
    11  C   -0.530558
    12  C   -0.305315
    13  C   -0.013313
    15  S    0.531891
    16  C   -0.531832
    17  C    0.134742
 Electronic spatial extent (au):  <R**2>=           4385.2420
 Charge=             -0.0000 electrons
 Dipole moment (field-independent basis, Debye):
    X=             -0.4871    Y=              1.0620    Z=              0.0883  Tot=              1.1717
 Quadrupole moment (field-independent basis, Debye-Ang):
   XX=            -87.2320   YY=            -97.9371   ZZ=           -112.1790
   XY=             -6.5734   XZ=              0.5019   YZ=             -0.3359
 Traceless Quadrupole moment (field-independent basis, Debye-Ang):
   XX=             11.8840   YY=              1.1789   ZZ=            -13.0630
   XY=             -6.5734   XZ=              0.5019   YZ=             -0.3359
 Octapole moment (field-independent basis, Debye-Ang**2):
  XXX=             -3.6560  YYY=              4.0114  ZZZ=              0.5836  XYY=             -5.7782
  XXY=            -18.1834  XXZ=             -0.4438  XZZ=             -0.9590  YZZ=              1.9829
  YYZ=              0.8603  XYZ=             -6.7737
 Hexadecapole moment (field-independent basis, Debye-Ang**3):
 XXXX=          -4174.9745 YYYY=          -1142.5431 ZZZZ=           -178.9150 XXXY=            -34.8123
 XXXZ=             16.5785 YYYX=            -42.6074 YYYZ=             -6.1387 ZZZX=             -2.7495
 ZZZY=              1.7350 XXYY=           -937.5149 XXZZ=           -937.1074 YYZZ=           -234.3024
 XXYZ=              7.6596 YYXZ=              3.1982 ZZXY=              2.2216
 N-N= 1.118903164485D+03 E-N=-6.057010394535D+03  KE= 1.612935979347D+03
 Unable to Open any file for archive entry.
 1\1\GINC-CX3-12-29\FOpt\RMP2-FC\Aug-CC-pVDZ\C11H8S3\NS5018\27-Oct-2021
 \0\\# opt=modredundant mp2/aug-cc-pvdz\\pBTTT_165.pdb\\0,1\C,-3.979261
 3255,0.7843063442,0.0076345607\C,-2.6060327999,1.1482202484,0.12163199
 15\C,-1.7576915243,0.0295387381,0.0038908504\C,-2.1375144779,2.5589856
 145,0.3735805135\C,-4.1832947788,-0.5763388262,-0.1976760264\H,-4.8015
 853278,1.5008230008,0.0833133646\S,-2.6816608579,-1.4309775179,-0.2666
 181139\H,-5.1239662768,-1.1163184451,-0.3079987034\C,-0.305379745,-0.0
 216490197,0.0327211733\S,0.5066833905,-1.579558976,0.2621697355\C,2.07
 62989139,-0.8394199415,0.1188950186\C,1.9537273371,0.5561938344,-0.086
 7327554\C,0.6126977809,1.0223728518,-0.1440313133\H,0.3176400897,2.052
 2468472,-0.3401651262\S,3.5245145453,1.2983015132,-0.2207828526\C,4.31
 35963954,-0.2475288577,-0.0023616875\C,3.4232507395,-1.3011453348,0.16
 93300357\H,5.4035719571,-0.2934711822,-0.0133983265\H,3.7405529953,-2.
 3345967713,0.318991687\H,-2.9795226579,3.1823685282,0.7103038296\H,-1.
 7245325181,3.0188256347,-0.540707915\H,-1.3540918545,2.5838217167,1.14
 90100598\\Version=ES64L-G16RevC.01\State=1-A\HF=-1613.800966\MP2=-1615
 .7515629\RMSD=5.003e-09\RMSF=4.203e-04\Dipole=-0.0850031,0.3052435,0.0
 209729\PG=C01 [X(C11H8S3)]\\@
 The archive entry for this job was punched.


 There was a great rattling of the words for the fewness of ideas.
                   -- Charles Baxter in Gryphon
 Job cpu time:       0 days 12 hours 59 minutes 47.3 seconds.
 Elapsed time:       0 days  0 hours 55 minutes 30.7 seconds.
 File lengths (MBytes):  RWF=  36389 Int=      0 D2E=      0 Chk=     18 Scr=      1
 Normal termination of Gaussian 16 at Wed Oct 27 07:28:09 2021.
