 Entering Gaussian System, Link 0=g16
 Input=pBTTT_-20.gjf
 Output=pBTTT_-20.log
 Initial command:
 /apps/gaussian/g16-c01-avx/g16/l1.exe "/tmp/pbs.4766302[155].pbs/Gau-2533282.inp" -scrdir="/tmp/pbs.4766302[155].pbs/"
 Entering Link 1 = /apps/gaussian/g16-c01-avx/g16/l1.exe PID=   2533283.
  
 Copyright (c) 1988-2019, Gaussian, Inc.  All Rights Reserved.
  
 This is part of the Gaussian(R) 16 program.  It is based on
 the Gaussian(R) 09 system (copyright 2009, Gaussian, Inc.),
 the Gaussian(R) 03 system (copyright 2003, Gaussian, Inc.),
 the Gaussian(R) 98 system (copyright 1998, Gaussian, Inc.),
 the Gaussian(R) 94 system (copyright 1995, Gaussian, Inc.),
 the Gaussian 92(TM) system (copyright 1992, Gaussian, Inc.),
 the Gaussian 90(TM) system (copyright 1990, Gaussian, Inc.),
 the Gaussian 88(TM) system (copyright 1988, Gaussian, Inc.),
 the Gaussian 86(TM) system (copyright 1986, Carnegie Mellon
 University), and the Gaussian 82(TM) system (copyright 1983,
 Carnegie Mellon University). Gaussian is a federally registered
 trademark of Gaussian, Inc.
  
 This software contains proprietary and confidential information,
 including trade secrets, belonging to Gaussian, Inc.
  
 This software is provided under written license and may be
 used, copied, transmitted, or stored only in accord with that
 written license.
  
 The following legend is applicable only to US Government
 contracts under FAR:
  
                    RESTRICTED RIGHTS LEGEND
  
 Use, reproduction and disclosure by the US Government is
 subject to restrictions as set forth in subparagraphs (a)
 and (c) of the Commercial Computer Software - Restricted
 Rights clause in FAR 52.227-19.
  
 Gaussian, Inc.
 340 Quinnipiac St., Bldg. 40, Wallingford CT 06492
  
  
 ---------------------------------------------------------------
 Warning -- This program may not be used in any manner that
 competes with the business of Gaussian, Inc. or will provide
 assistance to any competitor of Gaussian, Inc.  The licensee
 of this program is prohibited from giving any competitor of
 Gaussian, Inc. access to this program.  By using this program,
 the user acknowledges that Gaussian, Inc. is engaged in the
 business of creating and licensing software in the field of
 computational chemistry and represents and warrants to the
 licensee that it is not a competitor of Gaussian, Inc. and that
 it will not use this program in any manner prohibited above.
 ---------------------------------------------------------------
  

 Cite this work as:
 Gaussian 16, Revision C.01,
 M. J. Frisch, G. W. Trucks, H. B. Schlegel, G. E. Scuseria, 
 M. A. Robb, J. R. Cheeseman, G. Scalmani, V. Barone, 
 G. A. Petersson, H. Nakatsuji, X. Li, M. Caricato, A. V. Marenich, 
 J. Bloino, B. G. Janesko, R. Gomperts, B. Mennucci, H. P. Hratchian, 
 J. V. Ortiz, A. F. Izmaylov, J. L. Sonnenberg, D. Williams-Young, 
 F. Ding, F. Lipparini, F. Egidi, J. Goings, B. Peng, A. Petrone, 
 T. Henderson, D. Ranasinghe, V. G. Zakrzewski, J. Gao, N. Rega, 
 G. Zheng, W. Liang, M. Hada, M. Ehara, K. Toyota, R. Fukuda, 
 J. Hasegawa, M. Ishida, T. Nakajima, Y. Honda, O. Kitao, H. Nakai, 
 T. Vreven, K. Throssell, J. A. Montgomery, Jr., J. E. Peralta, 
 F. Ogliaro, M. J. Bearpark, J. J. Heyd, E. N. Brothers, K. N. Kudin, 
 V. N. Staroverov, T. A. Keith, R. Kobayashi, J. Normand, 
 K. Raghavachari, A. P. Rendell, J. C. Burant, S. S. Iyengar, 
 J. Tomasi, M. Cossi, J. M. Millam, M. Klene, C. Adamo, R. Cammi, 
 J. W. Ochterski, R. L. Martin, K. Morokuma, O. Farkas, 
 J. B. Foresman, and D. J. Fox, Gaussian, Inc., Wallingford CT, 2019.
 
 ******************************************
 Gaussian 16:  ES64L-G16RevC.01  3-Jul-2019
                27-Oct-2021 
 ******************************************
 %mem=100GB
 %nprocshared=16
 Will use up to   16 processors via shared memory.
 ----------------------------------
 # opt=modredundant mp2/aug-cc-pvdz
 ----------------------------------
 1/18=120,19=15,38=1/1,3;
 2/9=110,12=2,17=6,18=5,40=1/2;
 3/5=16,7=10,11=9,25=1,30=1,71=1/1,2,3;
 4//1;
 5/5=2,38=5/2;
 8/6=4,10=1/1;
 9/15=2,16=-3/6;
 10/5=1/2;
 6/7=2,8=2,9=2,10=2/1;
 7/12=2/1,2,3,16;
 1/18=20,19=15/3(2);
 2/9=110/2;
 99//99;
 2/9=110/2;
 3/5=16,7=10,11=9,25=1,30=1,71=1/1,2,3;
 4/5=5,16=3,69=1/1;
 5/5=2,38=5/2;
 8/6=4,10=1/1;
 9/15=2,16=-3/6;
 10/5=1/2;
 7/12=2/1,2,3,16;
 1/18=20,19=15/3(-8);
 2/9=110/2;
 6/7=2,8=2,9=2,10=2/1;
 99/9=10/99;
 -------------
 pBTTT_-20.pdb
 -------------
 Symbolic Z-matrix:
 Charge =  0 Multiplicity = 1
 C                    -4.04      0.258     0.102 
 C                    -2.716     0.825     0.185 
 C                    -1.749    -0.121     0.029 
 C                    -2.518     2.3       0.435 
 C                    -4.051    -1.071    -0.117 
 H                    -4.936     0.849     0.214 
 S                    -2.452    -1.701    -0.246 
 H                    -4.904    -1.72     -0.209 
 C                    -0.284    -0.007     0.017 
 S                     0.536     1.523    -0.295 
 C                     2.088     0.761    -0.158 
 C                     1.958    -0.57      0.108 
 C                     0.603    -1.015     0.214 
 H                     0.313    -2.029     0.433 
 S                     3.512    -1.332     0.257 
 C                     4.308     0.19     -0.049 
 C                     3.448     1.21     -0.249 
 H                     5.384     0.234    -0.062 
 H                     3.754     2.223    -0.452 
 H                    -3.443     2.737     0.81 
 H                    -2.252     2.828    -0.481 
 H                    -1.738     2.485     1.17 
 
 The following ModRedundant input section has been read:
 D       2       3       9      10 F                                           
 

 GradGradGradGradGradGradGradGradGradGradGradGradGradGradGradGradGradGrad
 Berny optimization.
 Initialization pass.
                           ----------------------------
                           !    Initial Parameters    !
                           ! (Angstroms and Degrees)  !
 --------------------------                            --------------------------
 ! Name  Definition              Value          Derivative Info.                !
 --------------------------------------------------------------------------------
 ! R1    R(1,2)                  1.4427         estimate D2E/DX2                !
 ! R2    R(1,5)                  1.347          estimate D2E/DX2                !
 ! R3    R(1,6)                  1.0792         estimate D2E/DX2                !
 ! R4    R(2,3)                  1.3617         estimate D2E/DX2                !
 ! R5    R(2,4)                  1.5091         estimate D2E/DX2                !
 ! R6    R(3,7)                  1.7511         estimate D2E/DX2                !
 ! R7    R(3,9)                  1.4695         estimate D2E/DX2                !
 ! R8    R(4,20)                 1.0896         estimate D2E/DX2                !
 ! R9    R(4,21)                 1.0902         estimate D2E/DX2                !
 ! R10   R(4,22)                 1.0876         estimate D2E/DX2                !
 ! R11   R(5,7)                  1.7235         estimate D2E/DX2                !
 ! R12   R(5,8)                  1.0758         estimate D2E/DX2                !
 ! R13   R(9,10)                 1.7637         estimate D2E/DX2                !
 ! R14   R(9,13)                 1.3571         estimate D2E/DX2                !
 ! R15   R(10,11)                1.7344         estimate D2E/DX2                !
 ! R16   R(11,12)                1.3635         estimate D2E/DX2                !
 ! R17   R(11,17)                1.4351         estimate D2E/DX2                !
 ! R18   R(12,13)                1.4301         estimate D2E/DX2                !
 ! R19   R(12,15)                1.7372         estimate D2E/DX2                !
 ! R20   R(13,14)                1.0772         estimate D2E/DX2                !
 ! R21   R(15,16)                1.7446         estimate D2E/DX2                !
 ! R22   R(16,17)                1.3491         estimate D2E/DX2                !
 ! R23   R(16,18)                1.077          estimate D2E/DX2                !
 ! R24   R(17,19)                1.0775         estimate D2E/DX2                !
 ! A1    A(2,1,5)              113.8674         estimate D2E/DX2                !
 ! A2    A(2,1,6)              122.7348         estimate D2E/DX2                !
 ! A3    A(5,1,6)              123.3961         estimate D2E/DX2                !
 ! A4    A(1,2,3)              111.844          estimate D2E/DX2                !
 ! A5    A(1,2,4)              120.9361         estimate D2E/DX2                !
 ! A6    A(3,2,4)              127.2156         estimate D2E/DX2                !
 ! A7    A(2,3,7)              111.0837         estimate D2E/DX2                !
 ! A8    A(2,3,9)              130.9195         estimate D2E/DX2                !
 ! A9    A(7,3,9)              117.967          estimate D2E/DX2                !
 ! A10   A(2,4,20)             109.733          estimate D2E/DX2                !
 ! A11   A(2,4,21)             111.4807         estimate D2E/DX2                !
 ! A12   A(2,4,22)             111.8584         estimate D2E/DX2                !
 ! A13   A(20,4,21)            107.5811         estimate D2E/DX2                !
 ! A14   A(20,4,22)            107.9408         estimate D2E/DX2                !
 ! A15   A(21,4,22)            108.086          estimate D2E/DX2                !
 ! A16   A(1,5,7)              111.4235         estimate D2E/DX2                !
 ! A17   A(1,5,8)              127.9972         estimate D2E/DX2                !
 ! A18   A(7,5,8)              120.5792         estimate D2E/DX2                !
 ! A19   A(3,7,5)               91.7701         estimate D2E/DX2                !
 ! A20   A(3,9,10)             122.1581         estimate D2E/DX2                !
 ! A21   A(3,9,13)             126.3569         estimate D2E/DX2                !
 ! A22   A(10,9,13)            111.4783         estimate D2E/DX2                !
 ! A23   A(9,10,11)             91.1995         estimate D2E/DX2                !
 ! A24   A(10,11,12)           111.0363         estimate D2E/DX2                !
 ! A25   A(10,11,17)           134.8738         estimate D2E/DX2                !
 ! A26   A(12,11,17)           114.0874         estimate D2E/DX2                !
 ! A27   A(11,12,13)           114.1123         estimate D2E/DX2                !
 ! A28   A(11,12,15)           111.0771         estimate D2E/DX2                !
 ! A29   A(13,12,15)           134.8065         estimate D2E/DX2                !
 ! A30   A(9,13,12)            112.1723         estimate D2E/DX2                !
 ! A31   A(9,13,14)            123.5573         estimate D2E/DX2                !
 ! A32   A(12,13,14)           124.2684         estimate D2E/DX2                !
 ! A33   A(12,15,16)            90.5979         estimate D2E/DX2                !
 ! A34   A(15,16,17)           113.2499         estimate D2E/DX2                !
 ! A35   A(15,16,18)           119.5776         estimate D2E/DX2                !
 ! A36   A(17,16,18)           127.1725         estimate D2E/DX2                !
 ! A37   A(11,17,16)           110.9875         estimate D2E/DX2                !
 ! A38   A(11,17,19)           125.115          estimate D2E/DX2                !
 ! A39   A(16,17,19)           123.8973         estimate D2E/DX2                !
 ! D1    D(5,1,2,3)             -0.3397         estimate D2E/DX2                !
 ! D2    D(5,1,2,4)           -179.6327         estimate D2E/DX2                !
 ! D3    D(6,1,2,3)            179.194          estimate D2E/DX2                !
 ! D4    D(6,1,2,4)             -0.0989         estimate D2E/DX2                !
 ! D5    D(2,1,5,7)             -0.4404         estimate D2E/DX2                !
 ! D6    D(2,1,5,8)            179.4503         estimate D2E/DX2                !
 ! D7    D(6,1,5,7)           -179.9706         estimate D2E/DX2                !
 ! D8    D(6,1,5,8)             -0.0799         estimate D2E/DX2                !
 ! D9    D(1,2,3,7)              0.9433         estimate D2E/DX2                !
 ! D10   D(1,2,3,9)            178.8751         estimate D2E/DX2                !
 ! D11   D(4,2,3,7)           -179.8182         estimate D2E/DX2                !
 ! D12   D(4,2,3,9)             -1.8865         estimate D2E/DX2                !
 ! D13   D(1,2,4,20)            16.2175         estimate D2E/DX2                !
 ! D14   D(1,2,4,21)          -102.8612         estimate D2E/DX2                !
 ! D15   D(1,2,4,22)           135.9859         estimate D2E/DX2                !
 ! D16   D(3,2,4,20)          -162.9584         estimate D2E/DX2                !
 ! D17   D(3,2,4,21)            77.9629         estimate D2E/DX2                !
 ! D18   D(3,2,4,22)           -43.19           estimate D2E/DX2                !
 ! D19   D(2,3,7,5)             -1.0184         estimate D2E/DX2                !
 ! D20   D(9,3,7,5)           -179.249          estimate D2E/DX2                !
 ! D21   D(2,3,9,10)           -20.0714         Frozen                          !
 ! D22   D(2,3,9,13)           160.9545         estimate D2E/DX2                !
 ! D23   D(7,3,9,10)           157.7436         estimate D2E/DX2                !
 ! D24   D(7,3,9,13)           -21.2305         estimate D2E/DX2                !
 ! D25   D(1,5,7,3)              0.8226         estimate D2E/DX2                !
 ! D26   D(8,5,7,3)           -179.0774         estimate D2E/DX2                !
 ! D27   D(3,9,10,11)         -178.8971         estimate D2E/DX2                !
 ! D28   D(13,9,10,11)           0.2151         estimate D2E/DX2                !
 ! D29   D(3,9,13,12)          178.7035         estimate D2E/DX2                !
 ! D30   D(3,9,13,14)           -1.7933         estimate D2E/DX2                !
 ! D31   D(10,9,13,12)          -0.3633         estimate D2E/DX2                !
 ! D32   D(10,9,13,14)         179.14           estimate D2E/DX2                !
 ! D33   D(9,10,11,12)          -0.0023         estimate D2E/DX2                !
 ! D34   D(9,10,11,17)        -179.3889         estimate D2E/DX2                !
 ! D35   D(10,11,12,13)         -0.2041         estimate D2E/DX2                !
 ! D36   D(10,11,12,15)       -179.5833         estimate D2E/DX2                !
 ! D37   D(17,11,12,13)        179.3197         estimate D2E/DX2                !
 ! D38   D(17,11,12,15)         -0.0595         estimate D2E/DX2                !
 ! D39   D(10,11,17,16)        179.5032         estimate D2E/DX2                !
 ! D40   D(10,11,17,19)         -0.6497         estimate D2E/DX2                !
 ! D41   D(12,11,17,16)          0.1304         estimate D2E/DX2                !
 ! D42   D(12,11,17,19)        179.9775         estimate D2E/DX2                !
 ! D43   D(11,12,13,9)           0.3745         estimate D2E/DX2                !
 ! D44   D(11,12,13,14)       -179.1246         estimate D2E/DX2                !
 ! D45   D(15,12,13,9)         179.5581         estimate D2E/DX2                !
 ! D46   D(15,12,13,14)          0.0591         estimate D2E/DX2                !
 ! D47   D(11,12,15,16)         -0.0168         estimate D2E/DX2                !
 ! D48   D(13,12,15,16)       -179.2183         estimate D2E/DX2                !
 ! D49   D(12,15,16,17)          0.094          estimate D2E/DX2                !
 ! D50   D(12,15,16,18)       -179.8867         estimate D2E/DX2                !
 ! D51   D(15,16,17,11)         -0.1412         estimate D2E/DX2                !
 ! D52   D(15,16,17,19)       -179.9906         estimate D2E/DX2                !
 ! D53   D(18,16,17,11)        179.8378         estimate D2E/DX2                !
 ! D54   D(18,16,17,19)         -0.0116         estimate D2E/DX2                !
 --------------------------------------------------------------------------------
 Trust Radius=3.00D-01 FncErr=1.00D-07 GrdErr=1.00D-07 EigMax=2.50D+02 EigMin=1.00D-04
 Number of steps in this run=    127 maximum allowed number of steps=    132.
 GradGradGradGradGradGradGradGradGradGradGradGradGradGradGradGradGradGrad

                          Input orientation:                          
 ---------------------------------------------------------------------
 Center     Atomic      Atomic             Coordinates (Angstroms)
 Number     Number       Type             X           Y           Z
 ---------------------------------------------------------------------
      1          6           0       -4.040000    0.258000    0.102000
      2          6           0       -2.716000    0.825000    0.185000
      3          6           0       -1.749000   -0.121000    0.029000
      4          6           0       -2.518000    2.300000    0.435000
      5          6           0       -4.051000   -1.071000   -0.117000
      6          1           0       -4.936000    0.849000    0.214000
      7         16           0       -2.452000   -1.701000   -0.246000
      8          1           0       -4.904000   -1.720000   -0.209000
      9          6           0       -0.284000   -0.007000    0.017000
     10         16           0        0.536000    1.523000   -0.295000
     11          6           0        2.088000    0.761000   -0.158000
     12          6           0        1.958000   -0.570000    0.108000
     13          6           0        0.603000   -1.015000    0.214000
     14          1           0        0.313000   -2.029000    0.433000
     15         16           0        3.512000   -1.332000    0.257000
     16          6           0        4.308000    0.190000   -0.049000
     17          6           0        3.448000    1.210000   -0.249000
     18          1           0        5.384000    0.234000   -0.062000
     19          1           0        3.754000    2.223000   -0.452000
     20          1           0       -3.443000    2.737000    0.810000
     21          1           0       -2.252000    2.828000   -0.481000
     22          1           0       -1.738000    2.485000    1.170000
 ---------------------------------------------------------------------
                    Distance matrix (angstroms):
                    1          2          3          4          5
     1  C    0.000000
     2  C    1.442690   0.000000
     3  C    2.323285   1.361742   0.000000
     4  C    2.568489   1.509082   2.572438   0.000000
     5  C    1.346968   2.338428   2.494598   3.744120   0.000000
     6  H    1.079185   2.220319   3.336479   2.828598   2.139903
     7  S    2.545688   2.576069   1.751067   4.059078   1.723468
     8  H    2.180757   3.379291   3.545063   4.718912   1.075767
     9  C    3.766296   2.575863   1.469478   3.238476   3.916675
    10  S    4.764201   3.360522   2.833538   3.234740   5.272674
    11  C    6.154104   4.816655   3.941505   4.892382   6.406655
    12  C    6.054884   4.878343   3.734929   5.327139   6.034046
    13  C    4.815654   3.795023   2.522967   4.558367   4.666092
    14  H    4.928340   4.169132   2.838226   5.172505   4.501640
    15  S    7.719121   6.591344   5.403390   7.041591   7.576738
    16  C    8.349642   7.056526   6.065481   7.161050   8.453853
    17  C    7.556431   6.191242   5.371932   6.103205   7.839349
    18  H    9.425457   8.125287   7.142408   8.182724   9.524982
    19  H    8.056958   6.649893   6.000725   6.334878   8.478248
    20  H    2.646340   2.138901   3.412882   1.089596   3.966088
    21  H    3.184609   2.161217   3.034750   1.090227   4.309420
    22  H    3.376293   2.163864   2.844862   1.087589   4.432998
                    6          7          8          9         10
     6  H    0.000000
     7  S    3.589479   0.000000
     8  H    2.603788   2.452353   0.000000
     9  C    4.734200   2.763879   4.932529   0.000000
    10  S    5.536799   4.395989   6.333881   1.763702   0.000000
    11  C    7.034394   5.165345   7.419301   2.499367   1.734392
    12  C    7.039320   4.566462   6.964914   2.313399   2.562253
    13  C    5.844229   3.164683   5.568034   1.357071   2.589404
    14  H    5.990229   2.865982   5.265428   2.148941   3.632687
    15  S    8.725097   5.996538   8.437817   4.027759   4.160806
    16  C    9.271191   7.022271   9.409285   4.596698   4.008165
    17  C    8.404531   6.579052   8.851124   3.934421   2.929135
    18  H   10.341992   8.073474  10.472949   5.673671   5.021844
    19  H    8.823125   7.345383   9.516683   4.636626   3.296995
    20  H    2.479679   4.668304   4.799764   4.258834   4.304331
    21  H    3.406365   4.539501   5.271754   3.486869   3.083920
    22  H    3.717208   4.476321   5.441252   3.107023   2.871018
                   11         12         13         14         15
    11  C    0.000000
    12  C    1.363531   0.000000
    13  C    2.344736   1.430135   0.000000
    14  H    3.359167   2.222686   1.077152   0.000000
    15  S    2.565278   1.737170   2.926537   3.278778   0.000000
    16  C    2.294847   2.474823   3.904897   4.595249   1.744631
    17  C    1.435090   2.348606   3.641294   4.558999   2.592662
    18  H    3.339246   3.523179   4.949155   5.575055   2.461402
    19  H    2.235942   3.367501   4.566947   5.541048   3.633080
    20  H    5.952610   6.371801   5.550030   6.079837   8.076794
    21  H    4.817927   5.442189   4.837634   5.568220   7.146603
    22  H    4.401595   4.911342   4.317895   5.012581   6.554812
                   16         17         18         19         20
    16  C    0.000000
    17  C    1.349074   0.000000
    18  H    1.076978   2.176153   0.000000
    19  H    2.145324   1.077504   2.600985   0.000000
    20  H    8.203846   7.137163   9.216362   7.324865   0.000000
    21  H    7.083733   5.929734   8.075450   6.036464   1.758819
    22  H    6.580813   5.525738   7.570186   5.732503   1.760718
                   21         22
    21  H    0.000000
    22  H    1.762852   0.000000
 Stoichiometry    C11H8S3
 Framework group  C1[X(C11H8S3)]
 Deg. of freedom    60
 Full point group                 C1      NOp   1
 Largest Abelian subgroup         C1      NOp   1
 Largest concise Abelian subgroup C1      NOp   1
                         Standard orientation:                         
 ---------------------------------------------------------------------
 Center     Atomic      Atomic             Coordinates (Angstroms)
 Number     Number       Type             X           Y           Z
 ---------------------------------------------------------------------
      1          6           0       -4.039958    0.258086    0.102156
      2          6           0       -2.715938    0.825039    0.185156
      3          6           0       -1.748971   -0.120995    0.029156
      4          6           0       -2.517886    2.300032    0.435156
      5          6           0       -4.051005   -1.070914   -0.116844
      6          1           0       -4.935937    0.849117    0.214156
      7         16           0       -2.452027   -1.700971   -0.245844
      8          1           0       -4.904028   -1.719884   -0.208844
      9          6           0       -0.283967   -0.007047    0.017156
     10         16           0        0.536087    1.522924   -0.294844
     11          6           0        2.088060    0.760869   -0.157844
     12          6           0        1.958013   -0.570127    0.108156
     13          6           0        0.602997   -1.015079    0.214156
     14          1           0        0.312961   -2.029068    0.433156
     15         16           0        3.511986   -1.332182    0.257156
     16          6           0        4.308040    0.189790   -0.048844
     17          6           0        3.448076    1.209821   -0.248844
     18          1           0        5.384041    0.233752   -0.061844
     19          1           0        3.754111    2.222810   -0.451844
     20          1           0       -3.442870    2.737064    0.810156
     21          1           0       -2.251867    2.828022   -0.480844
     22          1           0       -1.737879    2.485004    1.170156
 ---------------------------------------------------------------------
 Rotational constants (GHZ):           1.2642158           0.2830637           0.2343453
 Standard basis: Aug-CC-pVDZ (5D, 7F)
 There are   434 symmetry adapted cartesian basis functions of A   symmetry.
 There are   406 symmetry adapted basis functions of A   symmetry.
   406 basis functions,   804 primitive gaussians,   434 cartesian basis functions
    61 alpha electrons       61 beta electrons
       nuclear repulsion energy      1125.0990087354 Hartrees.
 NAtoms=   22 NActive=   22 NUniq=   22 SFac= 1.00D+00 NAtFMM=   60 NAOKFM=F Big=F
 Integral buffers will be    131072 words long.
 Raffenetti 1 integral format.
 Two-electron integral symmetry is turned on.
 One-electron integrals computed using PRISM.
 NBasis=   406 RedAO= T EigKep=  2.46D-06  NBF=   406
 NBsUse=   406 1.00D-06 EigRej= -1.00D+00 NBFU=   406
 ExpMin= 2.97D-02 ExpMax= 1.11D+05 ExpMxC= 1.07D+03 IAcc=3 IRadAn=         5 AccDes= 0.00D+00
 Harris functional with IExCor=  205 and IRadAn=       5 diagonalized for initial guess.
 HarFok:  IExCor=  205 AccDes= 0.00D+00 IRadAn=         5 IDoV= 1 UseB2=F ITyADJ=14
 ICtDFT=  3500011 ScaDFX=  1.000000  1.000000  1.000000  1.000000
 FoFCou: FMM=F IPFlag=           0 FMFlag=      100000 FMFlg1=           0
         NFxFlg=           0 DoJE=T BraDBF=F KetDBF=T FulRan=T
         wScrn=  0.000000 ICntrl=       500 IOpCl=  0 I1Cent=   200000004 NGrid=           0
         NMat0=    1 NMatS0=      1 NMatT0=    0 NMatD0=    1 NMtDS0=    0 NMtDT0=    0
 Petite list used in FoFCou.
 Requested convergence on RMS density matrix=1.00D-08 within 128 cycles.
 Requested convergence on MAX density matrix=1.00D-06.
 Requested convergence on             energy=1.00D-06.
 No special actions if energy rises.
 SCF Done:  E(RHF) =  -1613.81241668     A.U. after   17 cycles
            NFock= 17  Conv=0.69D-08     -V/T= 2.0000
 ExpMin= 2.97D-02 ExpMax= 1.11D+05 ExpMxC= 1.07D+03 IAcc=3 IRadAn=         5 AccDes= 0.00D+00
 HarFok:  IExCor=  205 AccDes= 0.00D+00 IRadAn=         5 IDoV=-2 UseB2=F ITyADJ=14
 ICtDFT= 12500011 ScaDFX=  1.000000  1.000000  1.000000  1.000000
 GSVD:  LWork=        -884 too small for GESVD, short by        3770 words or        3770 for optimal perf.
 Range of M.O.s used for correlation:    27   406
 NBasis=   406 NAE=    61 NBE=    61 NFC=    26 NFV=     0
 NROrb=    380 NOA=    35 NOB=    35 NVA=   345 NVB=   345

 **** Warning!!: The largest alpha MO coefficient is  0.10495193D+03

 Disk-based method using ON**2 memory for 35 occupieds at a time.
 Estimated scratch disk usage=  5832874724 words.
 Actual    scratch disk usage=  4756669668 words.
 JobTyp=1 Pass  1:  I=  27 to  61 NPSUse= 16 ParTrn=T ParDer=T DoDerP=T.
 (rs|ai) integrals will be sorted in core.
 Spin components of T(2) and E(2):
     alpha-alpha T2 =       0.1138362991D+00 E2=     -0.2649472950D+00
     alpha-beta  T2 =       0.5609242751D+00 E2=     -0.1399644979D+01
     beta-beta   T2 =       0.1138362991D+00 E2=     -0.2649472950D+00
 ANorm=    0.1337384340D+01
 E2 =    -0.1929539569D+01 EUMP2 =    -0.16157419562533D+04
          IDoAtm=1111111111111111111111
          Differentiating once with respect to electric field.
                with respect to dipole field.
          Differentiating once with respect to nuclear coordinates.
 Keep R1 ints in memory in canonical form, NReq=3454318301.
          There are     1 degrees of freedom in the 1st order CPHF.  IDoFFX=0 NUNeed=     1.
 LinEq1:  Iter=  0 NonCon=     1 RMS=2.71D-03 Max=6.27D-02 NDo=     1
 AX will form     1 AO Fock derivatives at one time.
 LinEq1:  Iter=  1 NonCon=     1 RMS=5.86D-04 Max=1.14D-02 NDo=     1
 LinEq1:  Iter=  2 NonCon=     1 RMS=3.23D-04 Max=1.54D-02 NDo=     1
 LinEq1:  Iter=  3 NonCon=     1 RMS=9.00D-05 Max=1.95D-03 NDo=     1
 LinEq1:  Iter=  4 NonCon=     1 RMS=3.59D-05 Max=7.89D-04 NDo=     1
 LinEq1:  Iter=  5 NonCon=     1 RMS=1.29D-05 Max=5.96D-04 NDo=     1
 LinEq1:  Iter=  6 NonCon=     1 RMS=5.04D-06 Max=2.23D-04 NDo=     1
 LinEq1:  Iter=  7 NonCon=     1 RMS=2.63D-06 Max=8.38D-05 NDo=     1
 LinEq1:  Iter=  8 NonCon=     1 RMS=1.09D-06 Max=4.60D-05 NDo=     1
 LinEq1:  Iter=  9 NonCon=     1 RMS=4.11D-07 Max=1.49D-05 NDo=     1
 LinEq1:  Iter= 10 NonCon=     1 RMS=1.47D-07 Max=6.07D-06 NDo=     1
 LinEq1:  Iter= 11 NonCon=     1 RMS=6.73D-08 Max=3.07D-06 NDo=     1
 LinEq1:  Iter= 12 NonCon=     1 RMS=2.39D-08 Max=4.77D-07 NDo=     1
 LinEq1:  Iter= 13 NonCon=     1 RMS=9.68D-09 Max=1.94D-07 NDo=     1
 LinEq1:  Iter= 14 NonCon=     1 RMS=3.45D-09 Max=8.24D-08 NDo=     1
 LinEq1:  Iter= 15 NonCon=     1 RMS=1.55D-09 Max=4.67D-08 NDo=     1
 LinEq1:  Iter= 16 NonCon=     1 RMS=6.28D-10 Max=1.95D-08 NDo=     1
 LinEq1:  Iter= 17 NonCon=     1 RMS=2.34D-10 Max=6.99D-09 NDo=     1
 LinEq1:  Iter= 18 NonCon=     1 RMS=6.85D-11 Max=1.59D-09 NDo=     1
 LinEq1:  Iter= 19 NonCon=     0 RMS=2.47D-11 Max=4.37D-10 NDo=     1
 Linear equations converged to 1.000D-10 1.000D-09 after    19 iterations.
 End of Minotr F.D. properties file   721 does not exist.
 End of Minotr F.D. properties file   722 does not exist.
 End of Minotr F.D. properties file   788 does not exist.

 **********************************************************************

            Population analysis using the SCF Density.

 **********************************************************************

 Orbital symmetries:
       Occupied  (A) (A) (A) (A) (A) (A) (A) (A) (A) (A) (A) (A)
                 (A) (A) (A) (A) (A) (A) (A) (A) (A) (A) (A) (A)
                 (A) (A) (A) (A) (A) (A) (A) (A) (A) (A) (A) (A)
                 (A) (A) (A) (A) (A) (A) (A) (A) (A) (A) (A) (A)
                 (A) (A) (A) (A) (A) (A) (A) (A) (A) (A) (A) (A)
                 (A)
       Virtual   (A) (A) (A) (A) (A) (A) (A) (A) (A) (A) (A) (A)
                 (A) (A) (A) (A) (A) (A) (A) (A) (A) (A) (A) (A)
                 (A) (A) (A) (A) (A) (A) (A) (A) (A) (A) (A) (A)
                 (A) (A) (A) (A) (A) (A) (A) (A) (A) (A) (A) (A)
                 (A) (A) (A) (A) (A) (A) (A) (A) (A) (A) (A) (A)
                 (A) (A) (A) (A) (A) (A) (A) (A) (A) (A) (A) (A)
                 (A) (A) (A) (A) (A) (A) (A) (A) (A) (A) (A) (A)
                 (A) (A) (A) (A) (A) (A) (A) (A) (A) (A) (A) (A)
                 (A) (A) (A) (A) (A) (A) (A) (A) (A) (A) (A) (A)
                 (A) (A) (A) (A) (A) (A) (A) (A) (A) (A) (A) (A)
                 (A) (A) (A) (A) (A) (A) (A) (A) (A) (A) (A) (A)
                 (A) (A) (A) (A) (A) (A) (A) (A) (A) (A) (A) (A)
                 (A) (A) (A) (A) (A) (A) (A) (A) (A) (A) (A) (A)
                 (A) (A) (A) (A) (A) (A) (A) (A) (A) (A) (A) (A)
                 (A) (A) (A) (A) (A) (A) (A) (A) (A) (A) (A) (A)
                 (A) (A) (A) (A) (A) (A) (A) (A) (A) (A) (A) (A)
                 (A) (A) (A) (A) (A) (A) (A) (A) (A) (A) (A) (A)
                 (A) (A) (A) (A) (A) (A) (A) (A) (A) (A) (A) (A)
                 (A) (A) (A) (A) (A) (A) (A) (A) (A) (A) (A) (A)
                 (A) (A) (A) (A) (A) (A) (A) (A) (A) (A) (A) (A)
                 (A) (A) (A) (A) (A) (A) (A) (A) (A) (A) (A) (A)
                 (A) (A) (A) (A) (A) (A) (A) (A) (A) (A) (A) (A)
                 (A) (A) (A) (A) (A) (A) (A) (A) (A) (A) (A) (A)
                 (A) (A) (A) (A) (A) (A) (A) (A) (A) (A) (A) (A)
                 (A) (A) (A) (A) (A) (A) (A) (A) (A) (A) (A) (A)
                 (A) (A) (A) (A) (A) (A) (A) (A) (A) (A) (A) (A)
                 (A) (A) (A) (A) (A) (A) (A) (A) (A) (A) (A) (A)
                 (A) (A) (A) (A) (A) (A) (A) (A) (A) (A) (A) (A)
                 (A) (A) (A) (A) (A) (A) (A) (A) (A)
 The electronic state is 1-A.
 Alpha  occ. eigenvalues --  -91.99113 -91.99014 -91.98465 -11.29270 -11.27996
 Alpha  occ. eigenvalues --  -11.27736 -11.27301 -11.27169 -11.27138 -11.25830
 Alpha  occ. eigenvalues --  -11.25678 -11.25544 -11.24454 -11.23815  -8.99298
 Alpha  occ. eigenvalues --   -8.99196  -8.98721  -6.67464  -6.67385  -6.67363
 Alpha  occ. eigenvalues --   -6.67285  -6.67174  -6.67079  -6.66892  -6.66798
 Alpha  occ. eigenvalues --   -6.66604  -1.21826  -1.18697  -1.12900  -1.04114
 Alpha  occ. eigenvalues --   -1.02806  -1.01774  -0.95565  -0.94762  -0.92177
 Alpha  occ. eigenvalues --   -0.82311  -0.77949  -0.76676  -0.71699  -0.70434
 Alpha  occ. eigenvalues --   -0.67616  -0.66973  -0.60498  -0.59265  -0.59043
 Alpha  occ. eigenvalues --   -0.56785  -0.56559  -0.54966  -0.53912  -0.52372
 Alpha  occ. eigenvalues --   -0.51793  -0.51669  -0.49658  -0.47163  -0.46761
 Alpha  occ. eigenvalues --   -0.45883  -0.39320  -0.35534  -0.34334  -0.32326
 Alpha  occ. eigenvalues --   -0.27915
 Alpha virt. eigenvalues --    0.03431   0.03468   0.04039   0.04777   0.04987
 Alpha virt. eigenvalues --    0.05866   0.06101   0.06603   0.07498   0.08505
 Alpha virt. eigenvalues --    0.09568   0.10010   0.10292   0.10482   0.10993
 Alpha virt. eigenvalues --    0.11846   0.12230   0.12569   0.12881   0.13102
 Alpha virt. eigenvalues --    0.13263   0.13783   0.14219   0.14319   0.15078
 Alpha virt. eigenvalues --    0.15173   0.15343   0.15410   0.16081   0.16465
 Alpha virt. eigenvalues --    0.16791   0.17505   0.17798   0.18355   0.18505
 Alpha virt. eigenvalues --    0.18743   0.19081   0.19731   0.20069   0.20356
 Alpha virt. eigenvalues --    0.20534   0.21288   0.21647   0.21751   0.22433
 Alpha virt. eigenvalues --    0.22901   0.23000   0.23382   0.23837   0.24454
 Alpha virt. eigenvalues --    0.24691   0.25558   0.26002   0.26180   0.26445
 Alpha virt. eigenvalues --    0.26766   0.27259   0.27649   0.28063   0.28419
 Alpha virt. eigenvalues --    0.29166   0.30197   0.30733   0.31392   0.31967
 Alpha virt. eigenvalues --    0.32402   0.33350   0.33415   0.33961   0.34248
 Alpha virt. eigenvalues --    0.34886   0.35209   0.35882   0.36561   0.36740
 Alpha virt. eigenvalues --    0.37382   0.38406   0.38830   0.39353   0.40019
 Alpha virt. eigenvalues --    0.40469   0.40703   0.41450   0.42128   0.42833
 Alpha virt. eigenvalues --    0.43691   0.43896   0.44462   0.45089   0.45578
 Alpha virt. eigenvalues --    0.45786   0.46134   0.46920   0.47198   0.48019
 Alpha virt. eigenvalues --    0.48325   0.48593   0.49466   0.49809   0.50913
 Alpha virt. eigenvalues --    0.51932   0.52534   0.53710   0.54008   0.54800
 Alpha virt. eigenvalues --    0.55768   0.55880   0.56069   0.57772   0.58813
 Alpha virt. eigenvalues --    0.59228   0.60292   0.60770   0.61392   0.61887
 Alpha virt. eigenvalues --    0.62481   0.62983   0.63291   0.63715   0.64564
 Alpha virt. eigenvalues --    0.64970   0.65573   0.66157   0.66190   0.66872
 Alpha virt. eigenvalues --    0.67189   0.67779   0.68201   0.68600   0.69650
 Alpha virt. eigenvalues --    0.69888   0.70243   0.70830   0.70935   0.71838
 Alpha virt. eigenvalues --    0.72340   0.72414   0.73122   0.74063   0.74419
 Alpha virt. eigenvalues --    0.74688   0.75002   0.76273   0.76810   0.77715
 Alpha virt. eigenvalues --    0.78035   0.78623   0.79074   0.80110   0.81182
 Alpha virt. eigenvalues --    0.81528   0.81878   0.83364   0.83930   0.84092
 Alpha virt. eigenvalues --    0.84468   0.85083   0.85749   0.86927   0.87626
 Alpha virt. eigenvalues --    0.87950   0.88785   0.89582   0.90203   0.90420
 Alpha virt. eigenvalues --    0.91664   0.92648   0.93584   0.93808   0.94251
 Alpha virt. eigenvalues --    0.96051   0.96221   0.96362   0.97288   0.97792
 Alpha virt. eigenvalues --    0.98465   0.98649   0.99039   1.00283   1.01732
 Alpha virt. eigenvalues --    1.02508   1.03527   1.04563   1.05196   1.05593
 Alpha virt. eigenvalues --    1.07160   1.07872   1.08492   1.09622   1.11037
 Alpha virt. eigenvalues --    1.11344   1.11426   1.13162   1.14773   1.16799
 Alpha virt. eigenvalues --    1.17180   1.18373   1.18938   1.20701   1.21165
 Alpha virt. eigenvalues --    1.22109   1.22602   1.23536   1.24965   1.25651
 Alpha virt. eigenvalues --    1.26150   1.27490   1.29458   1.29655   1.30234
 Alpha virt. eigenvalues --    1.30999   1.31669   1.32659   1.33439   1.33947
 Alpha virt. eigenvalues --    1.35754   1.36225   1.37364   1.40473   1.40519
 Alpha virt. eigenvalues --    1.42159   1.43216   1.43779   1.44813   1.45921
 Alpha virt. eigenvalues --    1.47365   1.49751   1.51787   1.52944   1.53344
 Alpha virt. eigenvalues --    1.55242   1.56082   1.57063   1.58450   1.59108
 Alpha virt. eigenvalues --    1.60501   1.61942   1.62905   1.64519   1.65535
 Alpha virt. eigenvalues --    1.66323   1.66756   1.68691   1.69067   1.70054
 Alpha virt. eigenvalues --    1.71071   1.71961   1.72354   1.73087   1.74394
 Alpha virt. eigenvalues --    1.74843   1.76871   1.77388   1.78427   1.79317
 Alpha virt. eigenvalues --    1.80620   1.81641   1.82455   1.83434   1.85185
 Alpha virt. eigenvalues --    1.86293   1.86536   1.87436   1.88475   1.90485
 Alpha virt. eigenvalues --    1.91490   1.92998   1.94108   1.95984   1.96883
 Alpha virt. eigenvalues --    1.97833   1.98545   1.99265   2.01249   2.02102
 Alpha virt. eigenvalues --    2.03721   2.05030   2.06379   2.08840   2.10000
 Alpha virt. eigenvalues --    2.11121   2.12034   2.13191   2.13698   2.14162
 Alpha virt. eigenvalues --    2.16829   2.18983   2.19741   2.21022   2.21316
 Alpha virt. eigenvalues --    2.22040   2.24341   2.24468   2.26882   2.28139
 Alpha virt. eigenvalues --    2.28649   2.31304   2.32869   2.35162   2.35464
 Alpha virt. eigenvalues --    2.36071   2.36774   2.38473   2.40853   2.41497
 Alpha virt. eigenvalues --    2.43038   2.44580   2.46645   2.47900   2.49554
 Alpha virt. eigenvalues --    2.50550   2.51649   2.52997   2.53912   2.57549
 Alpha virt. eigenvalues --    2.58406   2.61130   2.62997   2.67754   2.70020
 Alpha virt. eigenvalues --    2.73352   2.77500   2.80646   2.82535   2.85895
 Alpha virt. eigenvalues --    2.88037   2.90762   2.93293   2.96594   3.00967
 Alpha virt. eigenvalues --    3.02608   3.07858   3.09238   3.12967   3.19962
 Alpha virt. eigenvalues --    3.29383   3.31078   3.36878   3.44751   3.55213
 Alpha virt. eigenvalues --    3.67079   3.75932   3.83957   4.08543   4.20673
          Condensed to atoms (all electrons):
               1          2          3          4          5          6
     1  C   10.302311  -1.742993  -0.878177  -0.967656  -0.045431  -0.522724
     2  C   -1.742993  12.534867  -3.331308   0.429857  -0.054078   0.273470
     3  C   -0.878177  -3.331308  15.431330  -0.921235  -1.214462   0.110505
     4  C   -0.967656   0.429857  -0.921235   5.958606   0.057582   0.069400
     5  C   -0.045431  -0.054078  -1.214462   0.057582   7.074340  -0.043717
     6  H   -0.522724   0.273470   0.110505   0.069400  -0.043717   1.780933
     7  S   -0.616844   0.028916  -0.364432   0.139700   0.260512  -0.019302
     8  H    0.094299   0.142120  -0.078417   0.029318   0.089006  -0.065687
     9  C   -0.005369  -0.771947  -2.940966   0.003717   0.464142  -0.049608
    10  S   -0.164719   0.104339  -0.483191   0.119868   0.076184   0.009215
    11  C   -0.003557   0.001222   0.004629  -0.051546   0.032026   0.003848
    12  C   -0.045645  -0.019168   0.189227   0.094458  -0.034789  -0.004370
    13  C    0.041409  -1.065822   0.255695  -0.164724  -0.347496  -0.002101
    14  H   -0.020007   0.103767  -0.054456   0.016991   0.011112  -0.001312
    15  S    0.001117  -0.011675  -0.039656  -0.002093   0.001315   0.000055
    16  C   -0.000692  -0.008977   0.033279  -0.001878   0.000181   0.000075
    17  C    0.003406   0.047462  -0.373141  -0.043204   0.002927   0.000292
    18  H    0.000045   0.000079   0.000186  -0.000215  -0.000031   0.000006
    19  H    0.000044   0.001793  -0.004616  -0.000126   0.000370  -0.000002
    20  H    0.087103  -0.040581   0.034624   0.005802   0.023041  -0.024683
    21  H    0.010187   0.000137   0.007785   0.354194   0.003253   0.001001
    22  H   -0.040635   0.035459  -0.035895   0.291848  -0.016523   0.005660
               7          8          9         10         11         12
     1  C   -0.616844   0.094299  -0.005369  -0.164719  -0.003557  -0.045645
     2  C    0.028916   0.142120  -0.771947   0.104339   0.001222  -0.019168
     3  C   -0.364432  -0.078417  -2.940966  -0.483191   0.004629   0.189227
     4  C    0.139700   0.029318   0.003717   0.119868  -0.051546   0.094458
     5  C    0.260512   0.089006   0.464142   0.076184   0.032026  -0.034789
     6  H   -0.019302  -0.065687  -0.049608   0.009215   0.003848  -0.004370
     7  S   16.365323  -0.122949  -0.267231   0.024627   0.013429  -0.056426
     8  H   -0.122949   1.284129   0.002599   0.000978  -0.000957   0.002200
     9  C   -0.267231   0.002599  15.949262   0.299764  -0.966067   0.155147
    10  S    0.024627   0.000978   0.299764  16.964220   0.152451  -0.615591
    11  C    0.013429  -0.000957  -0.966067   0.152451  11.979944  -1.545975
    12  C   -0.056426   0.002200   0.155147  -0.615591  -1.545975  14.365531
    13  C    0.095086  -0.002826  -6.320174  -0.988031  -0.377558  -4.314749
    14  H   -0.003106   0.002609   1.096465   0.047162  -0.196430   0.569487
    15  S    0.010200  -0.000082  -0.521793   0.182903   0.208438  -0.679371
    16  C    0.003190  -0.000031   0.019230  -0.136703  -0.054716  -1.172921
    17  C    0.007153   0.000056  -0.204592  -0.152041  -3.137011  -0.676374
    18  H    0.000092  -0.000003   0.003236   0.012725   0.140677  -0.106836
    19  H    0.000076   0.000005   0.074115   0.052586   0.577786   0.071915
    20  H   -0.009435   0.000251   0.028372  -0.063224  -0.012005   0.003589
    21  H    0.009452   0.001306  -0.034444   0.014525   0.006204   0.006266
    22  H    0.010993   0.000996   0.026241   0.025039   0.008353   0.007592
              13         14         15         16         17         18
     1  C    0.041409  -0.020007   0.001117  -0.000692   0.003406   0.000045
     2  C   -1.065822   0.103767  -0.011675  -0.008977   0.047462   0.000079
     3  C    0.255695  -0.054456  -0.039656   0.033279  -0.373141   0.000186
     4  C   -0.164724   0.016991  -0.002093  -0.001878  -0.043204  -0.000215
     5  C   -0.347496   0.011112   0.001315   0.000181   0.002927  -0.000031
     6  H   -0.002101  -0.001312   0.000055   0.000075   0.000292   0.000006
     7  S    0.095086  -0.003106   0.010200   0.003190   0.007153   0.000092
     8  H   -0.002826   0.002609  -0.000082  -0.000031   0.000056  -0.000003
     9  C   -6.320174   1.096465  -0.521793   0.019230  -0.204592   0.003236
    10  S   -0.988031   0.047162   0.182903  -0.136703  -0.152041   0.012725
    11  C   -0.377558  -0.196430   0.208438  -0.054716  -3.137011   0.140677
    12  C   -4.314749   0.569487  -0.679371  -1.172921  -0.676374  -0.106836
    13  C   20.823698  -1.851644   0.247918   0.075670  -0.453226   0.032397
    14  H   -1.851644   1.913016  -0.069971   0.013103  -0.042667   0.001701
    15  S    0.247918  -0.069971  16.170540   0.219501  -0.099402  -0.142904
    16  C    0.075670   0.013103   0.219501   6.989911   0.094633   0.200822
    17  C   -0.453226  -0.042667  -0.099402   0.094633  11.133120   0.003966
    18  H    0.032397   0.001701  -0.142904   0.200822   0.003966   1.313068
    19  H   -0.063024  -0.000367  -0.004361  -0.129212  -0.596839  -0.071608
    20  H    0.043753   0.001066   0.000246  -0.000339   0.000470  -0.000006
    21  H   -0.034062   0.000645  -0.000299   0.000376  -0.006441   0.000022
    22  H   -0.048920   0.002331  -0.001471   0.000627  -0.010272   0.000020
              19         20         21         22
     1  C    0.000044   0.087103   0.010187  -0.040635
     2  C    0.001793  -0.040581   0.000137   0.035459
     3  C   -0.004616   0.034624   0.007785  -0.035895
     4  C   -0.000126   0.005802   0.354194   0.291848
     5  C    0.000370   0.023041   0.003253  -0.016523
     6  H   -0.000002  -0.024683   0.001001   0.005660
     7  S    0.000076  -0.009435   0.009452   0.010993
     8  H    0.000005   0.000251   0.001306   0.000996
     9  C    0.074115   0.028372  -0.034444   0.026241
    10  S    0.052586  -0.063224   0.014525   0.025039
    11  C    0.577786  -0.012005   0.006204   0.008353
    12  C    0.071915   0.003589   0.006266   0.007592
    13  C   -0.063024   0.043753  -0.034062  -0.048920
    14  H   -0.000367   0.001066   0.000645   0.002331
    15  S   -0.004361   0.000246  -0.000299  -0.001471
    16  C   -0.129212  -0.000339   0.000376   0.000627
    17  C   -0.596839   0.000470  -0.006441  -0.010272
    18  H   -0.071608  -0.000006   0.000022   0.000020
    19  H    1.420915   0.000328   0.000241   0.000236
    20  H    0.000328   1.513842  -0.170363  -0.208714
    21  H    0.000241  -0.170363   0.780558  -0.115900
    22  H    0.000236  -0.208714  -0.115900   0.907828
 Mulliken charges:
               1
     1  C    0.514530
     2  C   -0.656937
     3  C    0.652692
     4  C    0.581336
     5  C   -0.339467
     6  H   -0.520955
     7  S    0.490977
     8  H   -0.378918
     9  C   -0.040097
    10  S    0.516911
    11  C   -0.783182
    12  C   -0.193196
    13  C    0.418730
    14  H   -0.539494
    15  S    0.530844
    16  C   -0.145129
    17  C    0.501725
    18  H   -0.387439
    19  H   -0.330255
    20  H   -0.213140
    21  H    0.165356
    22  H    0.155107
 Sum of Mulliken charges =  -0.00000
 Mulliken charges with hydrogens summed into heavy atoms:
               1
     1  C   -0.006424
     2  C   -0.656937
     3  C    0.652692
     4  C    0.688660
     5  C   -0.718385
     7  S    0.490977
     9  C   -0.040097
    10  S    0.516911
    11  C   -0.783182
    12  C   -0.193196
    13  C   -0.120764
    15  S    0.530844
    16  C   -0.532567
    17  C    0.171470
 Electronic spatial extent (au):  <R**2>=           4362.0317
 Charge=             -0.0000 electrons
 Dipole moment (field-independent basis, Debye):
    X=             -0.6117    Y=              1.2388    Z=              0.2209  Tot=              1.3991
 Quadrupole moment (field-independent basis, Debye-Ang):
   XX=            -86.0029   YY=            -98.9605   ZZ=           -111.2574
   XY=              2.3837   XZ=             -1.3655   YZ=             -0.4355
 Traceless Quadrupole moment (field-independent basis, Debye-Ang):
   XX=             12.7374   YY=             -0.2202   ZZ=            -12.5171
   XY=              2.3837   XZ=             -1.3655   YZ=             -0.4355
 Octapole moment (field-independent basis, Debye-Ang**2):
  XXX=             -2.4818  YYY=              4.5270  ZZZ=              0.9039  XYY=             -7.8271
  XXY=             15.9209  XXZ=             -3.0708  XZZ=             -1.1670  YZZ=              2.5323
  YYZ=             -0.2990  XYZ=             -7.5618
 Hexadecapole moment (field-independent basis, Debye-Ang**3):
 XXXX=          -4156.2466 YYYY=          -1127.1130 ZZZZ=           -184.7611 XXXY=             95.0156
 XXXZ=            -15.6463 YYYX=             26.4655 YYYZ=             -6.9396 ZZZX=              0.2576
 ZZZY=              2.3033 XXYY=           -927.8349 XXZZ=           -923.3465 YYZZ=           -230.3119
 XXYZ=              6.8905 YYXZ=             -4.1605 ZZXY=             -7.6847
 N-N= 1.125099008735D+03 E-N=-6.070294636043D+03  KE= 1.613748019905D+03
 Calling FoFJK, ICntrl=  10002127 FMM=F ISym2X=0 I1Cent= 0 IOpClX= 0 NMat=1 NMatS=1 NMatT=0.
 ***** Axes restored to original set *****
 -------------------------------------------------------------------
 Center     Atomic                   Forces (Hartrees/Bohr)
 Number     Number              X              Y              Z
 -------------------------------------------------------------------
      1        6           0.012131380    0.035246404    0.005766634
      2        6          -0.033323498    0.024280599    0.005461889
      3        6           0.031817342   -0.019975159   -0.006754018
      4        6          -0.000178169   -0.006590708   -0.001607901
      5        6           0.003324246   -0.029076415   -0.004939747
      6        1          -0.008398802    0.005698327    0.001111418
      7       16           0.005372406   -0.007147412   -0.001372305
      8        1          -0.007633413   -0.007812816   -0.001051463
      9        6          -0.030059075    0.021651404   -0.002091205
     10       16          -0.005360924    0.009362076   -0.002265300
     11        6           0.008414565    0.040434847   -0.007999112
     12        6          -0.009469002   -0.040714470    0.007822584
     13        6           0.030627176   -0.020497181    0.003641901
     14        1          -0.003776790   -0.010298875    0.002422196
     15       16           0.002902423   -0.008111748    0.001606569
     16        6           0.014864774   -0.024178547    0.004892625
     17        6          -0.028471843    0.020962897   -0.004045334
     18        1           0.010274890   -0.000788600    0.000056697
     19        1           0.003057348    0.009617373   -0.001931961
     20        1          -0.006407872    0.002615287    0.002429167
     21        1           0.002860079    0.004065475   -0.007140270
     22        1           0.007432758    0.001257240    0.005986936
 -------------------------------------------------------------------
 Cartesian Forces:  Max     0.040714470 RMS     0.015087523

 GradGradGradGradGradGradGradGradGradGradGradGradGradGradGradGradGradGrad
 Berny optimization.
 FormGI is forming the generalized inverse of G from B-inverse, IUseBI=4.
 Internal  Forces:  Max     0.043066249 RMS     0.008883912
 Search for a local minimum.
 Step number   1 out of a maximum of  127
 All quantities printed in internal units (Hartrees-Bohrs-Radians)
 Mixed Optimization -- RFO/linear search
 Second derivative matrix not updated -- first step.
 ITU=  0
     Eigenvalues ---    0.00646   0.01356   0.01455   0.01579   0.01629
     Eigenvalues ---    0.01669   0.01763   0.01864   0.01981   0.02036
     Eigenvalues ---    0.02064   0.02130   0.02240   0.02263   0.02377
     Eigenvalues ---    0.02432   0.07027   0.07292   0.15999   0.15999
     Eigenvalues ---    0.16000   0.16000   0.16000   0.16000   0.16000
     Eigenvalues ---    0.16000   0.22518   0.22567   0.23646   0.24760
     Eigenvalues ---    0.24782   0.24984   0.24995   0.24997   0.24997
     Eigenvalues ---    0.28762   0.29778   0.30322   0.31046   0.31363
     Eigenvalues ---    0.31443   0.32429   0.34786   0.34859   0.35093
     Eigenvalues ---    0.35803   0.36093   0.36298   0.36341   0.36362
     Eigenvalues ---    0.36511   0.38252   0.39165   0.39795   0.45889
     Eigenvalues ---    0.49650   0.51767   0.53571   0.540591000.00000
     Eigenvalues --- 1000.000001000.000001000.000001000.000001000.00000
     Eigenvalues --- 1000.000001000.000001000.000001000.000001000.00000
     Eigenvalues --- 1000.000001000.000001000.000001000.000001000.00000
     Eigenvalues --- 1000.000001000.000001000.000001000.000001000.00000
     Eigenvalues --- 1000.000001000.000001000.000001000.000001000.00000
     Eigenvalues --- 1000.000001000.000001000.000001000.000001000.00000
     Eigenvalues --- 1000.000001000.000001000.000001000.000001000.00000
     Eigenvalues --- 1000.000001000.000001000.000001000.000001000.00000
     Eigenvalues --- 1000.000001000.000001000.000001000.000001000.00000
     Eigenvalues --- 1000.000001000.000001000.000001000.000001000.00000
     Eigenvalues --- 1000.000001000.000001000.000001000.000001000.00000
     Eigenvalues --- 1000.000001000.00000
 RFO step:  Lambda=-1.80761066D-02 EMin= 6.45807810D-03
 Linear search not attempted -- first point.
 Iteration  1 RMS(Cart)=  0.03544603 RMS(Int)=  0.00028680
 Iteration  2 RMS(Cart)=  0.00059265 RMS(Int)=  0.00004188
 Iteration  3 RMS(Cart)=  0.00000012 RMS(Int)=  0.00004188
 Iteration  1 RMS(Cart)=  0.00000200 RMS(Int)=  0.00000089
 Iteration  2 RMS(Cart)=  0.00000110 RMS(Int)=  0.00000099
 Iteration  3 RMS(Cart)=  0.00000060 RMS(Int)=  0.00000112
 Variable       Old X    -DE/DX   Delta X   Delta X   Delta X     New X
                                 (Linear)    (Quad)   (Total)
    R1        2.72629  -0.00549   0.00000  -0.01119  -0.01114   2.71515
    R2        2.54540   0.04074   0.00000   0.07200   0.07202   2.61743
    R3        2.03936   0.01021   0.00000   0.02694   0.02694   2.06630
    R4        2.57332   0.03595   0.00000   0.06615   0.06618   2.63950
    R5        2.85175   0.00175   0.00000   0.00526   0.00526   2.85701
    R6        3.30904   0.00391   0.00000   0.00944   0.00940   3.31844
    R7        2.77691  -0.00719   0.00000  -0.01912  -0.01912   2.75779
    R8        2.05904   0.00732   0.00000   0.01998   0.01998   2.07901
    R9        2.06023   0.00867   0.00000   0.02368   0.02368   2.08391
   R10        2.05525   0.00959   0.00000   0.02599   0.02599   2.08124
   R11        3.25688   0.00704   0.00000   0.01894   0.01890   3.27578
   R12        2.03290   0.01086   0.00000   0.02833   0.02833   2.06124
   R13        3.33291   0.00615   0.00000   0.01675   0.01668   3.34960
   R14        2.56449   0.03885   0.00000   0.07036   0.07038   2.63487
   R15        3.27753   0.00608   0.00000   0.01646   0.01641   3.29394
   R16        2.57670   0.04307   0.00000   0.08226   0.08234   2.65904
   R17        2.71193  -0.00271   0.00000  -0.00402  -0.00396   2.70796
   R18        2.70256  -0.00369   0.00000  -0.00621  -0.00613   2.69643
   R19        3.28278   0.00553   0.00000   0.01496   0.01493   3.29770
   R20        2.03552   0.01120   0.00000   0.02937   0.02937   2.06489
   R21        3.29687   0.00678   0.00000   0.01778   0.01773   3.31461
   R22        2.54938   0.03908   0.00000   0.06868   0.06869   2.61807
   R23        2.03519   0.01023   0.00000   0.02681   0.02681   2.06200
   R24        2.03619   0.01027   0.00000   0.02696   0.02696   2.06315
    A1        1.98736  -0.00345   0.00000  -0.00796  -0.00788   1.97949
    A2        2.14213   0.00158   0.00000   0.00319   0.00314   2.14527
    A3        2.15367   0.00186   0.00000   0.00477   0.00473   2.15840
    A4        1.95205  -0.00256   0.00000  -0.00588  -0.00579   1.94625
    A5        2.11073   0.00668   0.00000   0.02309   0.02305   2.13378
    A6        2.22033  -0.00412   0.00000  -0.01719  -0.01724   2.20310
    A7        1.93878   0.00361   0.00000   0.01105   0.01104   1.94981
    A8        2.28498  -0.00362   0.00000  -0.01223  -0.01223   2.27274
    A9        2.05891   0.00001   0.00000   0.00132   0.00132   2.06023
   A10        1.91520  -0.00019   0.00000   0.00038   0.00038   1.91558
   A11        1.94571   0.00005   0.00000  -0.00029  -0.00030   1.94540
   A12        1.95230  -0.00064   0.00000  -0.00445  -0.00446   1.94784
   A13        1.87764   0.00044   0.00000   0.00414   0.00414   1.88178
   A14        1.88392   0.00067   0.00000   0.00486   0.00486   1.88878
   A15        1.88646  -0.00028   0.00000  -0.00417  -0.00419   1.88227
   A16        1.94471   0.00137   0.00000   0.00730   0.00729   1.95200
   A17        2.23397   0.00094   0.00000   0.00546   0.00547   2.23944
   A18        2.10450  -0.00231   0.00000  -0.01277  -0.01276   2.09174
   A19        1.60169   0.00102   0.00000  -0.00456  -0.00471   1.59698
   A20        2.13206  -0.00687   0.00000  -0.02497  -0.02496   2.10710
   A21        2.20534   0.00234   0.00000   0.00941   0.00942   2.21476
   A22        1.94566   0.00452   0.00000   0.01556   0.01554   1.96120
   A23        1.59173   0.00091   0.00000  -0.00466  -0.00485   1.58689
   A24        1.93795   0.00205   0.00000   0.00641   0.00637   1.94432
   A25        2.35399   0.00113   0.00000  -0.00059  -0.00066   2.35334
   A26        1.99120  -0.00319   0.00000  -0.00582  -0.00572   1.98549
   A27        1.99164  -0.00298   0.00000  -0.00456  -0.00444   1.98720
   A28        1.93866   0.00150   0.00000   0.00386   0.00382   1.94248
   A29        2.35282   0.00148   0.00000   0.00067   0.00059   2.35341
   A30        1.95778  -0.00451   0.00000  -0.01275  -0.01264   1.94514
   A31        2.15648   0.00145   0.00000   0.00184   0.00179   2.15827
   A32        2.16889   0.00306   0.00000   0.01090   0.01084   2.17973
   A33        1.58123   0.00226   0.00000   0.00012  -0.00001   1.58122
   A34        1.97658   0.00252   0.00000   0.00891   0.00889   1.98547
   A35        2.08702  -0.00250   0.00000  -0.01142  -0.01142   2.07561
   A36        2.21958  -0.00002   0.00000   0.00252   0.00252   2.22210
   A37        1.93710  -0.00309   0.00000  -0.00708  -0.00699   1.93011
   A38        2.18367   0.00169   0.00000   0.00437   0.00433   2.18799
   A39        2.16242   0.00140   0.00000   0.00270   0.00266   2.16508
    D1       -0.00593   0.00003   0.00000  -0.00095  -0.00093  -0.00686
    D2       -3.13518  -0.00001   0.00000  -0.00271  -0.00272  -3.13790
    D3        3.12753   0.00000   0.00000  -0.00105  -0.00104   3.12649
    D4       -0.00173  -0.00003   0.00000  -0.00281  -0.00282  -0.00455
    D5       -0.00769   0.00004   0.00000  -0.00048  -0.00047  -0.00816
    D6        3.13200  -0.00005   0.00000  -0.00114  -0.00114   3.13086
    D7       -3.14108   0.00007   0.00000  -0.00037  -0.00036  -3.14144
    D8       -0.00139  -0.00002   0.00000  -0.00102  -0.00103  -0.00242
    D9        0.01646   0.00002   0.00000   0.00211   0.00211   0.01858
   D10        3.12196   0.00041   0.00000   0.00674   0.00675   3.12871
   D11       -3.13842   0.00015   0.00000   0.00436   0.00434  -3.13408
   D12       -0.03293   0.00054   0.00000   0.00899   0.00898  -0.02395
   D13        0.28305   0.00005   0.00000   0.00006   0.00007   0.28311
   D14       -1.79527  -0.00042   0.00000  -0.00515  -0.00514  -1.80041
   D15        2.37340   0.00035   0.00000   0.00355   0.00354   2.37695
   D16       -2.84416  -0.00002   0.00000  -0.00214  -0.00215  -2.84631
   D17        1.36071  -0.00049   0.00000  -0.00736  -0.00736   1.35335
   D18       -0.75381   0.00028   0.00000   0.00134   0.00133  -0.75247
   D19       -0.01777  -0.00001   0.00000  -0.00202  -0.00201  -0.01978
   D20       -3.12849  -0.00025   0.00000  -0.00563  -0.00567  -3.13416
   D21       -0.35031  -0.00057   0.00000   0.00000   0.00000  -0.35031
   D22        2.80919  -0.00035   0.00000   0.00036   0.00036   2.80954
   D23        2.75315  -0.00011   0.00000   0.00503   0.00502   2.75817
   D24       -0.37054   0.00011   0.00000   0.00539   0.00538  -0.36517
   D25        0.01436   0.00001   0.00000   0.00144   0.00144   0.01580
   D26       -3.12549   0.00009   0.00000   0.00202   0.00202  -3.12347
   D27       -3.12234   0.00009   0.00000   0.00002   0.00002  -3.12233
   D28        0.00375  -0.00010   0.00000  -0.00027  -0.00028   0.00347
   D29        3.11896  -0.00025   0.00000  -0.00154  -0.00155   3.11741
   D30       -0.03130  -0.00030   0.00000  -0.00260  -0.00261  -0.03391
   D31       -0.00634   0.00005   0.00000  -0.00086  -0.00087  -0.00721
   D32        3.12658  -0.00001   0.00000  -0.00192  -0.00193   3.12465
   D33       -0.00004   0.00008   0.00000   0.00132   0.00131   0.00127
   D34       -3.13093   0.00005   0.00000   0.00089   0.00087  -3.13006
   D35       -0.00356  -0.00009   0.00000  -0.00212  -0.00212  -0.00569
   D36       -3.13432  -0.00006   0.00000  -0.00018  -0.00019  -3.13451
   D37        3.12972  -0.00005   0.00000  -0.00177  -0.00177   3.12795
   D38       -0.00104  -0.00002   0.00000   0.00017   0.00016  -0.00088
   D39        3.13292   0.00004   0.00000   0.00016   0.00018   3.13310
   D40       -0.01134   0.00002   0.00000  -0.00003  -0.00002  -0.01136
   D41        0.00228  -0.00001   0.00000  -0.00033  -0.00032   0.00195
   D42        3.14120  -0.00003   0.00000  -0.00052  -0.00052   3.14068
   D43        0.00654  -0.00003   0.00000   0.00182   0.00180   0.00833
   D44       -3.12631   0.00004   0.00000   0.00294   0.00293  -3.12338
   D45        3.13388  -0.00009   0.00000  -0.00071  -0.00073   3.13315
   D46        0.00103  -0.00002   0.00000   0.00041   0.00040   0.00143
   D47       -0.00029   0.00001   0.00000  -0.00002  -0.00001  -0.00031
   D48       -3.12795   0.00009   0.00000   0.00251   0.00252  -3.12543
   D49        0.00164  -0.00002   0.00000  -0.00017  -0.00017   0.00147
   D50       -3.13962   0.00003   0.00000   0.00088   0.00088  -3.13874
   D51       -0.00247   0.00001   0.00000   0.00028   0.00028  -0.00218
   D52       -3.14143   0.00003   0.00000   0.00046   0.00047  -3.14096
   D53        3.13876  -0.00004   0.00000  -0.00087  -0.00088   3.13788
   D54       -0.00020  -0.00003   0.00000  -0.00069  -0.00069  -0.00089
         Item               Value     Threshold  Converged?
 Maximum Force            0.043067     0.000450     NO 
 RMS     Force            0.008922     0.000300     NO 
 Maximum Displacement     0.135028     0.001800     NO 
 RMS     Displacement     0.035673     0.001200     NO 
 Predicted change in Energy=-9.371634D-03
 GradGradGradGradGradGradGradGradGradGradGradGradGradGradGradGradGradGrad

                          Input orientation:                          
 ---------------------------------------------------------------------
 Center     Atomic      Atomic             Coordinates (Angstroms)
 Number     Number       Type             X           Y           Z
 ---------------------------------------------------------------------
      1          6           0       -4.054367    0.285771    0.105309
      2          6           0       -2.730588    0.838646    0.184825
      3          6           0       -1.753570   -0.146419    0.023508
      4          6           0       -2.484030    2.310082    0.429407
      5          6           0       -4.067515   -1.080918   -0.119278
      6          1           0       -4.958484    0.889933    0.220078
      7         16           0       -2.464893   -1.727994   -0.252752
      8          1           0       -4.929613   -1.742779   -0.211376
      9          6           0       -0.298245   -0.038145    0.017501
     10         16           0        0.492945    1.517537   -0.291908
     11          6           0        2.065017    0.776751   -0.157233
     12          6           0        1.962259   -0.600693    0.111154
     13          6           0        0.618719   -1.069250    0.217778
     14          1           0        0.332018   -2.100454    0.437783
     15         16           0        3.537543   -1.337278    0.256725
     16          6           0        4.308690    0.209099   -0.044301
     17          6           0        3.415210    1.248461   -0.246318
     18          1           0        5.398511    0.261911   -0.056165
     19          1           0        3.712311    2.279572   -0.447577
     20          1           0       -3.401360    2.782391    0.811241
     21          1           0       -2.197690    2.831079   -0.499383
     22          1           0       -1.681868    2.469695    1.166980
 ---------------------------------------------------------------------
                    Distance matrix (angstroms):
                    1          2          3          4          5
     1  C    0.000000
     2  C    1.436797   0.000000
     3  C    2.342466   1.396761   0.000000
     4  C    2.582408   1.511864   2.594749   0.000000
     5  C    1.385082   2.358936   2.499603   3.782507   0.000000
     6  H    1.093440   2.228765   3.374039   2.860693   2.189347
     7  S    2.590345   2.617195   1.756041   4.095335   1.733470
     8  H    2.231896   3.414154   3.562412   4.776731   1.090759
     9  C    3.771086   2.590956   1.459360   3.234423   3.913245
    10  S    4.727904   3.328563   2.813373   3.163985   5.251625
    11  C    6.144661   4.808187   3.932750   4.836226   6.407833
    12  C    6.081583   4.909169   3.744521   5.323850   6.053255
    13  C    4.866875   3.854739   2.552864   4.592573   4.698354
    14  H    5.004496   4.252276   2.887828   5.232879   4.550347
    15  S    7.764941   6.635456   5.428482   7.042186   7.618662
    16  C    8.364747   7.071086   6.073054   7.125979   8.475292
    17  C    7.539563   6.174518   5.360484   6.031971   7.837942
    18  H    9.454287   8.153094   7.164171   8.158752   9.561005
    19  H    8.037550   6.632281   5.998601   6.258168   8.480941
    20  H    2.675420   2.149529   3.451618   1.100167   4.029241
    21  H    3.208036   2.172995   3.055512   1.102759   4.352522
    22  H    3.394912   2.173652   2.855998   1.101343   4.466836
                    6          7          8          9         10
     6  H    0.000000
     7  S    3.646245   0.000000
     8  H    2.667988   2.465111   0.000000
     9  C    4.756069   2.760977   4.940418   0.000000
    10  S    5.511270   4.391334   6.327739   1.772530   0.000000
    11  C    7.034539   5.177158   7.434771   2.505912   1.743076
    12  C    7.080290   4.582894   6.993303   2.331332   2.609260
    13  C    5.911311   3.188104   5.605515   1.394314   2.639520
    14  H    6.081054   2.904871   5.313577   2.197040   3.694348
    15  S    8.783182   6.036677   8.489775   4.056876   4.209577
    16  C    9.295910   7.048206   9.443727   4.613978   4.041439
    17  C    8.394333   6.590520   8.864808   3.938871   2.934981
    18  H   10.379694   8.113661  10.522025   5.705128   5.069196
    19  H    8.806789   7.365894   9.535091   4.655391   3.311985
    20  H    2.521013   4.727856   4.884513   4.267876   4.240566
    21  H    3.450747   4.573552   5.335403   3.479584   3.001326
    22  H    3.758787   4.499929   5.494784   3.086256   2.786534
                   11         12         13         14         15
    11  C    0.000000
    12  C    1.407104   0.000000
    13  C    2.374896   1.426890   0.000000
    14  H    3.411105   2.239120   1.092694   0.000000
    15  S    2.609369   1.745069   2.931363   3.300093   0.000000
    16  C    2.317121   2.487100   3.913917   4.623890   1.754014
    17  C    1.432993   2.378702   3.661630   4.603184   2.637056
    18  H    3.374530   3.546816   4.969250   5.611961   2.473561
    19  H    2.248633   3.416254   4.607344   5.603113   3.688928
    20  H    5.902695   6.379952   5.598962   6.157902   8.088728
    21  H    4.744260   5.427245   4.864057   5.621185   7.130203
    22  H    4.319578   4.880749   4.326409   5.047150   6.524098
                   16         17         18         19         20
    16  C    0.000000
    17  C    1.385421   0.000000
    18  H    1.091164   2.223268   0.000000
    19  H    2.192067   1.091771   2.658464   0.000000
    20  H    8.173044   7.066612   9.194723   7.241668   0.000000
    21  H    7.029570   5.837240   8.031148   5.935904   1.780148
    22  H    6.516462   5.428539   7.516792   5.633836   1.783530
                   21         22
    21  H    0.000000
    22  H    1.781414   0.000000
 Stoichiometry    C11H8S3
 Framework group  C1[X(C11H8S3)]
 Deg. of freedom    60
 Full point group                 C1      NOp   1
 Largest Abelian subgroup         C1      NOp   1
 Largest concise Abelian subgroup C1      NOp   1
                         Standard orientation:                         
 ---------------------------------------------------------------------
 Center     Atomic      Atomic             Coordinates (Angstroms)
 Number     Number       Type             X           Y           Z
 ---------------------------------------------------------------------
      1          6           0       -4.047610    0.293614    0.111279
      2          6           0       -2.723432    0.845846    0.188598
      3          6           0       -1.747155   -0.139823    0.026481
      4          6           0       -2.475763    2.317298    0.431961
      5          6           0       -4.061785   -1.073201   -0.112481
      6          1           0       -4.951249    0.898314    0.226970
      7         16           0       -2.459690   -1.721190   -0.247839
      8          1           0       -4.924356   -1.734667   -0.202970
      9          6           0       -0.291784   -0.032310    0.018353
     10         16           0        0.499776    1.522778   -0.293093
     11          6           0        2.071652    0.781253   -0.160203
     12          6           0        1.968558   -0.595979    0.109142
     13          6           0        0.624926   -1.063774    0.217942
     14          1           0        0.338000   -2.094698    0.438962
     15         16           0        3.543663   -1.333298    0.252921
     16          6           0        4.315187    0.212500   -0.050108
     17          6           0        3.421963    1.252207   -0.251476
     18          1           0        5.405017    0.264737   -0.063544
     19          1           0        3.719314    2.283045   -0.453764
     20          1           0       -3.392307    2.790309    0.814813
     21          1           0       -2.190466    2.837598   -0.497539
     22          1           0       -1.672476    2.476928    1.168306
 ---------------------------------------------------------------------
 Rotational constants (GHZ):           1.2383335           0.2822786           0.2329071
 Standard basis: Aug-CC-pVDZ (5D, 7F)
 There are   434 symmetry adapted cartesian basis functions of A   symmetry.
 There are   406 symmetry adapted basis functions of A   symmetry.
   406 basis functions,   804 primitive gaussians,   434 cartesian basis functions
    61 alpha electrons       61 beta electrons
       nuclear repulsion energy      1118.1405453977 Hartrees.
 NAtoms=   22 NActive=   22 NUniq=   22 SFac= 1.00D+00 NAtFMM=   60 NAOKFM=F Big=F
 Integral buffers will be    131072 words long.
 Raffenetti 1 integral format.
 Two-electron integral symmetry is turned on.
 One-electron integrals computed using PRISM.
 NBasis=   406 RedAO= T EigKep=  2.75D-06  NBF=   406
 NBsUse=   406 1.00D-06 EigRej= -1.00D+00 NBFU=   406
 Initial guess from the checkpoint file:  "/tmp/pbs.4766302[155].pbs/Gau-2533283.chk"
 B after Tr=    -0.000000   -0.000000   -0.000000
         Rot=    1.000000   -0.000131   -0.000665   -0.000701 Ang=  -0.11 deg.
 ExpMin= 2.97D-02 ExpMax= 1.11D+05 ExpMxC= 1.07D+03 IAcc=3 IRadAn=         5 AccDes= 0.00D+00
 Harris functional with IExCor=  205 and IRadAn=       5 diagonalized for initial guess.
 HarFok:  IExCor=  205 AccDes= 0.00D+00 IRadAn=         5 IDoV= 1 UseB2=F ITyADJ=14
 ICtDFT=  3500011 ScaDFX=  1.000000  1.000000  1.000000  1.000000
 FoFCou: FMM=F IPFlag=           0 FMFlag=      100000 FMFlg1=           0
         NFxFlg=           0 DoJE=T BraDBF=F KetDBF=T FulRan=T
         wScrn=  0.000000 ICntrl=       500 IOpCl=  0 I1Cent=   200000004 NGrid=           0
         NMat0=    1 NMatS0=      1 NMatT0=    0 NMatD0=    1 NMtDS0=    0 NMtDT0=    0
 Petite list used in FoFCou.
 Requested convergence on RMS density matrix=1.00D-08 within 128 cycles.
 Requested convergence on MAX density matrix=1.00D-06.
 Requested convergence on             energy=1.00D-06.
 No special actions if energy rises.
 SCF Done:  E(RHF) =  -1613.80361356     A.U. after   15 cycles
            NFock= 15  Conv=0.98D-08     -V/T= 2.0005
 ExpMin= 2.97D-02 ExpMax= 1.11D+05 ExpMxC= 1.07D+03 IAcc=3 IRadAn=         5 AccDes= 0.00D+00
 HarFok:  IExCor=  205 AccDes= 0.00D+00 IRadAn=         5 IDoV=-2 UseB2=F ITyADJ=14
 ICtDFT= 12500011 ScaDFX=  1.000000  1.000000  1.000000  1.000000
 GSVD:  LWork=        -884 too small for GESVD, short by        3770 words or        3770 for optimal perf.
 Range of M.O.s used for correlation:    27   406
 NBasis=   406 NAE=    61 NBE=    61 NFC=    26 NFV=     0
 NROrb=    380 NOA=    35 NOB=    35 NVA=   345 NVB=   345

 **** Warning!!: The largest alpha MO coefficient is  0.99414151D+02

 Disk-based method using ON**2 memory for 35 occupieds at a time.
 Estimated scratch disk usage=  5830223820 words.
 Actual    scratch disk usage=  4754767308 words.
 JobTyp=1 Pass  1:  I=  27 to  61 NPSUse= 16 ParTrn=T ParDer=T DoDerP=T.
 (rs|ai) integrals will be sorted in core.
 Spin components of T(2) and E(2):
     alpha-alpha T2 =       0.1171145024D+00 E2=     -0.2676930380D+00
     alpha-beta  T2 =       0.5758722876D+00 E2=     -0.1412354972D+01
     beta-beta   T2 =       0.1171145024D+00 E2=     -0.2676930380D+00
 ANorm=    0.1345400049D+01
 E2 =    -0.1947741048D+01 EUMP2 =    -0.16157513546088D+04
          IDoAtm=1111111111111111111111
          Differentiating once with respect to electric field.
                with respect to dipole field.
          Differentiating once with respect to nuclear coordinates.
 Keep R1 ints in memory in canonical form, NReq=3454318301.
          There are     1 degrees of freedom in the 1st order CPHF.  IDoFFX=0 NUNeed=     1.
 LinEq1:  Iter=  0 NonCon=     1 RMS=2.73D-03 Max=6.87D-02 NDo=     1
 AX will form     1 AO Fock derivatives at one time.
 LinEq1:  Iter=  1 NonCon=     1 RMS=6.18D-04 Max=1.23D-02 NDo=     1
 LinEq1:  Iter=  2 NonCon=     1 RMS=3.43D-04 Max=1.25D-02 NDo=     1
 LinEq1:  Iter=  3 NonCon=     1 RMS=1.01D-04 Max=2.30D-03 NDo=     1
 LinEq1:  Iter=  4 NonCon=     1 RMS=4.26D-05 Max=1.24D-03 NDo=     1
 LinEq1:  Iter=  5 NonCon=     1 RMS=1.66D-05 Max=6.91D-04 NDo=     1
 LinEq1:  Iter=  6 NonCon=     1 RMS=7.21D-06 Max=3.90D-04 NDo=     1
 LinEq1:  Iter=  7 NonCon=     1 RMS=3.76D-06 Max=1.31D-04 NDo=     1
 LinEq1:  Iter=  8 NonCon=     1 RMS=1.50D-06 Max=5.85D-05 NDo=     1
 LinEq1:  Iter=  9 NonCon=     1 RMS=5.93D-07 Max=1.70D-05 NDo=     1
 LinEq1:  Iter= 10 NonCon=     1 RMS=2.10D-07 Max=6.24D-06 NDo=     1
 LinEq1:  Iter= 11 NonCon=     1 RMS=9.75D-08 Max=4.31D-06 NDo=     1
 LinEq1:  Iter= 12 NonCon=     1 RMS=3.49D-08 Max=6.68D-07 NDo=     1
 LinEq1:  Iter= 13 NonCon=     1 RMS=1.44D-08 Max=2.75D-07 NDo=     1
 LinEq1:  Iter= 14 NonCon=     1 RMS=5.31D-09 Max=1.27D-07 NDo=     1
 LinEq1:  Iter= 15 NonCon=     1 RMS=2.50D-09 Max=8.69D-08 NDo=     1
 LinEq1:  Iter= 16 NonCon=     1 RMS=1.03D-09 Max=3.03D-08 NDo=     1
 LinEq1:  Iter= 17 NonCon=     1 RMS=3.68D-10 Max=8.70D-09 NDo=     1
 LinEq1:  Iter= 18 NonCon=     1 RMS=1.09D-10 Max=1.82D-09 NDo=     1
 LinEq1:  Iter= 19 NonCon=     0 RMS=4.04D-11 Max=6.12D-10 NDo=     1
 Linear equations converged to 1.000D-10 1.000D-09 after    19 iterations.
 End of Minotr F.D. properties file   721 does not exist.
 End of Minotr F.D. properties file   722 does not exist.
 End of Minotr F.D. properties file   788 does not exist.
 Calling FoFJK, ICntrl=  10002127 FMM=F ISym2X=0 I1Cent= 0 IOpClX= 0 NMat=1 NMatS=1 NMatT=0.
 ***** Axes restored to original set *****
 -------------------------------------------------------------------
 Center     Atomic                   Forces (Hartrees/Bohr)
 Number     Number              X              Y              Z
 -------------------------------------------------------------------
      1        6           0.007066562    0.004652585    0.000786179
      2        6          -0.011787996    0.002711108    0.001543050
      3        6           0.010110669   -0.004769601   -0.003328043
      4        6           0.000831779   -0.001623168   -0.000261052
      5        6          -0.002202173   -0.004654934   -0.000778588
      6        1          -0.000407121   -0.001076476   -0.000158935
      7       16          -0.001714248    0.004878618    0.001032000
      8        1           0.000149597   -0.000122979    0.000021479
      9        6          -0.008654084    0.002542183    0.001588062
     10       16           0.002219803   -0.003549017    0.000099785
     11        6           0.006135271    0.008167418   -0.001781945
     12        6          -0.005823032   -0.008074703    0.001319786
     13        6           0.008859645   -0.000928221   -0.000112081
     14        1          -0.001276097    0.000687856    0.000051338
     15       16          -0.001033856    0.003984754   -0.000727742
     16        6           0.003635387   -0.002359855    0.000551530
     17        6          -0.007155737    0.000058610    0.000078326
     18        1           0.000031801   -0.000140383   -0.000035192
     19        1           0.000912799   -0.000563983    0.000114126
     20        1          -0.000302576   -0.000005735   -0.000058592
     21        1           0.000347088    0.000168302   -0.000071723
     22        1           0.000056522    0.000017622    0.000128229
 -------------------------------------------------------------------
 Cartesian Forces:  Max     0.011787996 RMS     0.003686877

 GradGradGradGradGradGradGradGradGradGradGradGradGradGradGradGradGradGrad
 Berny optimization.
 Using GEDIIS/GDIIS optimizer.
 FormGI is forming the generalized inverse of G from B-inverse, IUseBI=4.
 Internal  Forces:  Max     0.006602477 RMS     0.001491011
 Search for a local minimum.
 Step number   2 out of a maximum of  127
 All quantities printed in internal units (Hartrees-Bohrs-Radians)
 Mixed Optimization -- RFO/linear search
 Update second derivatives using D2CorX and points    1    2
 DE= -9.40D-03 DEPred=-9.37D-03 R= 1.00D+00
 TightC=F SS=  1.41D+00  RLast= 1.93D-01 DXNew= 5.0454D-01 5.7888D-01
 Trust test= 1.00D+00 RLast= 1.93D-01 DXMaxT set to 5.05D-01
 ITU=  1  0
 Use linear search instead of GDIIS.
     Eigenvalues ---    0.00646   0.01349   0.01460   0.01578   0.01627
     Eigenvalues ---    0.01676   0.01763   0.01861   0.01981   0.02044
     Eigenvalues ---    0.02070   0.02138   0.02245   0.02261   0.02380
     Eigenvalues ---    0.02437   0.07072   0.07284   0.15913   0.15999
     Eigenvalues ---    0.16000   0.16000   0.16000   0.16000   0.16000
     Eigenvalues ---    0.16028   0.22542   0.22605   0.23719   0.24467
     Eigenvalues ---    0.24767   0.24916   0.24989   0.24997   0.25503
     Eigenvalues ---    0.28794   0.29794   0.30342   0.31098   0.31423
     Eigenvalues ---    0.31509   0.32535   0.34807   0.34880   0.35140
     Eigenvalues ---    0.35587   0.36133   0.36313   0.36352   0.36462
     Eigenvalues ---    0.36816   0.38223   0.39245   0.39830   0.45266
     Eigenvalues ---    0.48119   0.51430   0.53459   0.538901000.00000
     Eigenvalues --- 1000.000001000.000001000.000001000.000001000.00000
     Eigenvalues --- 1000.000001000.000001000.000001000.000001000.00000
     Eigenvalues --- 1000.000001000.000001000.000001000.000001000.00000
     Eigenvalues --- 1000.000001000.000001000.000001000.000001000.00000
     Eigenvalues --- 1000.000001000.000001000.000001000.000001000.00000
     Eigenvalues --- 1000.000001000.000001000.000001000.000001000.00000
     Eigenvalues --- 1000.000001000.000001000.000001000.000001000.00000
     Eigenvalues --- 1000.000001000.000001000.000001000.000001000.00000
     Eigenvalues --- 1000.000001000.000001000.000001000.000001000.00000
     Eigenvalues --- 1000.000001000.000001000.000001000.000001000.00000
     Eigenvalues --- 1000.000001000.000001000.000001000.000001000.00000
     Eigenvalues --- 1000.000001000.00000
 RFO step:  Lambda=-8.40228427D-04 EMin= 6.45704199D-03
 Quartic linear search produced a step of  0.08218.
 Iteration  1 RMS(Cart)=  0.01349999 RMS(Int)=  0.00011349
 Iteration  2 RMS(Cart)=  0.00012086 RMS(Int)=  0.00000966
 Iteration  3 RMS(Cart)=  0.00000001 RMS(Int)=  0.00000966
 Iteration  1 RMS(Cart)=  0.00000445 RMS(Int)=  0.00000198
 Iteration  2 RMS(Cart)=  0.00000244 RMS(Int)=  0.00000222
 Iteration  3 RMS(Cart)=  0.00000134 RMS(Int)=  0.00000250
 Iteration  4 RMS(Cart)=  0.00000073 RMS(Int)=  0.00000269
 Variable       Old X    -DE/DX   Delta X   Delta X   Delta X     New X
                                 (Linear)    (Quad)   (Total)
    R1        2.71515  -0.00412  -0.00092  -0.01094  -0.01187   2.70329
    R2        2.61743   0.00257   0.00592   0.00252   0.00844   2.62586
    R3        2.06630  -0.00027   0.00221  -0.00161   0.00060   2.06691
    R4        2.63950   0.00660   0.00544   0.01176   0.01719   2.65669
    R5        2.85701  -0.00129   0.00043  -0.00459  -0.00416   2.85285
    R6        3.31844  -0.00200   0.00077  -0.00715  -0.00637   3.31207
    R7        2.75779  -0.00216  -0.00157  -0.00595  -0.00753   2.75026
    R8        2.07901   0.00023   0.00164   0.00013   0.00177   2.08079
[...]
     22          1           0       -1.731657    2.477756    1.194765
 ---------------------------------------------------------------------
 Rotational constants (GHZ):           1.2429563           0.2820496           0.2325643

 **********************************************************************

            Population analysis using the SCF Density.

 **********************************************************************

 Orbital symmetries:
       Occupied  (A) (A) (A) (A) (A) (A) (A) (A) (A) (A) (A) (A)
                 (A) (A) (A) (A) (A) (A) (A) (A) (A) (A) (A) (A)
                 (A) (A) (A) (A) (A) (A) (A) (A) (A) (A) (A) (A)
                 (A) (A) (A) (A) (A) (A) (A) (A) (A) (A) (A) (A)
                 (A) (A) (A) (A) (A) (A) (A) (A) (A) (A) (A) (A)
                 (A)
       Virtual   (A) (A) (A) (A) (A) (A) (A) (A) (A) (A) (A) (A)
                 (A) (A) (A) (A) (A) (A) (A) (A) (A) (A) (A) (A)
                 (A) (A) (A) (A) (A) (A) (A) (A) (A) (A) (A) (A)
                 (A) (A) (A) (A) (A) (A) (A) (A) (A) (A) (A) (A)
                 (A) (A) (A) (A) (A) (A) (A) (A) (A) (A) (A) (A)
                 (A) (A) (A) (A) (A) (A) (A) (A) (A) (A) (A) (A)
                 (A) (A) (A) (A) (A) (A) (A) (A) (A) (A) (A) (A)
                 (A) (A) (A) (A) (A) (A) (A) (A) (A) (A) (A) (A)
                 (A) (A) (A) (A) (A) (A) (A) (A) (A) (A) (A) (A)
                 (A) (A) (A) (A) (A) (A) (A) (A) (A) (A) (A) (A)
                 (A) (A) (A) (A) (A) (A) (A) (A) (A) (A) (A) (A)
                 (A) (A) (A) (A) (A) (A) (A) (A) (A) (A) (A) (A)
                 (A) (A) (A) (A) (A) (A) (A) (A) (A) (A) (A) (A)
                 (A) (A) (A) (A) (A) (A) (A) (A) (A) (A) (A) (A)
                 (A) (A) (A) (A) (A) (A) (A) (A) (A) (A) (A) (A)
                 (A) (A) (A) (A) (A) (A) (A) (A) (A) (A) (A) (A)
                 (A) (A) (A) (A) (A) (A) (A) (A) (A) (A) (A) (A)
                 (A) (A) (A) (A) (A) (A) (A) (A) (A) (A) (A) (A)
                 (A) (A) (A) (A) (A) (A) (A) (A) (A) (A) (A) (A)
                 (A) (A) (A) (A) (A) (A) (A) (A) (A) (A) (A) (A)
                 (A) (A) (A) (A) (A) (A) (A) (A) (A) (A) (A) (A)
                 (A) (A) (A) (A) (A) (A) (A) (A) (A) (A) (A) (A)
                 (A) (A) (A) (A) (A) (A) (A) (A) (A) (A) (A) (A)
                 (A) (A) (A) (A) (A) (A) (A) (A) (A) (A) (A) (A)
                 (A) (A) (A) (A) (A) (A) (A) (A) (A) (A) (A) (A)
                 (A) (A) (A) (A) (A) (A) (A) (A) (A) (A) (A) (A)
                 (A) (A) (A) (A) (A) (A) (A) (A) (A) (A) (A) (A)
                 (A) (A) (A) (A) (A) (A) (A) (A) (A) (A) (A) (A)
                 (A) (A) (A) (A) (A) (A) (A) (A) (A)
 The electronic state is 1-A.
 Alpha  occ. eigenvalues --  -91.99519 -91.99439 -91.99044 -11.29854 -11.28474
 Alpha  occ. eigenvalues --  -11.28385 -11.28063 -11.28016 -11.27863 -11.26537
 Alpha  occ. eigenvalues --  -11.26334 -11.26280 -11.25279 -11.24347  -8.99634
 Alpha  occ. eigenvalues --   -8.99549  -8.99228  -6.67798  -6.67715  -6.67715
 Alpha  occ. eigenvalues --   -6.67634  -6.67515  -6.67438  -6.67395  -6.67301
 Alpha  occ. eigenvalues --   -6.67120  -1.20686  -1.17817  -1.11848  -1.03872
 Alpha  occ. eigenvalues --   -1.02679  -1.01426  -0.94911  -0.94341  -0.91588
 Alpha  occ. eigenvalues --   -0.82150  -0.77497  -0.76179  -0.71515  -0.70049
 Alpha  occ. eigenvalues --   -0.66977  -0.66317  -0.59991  -0.58998  -0.58839
 Alpha  occ. eigenvalues --   -0.56856  -0.55899  -0.54541  -0.53704  -0.52192
 Alpha  occ. eigenvalues --   -0.51914  -0.51371  -0.49718  -0.47135  -0.46475
 Alpha  occ. eigenvalues --   -0.45859  -0.39450  -0.34883  -0.34413  -0.32302
 Alpha  occ. eigenvalues --   -0.26347
 Alpha virt. eigenvalues --    0.03433   0.03487   0.04015   0.04737   0.04959
 Alpha virt. eigenvalues --    0.05251   0.05977   0.06106   0.07436   0.08445
 Alpha virt. eigenvalues --    0.09480   0.09917   0.10316   0.10459   0.10796
 Alpha virt. eigenvalues --    0.11791   0.12231   0.12503   0.12843   0.13110
 Alpha virt. eigenvalues --    0.13274   0.13691   0.14275   0.14284   0.15022
 Alpha virt. eigenvalues --    0.15110   0.15178   0.15355   0.16053   0.16518
 Alpha virt. eigenvalues --    0.16902   0.17405   0.17773   0.18292   0.18418
 Alpha virt. eigenvalues --    0.18690   0.18915   0.19661   0.19973   0.20250
 Alpha virt. eigenvalues --    0.20373   0.21014   0.21615   0.21658   0.22260
 Alpha virt. eigenvalues --    0.22657   0.22827   0.23268   0.23511   0.24304
 Alpha virt. eigenvalues --    0.24717   0.25418   0.25869   0.26104   0.26325
 Alpha virt. eigenvalues --    0.26786   0.27248   0.27584   0.27965   0.28451
 Alpha virt. eigenvalues --    0.29087   0.30123   0.30631   0.31437   0.31813
 Alpha virt. eigenvalues --    0.32294   0.33268   0.33322   0.33762   0.34204
 Alpha virt. eigenvalues --    0.34956   0.35225   0.35774   0.36338   0.36509
 Alpha virt. eigenvalues --    0.37087   0.38204   0.38527   0.39045   0.39812
 Alpha virt. eigenvalues --    0.40195   0.40552   0.41102   0.41803   0.42551
 Alpha virt. eigenvalues --    0.43319   0.43496   0.44211   0.44797   0.44956
 Alpha virt. eigenvalues --    0.45568   0.45883   0.46811   0.47151   0.47556
 Alpha virt. eigenvalues --    0.48015   0.48340   0.49279   0.49614   0.50918
 Alpha virt. eigenvalues --    0.51676   0.52394   0.53407   0.53737   0.54991
 Alpha virt. eigenvalues --    0.55338   0.55655   0.56108   0.57158   0.58492
 Alpha virt. eigenvalues --    0.58972   0.59592   0.60490   0.60929   0.61237
 Alpha virt. eigenvalues --    0.61843   0.62466   0.62750   0.63453   0.64003
 Alpha virt. eigenvalues --    0.64492   0.65381   0.65906   0.66015   0.66808
 Alpha virt. eigenvalues --    0.66876   0.67439   0.67714   0.68141   0.69330
 Alpha virt. eigenvalues --    0.69529   0.69737   0.70570   0.70665   0.71436
 Alpha virt. eigenvalues --    0.71874   0.72123   0.72878   0.73795   0.73933
 Alpha virt. eigenvalues --    0.74288   0.74540   0.75672   0.76396   0.77047
 Alpha virt. eigenvalues --    0.77766   0.78168   0.78474   0.80180   0.80839
 Alpha virt. eigenvalues --    0.81203   0.81375   0.82773   0.83248   0.83905
 Alpha virt. eigenvalues --    0.84311   0.85232   0.85670   0.86768   0.87400
 Alpha virt. eigenvalues --    0.87689   0.88357   0.88865   0.89888   0.90066
 Alpha virt. eigenvalues --    0.91223   0.92445   0.92919   0.93544   0.93643
 Alpha virt. eigenvalues --    0.95098   0.95897   0.96222   0.97032   0.97315
 Alpha virt. eigenvalues --    0.97395   0.98153   0.98803   1.00207   1.01147
 Alpha virt. eigenvalues --    1.01593   1.02686   1.04413   1.05093   1.05665
 Alpha virt. eigenvalues --    1.06505   1.07232   1.07773   1.09334   1.10235
 Alpha virt. eigenvalues --    1.10814   1.11409   1.12594   1.14339   1.16500
 Alpha virt. eigenvalues --    1.16884   1.17904   1.18170   1.19812   1.20258
 Alpha virt. eigenvalues --    1.21606   1.22006   1.23007   1.24037   1.25160
 Alpha virt. eigenvalues --    1.26279   1.27098   1.28934   1.29168   1.29580
 Alpha virt. eigenvalues --    1.30821   1.31335   1.32338   1.32764   1.33595
 Alpha virt. eigenvalues --    1.35194   1.35478   1.36565   1.39756   1.40298
 Alpha virt. eigenvalues --    1.41432   1.42596   1.43566   1.44604   1.45843
 Alpha virt. eigenvalues --    1.46822   1.49638   1.51838   1.53360   1.53886
 Alpha virt. eigenvalues --    1.55245   1.56225   1.57497   1.58081   1.59187
 Alpha virt. eigenvalues --    1.60516   1.62111   1.62954   1.64085   1.65624
 Alpha virt. eigenvalues --    1.66316   1.67192   1.68301   1.68657   1.69484
 Alpha virt. eigenvalues --    1.70963   1.71600   1.72345   1.72716   1.74461
 Alpha virt. eigenvalues --    1.74847   1.76240   1.76536   1.78379   1.78933
 Alpha virt. eigenvalues --    1.80396   1.81312   1.82013   1.82637   1.84519
 Alpha virt. eigenvalues --    1.85750   1.86274   1.87112   1.88346   1.90300
 Alpha virt. eigenvalues --    1.90420   1.92789   1.93831   1.95340   1.96294
 Alpha virt. eigenvalues --    1.96574   1.97859   1.98426   2.00481   2.02117
 Alpha virt. eigenvalues --    2.02709   2.03639   2.05608   2.07737   2.09221
 Alpha virt. eigenvalues --    2.09363   2.11108   2.12041   2.12680   2.14811
 Alpha virt. eigenvalues --    2.15807   2.17195   2.18682   2.18859   2.19264
 Alpha virt. eigenvalues --    2.20383   2.21944   2.23364   2.25251   2.26166
 Alpha virt. eigenvalues --    2.26878   2.29385   2.31121   2.33503   2.34388
 Alpha virt. eigenvalues --    2.34680   2.35661   2.36355   2.38986   2.40278
 Alpha virt. eigenvalues --    2.40849   2.42347   2.44276   2.45291   2.46935
 Alpha virt. eigenvalues --    2.48473   2.49604   2.51159   2.51696   2.54746
 Alpha virt. eigenvalues --    2.55698   2.59710   2.61201   2.64496   2.68706
 Alpha virt. eigenvalues --    2.70785   2.73591   2.77669   2.79057   2.81445
 Alpha virt. eigenvalues --    2.83865   2.87281   2.89021   2.94165   2.97302
 Alpha virt. eigenvalues --    2.99282   3.03852   3.06930   3.08741   3.16983
 Alpha virt. eigenvalues --    3.26631   3.27072   3.34350   3.38563   3.48431
 Alpha virt. eigenvalues --    3.60335   3.71531   3.80351   4.07790   4.18479
          Condensed to atoms (all electrons):
               1          2          3          4          5          6
     1  C   10.178487  -1.859063  -0.963353  -0.931756   0.234019  -0.412184
     2  C   -1.859063  11.638363  -2.295860   0.379857  -0.092461   0.287805
     3  C   -0.963353  -2.295860  14.699113  -0.740661  -1.185754   0.102087
     4  C   -0.931756   0.379857  -0.740661   5.874721   0.047199   0.075282
     5  C    0.234019  -0.092461  -1.185754   0.047199   6.850903  -0.095605
     6  H   -0.412184   0.287805   0.102087   0.075282  -0.095605   1.649041
     7  S   -0.534374   0.029895  -0.326408   0.134213   0.212399  -0.015390
     8  H    0.016892   0.103515  -0.060590   0.025505   0.195324  -0.060999
     9  C   -0.060044  -1.099626  -2.924436  -0.016455   0.483683  -0.045303
    10  S   -0.175885   0.124931  -0.502697   0.096082   0.075662   0.009128
    11  C   -0.008602  -0.003666   0.064327  -0.061192   0.035264   0.003472
    12  C   -0.039878  -0.010227   0.220859   0.081409  -0.043268  -0.003926
    13  C    0.075937  -0.888521  -0.270737  -0.099470  -0.342474  -0.003123
    14  H   -0.019304   0.085555  -0.008574   0.013705   0.009060  -0.001270
    15  S    0.001111  -0.011215  -0.049858  -0.001370   0.001203   0.000049
    16  C   -0.000454  -0.006139   0.018753  -0.002539   0.000105   0.000057
    17  C    0.003966   0.041364  -0.349267  -0.043138   0.003041   0.000294
    18  H    0.000052   0.000234  -0.000563  -0.000236  -0.000029   0.000005
    19  H    0.000043   0.001253  -0.002826  -0.000461   0.000331  -0.000000
    20  H    0.070146  -0.024185   0.036496   0.034753   0.021751  -0.019957
    21  H    0.002341  -0.018196   0.007178   0.369655  -0.001552   0.002684
    22  H   -0.036275   0.032907  -0.048576   0.306940  -0.011810   0.004543
               7          8          9         10         11         12
     1  C   -0.534374   0.016892  -0.060044  -0.175885  -0.008602  -0.039878
     2  C    0.029895   0.103515  -1.099626   0.124931  -0.003666  -0.010227
     3  C   -0.326408  -0.060590  -2.924436  -0.502697   0.064327   0.220859
     4  C    0.134213   0.025505  -0.016455   0.096082  -0.061192   0.081409
     5  C    0.212399   0.195324   0.483683   0.075662   0.035264  -0.043268
     6  H   -0.015390  -0.060999  -0.045303   0.009128   0.003472  -0.003926
     7  S   16.336979  -0.105728  -0.357631   0.022247   0.008812  -0.047336
     8  H   -0.105728   1.239405  -0.005775   0.000397  -0.000741   0.001946
     9  C   -0.357631  -0.005775  14.941532   0.333319  -0.769765  -0.192513
    10  S    0.022247   0.000397   0.333319  16.880157  -0.006492  -0.432572
    11  C    0.008812  -0.000741  -0.769765  -0.006492  11.142909  -0.657809
    12  C   -0.047336   0.001946  -0.192513  -0.432572  -0.657809  12.796876
    13  C    0.129067   0.001774  -4.585328  -0.909713  -0.411433  -3.793603
    14  H   -0.005387   0.002692   0.902414   0.037283  -0.169302   0.466021
    15  S    0.012110  -0.000076  -0.447156   0.168236   0.183969  -0.587935
    16  C    0.003004  -0.000028   0.021621  -0.126172  -0.131788  -0.969870
    17  C    0.008724   0.000055  -0.207888  -0.178998  -3.124855  -0.547403
    18  H    0.000102  -0.000003   0.004269   0.008615   0.106833  -0.084229
    19  H    0.000056   0.000004   0.067835   0.061048   0.528322   0.023979
    20  H   -0.009587   0.000575   0.017011  -0.045297  -0.005672   0.002749
    21  H    0.010367   0.001007  -0.032569   0.010757   0.000702   0.005242
    22  H    0.009967   0.000868   0.026441   0.013745   0.003809   0.004835
              13         14         15         16         17         18
     1  C    0.075937  -0.019304   0.001111  -0.000454   0.003966   0.000052
     2  C   -0.888521   0.085555  -0.011215  -0.006139   0.041364   0.000234
     3  C   -0.270737  -0.008574  -0.049858   0.018753  -0.349267  -0.000563
     4  C   -0.099470   0.013705  -0.001370  -0.002539  -0.043138  -0.000236
     5  C   -0.342474   0.009060   0.001203   0.000105   0.003041  -0.000029
     6  H   -0.003123  -0.001270   0.000049   0.000057   0.000294   0.000005
     7  S    0.129067  -0.005387   0.012110   0.003004   0.008724   0.000102
     8  H    0.001774   0.002692  -0.000076  -0.000028   0.000055  -0.000003
     9  C   -4.585328   0.902414  -0.447156   0.021621  -0.207888   0.004269
    10  S   -0.909713   0.037283   0.168236  -0.126172  -0.178998   0.008615
    11  C   -0.411433  -0.169302   0.183969  -0.131788  -3.124855   0.106833
    12  C   -3.793603   0.466021  -0.587935  -0.969870  -0.547403  -0.084229
    13  C   18.372357  -1.495705   0.181645   0.077468  -0.267112   0.030339
    14  H   -1.495705   1.767683  -0.064975   0.012740  -0.042561   0.001390
    15  S    0.181645  -0.064975  16.075688   0.216965  -0.076622  -0.135276
    16  C    0.077468   0.012740   0.216965   6.593034   0.326088   0.288688
    17  C   -0.267112  -0.042561  -0.076622   0.326088  10.522000  -0.057443
    18  H    0.030339   0.001390  -0.135276   0.288688  -0.057443   1.262073
    19  H   -0.054626  -0.000506  -0.001608  -0.135626  -0.460784  -0.063223
    20  H    0.026105   0.000726   0.000231  -0.000274   0.000754  -0.000005
    21  H   -0.024443   0.000644  -0.000342   0.000377  -0.007102   0.000026
    22  H   -0.028780   0.002033  -0.001255   0.000334  -0.011031   0.000024
              19         20         21         22
     1  C    0.000043   0.070146   0.002341  -0.036275
     2  C    0.001253  -0.024185  -0.018196   0.032907
     3  C   -0.002826   0.036496   0.007178  -0.048576
     4  C   -0.000461   0.034753   0.369655   0.306940
     5  C    0.000331   0.021751  -0.001552  -0.011810
     6  H   -0.000000  -0.019957   0.002684   0.004543
     7  S    0.000056  -0.009587   0.010367   0.009967
     8  H    0.000004   0.000575   0.001007   0.000868
     9  C    0.067835   0.017011  -0.032569   0.026441
    10  S    0.061048  -0.045297   0.010757   0.013745
    11  C    0.528322  -0.005672   0.000702   0.003809
    12  C    0.023979   0.002749   0.005242   0.004835
    13  C   -0.054626   0.026105  -0.024443  -0.028780
    14  H   -0.000506   0.000726   0.000644   0.002033
    15  S   -0.001608   0.000231  -0.000342  -0.001255
    16  C   -0.135626  -0.000274   0.000377   0.000334
    17  C   -0.460784   0.000754  -0.007102  -0.011031
    18  H   -0.063223  -0.000005   0.000026   0.000024
    19  H    1.336374   0.000337   0.000335   0.000110
    20  H    0.000337   1.456781  -0.163990  -0.184160
    21  H    0.000335  -0.163990   0.745337  -0.099931
    22  H    0.000110  -0.184160  -0.099931   0.830795
 Mulliken charges:
               1
     1  C    0.458178
     2  C   -0.416522
     3  C    0.581348
     4  C    0.457959
     5  C   -0.396990
     6  H   -0.476690
     7  S    0.483899
     8  H   -0.356020
     9  C   -0.053637
    10  S    0.536218
    11  C   -0.727104
    12  C   -0.193347
    13  C    0.280375
    14  H   -0.494360
    15  S    0.536482
    16  C   -0.186346
    17  C    0.467916
    18  H   -0.361644
    19  H   -0.300367
    20  H   -0.215288
    21  H    0.191473
    22  H    0.184468
 Sum of Mulliken charges =  -0.00000
 Mulliken charges with hydrogens summed into heavy atoms:
               1
     1  C   -0.018511
     2  C   -0.416522
     3  C    0.581348
     4  C    0.618611
     5  C   -0.753009
     7  S    0.483899
     9  C   -0.053637
    10  S    0.536218
    11  C   -0.727104
    12  C   -0.193347
    13  C   -0.213985
    15  S    0.536482
    16  C   -0.547990
    17  C    0.167549
 Electronic spatial extent (au):  <R**2>=           4390.5717
 Charge=             -0.0000 electrons
 Dipole moment (field-independent basis, Debye):
    X=             -0.6491    Y=              1.1576    Z=              0.2151  Tot=              1.3445
 Quadrupole moment (field-independent basis, Debye-Ang):
   XX=            -86.9136   YY=            -98.2666   ZZ=           -112.0831
   XY=              2.3572   XZ=             -1.2444   YZ=             -0.4819
 Traceless Quadrupole moment (field-independent basis, Debye-Ang):
   XX=             12.1742   YY=              0.8212   ZZ=            -12.9954
   XY=              2.3572   XZ=             -1.2444   YZ=             -0.4819
 Octapole moment (field-independent basis, Debye-Ang**2):
  XXX=             -2.8058  YYY=              3.9316  ZZZ=              0.7437  XYY=             -7.8344
  XXY=             14.6650  XXZ=             -2.0296  XZZ=             -0.9826  YZZ=              2.2689
  YYZ=             -0.3133  XYZ=             -7.5186
 Hexadecapole moment (field-independent basis, Debye-Ang**3):
 XXXX=          -4198.3065 YYYY=          -1144.5589 ZZZZ=           -182.0939 XXXY=             91.1209
 XXXZ=            -14.9458 YYYX=             28.2418 YYYZ=             -7.3730 ZZZX=              1.3508
 ZZZY=              2.1743 XXYY=           -931.4355 XXZZ=           -937.3179 YYZZ=           -234.7657
 XXYZ=              6.1169 YYXZ=             -4.2789 ZZXY=             -8.3866
 N-N= 1.118494194444D+03 E-N=-6.056241760604D+03  KE= 1.612934486351D+03
 Unable to Open any file for archive entry.
 1\1\GINC-CX3-11-6\FOpt\RMP2-FC\Aug-CC-pVDZ\C11H8S3\NS5018\27-Oct-2021\
 0\\# opt=modredundant mp2/aug-cc-pvdz\\pBTTT_-20.pdb\\0,1\C,-4.0570826
 579,0.2826721638,0.1193061705\C,-2.7466714382,0.8421330642,0.183517019
 7\C,-1.7517135652,-0.1402802713,0.0166836635\C,-2.4870775947,2.3106477
 098,0.4169992059\C,-4.0712754804,-1.0907157771,-0.0969982046\H,-4.9698
 781812,0.8731065791,0.2352107706\S,-2.4657195025,-1.7178850132,-0.2388
 929969\H,-4.9285187686,-1.7594292403,-0.1794640565\C,-0.3028838591,-0.
 0283962676,0.0201390051\S,0.5018790356,1.5241065192,-0.2659470342\C,2.
 0733586805,0.7854105294,-0.1547124602\C,1.9595140412,-0.6051808936,0.0
 910986573\C,0.6218857901,-1.0662354264,0.1972141361\H,0.3188936456,-2.
 0951944843,0.4043417827\S,3.5349517087,-1.3372257899,0.2246934304\C,4.
 31477289,0.2056764315,-0.0466999082\C,3.4181833196,1.2514152045,-0.231
 0062307\H,5.4046233034,0.2542868116,-0.0602974048\H,3.7291334175,2.281
 7020818,-0.4129675316\H,-3.4193691342,2.8113213799,0.7192732618\H,-2.1
 179247847,2.8078760961,-0.4956666832\H,-1.7380808651,2.4671885928,1.21
 01754074\\Version=ES64L-G16RevC.01\State=1-A\HF=-1613.8016153\MP2=-161
 5.7519825\RMSD=8.074e-09\RMSF=1.945e-04\Dipole=-0.1310902,0.3302092,0.
 0639364\PG=C01 [X(C11H8S3)]\\@
 The archive entry for this job was punched.


 HE THAT RISETH LATE MUST TROT ALL DAY.

                  -- BENJAMIN FRANKLIN
 Job cpu time:       0 days 12 hours  2 minutes  7.6 seconds.
 Elapsed time:       0 days  0 hours 52 minutes  0.3 seconds.
 File lengths (MBytes):  RWF=  36381 Int=      0 D2E=      0 Chk=     18 Scr=      1
 Normal termination of Gaussian 16 at Wed Oct 27 02:56:26 2021.
