 Entering Gaussian System, Link 0=g16
 Input=pBTTT_135.gjf
 Output=pBTTT_135.log
 Initial command:
 /apps/gaussian/g16-c01-avx/g16/l1.exe "/tmp/pbs.4766302[310].pbs/Gau-2909911.inp" -scrdir="/tmp/pbs.4766302[310].pbs/"
 Entering Link 1 = /apps/gaussian/g16-c01-avx/g16/l1.exe PID=   2909912.
  
 Copyright (c) 1988-2019, Gaussian, Inc.  All Rights Reserved.
  
 This is part of the Gaussian(R) 16 program.  It is based on
 the Gaussian(R) 09 system (copyright 2009, Gaussian, Inc.),
 the Gaussian(R) 03 system (copyright 2003, Gaussian, Inc.),
 the Gaussian(R) 98 system (copyright 1998, Gaussian, Inc.),
 the Gaussian(R) 94 system (copyright 1995, Gaussian, Inc.),
 the Gaussian 92(TM) system (copyright 1992, Gaussian, Inc.),
 the Gaussian 90(TM) system (copyright 1990, Gaussian, Inc.),
 the Gaussian 88(TM) system (copyright 1988, Gaussian, Inc.),
 the Gaussian 86(TM) system (copyright 1986, Carnegie Mellon
 University), and the Gaussian 82(TM) system (copyright 1983,
 Carnegie Mellon University). Gaussian is a federally registered
 trademark of Gaussian, Inc.
  
 This software contains proprietary and confidential information,
 including trade secrets, belonging to Gaussian, Inc.
  
 This software is provided under written license and may be
 used, copied, transmitted, or stored only in accord with that
 written license.
  
 The following legend is applicable only to US Government
 contracts under FAR:
  
                    RESTRICTED RIGHTS LEGEND
  
 Use, reproduction and disclosure by the US Government is
 subject to restrictions as set forth in subparagraphs (a)
 and (c) of the Commercial Computer Software - Restricted
 Rights clause in FAR 52.227-19.
  
 Gaussian, Inc.
 340 Quinnipiac St., Bldg. 40, Wallingford CT 06492
  
  
 ---------------------------------------------------------------
 Warning -- This program may not be used in any manner that
 competes with the business of Gaussian, Inc. or will provide
 assistance to any competitor of Gaussian, Inc.  The licensee
 of this program is prohibited from giving any competitor of
 Gaussian, Inc. access to this program.  By using this program,
 the user acknowledges that Gaussian, Inc. is engaged in the
 business of creating and licensing software in the field of
 computational chemistry and represents and warrants to the
 licensee that it is not a competitor of Gaussian, Inc. and that
 it will not use this program in any manner prohibited above.
 ---------------------------------------------------------------
  

 Cite this work as:
 Gaussian 16, Revision C.01,
 M. J. Frisch, G. W. Trucks, H. B. Schlegel, G. E. Scuseria, 
 M. A. Robb, J. R. Cheeseman, G. Scalmani, V. Barone, 
 G. A. Petersson, H. Nakatsuji, X. Li, M. Caricato, A. V. Marenich, 
 J. Bloino, B. G. Janesko, R. Gomperts, B. Mennucci, H. P. Hratchian, 
 J. V. Ortiz, A. F. Izmaylov, J. L. Sonnenberg, D. Williams-Young, 
 F. Ding, F. Lipparini, F. Egidi, J. Goings, B. Peng, A. Petrone, 
 T. Henderson, D. Ranasinghe, V. G. Zakrzewski, J. Gao, N. Rega, 
 G. Zheng, W. Liang, M. Hada, M. Ehara, K. Toyota, R. Fukuda, 
 J. Hasegawa, M. Ishida, T. Nakajima, Y. Honda, O. Kitao, H. Nakai, 
 T. Vreven, K. Throssell, J. A. Montgomery, Jr., J. E. Peralta, 
 F. Ogliaro, M. J. Bearpark, J. J. Heyd, E. N. Brothers, K. N. Kudin, 
 V. N. Staroverov, T. A. Keith, R. Kobayashi, J. Normand, 
 K. Raghavachari, A. P. Rendell, J. C. Burant, S. S. Iyengar, 
 J. Tomasi, M. Cossi, J. M. Millam, M. Klene, C. Adamo, R. Cammi, 
 J. W. Ochterski, R. L. Martin, K. Morokuma, O. Farkas, 
 J. B. Foresman, and D. J. Fox, Gaussian, Inc., Wallingford CT, 2019.
 
 ******************************************
 Gaussian 16:  ES64L-G16RevC.01  3-Jul-2019
                27-Oct-2021 
 ******************************************
 %mem=100GB
 %nprocshared=16
 Will use up to   16 processors via shared memory.
 ----------------------------------
 # opt=modredundant mp2/aug-cc-pvdz
 ----------------------------------
 1/18=120,19=15,38=1/1,3;
 2/9=110,12=2,17=6,18=5,40=1/2;
 3/5=16,7=10,11=9,25=1,30=1,71=1/1,2,3;
 4//1;
 5/5=2,38=5/2;
 8/6=4,10=1/1;
 9/15=2,16=-3/6;
 10/5=1/2;
 6/7=2,8=2,9=2,10=2/1;
 7/12=2/1,2,3,16;
 1/18=20,19=15/3(2);
 2/9=110/2;
 99//99;
 2/9=110/2;
 3/5=16,7=10,11=9,25=1,30=1,71=1/1,2,3;
 4/5=5,16=3,69=1/1;
 5/5=2,38=5/2;
 8/6=4,10=1/1;
 9/15=2,16=-3/6;
 10/5=1/2;
 7/12=2/1,2,3,16;
 1/18=20,19=15/3(-8);
 2/9=110/2;
 6/7=2,8=2,9=2,10=2/1;
 99/9=10/99;
 -------------
 pBTTT_135.pdb
 -------------
 Symbolic Z-matrix:
 Charge =  0 Multiplicity = 1
 C                    -3.96      0.745     0.089 
 C                    -2.571     1.061     0.313 
 C                    -1.756     0.028    -0.029 
 C                    -2.141     2.385     0.889 
 C                    -4.159    -0.495    -0.401 
 H                    -4.763     1.433     0.307 
 S                    -2.671    -1.337    -0.628 
 H                    -5.096    -0.968    -0.639 
 C                    -0.288    -0.032     0.01 
 S                     0.529    -1.444     0.673 
 C                     2.08     -0.748     0.321 
 C                     1.946     0.481    -0.255 
 C                     0.588     0.894    -0.446 
 H                     0.285     1.813    -0.918 
 S                     3.498     1.179    -0.608 
 C                     4.298    -0.228     0.042 
 C                     3.441    -1.166     0.497 
 H                     5.374    -0.273     0.047 
 H                     3.75     -2.102     0.932 
 H                    -2.827     2.689     1.68 
 H                    -2.153     3.166     0.126 
 H                    -1.14      2.333     1.306 
 
 The following ModRedundant input section has been read:
 D       2       3       9      10 F                                           
 

 GradGradGradGradGradGradGradGradGradGradGradGradGradGradGradGradGradGrad
 Berny optimization.
 Initialization pass.
                           ----------------------------
                           !    Initial Parameters    !
                           ! (Angstroms and Degrees)  !
 --------------------------                            --------------------------
 ! Name  Definition              Value          Derivative Info.                !
 --------------------------------------------------------------------------------
 ! R1    R(1,2)                  1.442          estimate D2E/DX2                !
 ! R2    R(1,5)                  1.3481         estimate D2E/DX2                !
 ! R3    R(1,6)                  1.0797         estimate D2E/DX2                !
 ! R4    R(2,3)                  1.3595         estimate D2E/DX2                !
 ! R5    R(2,4)                  1.5065         estimate D2E/DX2                !
 ! R6    R(3,7)                  1.7491         estimate D2E/DX2                !
 ! R7    R(3,9)                  1.4697         estimate D2E/DX2                !
 ! R8    R(4,20)                 1.0903         estimate D2E/DX2                !
 ! R9    R(4,21)                 1.0919         estimate D2E/DX2                !
 ! R10   R(4,22)                 1.0856         estimate D2E/DX2                !
 ! R11   R(5,7)                  1.7247         estimate D2E/DX2                !
 ! R12   R(5,8)                  1.0763         estimate D2E/DX2                !
 ! R13   R(9,10)                 1.7609         estimate D2E/DX2                !
 ! R14   R(9,13)                 1.3538         estimate D2E/DX2                !
 ! R15   R(10,11)                1.7361         estimate D2E/DX2                !
 ! R16   R(11,12)                1.3639         estimate D2E/DX2                !
 ! R17   R(11,17)                1.4346         estimate D2E/DX2                !
 ! R18   R(12,13)                1.4322         estimate D2E/DX2                !
 ! R19   R(12,15)                1.738          estimate D2E/DX2                !
 ! R20   R(13,14)                1.0766         estimate D2E/DX2                !
 ! R21   R(15,16)                1.7442         estimate D2E/DX2                !
 ! R22   R(16,17)                1.3496         estimate D2E/DX2                !
 ! R23   R(16,18)                1.077          estimate D2E/DX2                !
 ! R24   R(17,19)                1.0774         estimate D2E/DX2                !
 ! A1    A(2,1,5)              113.5925         estimate D2E/DX2                !
 ! A2    A(2,1,6)              123.0524         estimate D2E/DX2                !
 ! A3    A(5,1,6)              123.3498         estimate D2E/DX2                !
 ! A4    A(1,2,3)              111.8304         estimate D2E/DX2                !
 ! A5    A(1,2,4)              121.7972         estimate D2E/DX2                !
 ! A6    A(3,2,4)              126.359          estimate D2E/DX2                !
 ! A7    A(2,3,7)              111.4399         estimate D2E/DX2                !
 ! A8    A(2,3,9)              128.5437         estimate D2E/DX2                !
 ! A9    A(7,3,9)              119.983          estimate D2E/DX2                !
 ! A10   A(2,4,20)             110.0502         estimate D2E/DX2                !
 ! A11   A(2,4,21)             110.9955         estimate D2E/DX2                !
 ! A12   A(2,4,22)             111.5883         estimate D2E/DX2                !
 ! A13   A(20,4,21)            107.4946         estimate D2E/DX2                !
 ! A14   A(20,4,22)            108.3508         estimate D2E/DX2                !
 ! A15   A(21,4,22)            108.2279         estimate D2E/DX2                !
 ! A16   A(1,5,7)              111.6873         estimate D2E/DX2                !
 ! A17   A(1,5,8)              127.8174         estimate D2E/DX2                !
 ! A18   A(7,5,8)              120.4946         estimate D2E/DX2                !
 ! A19   A(3,7,5)               91.4478         estimate D2E/DX2                !
 ! A20   A(3,9,10)             120.4071         estimate D2E/DX2                !
 ! A21   A(3,9,13)             127.5488         estimate D2E/DX2                !
 ! A22   A(10,9,13)            112.0289         estimate D2E/DX2                !
 ! A23   A(9,10,11)             90.9566         estimate D2E/DX2                !
 ! A24   A(10,11,12)           111.0457         estimate D2E/DX2                !
 ! A25   A(10,11,17)           134.9013         estimate D2E/DX2                !
 ! A26   A(12,11,17)           114.053          estimate D2E/DX2                !
 ! A27   A(11,12,13)           114.1626         estimate D2E/DX2                !
 ! A28   A(11,12,15)           111.0967         estimate D2E/DX2                !
 ! A29   A(13,12,15)           134.7351         estimate D2E/DX2                !
 ! A30   A(9,13,12)            111.8006         estimate D2E/DX2                !
 ! A31   A(9,13,14)            123.3265         estimate D2E/DX2                !
 ! A32   A(12,13,14)           124.852          estimate D2E/DX2                !
 ! A33   A(12,15,16)            90.5683         estimate D2E/DX2                !
 ! A34   A(15,16,17)           113.2696         estimate D2E/DX2                !
 ! A35   A(15,16,18)           119.5841         estimate D2E/DX2                !
 ! A36   A(17,16,18)           127.1463         estimate D2E/DX2                !
 ! A37   A(11,17,16)           111.0125         estimate D2E/DX2                !
 ! A38   A(11,17,19)           125.0826         estimate D2E/DX2                !
 ! A39   A(16,17,19)           123.905          estimate D2E/DX2                !
 ! D1    D(5,1,2,3)              0.2726         estimate D2E/DX2                !
 ! D2    D(5,1,2,4)           -178.4703         estimate D2E/DX2                !
 ! D3    D(6,1,2,3)            179.4595         estimate D2E/DX2                !
 ! D4    D(6,1,2,4)              0.7166         estimate D2E/DX2                !
 ! D5    D(2,1,5,7)             -0.483          estimate D2E/DX2                !
 ! D6    D(2,1,5,8)            179.2031         estimate D2E/DX2                !
 ! D7    D(6,1,5,7)           -179.667          estimate D2E/DX2                !
 ! D8    D(6,1,5,8)              0.0191         estimate D2E/DX2                !
 ! D9    D(1,2,3,7)              0.0633         estimate D2E/DX2                !
 ! D10   D(1,2,3,9)            177.9297         estimate D2E/DX2                !
 ! D11   D(4,2,3,7)            178.7366         estimate D2E/DX2                !
 ! D12   D(4,2,3,9)             -3.3971         estimate D2E/DX2                !
 ! D13   D(1,2,4,20)            39.8539         estimate D2E/DX2                !
 ! D14   D(1,2,4,21)           -79.0165         estimate D2E/DX2                !
 ! D15   D(1,2,4,22)           160.1748         estimate D2E/DX2                !
 ! D16   D(3,2,4,20)          -138.697          estimate D2E/DX2                !
 ! D17   D(3,2,4,21)           102.4326         estimate D2E/DX2                !
 ! D18   D(3,2,4,22)           -18.3761         estimate D2E/DX2                !
 ! D19   D(2,3,7,5)             -0.2798         estimate D2E/DX2                !
 ! D20   D(9,3,7,5)           -178.3532         estimate D2E/DX2                !
 ! D21   D(2,3,9,10)           135.0405         Frozen                          !
 ! D22   D(2,3,9,13)           -46.5019         estimate D2E/DX2                !
 ! D23   D(7,3,9,10)           -47.2525         estimate D2E/DX2                !
 ! D24   D(7,3,9,13)           131.2051         estimate D2E/DX2                !
 ! D25   D(1,5,7,3)              0.4357         estimate D2E/DX2                !
 ! D26   D(8,5,7,3)           -179.2765         estimate D2E/DX2                !
 ! D27   D(3,9,10,11)          178.8042         estimate D2E/DX2                !
 ! D28   D(13,9,10,11)           0.1233         estimate D2E/DX2                !
 ! D29   D(3,9,13,12)         -179.1045         estimate D2E/DX2                !
 ! D30   D(3,9,13,14)           -0.6942         estimate D2E/DX2                !
 ! D31   D(10,9,13,12)          -0.5395         estimate D2E/DX2                !
 ! D32   D(10,9,13,14)         177.8708         estimate D2E/DX2                !
 ! D33   D(9,10,11,12)           0.3459         estimate D2E/DX2                !
 ! D34   D(9,10,11,17)        -179.7029         estimate D2E/DX2                !
 ! D35   D(10,11,12,13)         -0.7245         estimate D2E/DX2                !
 ! D36   D(10,11,12,15)       -179.9986         estimate D2E/DX2                !
 ! D37   D(17,11,12,13)        179.3134         estimate D2E/DX2                !
 ! D38   D(17,11,12,15)          0.0393         estimate D2E/DX2                !
 ! D39   D(10,11,17,16)       -179.9858         estimate D2E/DX2                !
 ! D40   D(10,11,17,19)          0.0821         estimate D2E/DX2                !
 ! D41   D(12,11,17,16)         -0.0357         estimate D2E/DX2                !
 ! D42   D(12,11,17,19)       -179.9678         estimate D2E/DX2                !
 ! D43   D(11,12,13,9)           0.8296         estimate D2E/DX2                !
 ! D44   D(11,12,13,14)       -177.5517         estimate D2E/DX2                !
 ! D45   D(15,12,13,9)         179.8762         estimate D2E/DX2                !
 ! D46   D(15,12,13,14)          1.4949         estimate D2E/DX2                !
 ! D47   D(11,12,15,16)         -0.0252         estimate D2E/DX2                !
 ! D48   D(13,12,15,16)       -179.0929         estimate D2E/DX2                !
 ! D49   D(12,15,16,17)          0.0051         estimate D2E/DX2                !
 ! D50   D(12,15,16,18)       -179.9628         estimate D2E/DX2                !
 ! D51   D(15,16,17,11)          0.0155         estimate D2E/DX2                !
 ! D52   D(15,16,17,19)        179.9485         estimate D2E/DX2                !
 ! D53   D(18,16,17,11)        179.9804         estimate D2E/DX2                !
 ! D54   D(18,16,17,19)         -0.0865         estimate D2E/DX2                !
 --------------------------------------------------------------------------------
 Trust Radius=3.00D-01 FncErr=1.00D-07 GrdErr=1.00D-07 EigMax=2.50D+02 EigMin=1.00D-04
 Number of steps in this run=    127 maximum allowed number of steps=    132.
 GradGradGradGradGradGradGradGradGradGradGradGradGradGradGradGradGradGrad

                          Input orientation:                          
 ---------------------------------------------------------------------
 Center     Atomic      Atomic             Coordinates (Angstroms)
 Number     Number       Type             X           Y           Z
 ---------------------------------------------------------------------
      1          6           0       -3.960000    0.745000    0.089000
      2          6           0       -2.571000    1.061000    0.313000
      3          6           0       -1.756000    0.028000   -0.029000
      4          6           0       -2.141000    2.385000    0.889000
      5          6           0       -4.159000   -0.495000   -0.401000
      6          1           0       -4.763000    1.433000    0.307000
      7         16           0       -2.671000   -1.337000   -0.628000
      8          1           0       -5.096000   -0.968000   -0.639000
      9          6           0       -0.288000   -0.032000    0.010000
     10         16           0        0.529000   -1.444000    0.673000
     11          6           0        2.080000   -0.748000    0.321000
     12          6           0        1.946000    0.481000   -0.255000
     13          6           0        0.588000    0.894000   -0.446000
     14          1           0        0.285000    1.813000   -0.918000
     15         16           0        3.498000    1.179000   -0.608000
     16          6           0        4.298000   -0.228000    0.042000
     17          6           0        3.441000   -1.166000    0.497000
     18          1           0        5.374000   -0.273000    0.047000
     19          1           0        3.750000   -2.102000    0.932000
     20          1           0       -2.827000    2.689000    1.680000
     21          1           0       -2.153000    3.166000    0.126000
     22          1           0       -1.140000    2.333000    1.306000
 ---------------------------------------------------------------------
                    Distance matrix (angstroms):
                    1          2          3          4          5
     1  C    0.000000
     2  C    1.441996   0.000000
     3  C    2.320696   1.359514   0.000000
     4  C    2.576502   1.506536   2.558593   0.000000
     5  C    1.348073   2.335097   2.487232   3.745774   0.000000
     6  H    1.079665   2.223350   3.336011   2.849546   2.140856
     7  S    2.551536   2.577961   1.749071   4.054069   1.724714
     8  H    2.180562   3.376206   3.538321   4.723285   1.076263
     9  C    3.754138   2.549225   1.469743   3.169880   3.920195
    10  S    5.028310   4.001828   2.807279   4.672986   4.902185
    11  C    6.226112   4.990425   3.929322   5.287263   6.285731
    12  C    5.921897   4.589370   3.736454   4.651615   6.184247
    13  C    4.581782   3.253191   2.533413   3.384191   4.946247
    14  H    4.491625   3.199625   2.853459   3.078621   5.034212
    15  S    7.503061   6.139619   5.409673   5.957664   7.840585
    16  C    8.315257   6.994149   6.059826   7.000421   8.472803
    17  C    7.654619   6.413854   5.358276   6.627367   7.682229
    18  H    9.389443   8.060604   7.136755   8.015557   9.546103
    19  H    8.261971   7.095264   5.981342   7.405329   8.179952
    20  H    2.755741   2.141170   3.338958   1.090272   4.030216
    21  H    3.021235   2.154233   3.166809   1.091913   4.207694
    22  H    3.457634   2.156802   2.733991   1.085631   4.475019
                    6          7          8          9         10
     6  H    0.000000
     7  S    3.594939   0.000000
     8  H    2.602039   2.452938   0.000000
     9  C    4.718057   2.790835   4.941069   0.000000
    10  S    6.034596   3.456016   5.795563   1.760909   0.000000
    11  C    7.182173   4.880525   7.243271   2.493351   1.736065
    12  C    6.799473   4.976037   7.199779   2.307412   2.564117
    13  C    5.430537   3.953678   5.984325   1.353805   2.592660
    14  H    5.208390   4.329496   6.063577   2.143254   3.633024
    15  S    8.315399   6.662373   8.858183   4.022716   4.163658
    16  C    9.215794   7.088423   9.447677   4.590298   4.010259
    17  C    8.607933   6.217026   8.614527   3.927921   2.930530
    18  H   10.282840   8.143080  10.515442   5.667247   5.023658
    19  H    9.238940   6.651922   9.055701   4.630381   3.297709
    20  H    2.685286   4.643261   4.888739   4.079125   5.418346
    21  H    3.138176   4.594981   5.131903   3.703901   5.361383
    22  H    3.864470   4.421902   5.507228   2.828205   4.177557
                   11         12         13         14         15
    11  C    0.000000
    12  C    1.363882   0.000000
    13  C    2.347449   1.432206   0.000000
    14  H    3.363907   2.229958   1.076640   0.000000
    15  S    2.566533   1.737963   2.928407   3.289593   0.000000
    16  C    2.295161   2.474428   3.906549   4.603417   1.744176
    17  C    1.434580   2.348007   3.643138   4.564757   2.592933
    18  H    3.339332   3.522911   4.950832   5.583954   2.461037
    19  H    2.235070   3.366790   4.568714   5.545805   3.633189
    20  H    6.143167   5.603661   4.405011   4.147472   6.893524
    21  H    5.768510   4.914894   3.605863   2.977312   6.034959
    22  H    4.564119   3.923012   2.850651   2.692063   5.148413
                   16         17         18         19         20
    16  C    0.000000
    17  C    1.349562   0.000000
    18  H    1.076952   2.176336   0.000000
    19  H    2.145759   1.077405   2.601123   0.000000
    20  H    7.871312   7.453076   8.871107   8.171298   0.000000
    21  H    7.289835   7.084963   8.275789   7.952790   1.759750
    22  H    6.142334   5.820914   7.128009   6.612201   1.764251
                   21         22
    21  H    0.000000
    22  H    1.764216   0.000000
 Stoichiometry    C11H8S3
 Framework group  C1[X(C11H8S3)]
 Deg. of freedom    60
 Full point group                 C1      NOp   1
 Largest Abelian subgroup         C1      NOp   1
 Largest concise Abelian subgroup C1      NOp   1
                         Standard orientation:                         
 ---------------------------------------------------------------------
 Center     Atomic      Atomic             Coordinates (Angstroms)
 Number     Number       Type             X           Y           Z
 ---------------------------------------------------------------------
      1          6           0       -3.959963    0.744863    0.088893
      2          6           0       -2.570968    1.060885    0.312893
      3          6           0       -1.755951    0.027898   -0.029107
      4          6           0       -2.140989    2.384892    0.888893
      5          6           0       -4.158943   -0.495140   -0.401107
      6          1           0       -4.762974    1.432850    0.306893
      7         16           0       -2.670930   -1.337116   -0.628107
      8          1           0       -5.095935   -0.968155   -0.639107
      9          6           0       -0.287950   -0.032078    0.009893
     10         16           0        0.529072   -1.444065    0.672893
     11          6           0        2.080061   -0.748041    0.320893
     12          6           0        1.946042    0.480957   -0.255107
     13          6           0        0.588035    0.893936   -0.446107
     14          1           0        0.285020    1.812931   -0.918107
     15         16           0        3.498030    1.178982   -0.608107
     16          6           0        4.298053   -0.228005    0.041893
     17          6           0        3.441068   -1.166019    0.496893
     18          1           0        5.374054   -0.272988    0.046893
     19          1           0        3.750083   -2.102014    0.931893
     20          1           0       -2.826994    2.688881    1.679893
     21          1           0       -2.153001    3.165892    0.125893
     22          1           0       -1.139988    2.332908    1.305893
 ---------------------------------------------------------------------
 Rotational constants (GHZ):           1.2814673           0.2755553           0.2409903
 Standard basis: Aug-CC-pVDZ (5D, 7F)
 There are   434 symmetry adapted cartesian basis functions of A   symmetry.
 There are   406 symmetry adapted basis functions of A   symmetry.
   406 basis functions,   804 primitive gaussians,   434 cartesian basis functions
    61 alpha electrons       61 beta electrons
       nuclear repulsion energy      1124.3725338759 Hartrees.
 NAtoms=   22 NActive=   22 NUniq=   22 SFac= 1.00D+00 NAtFMM=   60 NAOKFM=F Big=F
 Integral buffers will be    131072 words long.
 Raffenetti 1 integral format.
 Two-electron integral symmetry is turned on.
 One-electron integrals computed using PRISM.
 NBasis=   406 RedAO= T EigKep=  3.20D-06  NBF=   406
 NBsUse=   406 1.00D-06 EigRej= -1.00D+00 NBFU=   406
 ExpMin= 2.97D-02 ExpMax= 1.11D+05 ExpMxC= 1.07D+03 IAcc=3 IRadAn=         5 AccDes= 0.00D+00
 Harris functional with IExCor=  205 and IRadAn=       5 diagonalized for initial guess.
 HarFok:  IExCor=  205 AccDes= 0.00D+00 IRadAn=         5 IDoV= 1 UseB2=F ITyADJ=14
 ICtDFT=  3500011 ScaDFX=  1.000000  1.000000  1.000000  1.000000
 FoFCou: FMM=F IPFlag=           0 FMFlag=      100000 FMFlg1=           0
         NFxFlg=           0 DoJE=T BraDBF=F KetDBF=T FulRan=T
         wScrn=  0.000000 ICntrl=       500 IOpCl=  0 I1Cent=   200000004 NGrid=           0
         NMat0=    1 NMatS0=      1 NMatT0=    0 NMatD0=    1 NMtDS0=    0 NMtDT0=    0
 Petite list used in FoFCou.
 Requested convergence on RMS density matrix=1.00D-08 within 128 cycles.
 Requested convergence on MAX density matrix=1.00D-06.
 Requested convergence on             energy=1.00D-06.
 No special actions if energy rises.
 SCF Done:  E(RHF) =  -1613.81433656     A.U. after   17 cycles
            NFock= 17  Conv=0.42D-08     -V/T= 2.0000
 ExpMin= 2.97D-02 ExpMax= 1.11D+05 ExpMxC= 1.07D+03 IAcc=3 IRadAn=         5 AccDes= 0.00D+00
 HarFok:  IExCor=  205 AccDes= 0.00D+00 IRadAn=         5 IDoV=-2 UseB2=F ITyADJ=14
 ICtDFT= 12500011 ScaDFX=  1.000000  1.000000  1.000000  1.000000
 GSVD:  LWork=        -884 too small for GESVD, short by        3770 words or        3770 for optimal perf.
 Range of M.O.s used for correlation:    27   406
 NBasis=   406 NAE=    61 NBE=    61 NFC=    26 NFV=     0
 NROrb=    380 NOA=    35 NOB=    35 NVA=   345 NVB=   345

 **** Warning!!: The largest alpha MO coefficient is  0.97507219D+02

 Disk-based method using ON**2 memory for 35 occupieds at a time.
 Estimated scratch disk usage=  5835009474 words.
 Actual    scratch disk usage=  4759047618 words.
 JobTyp=1 Pass  1:  I=  27 to  61 NPSUse= 16 ParTrn=T ParDer=T DoDerP=T.
 (rs|ai) integrals will be sorted in core.
 Spin components of T(2) and E(2):
     alpha-alpha T2 =       0.1135436487D+00 E2=     -0.2646066867D+00
     alpha-beta  T2 =       0.5603027277D+00 E2=     -0.1399035510D+01
     beta-beta   T2 =       0.1135436487D+00 E2=     -0.2646066867D+00
 ANorm=    0.1336933067D+01
 E2 =    -0.1928248884D+01 EUMP2 =    -0.16157425854399D+04
          IDoAtm=1111111111111111111111
          Differentiating once with respect to electric field.
                with respect to dipole field.
          Differentiating once with respect to nuclear coordinates.
 Keep R1 ints in memory in canonical form, NReq=3454318301.
          There are     1 degrees of freedom in the 1st order CPHF.  IDoFFX=0 NUNeed=     1.
 LinEq1:  Iter=  0 NonCon=     1 RMS=2.71D-03 Max=5.67D-02 NDo=     1
 AX will form     1 AO Fock derivatives at one time.
 LinEq1:  Iter=  1 NonCon=     1 RMS=5.91D-04 Max=9.26D-03 NDo=     1
 LinEq1:  Iter=  2 NonCon=     1 RMS=3.32D-04 Max=1.14D-02 NDo=     1
 LinEq1:  Iter=  3 NonCon=     1 RMS=9.28D-05 Max=1.77D-03 NDo=     1
 LinEq1:  Iter=  4 NonCon=     1 RMS=3.67D-05 Max=6.73D-04 NDo=     1
 LinEq1:  Iter=  5 NonCon=     1 RMS=1.29D-05 Max=3.09D-04 NDo=     1
 LinEq1:  Iter=  6 NonCon=     1 RMS=4.13D-06 Max=1.37D-04 NDo=     1
 LinEq1:  Iter=  7 NonCon=     1 RMS=2.00D-06 Max=4.91D-05 NDo=     1
 LinEq1:  Iter=  8 NonCon=     1 RMS=7.51D-07 Max=2.12D-05 NDo=     1
 LinEq1:  Iter=  9 NonCon=     1 RMS=2.82D-07 Max=8.69D-06 NDo=     1
 LinEq1:  Iter= 10 NonCon=     1 RMS=9.57D-08 Max=3.02D-06 NDo=     1
 LinEq1:  Iter= 11 NonCon=     1 RMS=5.09D-08 Max=1.53D-06 NDo=     1
 LinEq1:  Iter= 12 NonCon=     1 RMS=2.18D-08 Max=6.04D-07 NDo=     1
 LinEq1:  Iter= 13 NonCon=     1 RMS=8.18D-09 Max=1.43D-07 NDo=     1
 LinEq1:  Iter= 14 NonCon=     1 RMS=2.81D-09 Max=5.49D-08 NDo=     1
 LinEq1:  Iter= 15 NonCon=     1 RMS=1.04D-09 Max=2.73D-08 NDo=     1
 LinEq1:  Iter= 16 NonCon=     1 RMS=4.37D-10 Max=9.74D-09 NDo=     1
 LinEq1:  Iter= 17 NonCon=     1 RMS=1.86D-10 Max=4.17D-09 NDo=     1
 LinEq1:  Iter= 18 NonCon=     1 RMS=6.35D-11 Max=1.49D-09 NDo=     1
 LinEq1:  Iter= 19 NonCon=     0 RMS=2.32D-11 Max=4.89D-10 NDo=     1
 Linear equations converged to 1.000D-10 1.000D-09 after    19 iterations.
 End of Minotr F.D. properties file   721 does not exist.
 End of Minotr F.D. properties file   722 does not exist.
 End of Minotr F.D. properties file   788 does not exist.

 **********************************************************************

            Population analysis using the SCF Density.

 **********************************************************************

 Orbital symmetries:
       Occupied  (A) (A) (A) (A) (A) (A) (A) (A) (A) (A) (A) (A)
                 (A) (A) (A) (A) (A) (A) (A) (A) (A) (A) (A) (A)
                 (A) (A) (A) (A) (A) (A) (A) (A) (A) (A) (A) (A)
                 (A) (A) (A) (A) (A) (A) (A) (A) (A) (A) (A) (A)
                 (A) (A) (A) (A) (A) (A) (A) (A) (A) (A) (A) (A)
                 (A)
       Virtual   (A) (A) (A) (A) (A) (A) (A) (A) (A) (A) (A) (A)
                 (A) (A) (A) (A) (A) (A) (A) (A) (A) (A) (A) (A)
                 (A) (A) (A) (A) (A) (A) (A) (A) (A) (A) (A) (A)
                 (A) (A) (A) (A) (A) (A) (A) (A) (A) (A) (A) (A)
                 (A) (A) (A) (A) (A) (A) (A) (A) (A) (A) (A) (A)
                 (A) (A) (A) (A) (A) (A) (A) (A) (A) (A) (A) (A)
                 (A) (A) (A) (A) (A) (A) (A) (A) (A) (A) (A) (A)
                 (A) (A) (A) (A) (A) (A) (A) (A) (A) (A) (A) (A)
                 (A) (A) (A) (A) (A) (A) (A) (A) (A) (A) (A) (A)
                 (A) (A) (A) (A) (A) (A) (A) (A) (A) (A) (A) (A)
                 (A) (A) (A) (A) (A) (A) (A) (A) (A) (A) (A) (A)
                 (A) (A) (A) (A) (A) (A) (A) (A) (A) (A) (A) (A)
                 (A) (A) (A) (A) (A) (A) (A) (A) (A) (A) (A) (A)
                 (A) (A) (A) (A) (A) (A) (A) (A) (A) (A) (A) (A)
                 (A) (A) (A) (A) (A) (A) (A) (A) (A) (A) (A) (A)
                 (A) (A) (A) (A) (A) (A) (A) (A) (A) (A) (A) (A)
                 (A) (A) (A) (A) (A) (A) (A) (A) (A) (A) (A) (A)
                 (A) (A) (A) (A) (A) (A) (A) (A) (A) (A) (A) (A)
                 (A) (A) (A) (A) (A) (A) (A) (A) (A) (A) (A) (A)
                 (A) (A) (A) (A) (A) (A) (A) (A) (A) (A) (A) (A)
                 (A) (A) (A) (A) (A) (A) (A) (A) (A) (A) (A) (A)
                 (A) (A) (A) (A) (A) (A) (A) (A) (A) (A) (A) (A)
                 (A) (A) (A) (A) (A) (A) (A) (A) (A) (A) (A) (A)
                 (A) (A) (A) (A) (A) (A) (A) (A) (A) (A) (A) (A)
                 (A) (A) (A) (A) (A) (A) (A) (A) (A) (A) (A) (A)
                 (A) (A) (A) (A) (A) (A) (A) (A) (A) (A) (A) (A)
                 (A) (A) (A) (A) (A) (A) (A) (A) (A) (A) (A) (A)
                 (A) (A) (A) (A) (A) (A) (A) (A) (A) (A) (A) (A)
                 (A) (A) (A) (A) (A) (A) (A) (A) (A)
 The electronic state is 1-A.
 Alpha  occ. eigenvalues --  -91.99069 -91.98976 -91.98430 -11.28985 -11.27781
 Alpha  occ. eigenvalues --  -11.27725 -11.27318 -11.27168 -11.27156 -11.25814
 Alpha  occ. eigenvalues --  -11.25751 -11.25590 -11.24396 -11.23816  -8.99249
 Alpha  occ. eigenvalues --   -8.99147  -8.98664  -6.67416  -6.67339  -6.67311
 Alpha  occ. eigenvalues --   -6.67230  -6.67132  -6.67021  -6.66829  -6.66737
 Alpha  occ. eigenvalues --   -6.66545  -1.21797  -1.18641  -1.12890  -1.04118
 Alpha  occ. eigenvalues --   -1.02448  -1.01811  -0.95882  -0.94581  -0.92012
 Alpha  occ. eigenvalues --   -0.82244  -0.77359  -0.76707  -0.72763  -0.70034
 Alpha  occ. eigenvalues --   -0.67427  -0.66890  -0.60742  -0.59156  -0.58946
 Alpha  occ. eigenvalues --   -0.56709  -0.56339  -0.54664  -0.54059  -0.52542
 Alpha  occ. eigenvalues --   -0.51943  -0.51118  -0.49479  -0.47352  -0.46559
 Alpha  occ. eigenvalues --   -0.46082  -0.39023  -0.34804  -0.34147  -0.32277
 Alpha  occ. eigenvalues --   -0.28893
 Alpha virt. eigenvalues --    0.03388   0.03524   0.04059   0.04836   0.04942
 Alpha virt. eigenvalues --    0.05477   0.06698   0.07279   0.07707   0.08444
 Alpha virt. eigenvalues --    0.08757   0.09493   0.10173   0.10752   0.11162
 Alpha virt. eigenvalues --    0.11384   0.11730   0.12382   0.12607   0.13072
 Alpha virt. eigenvalues --    0.13570   0.13640   0.14126   0.14430   0.14704
 Alpha virt. eigenvalues --    0.14936   0.15222   0.15425   0.15813   0.16150
 Alpha virt. eigenvalues --    0.16660   0.17156   0.17756   0.18149   0.18352
 Alpha virt. eigenvalues --    0.18785   0.19190   0.19491   0.20105   0.20558
 Alpha virt. eigenvalues --    0.20677   0.21310   0.21430   0.21624   0.22150
 Alpha virt. eigenvalues --    0.22447   0.22879   0.23168   0.23730   0.24128
 Alpha virt. eigenvalues --    0.24964   0.25164   0.25742   0.26283   0.26587
 Alpha virt. eigenvalues --    0.26884   0.27285   0.27616   0.28059   0.28865
 Alpha virt. eigenvalues --    0.29479   0.29599   0.30834   0.31607   0.31838
 Alpha virt. eigenvalues --    0.32228   0.32682   0.32721   0.33228   0.34059
 Alpha virt. eigenvalues --    0.34235   0.34856   0.35188   0.35537   0.36790
 Alpha virt. eigenvalues --    0.37287   0.37760   0.38203   0.39064   0.40352
 Alpha virt. eigenvalues --    0.40422   0.40782   0.41120   0.41842   0.43237
 Alpha virt. eigenvalues --    0.43939   0.44045   0.44535   0.45143   0.45653
 Alpha virt. eigenvalues --    0.45960   0.46147   0.46702   0.47833   0.48073
 Alpha virt. eigenvalues --    0.48662   0.48869   0.49101   0.49736   0.50715
 Alpha virt. eigenvalues --    0.52037   0.53075   0.53483   0.54157   0.54933
 Alpha virt. eigenvalues --    0.55543   0.56600   0.57698   0.58134   0.58695
 Alpha virt. eigenvalues --    0.58973   0.59568   0.60110   0.60858   0.61177
 Alpha virt. eigenvalues --    0.62132   0.63104   0.63243   0.64275   0.64468
 Alpha virt. eigenvalues --    0.65161   0.65389   0.66030   0.66221   0.67121
 Alpha virt. eigenvalues --    0.67270   0.67631   0.68260   0.68471   0.68955
 Alpha virt. eigenvalues --    0.69396   0.69869   0.70337   0.71141   0.71398
 Alpha virt. eigenvalues --    0.72431   0.72766   0.73684   0.74338   0.74447
 Alpha virt. eigenvalues --    0.74807   0.75126   0.75394   0.76098   0.76868
 Alpha virt. eigenvalues --    0.77084   0.78065   0.78803   0.79654   0.79874
 Alpha virt. eigenvalues --    0.80959   0.81236   0.82184   0.82804   0.83829
 Alpha virt. eigenvalues --    0.84102   0.84467   0.85959   0.86482   0.87434
 Alpha virt. eigenvalues --    0.87838   0.88618   0.89727   0.90270   0.91215
 Alpha virt. eigenvalues --    0.91656   0.92116   0.92417   0.93125   0.94092
 Alpha virt. eigenvalues --    0.95117   0.95698   0.96364   0.96665   0.97572
 Alpha virt. eigenvalues --    0.98129   0.99458   0.99825   1.00041   1.00418
 Alpha virt. eigenvalues --    1.01630   1.03154   1.03538   1.04960   1.05484
 Alpha virt. eigenvalues --    1.06695   1.07178   1.07937   1.09961   1.10537
 Alpha virt. eigenvalues --    1.12038   1.12941   1.13478   1.13640   1.15284
 Alpha virt. eigenvalues --    1.16617   1.18687   1.19089   1.20135   1.21547
 Alpha virt. eigenvalues --    1.22254   1.22794   1.23559   1.24059   1.24769
 Alpha virt. eigenvalues --    1.25719   1.25942   1.27175   1.28263   1.28836
 Alpha virt. eigenvalues --    1.30077   1.31102   1.31657   1.33069   1.33920
 Alpha virt. eigenvalues --    1.34148   1.35579   1.36230   1.37294   1.39929
 Alpha virt. eigenvalues --    1.40509   1.41224   1.42037   1.44547   1.46220
 Alpha virt. eigenvalues --    1.47971   1.48742   1.49682   1.52260   1.53091
 Alpha virt. eigenvalues --    1.54262   1.55503   1.57250   1.57841   1.58942
 Alpha virt. eigenvalues --    1.60103   1.61460   1.62016   1.63772   1.64415
 Alpha virt. eigenvalues --    1.65230   1.66519   1.66717   1.68556   1.68854
 Alpha virt. eigenvalues --    1.69546   1.70340   1.71581   1.72330   1.73144
 Alpha virt. eigenvalues --    1.74124   1.74606   1.77194   1.78257   1.79852
 Alpha virt. eigenvalues --    1.80352   1.80899   1.81747   1.82546   1.84193
 Alpha virt. eigenvalues --    1.85234   1.85992   1.87670   1.88952   1.89829
 Alpha virt. eigenvalues --    1.91819   1.92469   1.94619   1.95447   1.96991
 Alpha virt. eigenvalues --    1.97687   1.98010   1.99163   2.00223   2.02679
 Alpha virt. eigenvalues --    2.05053   2.05407   2.08453   2.08908   2.09824
 Alpha virt. eigenvalues --    2.10609   2.11230   2.12460   2.13039   2.14764
 Alpha virt. eigenvalues --    2.15392   2.16498   2.19489   2.20955   2.21533
 Alpha virt. eigenvalues --    2.23625   2.24205   2.25445   2.26183   2.28050
 Alpha virt. eigenvalues --    2.29098   2.30031   2.31815   2.33116   2.34556
 Alpha virt. eigenvalues --    2.35173   2.37329   2.38471   2.40979   2.41321
 Alpha virt. eigenvalues --    2.42161   2.43892   2.46307   2.47170   2.47713
 Alpha virt. eigenvalues --    2.49255   2.51513   2.52858   2.53693   2.56000
 Alpha virt. eigenvalues --    2.57146   2.59392   2.62316   2.64290   2.70545
 Alpha virt. eigenvalues --    2.73855   2.75822   2.79794   2.84387   2.85528
 Alpha virt. eigenvalues --    2.87124   2.87853   2.92248   2.94873   2.99684
 Alpha virt. eigenvalues --    3.00795   3.02113   3.08309   3.09477   3.21044
 Alpha virt. eigenvalues --    3.24642   3.29580   3.36418   3.45865   3.55330
 Alpha virt. eigenvalues --    3.64490   3.75343   3.80739   4.12638   4.25015
          Condensed to atoms (all electrons):
               1          2          3          4          5          6
     1  C   10.279587  -2.438401  -0.837700  -1.012148  -0.147662  -0.313920
     2  C   -2.438401  11.073998  -2.012825   0.621967   0.171148   0.201313
     3  C   -0.837700  -2.012825  13.411934  -0.765286  -1.296700   0.036611
     4  C   -1.012148   0.621967  -0.765286   6.047359   0.113185   0.047196
     5  C   -0.147662   0.171148  -1.296700   0.113185   6.890102  -0.055037
     6  H   -0.313920   0.201313   0.036611   0.047196  -0.055037   1.648031
     7  S   -0.541437   0.018228  -0.529662   0.129046   0.392858  -0.011989
     8  H    0.024979   0.138906  -0.066359   0.032087   0.161457  -0.069331
     9  C    0.618668  -0.997523  -1.806460   0.004412   0.098467   0.008785
    10  S   -0.003355  -0.080666  -0.552525  -0.023926   0.036551  -0.000507
    11  C    0.065239  -0.006830  -0.391309  -0.131964   0.006951   0.001755
    12  C   -0.103344  -0.002696   0.755275   0.271552   0.002226  -0.004725
    13  C   -0.159758   0.138858  -0.395602  -0.484933  -0.094522   0.002374
    14  H    0.033032  -0.098018   0.132131   0.082314  -0.007572   0.000437
    15  S   -0.000632   0.013852  -0.089205  -0.011330   0.000262  -0.000015
    16  C    0.000528  -0.010792   0.016508  -0.001299   0.000243  -0.000018
    17  C    0.006463  -0.003765  -0.405636  -0.028370  -0.001654   0.000226
    18  H    0.000025  -0.000015  -0.000262  -0.000194   0.000004  -0.000002
    19  H   -0.000103   0.000779  -0.012326  -0.000283   0.000088  -0.000023
    20  H    0.023011  -0.006263  -0.053975   0.244454   0.021345  -0.005937
    21  H   -0.016538   0.072930  -0.007318   0.253047   0.023400  -0.004876
    22  H   -0.045840   0.062905   0.166301   0.108151  -0.034825   0.002084
               7          8          9         10         11         12
     1  C   -0.541437   0.024979   0.618668  -0.003355   0.065239  -0.103344
     2  C    0.018228   0.138906  -0.997523  -0.080666  -0.006830  -0.002696
     3  C   -0.529662  -0.066359  -1.806460  -0.552525  -0.391309   0.755275
     4  C    0.129046   0.032087   0.004412  -0.023926  -0.131964   0.271552
     5  C    0.392858   0.161457   0.098467   0.036551   0.006951   0.002226
     6  H   -0.011989  -0.069331   0.008785  -0.000507   0.001755  -0.004725
     7  S   16.261719  -0.134686   0.000983   0.242533   0.054067   0.010675
     8  H   -0.134686   1.267653   0.005226   0.004634   0.001514   0.000739
     9  C    0.000983   0.005226  12.582530   0.347110  -0.117066  -0.444793
    10  S    0.242533   0.004634   0.347110  16.624140   0.434492  -0.620407
    11  C    0.054067   0.001514  -0.117066   0.434492  11.547124  -1.006239
    12  C    0.010675   0.000739  -0.444793  -0.620407  -1.006239  13.052940
    13  C   -0.325305  -0.008698  -3.913433  -0.646467  -1.269105  -3.820769
    14  H    0.004191  -0.000218   0.317264   0.018132  -0.083904   0.612318
    15  S    0.001437  -0.000008  -0.354874   0.112950  -0.035934  -0.502770
    16  C    0.002736   0.000047   0.088034  -0.115159  -0.190630  -0.943402
    17  C    0.019690  -0.000117  -0.732117  -0.219922  -2.844427  -0.943050
    18  H    0.000086   0.000003   0.002064   0.011051   0.082458  -0.060590
    19  H    0.002115   0.000017   0.111959   0.022501   0.632429   0.034922
    20  H    0.002937   0.001778   0.045630   0.001438  -0.002613   0.013829
    21  H    0.006758   0.001677   0.015998   0.001480  -0.001419  -0.012348
    22  H   -0.000238  -0.000413  -0.118512  -0.000888  -0.006527   0.045930
              13         14         15         16         17         18
     1  C   -0.159758   0.033032  -0.000632   0.000528   0.006463   0.000025
     2  C    0.138858  -0.098018   0.013852  -0.010792  -0.003765  -0.000015
     3  C   -0.395602   0.132131  -0.089205   0.016508  -0.405636  -0.000262
     4  C   -0.484933   0.082314  -0.011330  -0.001299  -0.028370  -0.000194
     5  C   -0.094522  -0.007572   0.000262   0.000243  -0.001654   0.000004
     6  H    0.002374   0.000437  -0.000015  -0.000018   0.000226  -0.000002
     7  S   -0.325305   0.004191   0.001437   0.002736   0.019690   0.000086
     8  H   -0.008698  -0.000218  -0.000008   0.000047  -0.000117   0.000003
     9  C   -3.913433   0.317264  -0.354874   0.088034  -0.732117   0.002064
    10  S   -0.646467   0.018132   0.112950  -0.115159  -0.219922   0.011051
    11  C   -1.269105  -0.083904  -0.035934  -0.190630  -2.844427   0.082458
    12  C   -3.820769   0.612318  -0.502770  -0.943402  -0.943050  -0.060590
    13  C   17.284988  -1.261330   0.224909  -0.118860   0.553540   0.031965
    14  H   -1.261330   1.781723  -0.029654   0.016110  -0.034529   0.002155
    15  S    0.224909  -0.029654  16.032186   0.188789   0.011202  -0.157035
    16  C   -0.118860   0.016110   0.188789   6.888545   0.173326   0.180667
    17  C    0.553540  -0.034529   0.011202   0.173326  10.476736   0.058412
    18  H    0.031965   0.002155  -0.157035   0.180667   0.058412   1.300021
    19  H   -0.068908  -0.001827  -0.002605  -0.106424  -0.650945  -0.069409
    20  H   -0.054024   0.006712  -0.000035   0.000167  -0.000409   0.000017
    21  H   -0.010832  -0.014985  -0.002127  -0.000313  -0.001296  -0.000021
    22  H    0.083385   0.005497  -0.000879   0.000050  -0.011360  -0.000037
              19         20         21         22
     1  C   -0.000103   0.023011  -0.016538  -0.045840
     2  C    0.000779  -0.006263   0.072930   0.062905
     3  C   -0.012326  -0.053975  -0.007318   0.166301
     4  C   -0.000283   0.244454   0.253047   0.108151
     5  C    0.000088   0.021345   0.023400  -0.034825
     6  H   -0.000023  -0.005937  -0.004876   0.002084
     7  S    0.002115   0.002937   0.006758  -0.000238
     8  H    0.000017   0.001778   0.001677  -0.000413
     9  C    0.111959   0.045630   0.015998  -0.118512
    10  S    0.022501   0.001438   0.001480  -0.000888
    11  C    0.632429  -0.002613  -0.001419  -0.006527
    12  C    0.034922   0.013829  -0.012348   0.045930
    13  C   -0.068908  -0.054024  -0.010832   0.083385
    14  H   -0.001827   0.006712  -0.014985   0.005497
    15  S   -0.002605  -0.000035  -0.002127  -0.000879
    16  C   -0.106424   0.000167  -0.000313   0.000050
    17  C   -0.650945  -0.000409  -0.001296  -0.011360
    18  H   -0.069409   0.000017  -0.000021  -0.000037
    19  H    1.436617   0.000051  -0.000004   0.000089
    20  H    0.000051   1.157922  -0.139001  -0.181043
    21  H   -0.000004  -0.139001   0.819456  -0.102110
    22  H    0.000089  -0.181043  -0.102110   1.066188
 Mulliken charges:
               1
     1  C    0.569306
     2  C   -0.857088
     3  C    0.704390
     4  C    0.504962
     5  C   -0.280314
     6  H   -0.482433
     7  S    0.393259
     8  H   -0.360886
     9  C    0.237649
    10  S    0.406809
    11  C   -0.738060
    12  C   -0.335273
    13  C    0.312528
    14  H   -0.479979
    15  S    0.601515
    16  C   -0.068857
    17  C    0.578004
    18  H   -0.381367
    19  H   -0.328710
    20  H   -0.075990
    21  H    0.118442
    22  H   -0.037907
 Sum of Mulliken charges =  -0.00000
 Mulliken charges with hydrogens summed into heavy atoms:
               1
     1  C    0.086873
     2  C   -0.857088
     3  C    0.704390
     4  C    0.509507
     5  C   -0.641200
     7  S    0.393259
     9  C    0.237649
    10  S    0.406809
    11  C   -0.738060
    12  C   -0.335273
    13  C   -0.167451
    15  S    0.601515
    16  C   -0.450224
    17  C    0.249294
 Electronic spatial extent (au):  <R**2>=           4342.7727
 Charge=              0.0000 electrons
 Dipole moment (field-independent basis, Debye):
    X=             -0.3974    Y=              1.1190    Z=              0.4003  Tot=              1.2531
 Quadrupole moment (field-independent basis, Debye-Ang):
   XX=            -86.7692   YY=           -100.4958   ZZ=           -109.4436
   XY=             -6.6363   XZ=              1.4432   YZ=             -0.9047
 Traceless Quadrupole moment (field-independent basis, Debye-Ang):
   XX=             12.1336   YY=             -1.5929   ZZ=            -10.5407
   XY=             -6.6363   XZ=              1.4432   YZ=             -0.9047
 Octapole moment (field-independent basis, Debye-Ang**2):
  XXX=             -1.5057  YYY=              4.9758  ZZZ=              2.0843  XYY=             -5.3611
  XXY=            -16.5375  XXZ=              4.0037  XZZ=             -1.7709  YZZ=              1.9066
  YYZ=              1.9989  XYZ=            -14.3701
 Hexadecapole moment (field-independent basis, Debye-Ang**3):
 XXXX=          -4126.3829 YYYY=          -1005.7108 ZZZZ=           -325.8611 XXXY=            -38.6153
 XXXZ=             47.8917 YYYX=            -34.1093 YYYZ=            -13.6983 ZZZX=             -6.2557
 ZZZY=              2.8393 XXYY=           -933.6184 XXZZ=           -918.9082 YYZZ=           -217.4321
 XXYZ=             11.4664 YYXZ=              9.4248 ZZXY=             -4.8901
 N-N= 1.124372533876D+03 E-N=-6.068889809302D+03  KE= 1.613736606825D+03
 Calling FoFJK, ICntrl=  10002127 FMM=F ISym2X=0 I1Cent= 0 IOpClX= 0 NMat=1 NMatS=1 NMatT=0.
 ***** Axes restored to original set *****
 -------------------------------------------------------------------
 Center     Atomic                   Forces (Hartrees/Bohr)
 Number     Number              X              Y              Z
 -------------------------------------------------------------------
      1        6           0.016474289    0.030599785    0.012625389
      2        6          -0.027927665    0.027468815    0.009713991
      3        6           0.026864939   -0.025914482   -0.008721716
      4        6          -0.002204563   -0.005051490   -0.003481232
      5        6          -0.001082834   -0.027814591   -0.010738976
      6        1          -0.007360735    0.006420793    0.002121517
      7       16           0.004228571   -0.007032174   -0.002233708
      8        1          -0.008512356   -0.005940721   -0.002707929
      9        6          -0.029708641   -0.023314750    0.010152449
     10       16          -0.004136175   -0.007504907    0.004244234
     11        6           0.008112066   -0.037819859    0.017395963
     12        6          -0.009020577    0.038255456   -0.017475904
     13        6           0.029365196    0.019985320   -0.008465346
     14        1          -0.003779242    0.009435031   -0.004939381
     15       16           0.002588726    0.007228329   -0.003440434
     16        6           0.014517007    0.021769560   -0.010450478
     17        6          -0.027387569   -0.018726041    0.009191399
     18        1           0.010313996    0.000691712   -0.000497708
     19        1           0.003102472   -0.008906263    0.004154371
     20        1          -0.004779929    0.001998801    0.005412758
     21        1           0.000375482    0.005367623   -0.005261734
     22        1           0.009957542   -0.001195946    0.003402476
 -------------------------------------------------------------------
 Cartesian Forces:  Max     0.038255456 RMS     0.015027379

 GradGradGradGradGradGradGradGradGradGradGradGradGradGradGradGradGradGrad
 Berny optimization.
 FormGI is forming the generalized inverse of G from B-inverse, IUseBI=4.
 Internal  Forces:  Max     0.043197087 RMS     0.008805044
 Search for a local minimum.
 Step number   1 out of a maximum of  127
 All quantities printed in internal units (Hartrees-Bohrs-Radians)
 Mixed Optimization -- RFO/linear search
 Second derivative matrix not updated -- first step.
 ITU=  0
     Eigenvalues ---    0.00679   0.01377   0.01462   0.01577   0.01630
     Eigenvalues ---    0.01686   0.01758   0.01866   0.01982   0.02035
     Eigenvalues ---    0.02063   0.02132   0.02251   0.02275   0.02374
     Eigenvalues ---    0.02418   0.07110   0.07308   0.15991   0.15998
     Eigenvalues ---    0.16000   0.16000   0.16000   0.16000   0.16000
     Eigenvalues ---    0.16000   0.22518   0.22567   0.23648   0.24760
     Eigenvalues ---    0.24783   0.24982   0.24992   0.24992   0.24997
     Eigenvalues ---    0.28986   0.29952   0.30361   0.30974   0.31213
     Eigenvalues ---    0.31701   0.32308   0.34592   0.34781   0.35322
     Eigenvalues ---    0.35771   0.36035   0.36310   0.36365   0.36403
     Eigenvalues ---    0.36450   0.38341   0.39230   0.39528   0.45875
     Eigenvalues ---    0.49906   0.52246   0.53564   0.539861000.00000
     Eigenvalues --- 1000.000001000.000001000.000001000.000001000.00000
     Eigenvalues --- 1000.000001000.000001000.000001000.000001000.00000
     Eigenvalues --- 1000.000001000.000001000.000001000.000001000.00000
     Eigenvalues --- 1000.000001000.000001000.000001000.000001000.00000
     Eigenvalues --- 1000.000001000.000001000.000001000.000001000.00000
     Eigenvalues --- 1000.000001000.000001000.000001000.000001000.00000
     Eigenvalues --- 1000.000001000.000001000.000001000.000001000.00000
     Eigenvalues --- 1000.000001000.000001000.000001000.000001000.00000
     Eigenvalues --- 1000.000001000.000001000.000001000.000001000.00000
     Eigenvalues --- 1000.000001000.000001000.000001000.000001000.00000
     Eigenvalues --- 1000.000001000.000001000.000001000.000001000.00000
     Eigenvalues --- 1000.000001000.00000
 RFO step:  Lambda=-1.76607153D-02 EMin= 6.79483154D-03
 Linear search not attempted -- first point.
 Iteration  1 RMS(Cart)=  0.02792435 RMS(Int)=  0.00025482
 Iteration  2 RMS(Cart)=  0.00048317 RMS(Int)=  0.00004342
 Iteration  3 RMS(Cart)=  0.00000012 RMS(Int)=  0.00004342
 Iteration  1 RMS(Cart)=  0.00001113 RMS(Int)=  0.00000416
 Iteration  2 RMS(Cart)=  0.00000612 RMS(Int)=  0.00000464
 Iteration  3 RMS(Cart)=  0.00000337 RMS(Int)=  0.00000525
 Iteration  4 RMS(Cart)=  0.00000186 RMS(Int)=  0.00000566
 Iteration  5 RMS(Cart)=  0.00000102 RMS(Int)=  0.00000590
 Iteration  6 RMS(Cart)=  0.00000056 RMS(Int)=  0.00000603
 Variable       Old X    -DE/DX   Delta X   Delta X   Delta X     New X
                                 (Linear)    (Quad)   (Total)
    R1        2.72498  -0.00481   0.00000  -0.00953  -0.00947   2.71551
    R2        2.54749   0.04035   0.00000   0.07165   0.07167   2.61916
    R3        2.04027   0.00999   0.00000   0.02644   0.02644   2.06671
    R4        2.56911   0.03560   0.00000   0.06504   0.06506   2.63417
    R5        2.84694   0.00197   0.00000   0.00588   0.00588   2.85282
    R6        3.30527   0.00367   0.00000   0.00869   0.00865   3.31392
    R7        2.77741  -0.00607   0.00000  -0.01618  -0.01618   2.76123
    R8        2.06032   0.00749   0.00000   0.02050   0.02050   2.08081
    R9        2.06342   0.00751   0.00000   0.02066   0.02066   2.08408
   R10        2.05154   0.01055   0.00000   0.02843   0.02843   2.07998
   R11        3.25924   0.00674   0.00000   0.01815   0.01811   3.27735
   R12        2.03384   0.01062   0.00000   0.02779   0.02779   2.06163
   R13        3.32764   0.00615   0.00000   0.01666   0.01661   3.34424
   R14        2.55832   0.03923   0.00000   0.07028   0.07030   2.62862
   R15        3.28069   0.00612   0.00000   0.01660   0.01655   3.29724
   R16        2.57736   0.04320   0.00000   0.08268   0.08275   2.66011
   R17        2.71096  -0.00204   0.00000  -0.00242  -0.00236   2.70861
   R18        2.70648  -0.00331   0.00000  -0.00536  -0.00529   2.70119
   R19        3.28427   0.00523   0.00000   0.01416   0.01413   3.29840
   R20        2.03456   0.01128   0.00000   0.02956   0.02956   2.06411
   R21        3.29601   0.00682   0.00000   0.01787   0.01782   3.31383
   R22        2.55030   0.03845   0.00000   0.06772   0.06773   2.61804
   R23        2.03514   0.01027   0.00000   0.02694   0.02694   2.06209
   R24        2.03600   0.01030   0.00000   0.02706   0.02706   2.06306
    A1        1.98256  -0.00319   0.00000  -0.00695  -0.00687   1.97569
    A2        2.14767   0.00148   0.00000   0.00280   0.00275   2.15042
    A3        2.15286   0.00171   0.00000   0.00413   0.00409   2.15695
    A4        1.95181  -0.00274   0.00000  -0.00653  -0.00645   1.94536
    A5        2.12576   0.00643   0.00000   0.02219   0.02215   2.14791
    A6        2.20538  -0.00368   0.00000  -0.01561  -0.01565   2.18973
    A7        1.94499   0.00354   0.00000   0.01095   0.01094   1.95593
    A8        2.24351  -0.00336   0.00000  -0.01129  -0.01130   2.23221
    A9        2.09410  -0.00017   0.00000   0.00060   0.00059   2.09469
   A10        1.92074   0.00019   0.00000   0.00220   0.00219   1.92293
   A11        1.93724   0.00038   0.00000   0.00201   0.00200   1.93924
   A12        1.94758  -0.00137   0.00000  -0.00874  -0.00874   1.93884
   A13        1.87613   0.00016   0.00000   0.00286   0.00285   1.87899
   A14        1.89108   0.00065   0.00000   0.00382   0.00383   1.89490
   A15        1.88893   0.00006   0.00000  -0.00175  -0.00176   1.88718
   A16        1.94931   0.00105   0.00000   0.00588   0.00587   1.95518
   A17        2.23083   0.00101   0.00000   0.00571   0.00571   2.23655
   A18        2.10303  -0.00206   0.00000  -0.01159  -0.01158   2.09144
   A19        1.59606   0.00135   0.00000  -0.00336  -0.00351   1.59256
   A20        2.10150  -0.00266   0.00000  -0.00925  -0.00928   2.09222
   A21        2.22615  -0.00124   0.00000  -0.00392  -0.00396   2.22219
   A22        1.95527   0.00392   0.00000   0.01352   0.01348   1.96875
   A23        1.58749   0.00143   0.00000  -0.00289  -0.00305   1.58444
   A24        1.93811   0.00179   0.00000   0.00522   0.00518   1.94329
   A25        2.35447   0.00153   0.00000   0.00092   0.00085   2.35533
   A26        1.99060  -0.00332   0.00000  -0.00614  -0.00604   1.98456
   A27        1.99251  -0.00302   0.00000  -0.00484  -0.00472   1.98779
   A28        1.93900   0.00137   0.00000   0.00353   0.00349   1.94250
   A29        2.35157   0.00165   0.00000   0.00129   0.00122   2.35279
   A30        1.95129  -0.00412   0.00000  -0.01101  -0.01089   1.94040
   A31        2.15245   0.00141   0.00000   0.00187   0.00181   2.15426
   A32        2.17908   0.00270   0.00000   0.00911   0.00906   2.18814
   A33        1.58071   0.00250   0.00000   0.00089   0.00076   1.58147
   A34        1.97693   0.00246   0.00000   0.00852   0.00851   1.98544
   A35        2.08714  -0.00250   0.00000  -0.01141  -0.01140   2.07574
   A36        2.21912   0.00004   0.00000   0.00288   0.00289   2.22201
   A37        1.93753  -0.00301   0.00000  -0.00681  -0.00672   1.93081
   A38        2.18310   0.00166   0.00000   0.00429   0.00424   2.18734
   A39        2.16255   0.00135   0.00000   0.00253   0.00248   2.16503
    D1        0.00476   0.00002   0.00000   0.00078   0.00078   0.00554
    D2       -3.11489  -0.00000   0.00000  -0.00139  -0.00142  -3.11631
    D3        3.13216  -0.00005   0.00000  -0.00097  -0.00096   3.13120
    D4        0.01251  -0.00008   0.00000  -0.00313  -0.00315   0.00935
    D5       -0.00843  -0.00006   0.00000  -0.00187  -0.00187  -0.01030
    D6        3.12768  -0.00008   0.00000  -0.00171  -0.00171   3.12597
    D7       -3.13578   0.00002   0.00000  -0.00011  -0.00011  -3.13589
    D8        0.00033  -0.00000   0.00000   0.00005   0.00004   0.00037
    D9        0.00111  -0.00003   0.00000   0.00057   0.00055   0.00165
   D10        3.10546   0.00038   0.00000   0.00877   0.00878   3.11424
   D11        3.11954   0.00016   0.00000   0.00344   0.00339   3.12293
   D12       -0.05929   0.00056   0.00000   0.01164   0.01162  -0.04767
   D13        0.69558   0.00022   0.00000   0.00363   0.00364   0.69923
   D14       -1.37910  -0.00034   0.00000  -0.00259  -0.00259  -1.38168
   D15        2.79558   0.00026   0.00000   0.00421   0.00421   2.79979
   D16       -2.42072   0.00015   0.00000   0.00091   0.00091  -2.41981
   D17        1.78779  -0.00042   0.00000  -0.00531  -0.00532   1.78247
   D18       -0.32072   0.00019   0.00000   0.00149   0.00148  -0.31925
   D19       -0.00488  -0.00004   0.00000  -0.00140  -0.00139  -0.00627
   D20       -3.11285  -0.00031   0.00000  -0.00849  -0.00858  -3.12143
   D21        2.35690  -0.00040   0.00000   0.00000   0.00000   2.35690
   D22       -0.81161   0.00038   0.00000   0.01780   0.01774  -0.79388
   D23       -0.82471   0.00009   0.00000   0.00897   0.00897  -0.81574
   D24        2.28996   0.00087   0.00000   0.02678   0.02671   2.31667
   D25        0.00760   0.00003   0.00000   0.00182   0.00181   0.00941
   D26       -3.12896   0.00004   0.00000   0.00162   0.00161  -3.12735
   D27        3.12072   0.00032   0.00000   0.00827   0.00829   3.12901
   D28        0.00215  -0.00028   0.00000  -0.00676  -0.00681  -0.00465
   D29       -3.12596  -0.00044   0.00000  -0.01031  -0.01038  -3.13634
   D30       -0.01212  -0.00050   0.00000  -0.01117  -0.01123  -0.02335
   D31       -0.00942   0.00020   0.00000   0.00598   0.00603  -0.00339
   D32        3.10443   0.00014   0.00000   0.00512   0.00518   3.10961
   D33        0.00604   0.00017   0.00000   0.00547   0.00549   0.01152
   D34       -3.13641   0.00004   0.00000   0.00247   0.00248  -3.13393
   D35       -0.01265  -0.00014   0.00000  -0.00331  -0.00330  -0.01594
   D36       -3.14157  -0.00014   0.00000  -0.00261  -0.00260   3.13902
   D37        3.12961  -0.00004   0.00000  -0.00099  -0.00098   3.12863
   D38        0.00069  -0.00004   0.00000  -0.00028  -0.00028   0.00041
   D39       -3.14134   0.00015   0.00000   0.00302   0.00301  -3.13833
   D40        0.00143   0.00010   0.00000   0.00228   0.00227   0.00371
   D41       -0.00062   0.00002   0.00000  -0.00004  -0.00004  -0.00066
   D42       -3.14103  -0.00003   0.00000  -0.00078  -0.00078   3.14137
   D43        0.01448  -0.00017   0.00000  -0.00204  -0.00203   0.01245
   D44       -3.09886  -0.00008   0.00000  -0.00102  -0.00102  -3.09988
   D45        3.13943  -0.00018   0.00000  -0.00297  -0.00295   3.13648
   D46        0.02609  -0.00009   0.00000  -0.00194  -0.00193   0.02416
   D47       -0.00044   0.00004   0.00000   0.00040   0.00040  -0.00004
   D48       -3.12576   0.00009   0.00000   0.00136   0.00135  -3.12441
   D49        0.00009  -0.00003   0.00000  -0.00044  -0.00043  -0.00035
   D50       -3.14094  -0.00000   0.00000  -0.00002  -0.00003  -3.14097
   D51        0.00027   0.00002   0.00000   0.00036   0.00036   0.00063
   D52        3.14069   0.00006   0.00000   0.00109   0.00109  -3.14140
   D53        3.14125  -0.00001   0.00000  -0.00010  -0.00010   3.14115
   D54       -0.00151   0.00004   0.00000   0.00064   0.00063  -0.00088
         Item               Value     Threshold  Converged?
 Maximum Force            0.043197     0.000450     NO 
 RMS     Force            0.008843     0.000300     NO 
 Maximum Displacement     0.086840     0.001800     NO 
 RMS     Displacement     0.028077     0.001200     NO 
 Predicted change in Energy=-9.157767D-03
 GradGradGradGradGradGradGradGradGradGradGradGradGradGradGradGradGradGrad

                          Input orientation:                          
 ---------------------------------------------------------------------
 Center     Atomic      Atomic             Coordinates (Angstroms)
 Number     Number       Type             X           Y           Z
 ---------------------------------------------------------------------
      1          6           0       -3.973386    0.756309    0.103032
      2          6           0       -2.587613    1.072739    0.313812
      3          6           0       -1.761321    0.008876   -0.044673
      4          6           0       -2.120898    2.391918    0.880358
      5          6           0       -4.171882   -0.521419   -0.395966
      6          1           0       -4.787514    1.450526    0.329620
      7         16           0       -2.675939   -1.365112   -0.637053
      8          1           0       -5.116643   -1.013954   -0.630597
      9          6           0       -0.301673   -0.046210   -0.006660
     10         16           0        0.509665   -1.471946    0.657295
     11          6           0        2.071073   -0.768785    0.322652
     12          6           0        1.944458    0.507613   -0.257276
     13          6           0        0.590795    0.921508   -0.456016
     14          1           0        0.278054    1.857639   -0.923918
     15         16           0        3.507063    1.211624   -0.587720
     16          6           0        4.305053   -0.211603    0.054743
     17          6           0        3.429946   -1.186856    0.504652
     18          1           0        5.395672   -0.246282    0.064130
     19          1           0        3.745103   -2.138907    0.936094
     20          1           0       -2.790673    2.714672    1.692575
     21          1           0       -2.126825    3.179923    0.108813
     22          1           0       -1.098516    2.311726    1.280102
 ---------------------------------------------------------------------
                    Distance matrix (angstroms):
                    1          2          3          4          5
     1  C    0.000000
     2  C    1.436983   0.000000
     3  C    2.339595   1.393943   0.000000
     4  C    2.590592   1.509646   2.581447   0.000000
     5  C    1.385998   2.356912   2.493076   3.784584   0.000000
     6  H    1.093657   2.232160   3.372877   2.881037   2.189531
     7  S    2.594518   2.618218   1.753648   4.089729   1.734297
     8  H    2.231385   3.412065   3.556357   4.780945   1.090969
     9  C    3.759992   2.565204   1.461181   3.168729   3.918661
    10  S    5.036871   4.023250   2.800530   4.679644   4.891804
    11  C    6.237758   5.009456   3.927712   5.279555   6.289045
    12  C    5.934015   4.602735   3.745228   4.622978   6.203850
    13  C    4.601258   3.273803   2.556276   3.361738   4.976820
    14  H    4.510243   3.218709   2.889644   3.048907   5.073517
    15  S    7.526059   6.162558   5.431148   5.934836   7.874415
    16  C    8.334971   7.016089   6.071193   6.982321   8.494561
    17  C    7.664627   6.430646   5.355444   6.615183   7.683861
    18  H    9.422629   8.095369   7.162365   8.007817   9.582561
    19  H    8.285610   7.127776   5.991291   7.412250   8.189585
    20  H    2.785792   2.153639   3.376230   1.101120   4.091702
    21  H    3.046921   2.166697   3.195731   1.102846   4.258756
    22  H    3.474145   2.164766   2.738148   1.100677   4.503498
                    6          7          8          9         10
     6  H    0.000000
     7  S    3.649798   0.000000
     8  H    2.665334   2.465844   0.000000
     9  C    4.740893   2.788196   4.950733   0.000000
    10  S    6.058740   3.440178   5.789971   1.769698   0.000000
    11  C    7.208718   4.879627   7.254795   2.502096   1.744825
    12  C    6.822974   4.999939   7.232819   2.326936   2.610311
    13  C    5.461071   3.991610   6.029207   1.391006   2.640959
    14  H    5.234222   4.381151   6.118401   2.191366   3.693239
    15  S    8.348568   6.698620   8.906365   4.052931   4.211413
    16  C    9.247325   7.109389   9.480602   4.610104   4.044317
    17  C    8.632096   6.214266   8.623391   3.935416   2.938131
    18  H   10.326999   8.178896  10.563177   5.701296   5.072194
    19  H    9.276712   6.656074   9.069210   4.652372   3.315210
    20  H    2.728202   4.699464   4.970907   4.087173   5.430635
    21  H    3.181012   4.638447   5.203301   3.708429   5.375109
    22  H    3.905609   4.436539   5.554841   2.801888   4.158161
                   11         12         13         14         15
    11  C    0.000000
    12  C    1.407672   0.000000
    13  C    2.377948   1.429408   0.000000
    14  H    3.415693   2.245859   1.092282   0.000000
    15  S    2.610147   1.745440   2.933621   3.310115   0.000000
    16  C    2.317951   2.487376   3.916699   4.632091   1.753603
    17  C    1.433333   2.378747   3.664541   4.609142   2.636652
    18  H    3.375322   3.547187   4.972034   5.620741   2.473306
    19  H    2.248537   3.416215   4.610181   5.608249   3.688459
    20  H    6.135775   5.576243   4.389329   4.122817   6.864427
    21  H    5.767181   4.883708   3.578398   2.932304   6.008331
    22  H    4.522450   3.857207   2.792953   2.637963   5.090220
                   16         17         18         19         20
    16  C    0.000000
    17  C    1.385406   0.000000
    18  H    1.091210   2.223244   0.000000
    19  H    2.191991   1.091726   2.658332   0.000000
    20  H    7.848242   7.438359   8.856371   8.175931   0.000000
    21  H    7.271481   7.078358   8.266125   7.965794   1.779173
    22  H    6.088289   5.774805   7.084946   6.586890   1.787706
                   21         22
    21  H    0.000000
    22  H    1.784126   0.000000
 Stoichiometry    C11H8S3
 Framework group  C1[X(C11H8S3)]
 Deg. of freedom    60
 Full point group                 C1      NOp   1
 Largest Abelian subgroup         C1      NOp   1
 Largest concise Abelian subgroup C1      NOp   1
                         Standard orientation:                         
 ---------------------------------------------------------------------
 Center     Atomic      Atomic             Coordinates (Angstroms)
 Number     Number       Type             X           Y           Z
 ---------------------------------------------------------------------
      1          6           0       -3.964330    0.783769    0.109816
      2          6           0       -2.576263    1.091949    0.317702
      3          6           0       -1.757180    0.022495   -0.040694
      4          6           0       -2.100424    2.409037    0.881517
      5          6           0       -4.171581   -0.493426   -0.386983
      6          1           0       -4.773762    1.483319    0.336828
      7         16           0       -2.681296   -1.346675   -0.629476
      8          1           0       -5.119773   -0.980461   -0.619240
      9          6           0       -0.297835   -0.041537   -0.005165
     10         16           0        0.505870   -1.471295    0.659426
     11          6           0        2.070989   -0.778260    0.321022
     12          6           0        1.951222    0.498061   -0.260529
     13          6           0        0.599788    0.920011   -0.457490
     14          1           0        0.291998    1.857379   -0.926196
     15         16           0        3.517552    1.191946   -0.594736
     16          6           0        4.307886   -0.235252    0.048383
     17          6           0        3.427578   -1.204442    0.501240
     18          1           0        5.398284   -0.276643    0.055904
     19          1           0        3.737621   -2.157797    0.933506
     20          1           0       -2.766761    2.737082    1.694441
     21          1           0       -2.102855    3.195954    0.108843
     22          1           0       -1.077852    2.323114    1.279580
 ---------------------------------------------------------------------
 Rotational constants (GHZ):           1.2508820           0.2749351           0.2391874
 Standard basis: Aug-CC-pVDZ (5D, 7F)
 There are   434 symmetry adapted cartesian basis functions of A   symmetry.
 There are   406 symmetry adapted basis functions of A   symmetry.
   406 basis functions,   804 primitive gaussians,   434 cartesian basis functions
    61 alpha electrons       61 beta electrons
       nuclear repulsion energy      1116.8634187981 Hartrees.
 NAtoms=   22 NActive=   22 NUniq=   22 SFac= 1.00D+00 NAtFMM=   60 NAOKFM=F Big=F
 Integral buffers will be    131072 words long.
 Raffenetti 1 integral format.
 Two-electron integral symmetry is turned on.
 One-electron integrals computed using PRISM.
 NBasis=   406 RedAO= T EigKep=  3.56D-06  NBF=   406
 NBsUse=   406 1.00D-06 EigRej= -1.00D+00 NBFU=   406
 Initial guess from the checkpoint file:  "/tmp/pbs.4766302[310].pbs/Gau-2909912.chk"
 B after Tr=    -0.000000   -0.000000   -0.000000
         Rot=    0.999996   -0.001743    0.000007    0.002151 Ang=  -0.32 deg.
 ExpMin= 2.97D-02 ExpMax= 1.11D+05 ExpMxC= 1.07D+03 IAcc=3 IRadAn=         5 AccDes= 0.00D+00
 Harris functional with IExCor=  205 and IRadAn=       5 diagonalized for initial guess.
 HarFok:  IExCor=  205 AccDes= 0.00D+00 IRadAn=         5 IDoV= 1 UseB2=F ITyADJ=14
 ICtDFT=  3500011 ScaDFX=  1.000000  1.000000  1.000000  1.000000
 FoFCou: FMM=F IPFlag=           0 FMFlag=      100000 FMFlg1=           0
         NFxFlg=           0 DoJE=T BraDBF=F KetDBF=T FulRan=T
         wScrn=  0.000000 ICntrl=       500 IOpCl=  0 I1Cent=   200000004 NGrid=           0
         NMat0=    1 NMatS0=      1 NMatT0=    0 NMatD0=    1 NMtDS0=    0 NMtDT0=    0
 Petite list used in FoFCou.
 Requested convergence on RMS density matrix=1.00D-08 within 128 cycles.
 Requested convergence on MAX density matrix=1.00D-06.
 Requested convergence on             energy=1.00D-06.
 No special actions if energy rises.
 SCF Done:  E(RHF) =  -1613.80571870     A.U. after   15 cycles
            NFock= 15  Conv=0.59D-08     -V/T= 2.0006
 ExpMin= 2.97D-02 ExpMax= 1.11D+05 ExpMxC= 1.07D+03 IAcc=3 IRadAn=         5 AccDes= 0.00D+00
 HarFok:  IExCor=  205 AccDes= 0.00D+00 IRadAn=         5 IDoV=-2 UseB2=F ITyADJ=14
 ICtDFT= 12500011 ScaDFX=  1.000000  1.000000  1.000000  1.000000
 GSVD:  LWork=        -884 too small for GESVD, short by        3770 words or        3770 for optimal perf.
 Range of M.O.s used for correlation:    27   406
 NBasis=   406 NAE=    61 NBE=    61 NFC=    26 NFV=     0
 NROrb=    380 NOA=    35 NOB=    35 NVA=   345 NVB=   345

 **** Warning!!: The largest alpha MO coefficient is  0.85743440D+02

 Disk-based method using ON**2 memory for 35 occupieds at a time.
 Estimated scratch disk usage=  5830313742 words.
 Actual    scratch disk usage=  4754925838 words.
 JobTyp=1 Pass  1:  I=  27 to  61 NPSUse= 16 ParTrn=T ParDer=T DoDerP=T.
 (rs|ai) integrals will be sorted in core.
 Spin components of T(2) and E(2):
     alpha-alpha T2 =       0.1167454935D+00 E2=     -0.2672528399D+00
     alpha-beta  T2 =       0.5751176847D+00 E2=     -0.1411607385D+01
     beta-beta   T2 =       0.1167454935D+00 E2=     -0.2672528399D+00
 ANorm=    0.1344845222D+01
 E2 =    -0.1946113064D+01 EUMP2 =    -0.16157518317610D+04
          IDoAtm=1111111111111111111111
          Differentiating once with respect to electric field.
                with respect to dipole field.
          Differentiating once with respect to nuclear coordinates.
 Keep R1 ints in memory in canonical form, NReq=3454318301.
          There are     1 degrees of freedom in the 1st order CPHF.  IDoFFX=0 NUNeed=     1.
 LinEq1:  Iter=  0 NonCon=     1 RMS=2.73D-03 Max=6.83D-02 NDo=     1
 AX will form     1 AO Fock derivatives at one time.
 LinEq1:  Iter=  1 NonCon=     1 RMS=6.24D-04 Max=1.02D-02 NDo=     1
 LinEq1:  Iter=  2 NonCon=     1 RMS=3.52D-04 Max=1.60D-02 NDo=     1
 LinEq1:  Iter=  3 NonCon=     1 RMS=1.04D-04 Max=2.35D-03 NDo=     1
 LinEq1:  Iter=  4 NonCon=     1 RMS=4.25D-05 Max=1.14D-03 NDo=     1
 LinEq1:  Iter=  5 NonCon=     1 RMS=1.56D-05 Max=6.30D-04 NDo=     1
 LinEq1:  Iter=  6 NonCon=     1 RMS=5.37D-06 Max=2.64D-04 NDo=     1
 LinEq1:  Iter=  7 NonCon=     1 RMS=2.74D-06 Max=1.04D-04 NDo=     1
 LinEq1:  Iter=  8 NonCon=     1 RMS=1.09D-06 Max=4.02D-05 NDo=     1
 LinEq1:  Iter=  9 NonCon=     1 RMS=4.84D-07 Max=1.48D-05 NDo=     1
 LinEq1:  Iter= 10 NonCon=     1 RMS=2.14D-07 Max=8.46D-06 NDo=     1
 LinEq1:  Iter= 11 NonCon=     1 RMS=1.05D-07 Max=3.23D-06 NDo=     1
 LinEq1:  Iter= 12 NonCon=     1 RMS=3.61D-08 Max=8.24D-07 NDo=     1
 LinEq1:  Iter= 13 NonCon=     1 RMS=1.25D-08 Max=2.04D-07 NDo=     1
 LinEq1:  Iter= 14 NonCon=     1 RMS=4.32D-09 Max=8.75D-08 NDo=     1
 LinEq1:  Iter= 15 NonCon=     1 RMS=1.78D-09 Max=4.05D-08 NDo=     1
 LinEq1:  Iter= 16 NonCon=     1 RMS=7.78D-10 Max=2.38D-08 NDo=     1
 LinEq1:  Iter= 17 NonCon=     1 RMS=3.15D-10 Max=6.80D-09 NDo=     1
 LinEq1:  Iter= 18 NonCon=     1 RMS=1.05D-10 Max=2.12D-09 NDo=     1
 LinEq1:  Iter= 19 NonCon=     0 RMS=3.92D-11 Max=6.33D-10 NDo=     1
 Linear equations converged to 1.000D-10 1.000D-09 after    19 iterations.
 End of Minotr F.D. properties file   721 does not exist.
 End of Minotr F.D. properties file   722 does not exist.
 End of Minotr F.D. properties file   788 does not exist.
 Calling FoFJK, ICntrl=  10002127 FMM=F ISym2X=0 I1Cent= 0 IOpClX= 0 NMat=1 NMatS=1 NMatT=0.
 ***** Axes restored to original set *****
 -------------------------------------------------------------------
 Center     Atomic                   Forces (Hartrees/Bohr)
 Number     Number              X              Y              Z
 -------------------------------------------------------------------
      1        6           0.007363196    0.003301215    0.001690815
      2        6          -0.010939339    0.003891340    0.001184520
      3        6           0.008166757   -0.005573015   -0.002462663
      4        6           0.001069421   -0.001455193   -0.000641574
      5        6          -0.002524556   -0.004232419   -0.001696579
      6        1          -0.000572917   -0.000997081   -0.000336683
      7       16          -0.001078083    0.004815150    0.002181689
      8        1           0.000153042   -0.000104708    0.000012076
      9        6          -0.007493367   -0.002992413    0.000696135
     10       16           0.001261192    0.003599101   -0.001551481
     11        6           0.006160596   -0.007740706    0.003432494
     12        6          -0.005653075    0.007795004   -0.003205730
     13        6           0.008440327    0.001511927    0.000246752
     14        1          -0.001134596   -0.000819564    0.000118971
     15       16          -0.001052317   -0.003784965    0.001674682
     16        6           0.003403381    0.002200781   -0.000966855
     17        6          -0.006948191   -0.000072807   -0.000000468
     18        1           0.000000365    0.000130965   -0.000058719
     19        1           0.000873495    0.000529161   -0.000265992
     20        1          -0.000075942    0.000104185    0.000073860
     21        1           0.000334060    0.000154747   -0.000074346
     22        1           0.000246552   -0.000260704   -0.000050904
 -------------------------------------------------------------------
 Cartesian Forces:  Max     0.010939339 RMS     0.003536570

 GradGradGradGradGradGradGradGradGradGradGradGradGradGradGradGradGradGrad
 Berny optimization.
 Using GEDIIS/GDIIS optimizer.
 FormGI is forming the generalized inverse of G from B-inverse, IUseBI=4.
 Internal  Forces:  Max     0.005198160 RMS     0.001444134
 Search for a local minimum.
 Step number   2 out of a maximum of  127
 All quantities printed in internal units (Hartrees-Bohrs-Radians)
 Mixed Optimization -- RFO/linear search
 Update second derivatives using D2CorX and points    1    2
 DE= -9.25D-03 DEPred=-9.16D-03 R= 1.01D+00
 TightC=F SS=  1.41D+00  RLast= 1.93D-01 DXNew= 5.0454D-01 5.8017D-01
 Trust test= 1.01D+00 RLast= 1.93D-01 DXMaxT set to 5.05D-01
 ITU=  1  0
 Use linear search instead of GDIIS.
     Eigenvalues ---    0.00679   0.01370   0.01462   0.01576   0.01628
     Eigenvalues ---    0.01688   0.01757   0.01861   0.01982   0.02042
     Eigenvalues ---    0.02069   0.02140   0.02255   0.02274   0.02377
     Eigenvalues ---    0.02422   0.07166   0.07287   0.15906   0.15994
     Eigenvalues ---    0.15999   0.16000   0.16000   0.16000   0.16000
     Eigenvalues ---    0.16030   0.22539   0.22599   0.23706   0.24280
     Eigenvalues ---    0.24770   0.24906   0.24991   0.24999   0.25205
     Eigenvalues ---    0.29033   0.29953   0.30376   0.31017   0.31340
     Eigenvalues ---    0.31712   0.32406   0.34617   0.34812   0.35345
     Eigenvalues ---    0.35596   0.36082   0.36329   0.36376   0.36433
     Eigenvalues ---    0.36862   0.38318   0.39335   0.39580   0.45262
     Eigenvalues ---    0.49152   0.51742   0.53304   0.538541000.00000
     Eigenvalues --- 1000.000001000.000001000.000001000.000001000.00000
     Eigenvalues --- 1000.000001000.000001000.000001000.000001000.00000
     Eigenvalues --- 1000.000001000.000001000.000001000.000001000.00000
     Eigenvalues --- 1000.000001000.000001000.000001000.000001000.00000
     Eigenvalues --- 1000.000001000.000001000.000001000.000001000.00000
     Eigenvalues --- 1000.000001000.000001000.000001000.000001000.00000
     Eigenvalues --- 1000.000001000.000001000.000001000.000001000.00000
     Eigenvalues --- 1000.000001000.000001000.000001000.000001000.00000
     Eigenvalues --- 1000.000001000.000001000.000001000.000001000.00000
     Eigenvalues --- 1000.000001000.000001000.000001000.000001000.00000
     Eigenvalues --- 1000.000001000.000001000.000001000.000001000.00000
     Eigenvalues --- 1000.000001000.00000
 RFO step:  Lambda=-8.58202131D-04 EMin= 6.79496215D-03
 Quartic linear search produced a step of  0.09313.
 Iteration  1 RMS(Cart)=  0.02590435 RMS(Int)=  0.00024526
 Iteration  2 RMS(Cart)=  0.00035902 RMS(Int)=  0.00002916
 Iteration  3 RMS(Cart)=  0.00000007 RMS(Int)=  0.00002916
 Iteration  1 RMS(Cart)=  0.00001785 RMS(Int)=  0.00000665
 Iteration  2 RMS(Cart)=  0.00000979 RMS(Int)=  0.00000743
 Iteration  3 RMS(Cart)=  0.00000537 RMS(Int)=  0.00000840
 Iteration  4 RMS(Cart)=  0.00000295 RMS(Int)=  0.00000904
 Iteration  5 RMS(Cart)=  0.00000162 RMS(Int)=  0.00000942
 Iteration  6 RMS(Cart)=  0.00000089 RMS(Int)=  0.00000963
 Variable       Old X    -DE/DX   Delta X   Delta X   Delta X     New X
                                 (Linear)    (Quad)   (Total)
    R1        2.71551  -0.00401  -0.00088  -0.01066  -0.01155   2.70396
    R2        2.61916   0.00286   0.00667   0.00248   0.00914   2.62830
    R3        2.06671  -0.00028   0.00246  -0.00191   0.00055   2.06726
    R4        2.63417   0.00520   0.00606   0.00799   0.01406   2.64823
[...]
 Alpha virt. eigenvalues --    0.32057   0.32530   0.32763   0.33163   0.33871
 Alpha virt. eigenvalues --    0.34137   0.34598   0.35268   0.35315   0.36639
 Alpha virt. eigenvalues --    0.37017   0.37577   0.37875   0.39003   0.39805
 Alpha virt. eigenvalues --    0.40288   0.40505   0.41133   0.41659   0.43328
 Alpha virt. eigenvalues --    0.43463   0.43754   0.44288   0.45042   0.45451
 Alpha virt. eigenvalues --    0.45646   0.46140   0.46560   0.47640   0.48028
 Alpha virt. eigenvalues --    0.48258   0.48740   0.48985   0.49720   0.50417
 Alpha virt. eigenvalues --    0.51876   0.52884   0.53571   0.54123   0.54525
 Alpha virt. eigenvalues --    0.55321   0.56615   0.57116   0.57946   0.58328
 Alpha virt. eigenvalues --    0.58719   0.59317   0.59596   0.60563   0.60971
 Alpha virt. eigenvalues --    0.61648   0.62397   0.63206   0.63833   0.64413
 Alpha virt. eigenvalues --    0.64993   0.65071   0.65534   0.66040   0.66405
 Alpha virt. eigenvalues --    0.66786   0.67215   0.67649   0.67766   0.68499
 Alpha virt. eigenvalues --    0.69094   0.69552   0.70109   0.70762   0.71318
 Alpha virt. eigenvalues --    0.72203   0.72679   0.73432   0.73683   0.73826
 Alpha virt. eigenvalues --    0.74364   0.74700   0.74902   0.75390   0.76056
 Alpha virt. eigenvalues --    0.77009   0.77877   0.77985   0.79406   0.79884
 Alpha virt. eigenvalues --    0.80565   0.80962   0.81301   0.82794   0.83738
 Alpha virt. eigenvalues --    0.84254   0.84778   0.85726   0.86780   0.87055
 Alpha virt. eigenvalues --    0.87548   0.88649   0.89006   0.90072   0.90909
 Alpha virt. eigenvalues --    0.91074   0.91524   0.92289   0.92984   0.93651
 Alpha virt. eigenvalues --    0.94236   0.95198   0.95822   0.96285   0.97287
 Alpha virt. eigenvalues --    0.97914   0.98777   0.99643   0.99804   1.00461
 Alpha virt. eigenvalues --    1.00775   1.02591   1.02883   1.04436   1.05071
 Alpha virt. eigenvalues --    1.06216   1.06732   1.07206   1.09886   1.10397
 Alpha virt. eigenvalues --    1.11477   1.12285   1.12760   1.13296   1.14715
 Alpha virt. eigenvalues --    1.16160   1.17706   1.18393   1.19347   1.21333
 Alpha virt. eigenvalues --    1.22638   1.22768   1.23199   1.23639   1.24516
 Alpha virt. eigenvalues --    1.24916   1.25764   1.27415   1.27963   1.29370
 Alpha virt. eigenvalues --    1.30469   1.30604   1.31066   1.32774   1.32815
 Alpha virt. eigenvalues --    1.34198   1.35116   1.35594   1.37098   1.39276
 Alpha virt. eigenvalues --    1.40426   1.41105   1.41706   1.44578   1.45456
 Alpha virt. eigenvalues --    1.47419   1.47616   1.49473   1.52278   1.52875
 Alpha virt. eigenvalues --    1.54617   1.55427   1.56826   1.58110   1.58287
 Alpha virt. eigenvalues --    1.60119   1.61422   1.61915   1.64163   1.64850
 Alpha virt. eigenvalues --    1.65598   1.66336   1.66818   1.68472   1.69367
 Alpha virt. eigenvalues --    1.69641   1.69838   1.70858   1.72448   1.72858
 Alpha virt. eigenvalues --    1.74025   1.74514   1.76851   1.78514   1.78943
 Alpha virt. eigenvalues --    1.79891   1.80664   1.81168   1.82400   1.83146
 Alpha virt. eigenvalues --    1.85288   1.85803   1.87557   1.88446   1.88992
 Alpha virt. eigenvalues --    1.91471   1.91835   1.94469   1.95718   1.96124
 Alpha virt. eigenvalues --    1.96952   1.97404   1.98764   1.99837   2.01150
 Alpha virt. eigenvalues --    2.03850   2.04533   2.07190   2.08037   2.09146
 Alpha virt. eigenvalues --    2.09927   2.10402   2.11863   2.12293   2.13256
 Alpha virt. eigenvalues --    2.14032   2.17029   2.18275   2.18568   2.19671
 Alpha virt. eigenvalues --    2.22384   2.22626   2.22820   2.24767   2.25376
 Alpha virt. eigenvalues --    2.27810   2.28508   2.30308   2.32108   2.32816
 Alpha virt. eigenvalues --    2.33971   2.35560   2.36595   2.38613   2.38825
 Alpha virt. eigenvalues --    2.40700   2.42647   2.44217   2.44704   2.45869
 Alpha virt. eigenvalues --    2.48024   2.49693   2.50361   2.51440   2.53062
 Alpha virt. eigenvalues --    2.56418   2.58087   2.59424   2.62572   2.68124
 Alpha virt. eigenvalues --    2.70134   2.72196   2.76096   2.80094   2.81623
 Alpha virt. eigenvalues --    2.83382   2.84333   2.88224   2.92636   2.94361
 Alpha virt. eigenvalues --    2.97605   2.98258   3.05496   3.08731   3.15363
 Alpha virt. eigenvalues --    3.21063   3.28351   3.31945   3.38298   3.49322
 Alpha virt. eigenvalues --    3.57432   3.68909   3.77586   4.11660   4.21744
          Condensed to atoms (all electrons):
               1          2          3          4          5          6
     1  C   10.107460  -2.539446  -0.921209  -1.050335   0.248326  -0.229861
     2  C   -2.539446  10.566714  -1.265108   0.547404  -0.014186   0.196093
     3  C   -0.921209  -1.265108  12.591269  -0.585272  -1.191202   0.063434
     4  C   -1.050335   0.547404  -0.585272   6.039028   0.100205   0.056124
     5  C    0.248326  -0.014186  -1.191202   0.100205   6.596102  -0.099107
     6  H   -0.229861   0.196093   0.063434   0.056124  -0.099107   1.536023
     7  S   -0.420647  -0.032291  -0.483277   0.120147   0.334980  -0.011815
     8  H   -0.054441   0.120013  -0.053457   0.030876   0.250697  -0.063042
     9  C    0.573242  -1.058712  -1.816720  -0.070037   0.196853  -0.005059
    10  S    0.000364  -0.051989  -0.476323  -0.020618   0.018272  -0.000483
    11  C    0.058604  -0.013643  -0.225842  -0.114344   0.010795   0.000900
    12  C   -0.109224  -0.009076   0.567043   0.277434  -0.009332  -0.003803
    13  C   -0.118138   0.026100  -0.495584  -0.443379  -0.083249   0.004734
    14  H    0.031322  -0.093343   0.121051   0.085142  -0.007217   0.000132
    15  S   -0.000309   0.013486  -0.084687  -0.014615   0.000136   0.000015
    16  C    0.000350  -0.008012   0.016323  -0.001155   0.000286  -0.000012
    17  C    0.005844   0.000624  -0.381148  -0.025064  -0.001217   0.000133
    18  H    0.000018   0.000049  -0.000389  -0.000198   0.000006  -0.000001
    19  H   -0.000166   0.000821  -0.007558  -0.000162   0.000028  -0.000026
    20  H    0.034837  -0.002344  -0.046051   0.191919   0.017252  -0.003699
    21  H   -0.014252   0.048508   0.037701   0.265155   0.008926   0.001578
    22  H   -0.072408   0.041198   0.064893   0.254108  -0.019187   0.000136
               7          8          9         10         11         12
     1  C   -0.420647  -0.054441   0.573242   0.000364   0.058604  -0.109224
     2  C   -0.032291   0.120013  -1.058712  -0.051989  -0.013643  -0.009076
     3  C   -0.483277  -0.053457  -1.816720  -0.476323  -0.225842   0.567043
     4  C    0.120147   0.030876  -0.070037  -0.020618  -0.114344   0.277434
     5  C    0.334980   0.250697   0.196853   0.018272   0.010795  -0.009332
     6  H   -0.011815  -0.063042  -0.005059  -0.000483   0.000900  -0.003803
     7  S   16.221488  -0.119487   0.006472   0.214538   0.056363  -0.018812
     8  H   -0.119487   1.224240  -0.003541   0.004319   0.001913  -0.000300
     9  C    0.006472  -0.003541  11.696052   0.252383  -0.201299  -0.278887
    10  S    0.214538   0.004319   0.252383  16.447096   0.363518  -0.512410
    11  C    0.056363   0.001913  -0.201299   0.363518  10.387163  -0.274630
    12  C   -0.018812  -0.000300  -0.278887  -0.512410  -0.274630  11.836786
    13  C   -0.299651  -0.005751  -3.037390  -0.478003  -0.839998  -3.785991
    14  H    0.003105  -0.000217   0.258551   0.014095  -0.078604   0.480186
    15  S    0.001136  -0.000025  -0.346868   0.104718  -0.007224  -0.455140
    16  C    0.001932   0.000037   0.063728  -0.099841  -0.224238  -0.734621
    17  C    0.023368  -0.000053  -0.499948  -0.260231  -2.815981  -0.685848
    18  H    0.000089   0.000002   0.002038   0.007697   0.048715  -0.043502
    19  H    0.001592   0.000017   0.097414   0.026399   0.563086   0.019533
    20  H   -0.000897   0.001656   0.044986   0.000345   0.000320   0.009742
    21  H    0.007340   0.001171  -0.011502   0.000667  -0.003365  -0.005808
    22  H    0.002077   0.000040  -0.042525   0.005149  -0.011216   0.050416
              13         14         15         16         17         18
     1  C   -0.118138   0.031322  -0.000309   0.000350   0.005844   0.000018
     2  C    0.026100  -0.093343   0.013486  -0.008012   0.000624   0.000049
     3  C   -0.495584   0.121051  -0.084687   0.016323  -0.381148  -0.000389
     4  C   -0.443379   0.085142  -0.014615  -0.001155  -0.025064  -0.000198
     5  C   -0.083249  -0.007217   0.000136   0.000286  -0.001217   0.000006
     6  H    0.004734   0.000132   0.000015  -0.000012   0.000133  -0.000001
     7  S   -0.299651   0.003105   0.001136   0.001932   0.023368   0.000089
     8  H   -0.005751  -0.000217  -0.000025   0.000037  -0.000053   0.000002
     9  C   -3.037390   0.258551  -0.346868   0.063728  -0.499948   0.002038
    10  S   -0.478003   0.014095   0.104718  -0.099841  -0.260231   0.007697
    11  C   -0.839998  -0.078604  -0.007224  -0.224238  -2.815981   0.048715
    12  C   -3.785991   0.480186  -0.455140  -0.734621  -0.685848  -0.043502
    13  C   15.911258  -0.991262   0.187718  -0.071206   0.405712   0.030819
    14  H   -0.991262   1.672276  -0.024793   0.014592  -0.036732   0.001954
    15  S    0.187718  -0.024793  15.967401   0.182407   0.026957  -0.147763
    16  C   -0.071206   0.014592   0.182407   6.478865   0.350952   0.274172
    17  C    0.405712  -0.036732   0.026957   0.350952   9.886688  -0.005832
    18  H    0.030819   0.001954  -0.147763   0.274172  -0.005832   1.247352
    19  H   -0.068119  -0.001979  -0.002029  -0.129024  -0.491489  -0.061259
    20  H   -0.038656   0.009154   0.000065   0.000231   0.000037   0.000024
    21  H    0.001560  -0.024672  -0.003400  -0.000446  -0.001231  -0.000040
    22  H   -0.001947   0.008155  -0.000925  -0.000369  -0.011259  -0.000049
              19         20         21         22
     1  C   -0.000166   0.034837  -0.014252  -0.072408
     2  C    0.000821  -0.002344   0.048508   0.041198
     3  C   -0.007558  -0.046051   0.037701   0.064893
     4  C   -0.000162   0.191919   0.265155   0.254108
     5  C    0.000028   0.017252   0.008926  -0.019187
     6  H   -0.000026  -0.003699   0.001578   0.000136
     7  S    0.001592  -0.000897   0.007340   0.002077
     8  H    0.000017   0.001656   0.001171   0.000040
     9  C    0.097414   0.044986  -0.011502  -0.042525
    10  S    0.026399   0.000345   0.000667   0.005149
    11  C    0.563086   0.000320  -0.003365  -0.011216
    12  C    0.019533   0.009742  -0.005808   0.050416
    13  C   -0.068119  -0.038656   0.001560  -0.001947
    14  H   -0.001979   0.009154  -0.024672   0.008155
    15  S   -0.002029   0.000065  -0.003400  -0.000925
    16  C   -0.129024   0.000231  -0.000446  -0.000369
    17  C   -0.491489   0.000037  -0.001231  -0.011259
    18  H   -0.061259   0.000024  -0.000040  -0.000049
    19  H    1.348893   0.000053   0.000010   0.000200
    20  H    0.000053   1.211928  -0.152847  -0.157514
    21  H    0.000010  -0.152847   0.788319  -0.084858
    22  H    0.000200  -0.157514  -0.084858   0.911069
 Mulliken charges:
               1
     1  C    0.470070
     2  C   -0.472861
     3  C    0.572114
     4  C    0.357640
     5  C   -0.358166
     6  H   -0.442393
     7  S    0.392251
     8  H   -0.334666
     9  C    0.180768
    10  S    0.440339
    11  C   -0.680993
    12  C   -0.313759
    13  C    0.190423
    14  H   -0.440897
    15  S    0.603738
    16  C   -0.114951
    17  C    0.515718
    18  H   -0.353902
    19  H   -0.296235
    20  H   -0.120541
    21  H    0.141485
    22  H    0.064817
 Sum of Mulliken charges =  -0.00000
 Mulliken charges with hydrogens summed into heavy atoms:
               1
     1  C    0.027676
     2  C   -0.472861
     3  C    0.572114
     4  C    0.443401
     5  C   -0.692833
     7  S    0.392251
     9  C    0.180768
    10  S    0.440339
    11  C   -0.680993
    12  C   -0.313759
    13  C   -0.250474
    15  S    0.603738
    16  C   -0.468853
    17  C    0.219483
 Electronic spatial extent (au):  <R**2>=           4366.9277
 Charge=              0.0000 electrons
 Dipole moment (field-independent basis, Debye):
    X=             -0.3738    Y=              1.0314    Z=              0.4181  Tot=              1.1740
 Quadrupole moment (field-independent basis, Debye-Ang):
   XX=            -87.5848   YY=            -99.8855   ZZ=           -110.3124
   XY=             -6.0331   XZ=              1.0986   YZ=             -1.0723
 Traceless Quadrupole moment (field-independent basis, Debye-Ang):
   XX=             11.6761   YY=             -0.6246   ZZ=            -11.0515
   XY=             -6.0331   XZ=              1.0986   YZ=             -1.0723
 Octapole moment (field-independent basis, Debye-Ang**2):
  XXX=             -1.9497  YYY=              4.1320  ZZZ=              1.5515  XYY=             -5.0018
  XXY=            -17.0438  XXZ=              6.2349  XZZ=             -1.0439  YZZ=              1.9079
  YYZ=              2.3741  XYZ=            -14.8264
 Hexadecapole moment (field-independent basis, Debye-Ang**3):
 XXXX=          -4157.5658 YYYY=          -1041.8799 ZZZZ=           -301.8704 XXXY=            -27.2334
 XXXZ=             36.6848 YYYX=            -32.6067 YYYZ=            -14.7712 ZZZX=             -6.0940
 ZZZY=              2.2160 XXYY=           -939.4085 XXZZ=           -931.7331 YYZZ=           -220.9376
 XXYZ=             10.5864 YYXZ=              7.6321 ZZXY=             -3.8655
 N-N= 1.118077428265D+03 E-N=-6.055440195167D+03  KE= 1.612921308881D+03
 Unable to Open any file for archive entry.
 1\1\GINC-CX3-12-21\FOpt\RMP2-FC\Aug-CC-pVDZ\C11H8S3\NS5018\27-Oct-2021
 \0\\# opt=modredundant mp2/aug-cc-pvdz\\pBTTT_135.pdb\\0,1\C,-3.977082
 0405,0.7488042548,0.1372146706\C,-2.596845602,1.0705659771,0.298370918
 2\C,-1.767827606,0.0045792893,-0.0900835583\C,-2.0862144571,2.38178020
 58,0.8410669278\C,-4.1952575856,-0.5363603798,-0.350727881\H,-4.793519
 1286,1.4316077827,0.3877848246\S,-2.703940412,-1.3648508341,-0.6368497
 171\H,-5.1443008743,-1.0340160212,-0.5526952752\C,-0.3143494728,-0.053
 1942661,-0.0561388901\S,0.5014599167,-1.4903270737,0.5706256664\C,2.06
 61974254,-0.775026481,0.298440672\C,1.9344080235,0.5325018422,-0.23359
 29209\C,0.5889222494,0.9416138872,-0.4413213882\H,0.2672262721,1.88863
 22257,-0.8787047177\S,3.5000155755,1.2478430745,-0.503005397\C,4.30000
 50678,-0.1901074009,0.0908764156\C,3.4177133667,-1.18932548,0.48342095
 22\H,5.3903243325,-0.2173851512,0.1187997793\H,3.7422473292,-2.1536025
 046,0.8784104651\H,-2.7958868169,2.7957734439,1.5740522932\H,-1.959379
 3124,3.1287697047,0.0392096796\H,-1.1099162506,2.2457239047,1.33284648
 09\\Version=ES64L-G16RevC.01\State=1-A\HF=-1613.8033642\MP2=-1615.7525
 453\RMSD=5.666e-09\RMSF=1.068e-04\Dipole=-0.0620338,0.2901122,0.122367
 6\PG=C01 [X(C11H8S3)]\\@
 The archive entry for this job was punched.


                                                                                    A
                                                                                  AA
                                                                                 AAA
                                                                                AAAA
                                                                               AAAAA
                                                                              AAAAAA   KKKKKKKK
                                                                             AAAAAAA   KKKKKKKK
                                                                            AAAAAAAA   KKKKKKKK
                                       ZZZZZZZZZZZZZZZZZZZZ                AAAA  AAA   KKKKKKKK
                                       ZZZZZZZZZZZZZZZZZZZ                AAAA   AAA   KKKKKKKK          K
                                       ZZZZZZZZZZZZZZZZZZ                AAAA    AAA   KKKKKKKK         KKK
                                       ZZZZZZZZZZZZZZZZZ                AAAA     AAA   KKKKKKKK        KKKKK
                                       ZZZZZZZZZZZZZZZZ                AAAA      AAA   KKKKKKKK       KKKKKKK
                                                ZZZZZZ                AAAA       AAA   KKKKKKKK      KKKKKKK
                                               ZZZZZZ                AAAA        AAA   KKKKKKKK     KKKKKKK
                                              ZZZZZZ                AAAA         AAA   KKKKKKKK    KKKKKKK
                                             ZZZZZZ                AAAA          AAA   KKKKKKKK   KKKKKKK
                                            ZZZZZZ                AAAAAAAAAAAAAAAAAA   KKKKKKKK  KKKKKKK
                                           ZZZZZZ                AAAAAAAAAAAAAAAAAAA   KKKKKKKK KKKKKKK
                                          ZZZZZZ                AAAAAAAAAAAAAAAAAAAA   KKKKKKKKKKKKKKK
                                         ZZZZZZ                AAAAAAAAAAAAAAAAAAAAA   KKKKKKKKKKKKKK
                                        ZZZZZZ                AAAAAA        AAAAAAAA   KKKKKKKKKKKKK
                                       ZZZZZZ                AAAAAA         AAAAAAAA   KKKKKKKKKKKK
                                      ZZZZZZ                AAAAAA          AAAAAAAA   KKKKKKKKKKK
                                     ZZZZZZ                AAAAAA           AAAAAAAA   KKKKKKKKKKKK
                                    ZZZZZZ                AAAAAA            AAAAAAAA   KKKKKKKKKKKKK
                                   ZZZZZZ                AAAAAA             AAAAAAAA   KKKKKKKKKKKKKK
                                  ZZZZZZ                AAAAAA              AAAAAAAA   KKKKKKKKKKKKKKK
                                 ZZZZZZ                AAAAAA               AAAAAAAA   KKKKK KKKKKKKKKK
                                ZZZZZZ                AAAAAA                AAAAAAAA   KKKKK  KKKKKKKKKK
                               ZZZZZZ                AAAAAA                            KKKKK   KKKKKKKKKK
                              ZZZZZZ                AAAAAA                             KKKKK    KKKKKKKKKK
                             ZZZZZZ                                                    KKKKK     KKKKKKKKKK
                            ZZZZZZ                                                     KKKKK      KKKKKKKKKK
                           ZZZZZZ                                                      KKKKK       KKKKKKKKKK
                          ZZZZZZ                                                       KKKKK        KKKKKKKKKK
                         ZZZZZZZZZZZZZZZZZZZZZZZZZZZZZZZZZZZZZZZZ                      KKKKK         KKKKKKKKKK
                        ZZZZZZZZZZZZZZZZZZZZZZZZZZZZZZZZZZZZZZZZZ                      KKKKK          KKKKKKKKKK
                       ZZZZZZZZZZZZZZZZZZZZZZZZZZZZZZZZZZZZZZZZZZ                      KKKKK           KKKKKKKKKK
                       ZZZZZZZZZZZZZZZZZZZZZZZZZZZZZZZZZZZZZZZZZZ                      KKKKK            KKKKKKKKKK
                       ZZZZZZZZZZZZZZZZZZZZZZZZZZZZZZZZZZZZZZZZZZ                      KKKKK             KKKKKKKKKK
                       ZZZZZZZZZZZZZZZZZZZZZZZZZZZZZZZZZZZZZZZZZZ                      KKKKK              KKKKKKKKKK
                       ZZZZZZZZZZZZZZZZZZZZZZZZZZZZZZZZZZZZZZZZZZ                      KKKKK               KKKKKKKKKK
                       ZZZZZZZZZZZZZZZZZZZZZZZZZZZZZZZZZZZZZZZZZZ                      KKKKK                KKKKKKKKKK
                       ZZZZZZZZZZZZZZZZZZZZZZZZZZZZZZZZZZZZZZZZZZ                      KKKKK
                                                                                       KKKKK
                                                                                          (J.P.)
 Job cpu time:       0 days 12 hours 19 minutes 34.6 seconds.
 Elapsed time:       0 days  0 hours 56 minutes 45.3 seconds.
 File lengths (MBytes):  RWF=  36399 Int=      0 D2E=      0 Chk=     18 Scr=      1
 Normal termination of Gaussian 16 at Wed Oct 27 07:03:23 2021.
