 Entering Gaussian System, Link 0=g16
 Input=pBTTT_95.gjf
 Output=pBTTT_95.log
 Initial command:
 /apps/gaussian/g16-c01-avx/g16/l1.exe "/tmp/pbs.4766302[270].pbs/Gau-2542498.inp" -scrdir="/tmp/pbs.4766302[270].pbs/"
 Entering Link 1 = /apps/gaussian/g16-c01-avx/g16/l1.exe PID=   2542499.
  
 Copyright (c) 1988-2019, Gaussian, Inc.  All Rights Reserved.
  
 This is part of the Gaussian(R) 16 program.  It is based on
 the Gaussian(R) 09 system (copyright 2009, Gaussian, Inc.),
 the Gaussian(R) 03 system (copyright 2003, Gaussian, Inc.),
 the Gaussian(R) 98 system (copyright 1998, Gaussian, Inc.),
 the Gaussian(R) 94 system (copyright 1995, Gaussian, Inc.),
 the Gaussian 92(TM) system (copyright 1992, Gaussian, Inc.),
 the Gaussian 90(TM) system (copyright 1990, Gaussian, Inc.),
 the Gaussian 88(TM) system (copyright 1988, Gaussian, Inc.),
 the Gaussian 86(TM) system (copyright 1986, Carnegie Mellon
 University), and the Gaussian 82(TM) system (copyright 1983,
 Carnegie Mellon University). Gaussian is a federally registered
 trademark of Gaussian, Inc.
  
 This software contains proprietary and confidential information,
 including trade secrets, belonging to Gaussian, Inc.
  
 This software is provided under written license and may be
 used, copied, transmitted, or stored only in accord with that
 written license.
  
 The following legend is applicable only to US Government
 contracts under FAR:
  
                    RESTRICTED RIGHTS LEGEND
  
 Use, reproduction and disclosure by the US Government is
 subject to restrictions as set forth in subparagraphs (a)
 and (c) of the Commercial Computer Software - Restricted
 Rights clause in FAR 52.227-19.
  
 Gaussian, Inc.
 340 Quinnipiac St., Bldg. 40, Wallingford CT 06492
  
  
 ---------------------------------------------------------------
 Warning -- This program may not be used in any manner that
 competes with the business of Gaussian, Inc. or will provide
 assistance to any competitor of Gaussian, Inc.  The licensee
 of this program is prohibited from giving any competitor of
 Gaussian, Inc. access to this program.  By using this program,
 the user acknowledges that Gaussian, Inc. is engaged in the
 business of creating and licensing software in the field of
 computational chemistry and represents and warrants to the
 licensee that it is not a competitor of Gaussian, Inc. and that
 it will not use this program in any manner prohibited above.
 ---------------------------------------------------------------
  

 Cite this work as:
 Gaussian 16, Revision C.01,
 M. J. Frisch, G. W. Trucks, H. B. Schlegel, G. E. Scuseria, 
 M. A. Robb, J. R. Cheeseman, G. Scalmani, V. Barone, 
 G. A. Petersson, H. Nakatsuji, X. Li, M. Caricato, A. V. Marenich, 
 J. Bloino, B. G. Janesko, R. Gomperts, B. Mennucci, H. P. Hratchian, 
 J. V. Ortiz, A. F. Izmaylov, J. L. Sonnenberg, D. Williams-Young, 
 F. Ding, F. Lipparini, F. Egidi, J. Goings, B. Peng, A. Petrone, 
 T. Henderson, D. Ranasinghe, V. G. Zakrzewski, J. Gao, N. Rega, 
 G. Zheng, W. Liang, M. Hada, M. Ehara, K. Toyota, R. Fukuda, 
 J. Hasegawa, M. Ishida, T. Nakajima, Y. Honda, O. Kitao, H. Nakai, 
 T. Vreven, K. Throssell, J. A. Montgomery, Jr., J. E. Peralta, 
 F. Ogliaro, M. J. Bearpark, J. J. Heyd, E. N. Brothers, K. N. Kudin, 
 V. N. Staroverov, T. A. Keith, R. Kobayashi, J. Normand, 
 K. Raghavachari, A. P. Rendell, J. C. Burant, S. S. Iyengar, 
 J. Tomasi, M. Cossi, J. M. Millam, M. Klene, C. Adamo, R. Cammi, 
 J. W. Ochterski, R. L. Martin, K. Morokuma, O. Farkas, 
 J. B. Foresman, and D. J. Fox, Gaussian, Inc., Wallingford CT, 2019.
 
 ******************************************
 Gaussian 16:  ES64L-G16RevC.01  3-Jul-2019
                27-Oct-2021 
 ******************************************
 %mem=100GB
 %nprocshared=16
 Will use up to   16 processors via shared memory.
 ----------------------------------
 # opt=modredundant mp2/aug-cc-pvdz
 ----------------------------------
 1/18=120,19=15,38=1/1,3;
 2/9=110,12=2,17=6,18=5,40=1/2;
 3/5=16,7=10,11=9,25=1,30=1,71=1/1,2,3;
 4//1;
 5/5=2,38=5/2;
 8/6=4,10=1/1;
 9/15=2,16=-3/6;
 10/5=1/2;
 6/7=2,8=2,9=2,10=2/1;
 7/12=2/1,2,3,16;
 1/18=20,19=15/3(2);
 2/9=110/2;
 99//99;
 2/9=110/2;
 3/5=16,7=10,11=9,25=1,30=1,71=1/1,2,3;
 4/5=5,16=3,69=1/1;
 5/5=2,38=5/2;
 8/6=4,10=1/1;
 9/15=2,16=-3/6;
 10/5=1/2;
 7/12=2/1,2,3,16;
 1/18=20,19=15/3(-8);
 2/9=110/2;
 6/7=2,8=2,9=2,10=2/1;
 99/9=10/99;
 ------------
 pBTTT_95.pdb
 ------------
 Symbolic Z-matrix:
 Charge =  0 Multiplicity = 1
 C                    -3.978     0.647     0.07 
 C                    -2.595     0.979     0.311 
 C                    -1.76     -0.007    -0.099 
 C                    -2.177     2.276     0.951 
 C                    -4.147    -0.563    -0.5 
 H                    -4.797     1.304     0.325 
 S                    -2.639    -1.357    -0.776 
 H                    -5.073    -1.036    -0.777 
 C                    -0.285    -0.041    -0.027 
 S                     0.523    -0.82      1.328 
 C                     2.078    -0.429     0.66 
 C                     1.95      0.249    -0.517 
 C                     0.591     0.471    -0.918 
 H                     0.285     0.978    -1.818 
 S                     3.504     0.642    -1.187 
 C                     4.299    -0.13      0.161 
 C                     3.439    -0.652     1.06 
 H                     5.375    -0.15      0.203 
 H                     3.744    -1.167     1.956 
 H                    -2.644     2.384     1.931 
 H                    -2.493     3.123     0.34 
 H                    -1.1       2.328     1.078 
 
 The following ModRedundant input section has been read:
 D       2       3       9      10 F                                           
 

 GradGradGradGradGradGradGradGradGradGradGradGradGradGradGradGradGradGrad
 Berny optimization.
 Initialization pass.
                           ----------------------------
                           !    Initial Parameters    !
                           ! (Angstroms and Degrees)  !
 --------------------------                            --------------------------
 ! Name  Definition              Value          Derivative Info.                !
 --------------------------------------------------------------------------------
 ! R1    R(1,2)                  1.4426         estimate D2E/DX2                !
 ! R2    R(1,5)                  1.3482         estimate D2E/DX2                !
 ! R3    R(1,6)                  1.0805         estimate D2E/DX2                !
 ! R4    R(2,3)                  1.3556         estimate D2E/DX2                !
 ! R5    R(2,4)                  1.5055         estimate D2E/DX2                !
 ! R6    R(3,7)                  1.7474         estimate D2E/DX2                !
 ! R7    R(3,9)                  1.4771         estimate D2E/DX2                !
 ! R8    R(4,20)                 1.0909         estimate D2E/DX2                !
 ! R9    R(4,21)                 1.0911         estimate D2E/DX2                !
 ! R10   R(4,22)                 1.0857         estimate D2E/DX2                !
 ! R11   R(5,7)                  1.7265         estimate D2E/DX2                !
 ! R12   R(5,8)                  1.0761         estimate D2E/DX2                !
 ! R13   R(9,10)                 1.7595         estimate D2E/DX2                !
 ! R14   R(9,13)                 1.3503         estimate D2E/DX2                !
 ! R15   R(10,11)                1.737          estimate D2E/DX2                !
 ! R16   R(11,12)                1.3643         estimate D2E/DX2                !
 ! R17   R(11,17)                1.436          estimate D2E/DX2                !
 ! R18   R(12,13)                1.4342         estimate D2E/DX2                !
 ! R19   R(12,15)                1.7373         estimate D2E/DX2                !
 ! R20   R(13,14)                1.0774         estimate D2E/DX2                !
 ! R21   R(15,16)                1.745          estimate D2E/DX2                !
 ! R22   R(16,17)                1.3492         estimate D2E/DX2                !
 ! R23   R(16,18)                1.077          estimate D2E/DX2                !
 ! R24   R(17,19)                1.0775         estimate D2E/DX2                !
 ! A1    A(2,1,5)              113.414          estimate D2E/DX2                !
 ! A2    A(2,1,6)              123.1839         estimate D2E/DX2                !
 ! A3    A(5,1,6)              123.4019         estimate D2E/DX2                !
 ! A4    A(1,2,3)              111.8771         estimate D2E/DX2                !
 ! A5    A(1,2,4)              122.3762         estimate D2E/DX2                !
 ! A6    A(3,2,4)              125.746          estimate D2E/DX2                !
 ! A7    A(2,3,7)              111.6708         estimate D2E/DX2                !
 ! A8    A(2,3,9)              128.1039         estimate D2E/DX2                !
 ! A9    A(7,3,9)              120.2251         estimate D2E/DX2                !
 ! A10   A(2,4,20)             110.384          estimate D2E/DX2                !
 ! A11   A(2,4,21)             110.5053         estimate D2E/DX2                !
 ! A12   A(2,4,22)             111.4944         estimate D2E/DX2                !
 ! A13   A(20,4,21)            107.5899         estimate D2E/DX2                !
 ! A14   A(20,4,22)            108.3498         estimate D2E/DX2                !
 ! A15   A(21,4,22)            108.3974         estimate D2E/DX2                !
 ! A16   A(1,5,7)              111.7689         estimate D2E/DX2                !
 ! A17   A(1,5,8)              127.6777         estimate D2E/DX2                !
 ! A18   A(7,5,8)              120.5533         estimate D2E/DX2                !
 ! A19   A(3,7,5)               91.2684         estimate D2E/DX2                !
 ! A20   A(3,9,10)             120.417          estimate D2E/DX2                !
 ! A21   A(3,9,13)             127.3654         estimate D2E/DX2                !
 ! A22   A(10,9,13)            112.2168         estimate D2E/DX2                !
 ! A23   A(9,10,11)             90.8758         estimate D2E/DX2                !
 ! A24   A(10,11,12)           111.0783         estimate D2E/DX2                !
 ! A25   A(10,11,17)           134.9427         estimate D2E/DX2                !
 ! A26   A(12,11,17)           113.9789         estimate D2E/DX2                !
 ! A27   A(11,12,13)           114.0182         estimate D2E/DX2                !
 ! A28   A(11,12,15)           111.1736         estimate D2E/DX2                !
 ! A29   A(13,12,15)           134.808          estimate D2E/DX2                !
 ! A30   A(9,13,12)            111.81           estimate D2E/DX2                !
 ! A31   A(9,13,14)            123.0515         estimate D2E/DX2                !
 ! A32   A(12,13,14)           125.138          estimate D2E/DX2                !
 ! A33   A(12,15,16)            90.5457         estimate D2E/DX2                !
 ! A34   A(15,16,17)           113.2969         estimate D2E/DX2                !
 ! A35   A(15,16,18)           119.5706         estimate D2E/DX2                !
 ! A36   A(17,16,18)           127.1325         estimate D2E/DX2                !
 ! A37   A(11,17,16)           111.0048         estimate D2E/DX2                !
 ! A38   A(11,17,19)           125.0383         estimate D2E/DX2                !
 ! A39   A(16,17,19)           123.9568         estimate D2E/DX2                !
 ! D1    D(5,1,2,3)              0.2926         estimate D2E/DX2                !
 ! D2    D(5,1,2,4)           -179.4273         estimate D2E/DX2                !
 ! D3    D(6,1,2,3)           -179.8883         estimate D2E/DX2                !
 ! D4    D(6,1,2,4)              0.3918         estimate D2E/DX2                !
 ! D5    D(2,1,5,7)             -0.1437         estimate D2E/DX2                !
 ! D6    D(2,1,5,8)            179.9848         estimate D2E/DX2                !
 ! D7    D(6,1,5,7)           -179.9623         estimate D2E/DX2                !
 ! D8    D(6,1,5,8)              0.1663         estimate D2E/DX2                !
 ! D9    D(1,2,3,7)             -0.3018         estimate D2E/DX2                !
 ! D10   D(1,2,3,9)            179.8517         estimate D2E/DX2                !
 ! D11   D(4,2,3,7)            179.4067         estimate D2E/DX2                !
 ! D12   D(4,2,3,9)             -0.4398         estimate D2E/DX2                !
 ! D13   D(1,2,4,20)            57.6125         estimate D2E/DX2                !
 ! D14   D(1,2,4,21)           -61.2799         estimate D2E/DX2                !
 ! D15   D(1,2,4,22)           178.0952         estimate D2E/DX2                !
 ! D16   D(3,2,4,20)          -122.0673         estimate D2E/DX2                !
 ! D17   D(3,2,4,21)           119.0404         estimate D2E/DX2                !
 ! D18   D(3,2,4,22)            -1.5846         estimate D2E/DX2                !
 ! D19   D(2,3,7,5)              0.1918         estimate D2E/DX2                !
 ! D20   D(9,3,7,5)           -179.948          estimate D2E/DX2                !
 ! D21   D(2,3,9,10)            95.036          Frozen                          !
 ! D22   D(2,3,9,13)           -85.3111         estimate D2E/DX2                !
 ! D23   D(7,3,9,10)           -84.7989         estimate D2E/DX2                !
 ! D24   D(7,3,9,13)            94.854          estimate D2E/DX2                !
 ! D25   D(1,5,7,3)             -0.0226         estimate D2E/DX2                !
 ! D26   D(8,5,7,3)            179.8593         estimate D2E/DX2                !
 ! D27   D(3,9,10,11)          179.9108         estimate D2E/DX2                !
 ! D28   D(13,9,10,11)           0.2088         estimate D2E/DX2                !
 ! D29   D(3,9,13,12)          179.9976         estimate D2E/DX2                !
 ! D30   D(3,9,13,14)           -0.2476         estimate D2E/DX2                !
 ! D31   D(10,9,13,12)          -0.3257         estimate D2E/DX2                !
 ! D32   D(10,9,13,14)         179.4291         estimate D2E/DX2                !
 ! D33   D(9,10,11,12)          -0.0277         estimate D2E/DX2                !
 ! D34   D(9,10,11,17)         179.8553         estimate D2E/DX2                !
 ! D35   D(10,11,12,13)         -0.1507         estimate D2E/DX2                !
 ! D36   D(10,11,12,15)        179.9739         estimate D2E/DX2                !
 ! D37   D(17,11,12,13)        179.9398         estimate D2E/DX2                !
 ! D38   D(17,11,12,15)          0.0645         estimate D2E/DX2                !
 ! D39   D(10,11,17,16)       -179.9299         estimate D2E/DX2                !
 ! D40   D(10,11,17,19)          0.1214         estimate D2E/DX2                !
 ! D41   D(12,11,17,16)         -0.0493         estimate D2E/DX2                !
 ! D42   D(12,11,17,19)       -179.998          estimate D2E/DX2                !
 ! D43   D(11,12,13,9)           0.3129         estimate D2E/DX2                !
 ! D44   D(11,12,13,14)       -179.4359         estimate D2E/DX2                !
 ! D45   D(15,12,13,9)        -179.851          estimate D2E/DX2                !
 ! D46   D(15,12,13,14)          0.4003         estimate D2E/DX2                !
 ! D47   D(11,12,15,16)         -0.0481         estimate D2E/DX2                !
 ! D48   D(13,12,15,16)       -179.8876         estimate D2E/DX2                !
 ! D49   D(12,15,16,17)          0.0207         estimate D2E/DX2                !
 ! D50   D(12,15,16,18)        179.9492         estimate D2E/DX2                !
 ! D51   D(15,16,17,11)          0.0111         estimate D2E/DX2                !
 ! D52   D(15,16,17,19)        179.9604         estimate D2E/DX2                !
 ! D53   D(18,16,17,11)       -179.911          estimate D2E/DX2                !
 ! D54   D(18,16,17,19)          0.0383         estimate D2E/DX2                !
 --------------------------------------------------------------------------------
 Trust Radius=3.00D-01 FncErr=1.00D-07 GrdErr=1.00D-07 EigMax=2.50D+02 EigMin=1.00D-04
 Number of steps in this run=    127 maximum allowed number of steps=    132.
 GradGradGradGradGradGradGradGradGradGradGradGradGradGradGradGradGradGrad

                          Input orientation:                          
 ---------------------------------------------------------------------
 Center     Atomic      Atomic             Coordinates (Angstroms)
 Number     Number       Type             X           Y           Z
 ---------------------------------------------------------------------
      1          6           0       -3.978000    0.647000    0.070000
      2          6           0       -2.595000    0.979000    0.311000
      3          6           0       -1.760000   -0.007000   -0.099000
      4          6           0       -2.177000    2.276000    0.951000
      5          6           0       -4.147000   -0.563000   -0.500000
      6          1           0       -4.797000    1.304000    0.325000
      7         16           0       -2.639000   -1.357000   -0.776000
      8          1           0       -5.073000   -1.036000   -0.777000
      9          6           0       -0.285000   -0.041000   -0.027000
     10         16           0        0.523000   -0.820000    1.328000
     11          6           0        2.078000   -0.429000    0.660000
     12          6           0        1.950000    0.249000   -0.517000
     13          6           0        0.591000    0.471000   -0.918000
     14          1           0        0.285000    0.978000   -1.818000
     15         16           0        3.504000    0.642000   -1.187000
     16          6           0        4.299000   -0.130000    0.161000
     17          6           0        3.439000   -0.652000    1.060000
     18          1           0        5.375000   -0.150000    0.203000
     19          1           0        3.744000   -1.167000    1.956000
     20          1           0       -2.644000    2.384000    1.931000
     21          1           0       -2.493000    3.123000    0.340000
     22          1           0       -1.100000    2.328000    1.078000
 ---------------------------------------------------------------------
                    Distance matrix (angstroms):
                    1          2          3          4          5
     1  C    0.000000
     2  C    1.442565   0.000000
     3  C    2.318577   1.355552   0.000000
     4  C    2.583293   1.505501   2.547249   0.000000
     5  C    1.348169   2.333279   2.483487   3.747829   0.000000
     6  H    1.080479   2.225899   3.334946   2.863749   2.142152
     7  S    2.554340   2.576898   1.747418   4.049032   1.726463
     8  H    2.179202   3.374086   3.534755   4.726748   1.076073
     9  C    3.757792   2.547694   1.477148   3.147163   3.925717
    10  S    4.898332   3.740670   2.812363   4.125208   5.021607
    11  C    6.179079   4.892974   3.935023   5.050419   6.333576
    12  C    5.970273   4.677126   3.742240   4.826581   6.150857
    13  C    4.677914   3.452405   2.535044   3.796447   4.867497
    14  H    4.674107   3.581486   2.847316   3.926017   4.873852
    15  S    7.586857   6.289306   5.414300   6.286077   7.775718
    16  C    8.313888   6.984241   6.065823   6.953525   8.482884
    17  C    7.594695   6.295262   5.365530   6.334392   7.745251
    18  H    9.387838   8.050292   7.142820   7.967288   9.556844
    19  H    8.153335   6.891608   5.988542   6.922609   8.286413
    20  H    2.874030   2.144954   3.258717   1.090941   4.105311
    21  H    2.899776   2.146621   3.244520   1.091140   4.126489
    22  H    3.482055   2.154789   2.696879   1.085708   4.486889
                    6          7          8          9         10
     6  H    0.000000
     7  S    3.598623   0.000000
     8  H    2.601188   2.455076   0.000000
     9  C    4.721342   2.798959   4.947471   0.000000
    10  S    5.815478   3.835809   5.982717   1.759469   0.000000
    11  C    7.097967   5.017307   7.319168   2.491241   1.736989
    12  C    6.880697   4.868803   7.144323   2.306388   2.565758
    13  C    5.591912   3.714115   5.862749   1.350334   2.591490
    14  H    5.524984   3.884297   5.817907   2.137976   3.631358
    15  S    8.463509   6.473127   8.749212   4.021021   4.165217
    16  C    9.209803   7.107696   9.462297   4.588717   4.012003
    17  C    8.496932   6.388271   8.716431   3.927221   2.933105
    18  H   10.276117   8.163301  10.531197   5.665720   5.025577
    19  H    9.039617   6.945690   9.231790   4.629579   3.299945
    20  H    2.895003   4.617679   4.992966   3.908871   4.545230
    21  H    2.935541   4.619218   5.020097   3.875674   5.061586
    22  H    3.909398   4.402847   5.526504   2.738140   3.550568
                   11         12         13         14         15
    11  C    0.000000
    12  C    1.364330   0.000000
    13  C    2.347606   1.434213   0.000000
    14  H    3.366747   2.235233   1.077351   0.000000
    15  S    2.567475   1.737315   2.930388   3.297426   0.000000
    16  C    2.295919   2.474091   3.908287   4.610456   1.745025
    17  C    1.435984   2.348585   3.644821   4.570284   2.593775
    18  H    3.340194   3.522531   4.952670   5.591505   2.461708
    19  H    2.236027   3.367376   4.569938   5.550566   3.634354
    20  H    5.641427   5.626346   4.716100   4.960935   7.110161
    21  H    5.797684   5.360464   4.257549   4.120106   6.667166
    22  H    4.227938   4.021040   3.208106   3.482462   5.400892
                   16         17         18         19         20
    16  C    0.000000
    17  C    1.349179   0.000000
    18  H    1.077005   2.175902   0.000000
    19  H    2.146024   1.077528   2.601434   0.000000
    20  H    7.593309   6.854110   8.585540   7.308678   0.000000
    21  H    7.532949   7.068073   8.522718   7.740525   1.760739
    22  H    6.002654   5.429848   6.987971   6.037404   1.764846
                   21         22
    21  H    0.000000
    22  H    1.765536   0.000000
 Stoichiometry    C11H8S3
 Framework group  C1[X(C11H8S3)]
 Deg. of freedom    60
 Full point group                 C1      NOp   1
 Largest Abelian subgroup         C1      NOp   1
 Largest concise Abelian subgroup C1      NOp   1
                         Standard orientation:                         
 ---------------------------------------------------------------------
 Center     Atomic      Atomic             Coordinates (Angstroms)
 Number     Number       Type             X           Y           Z
 ---------------------------------------------------------------------
      1          6           0       -3.977919    0.647182    0.070389
      2          6           0       -2.594894    0.979016    0.311474
      3          6           0       -1.759962   -0.006893   -0.098883
      4          6           0       -2.176802    2.275770    0.951912
      5          6           0       -4.147003   -0.562612   -0.500024
      6          1           0       -4.796874    1.304143    0.325633
      7         16           0       -2.639057   -1.356607   -0.776330
      8          1           0       -5.073038   -1.035460   -0.777168
      9          6           0       -0.284962   -0.041006   -0.026926
     10         16           0        0.523020   -0.820522    1.327788
     11          6           0        2.078029   -0.429385    0.659890
     12          6           0        1.950045    0.249028   -0.516874
     13          6           0        0.591050    0.471248   -0.917768
     14          1           0        0.285061    0.978576   -1.817587
     15         16           0        3.504054    0.642166   -1.186771
     16          6           0        4.299037   -0.130346    0.160946
     17          6           0        3.439024   -0.652604    1.059784
     18          1           0        5.375036   -0.150425    0.202916
     19          1           0        3.744012   -1.167932    1.955600
     20          1           0       -2.643775    2.383460    1.931959
     21          1           0       -2.492764    3.123000    0.341211
     22          1           0       -1.099796    2.327662    1.078907
 ---------------------------------------------------------------------
 Rotational constants (GHZ):           1.2835172           0.2593274           0.2549872
 Standard basis: Aug-CC-pVDZ (5D, 7F)
 There are   434 symmetry adapted cartesian basis functions of A   symmetry.
 There are   406 symmetry adapted basis functions of A   symmetry.
   406 basis functions,   804 primitive gaussians,   434 cartesian basis functions
    61 alpha electrons       61 beta electrons
       nuclear repulsion energy      1122.5382107070 Hartrees.
 NAtoms=   22 NActive=   22 NUniq=   22 SFac= 1.00D+00 NAtFMM=   60 NAOKFM=F Big=F
 Integral buffers will be    131072 words long.
 Raffenetti 1 integral format.
 Two-electron integral symmetry is turned on.
 One-electron integrals computed using PRISM.
 NBasis=   406 RedAO= T EigKep=  3.66D-06  NBF=   406
 NBsUse=   406 1.00D-06 EigRej= -1.00D+00 NBFU=   406
 ExpMin= 2.97D-02 ExpMax= 1.11D+05 ExpMxC= 1.07D+03 IAcc=3 IRadAn=         5 AccDes= 0.00D+00
 Harris functional with IExCor=  205 and IRadAn=       5 diagonalized for initial guess.
 HarFok:  IExCor=  205 AccDes= 0.00D+00 IRadAn=         5 IDoV= 1 UseB2=F ITyADJ=14
 ICtDFT=  3500011 ScaDFX=  1.000000  1.000000  1.000000  1.000000
 FoFCou: FMM=F IPFlag=           0 FMFlag=      100000 FMFlg1=           0
         NFxFlg=           0 DoJE=T BraDBF=F KetDBF=T FulRan=T
         wScrn=  0.000000 ICntrl=       500 IOpCl=  0 I1Cent=   200000004 NGrid=           0
         NMat0=    1 NMatS0=      1 NMatT0=    0 NMatD0=    1 NMtDS0=    0 NMtDT0=    0
 Petite list used in FoFCou.
 Requested convergence on RMS density matrix=1.00D-08 within 128 cycles.
 Requested convergence on MAX density matrix=1.00D-06.
 Requested convergence on             energy=1.00D-06.
 No special actions if energy rises.
 SCF Done:  E(RHF) =  -1613.81469077     A.U. after   17 cycles
            NFock= 17  Conv=0.51D-08     -V/T= 2.0001
 ExpMin= 2.97D-02 ExpMax= 1.11D+05 ExpMxC= 1.07D+03 IAcc=3 IRadAn=         5 AccDes= 0.00D+00
 HarFok:  IExCor=  205 AccDes= 0.00D+00 IRadAn=         5 IDoV=-2 UseB2=F ITyADJ=14
 ICtDFT= 12500011 ScaDFX=  1.000000  1.000000  1.000000  1.000000
 GSVD:  LWork=        -884 too small for GESVD, short by        3770 words or        3770 for optimal perf.
 Range of M.O.s used for correlation:    27   406
 NBasis=   406 NAE=    61 NBE=    61 NFC=    26 NFV=     0
 NROrb=    380 NOA=    35 NOB=    35 NVA=   345 NVB=   345

 **** Warning!!: The largest alpha MO coefficient is  0.95920767D+02

 Disk-based method using ON**2 memory for 35 occupieds at a time.
 Estimated scratch disk usage=  5838865934 words.
 Actual    scratch disk usage=  4761690126 words.
 JobTyp=1 Pass  1:  I=  27 to  61 NPSUse= 16 ParTrn=T ParDer=T DoDerP=T.
 (rs|ai) integrals will be sorted in core.
 Spin components of T(2) and E(2):
     alpha-alpha T2 =       0.1131162227D+00 E2=     -0.2640753262D+00
     alpha-beta  T2 =       0.5597002024D+00 E2=     -0.1398328485D+01
     beta-beta   T2 =       0.1131162227D+00 E2=     -0.2640753262D+00
 ANorm=    0.1336387911D+01
 E2 =    -0.1926479138D+01 EUMP2 =    -0.16157411699104D+04
          IDoAtm=1111111111111111111111
          Differentiating once with respect to electric field.
                with respect to dipole field.
          Differentiating once with respect to nuclear coordinates.
 Keep R1 ints in memory in canonical form, NReq=3454318301.
          There are     1 degrees of freedom in the 1st order CPHF.  IDoFFX=0 NUNeed=     1.
 LinEq1:  Iter=  0 NonCon=     1 RMS=2.70D-03 Max=7.08D-02 NDo=     1
 AX will form     1 AO Fock derivatives at one time.
 LinEq1:  Iter=  1 NonCon=     1 RMS=5.88D-04 Max=8.66D-03 NDo=     1
 LinEq1:  Iter=  2 NonCon=     1 RMS=3.26D-04 Max=1.45D-02 NDo=     1
 LinEq1:  Iter=  3 NonCon=     1 RMS=8.89D-05 Max=2.37D-03 NDo=     1
 LinEq1:  Iter=  4 NonCon=     1 RMS=3.44D-05 Max=7.67D-04 NDo=     1
 LinEq1:  Iter=  5 NonCon=     1 RMS=1.19D-05 Max=2.93D-04 NDo=     1
 LinEq1:  Iter=  6 NonCon=     1 RMS=3.76D-06 Max=1.54D-04 NDo=     1
 LinEq1:  Iter=  7 NonCon=     1 RMS=1.78D-06 Max=6.27D-05 NDo=     1
 LinEq1:  Iter=  8 NonCon=     1 RMS=7.30D-07 Max=3.30D-05 NDo=     1
 LinEq1:  Iter=  9 NonCon=     1 RMS=2.70D-07 Max=5.02D-06 NDo=     1
 LinEq1:  Iter= 10 NonCon=     1 RMS=1.09D-07 Max=3.94D-06 NDo=     1
 LinEq1:  Iter= 11 NonCon=     1 RMS=5.15D-08 Max=2.17D-06 NDo=     1
 LinEq1:  Iter= 12 NonCon=     1 RMS=2.10D-08 Max=4.38D-07 NDo=     1
 LinEq1:  Iter= 13 NonCon=     1 RMS=7.53D-09 Max=1.59D-07 NDo=     1
 LinEq1:  Iter= 14 NonCon=     1 RMS=2.54D-09 Max=5.13D-08 NDo=     1
 LinEq1:  Iter= 15 NonCon=     1 RMS=8.39D-10 Max=1.31D-08 NDo=     1
 LinEq1:  Iter= 16 NonCon=     1 RMS=3.38D-10 Max=8.41D-09 NDo=     1
 LinEq1:  Iter= 17 NonCon=     1 RMS=1.16D-10 Max=1.38D-09 NDo=     1
 LinEq1:  Iter= 18 NonCon=     0 RMS=3.95D-11 Max=9.40D-10 NDo=     1
 Linear equations converged to 1.000D-10 1.000D-09 after    18 iterations.
 End of Minotr F.D. properties file   721 does not exist.
 End of Minotr F.D. properties file   722 does not exist.
 End of Minotr F.D. properties file   788 does not exist.

 **********************************************************************

            Population analysis using the SCF Density.

 **********************************************************************

 Orbital symmetries:
       Occupied  (A) (A) (A) (A) (A) (A) (A) (A) (A) (A) (A) (A)
                 (A) (A) (A) (A) (A) (A) (A) (A) (A) (A) (A) (A)
                 (A) (A) (A) (A) (A) (A) (A) (A) (A) (A) (A) (A)
                 (A) (A) (A) (A) (A) (A) (A) (A) (A) (A) (A) (A)
                 (A) (A) (A) (A) (A) (A) (A) (A) (A) (A) (A) (A)
                 (A)
       Virtual   (A) (A) (A) (A) (A) (A) (A) (A) (A) (A) (A) (A)
                 (A) (A) (A) (A) (A) (A) (A) (A) (A) (A) (A) (A)
                 (A) (A) (A) (A) (A) (A) (A) (A) (A) (A) (A) (A)
                 (A) (A) (A) (A) (A) (A) (A) (A) (A) (A) (A) (A)
                 (A) (A) (A) (A) (A) (A) (A) (A) (A) (A) (A) (A)
                 (A) (A) (A) (A) (A) (A) (A) (A) (A) (A) (A) (A)
                 (A) (A) (A) (A) (A) (A) (A) (A) (A) (A) (A) (A)
                 (A) (A) (A) (A) (A) (A) (A) (A) (A) (A) (A) (A)
                 (A) (A) (A) (A) (A) (A) (A) (A) (A) (A) (A) (A)
                 (A) (A) (A) (A) (A) (A) (A) (A) (A) (A) (A) (A)
                 (A) (A) (A) (A) (A) (A) (A) (A) (A) (A) (A) (A)
                 (A) (A) (A) (A) (A) (A) (A) (A) (A) (A) (A) (A)
                 (A) (A) (A) (A) (A) (A) (A) (A) (A) (A) (A) (A)
                 (A) (A) (A) (A) (A) (A) (A) (A) (A) (A) (A) (A)
                 (A) (A) (A) (A) (A) (A) (A) (A) (A) (A) (A) (A)
                 (A) (A) (A) (A) (A) (A) (A) (A) (A) (A) (A) (A)
                 (A) (A) (A) (A) (A) (A) (A) (A) (A) (A) (A) (A)
                 (A) (A) (A) (A) (A) (A) (A) (A) (A) (A) (A) (A)
                 (A) (A) (A) (A) (A) (A) (A) (A) (A) (A) (A) (A)
                 (A) (A) (A) (A) (A) (A) (A) (A) (A) (A) (A) (A)
                 (A) (A) (A) (A) (A) (A) (A) (A) (A) (A) (A) (A)
                 (A) (A) (A) (A) (A) (A) (A) (A) (A) (A) (A) (A)
                 (A) (A) (A) (A) (A) (A) (A) (A) (A) (A) (A) (A)
                 (A) (A) (A) (A) (A) (A) (A) (A) (A) (A) (A) (A)
                 (A) (A) (A) (A) (A) (A) (A) (A) (A) (A) (A) (A)
                 (A) (A) (A) (A) (A) (A) (A) (A) (A) (A) (A) (A)
                 (A) (A) (A) (A) (A) (A) (A) (A) (A) (A) (A) (A)
                 (A) (A) (A) (A) (A) (A) (A) (A) (A) (A) (A) (A)
                 (A) (A) (A) (A) (A) (A) (A) (A) (A)
 The electronic state is 1-A.
 Alpha  occ. eigenvalues --  -91.99068 -91.98939 -91.98329 -11.28755 -11.27825
 Alpha  occ. eigenvalues --  -11.27428 -11.27314 -11.27158 -11.27135 -11.25819
 Alpha  occ. eigenvalues --  -11.25806 -11.25519 -11.24282 -11.23587  -8.99247
 Alpha  occ. eigenvalues --   -8.99092  -8.98544  -6.67414  -6.67336  -6.67255
 Alpha  occ. eigenvalues --   -6.67173  -6.67130  -6.66967  -6.66708  -6.66616
 Alpha  occ. eigenvalues --   -6.66425  -1.21722  -1.18535  -1.12845  -1.03899
 Alpha  occ. eigenvalues --   -1.02486  -1.01566  -0.95813  -0.94616  -0.91805
 Alpha  occ. eigenvalues --   -0.82068  -0.77404  -0.76410  -0.72637  -0.69984
 Alpha  occ. eigenvalues --   -0.67343  -0.66866  -0.60691  -0.59056  -0.58813
 Alpha  occ. eigenvalues --   -0.56694  -0.56321  -0.54657  -0.53805  -0.52491
 Alpha  occ. eigenvalues --   -0.51722  -0.50956  -0.49475  -0.47383  -0.46243
 Alpha  occ. eigenvalues --   -0.46035  -0.38812  -0.34201  -0.33027  -0.32161
 Alpha  occ. eigenvalues --   -0.30641
 Alpha virt. eigenvalues --    0.03396   0.03489   0.04156   0.04655   0.04910
 Alpha virt. eigenvalues --    0.05634   0.06265   0.07340   0.08441   0.08653
 Alpha virt. eigenvalues --    0.08859   0.08954   0.10141   0.10346   0.10920
 Alpha virt. eigenvalues --    0.11244   0.11834   0.12406   0.12613   0.12948
 Alpha virt. eigenvalues --    0.13201   0.13775   0.14040   0.14167   0.14553
 Alpha virt. eigenvalues --    0.14721   0.15188   0.15650   0.15758   0.16261
 Alpha virt. eigenvalues --    0.16494   0.16602   0.17033   0.17996   0.18332
 Alpha virt. eigenvalues --    0.18641   0.18802   0.19128   0.19965   0.20141
 Alpha virt. eigenvalues --    0.20360   0.20942   0.21242   0.21729   0.21857
 Alpha virt. eigenvalues --    0.22540   0.22980   0.23385   0.23598   0.24223
 Alpha virt. eigenvalues --    0.24451   0.24872   0.25150   0.25421   0.26278
 Alpha virt. eigenvalues --    0.26507   0.27209   0.27598   0.28920   0.29216
 Alpha virt. eigenvalues --    0.29699   0.30164   0.30711   0.31679   0.31983
 Alpha virt. eigenvalues --    0.32215   0.32763   0.32995   0.33530   0.33978
 Alpha virt. eigenvalues --    0.34726   0.34974   0.35511   0.35919   0.36485
 Alpha virt. eigenvalues --    0.37012   0.37333   0.38455   0.39815   0.40316
 Alpha virt. eigenvalues --    0.40727   0.41111   0.41525   0.42237   0.42863
 Alpha virt. eigenvalues --    0.43107   0.44281   0.44494   0.44976   0.45410
 Alpha virt. eigenvalues --    0.45702   0.46137   0.46927   0.47590   0.48157
 Alpha virt. eigenvalues --    0.48893   0.49325   0.50052   0.50431   0.51223
 Alpha virt. eigenvalues --    0.51995   0.52280   0.53578   0.54079   0.55044
 Alpha virt. eigenvalues --    0.55405   0.56398   0.56916   0.57902   0.58465
 Alpha virt. eigenvalues --    0.58825   0.59154   0.59621   0.60056   0.61200
 Alpha virt. eigenvalues --    0.61688   0.62178   0.62870   0.63150   0.63439
 Alpha virt. eigenvalues --    0.64197   0.64955   0.65706   0.66662   0.67116
 Alpha virt. eigenvalues --    0.67765   0.68194   0.68581   0.69019   0.69588
 Alpha virt. eigenvalues --    0.69752   0.70209   0.70362   0.71235   0.71660
 Alpha virt. eigenvalues --    0.72414   0.73433   0.73694   0.74100   0.74808
 Alpha virt. eigenvalues --    0.74948   0.75536   0.76472   0.76726   0.77069
 Alpha virt. eigenvalues --    0.77450   0.77984   0.79153   0.79339   0.80002
 Alpha virt. eigenvalues --    0.80555   0.80878   0.81695   0.82783   0.83143
 Alpha virt. eigenvalues --    0.83786   0.83810   0.84993   0.85805   0.86876
 Alpha virt. eigenvalues --    0.87362   0.88574   0.89474   0.90296   0.90459
 Alpha virt. eigenvalues --    0.91325   0.92378   0.92936   0.93091   0.94825
 Alpha virt. eigenvalues --    0.94947   0.95919   0.96068   0.96853   0.97169
 Alpha virt. eigenvalues --    0.97993   0.98351   0.98931   0.99480   1.00377
 Alpha virt. eigenvalues --    1.01962   1.02669   1.03158   1.04155   1.05342
 Alpha virt. eigenvalues --    1.06718   1.07113   1.08691   1.09077   1.10325
 Alpha virt. eigenvalues --    1.10701   1.11716   1.12312   1.13126   1.14594
 Alpha virt. eigenvalues --    1.16701   1.17243   1.17394   1.19577   1.20164
 Alpha virt. eigenvalues --    1.20748   1.21949   1.23115   1.24629   1.24717
 Alpha virt. eigenvalues --    1.25678   1.26271   1.27091   1.28138   1.28274
 Alpha virt. eigenvalues --    1.29433   1.31521   1.32259   1.32688   1.33272
 Alpha virt. eigenvalues --    1.34499   1.36200   1.36667   1.37253   1.38059
 Alpha virt. eigenvalues --    1.39727   1.41239   1.41937   1.44489   1.46929
 Alpha virt. eigenvalues --    1.47212   1.48463   1.50487   1.51190   1.53874
 Alpha virt. eigenvalues --    1.54193   1.54813   1.56658   1.57791   1.59198
 Alpha virt. eigenvalues --    1.59461   1.60694   1.61967   1.62539   1.63168
 Alpha virt. eigenvalues --    1.64982   1.65163   1.66832   1.67519   1.68572
 Alpha virt. eigenvalues --    1.69222   1.69943   1.70898   1.72054   1.72752
 Alpha virt. eigenvalues --    1.74090   1.74800   1.75515   1.76939   1.78869
 Alpha virt. eigenvalues --    1.81014   1.81881   1.82207   1.83374   1.84906
 Alpha virt. eigenvalues --    1.85292   1.85960   1.88249   1.89349   1.90182
 Alpha virt. eigenvalues --    1.92369   1.93381   1.94480   1.95702   1.96567
 Alpha virt. eigenvalues --    1.97514   1.97636   1.99817   2.02137   2.02675
 Alpha virt. eigenvalues --    2.04437   2.06339   2.06705   2.07041   2.09353
 Alpha virt. eigenvalues --    2.09783   2.10704   2.11228   2.13098   2.14260
 Alpha virt. eigenvalues --    2.14981   2.15468   2.17503   2.20527   2.21308
 Alpha virt. eigenvalues --    2.22438   2.24320   2.24990   2.27082   2.28632
 Alpha virt. eigenvalues --    2.28823   2.29439   2.29865   2.31542   2.33431
 Alpha virt. eigenvalues --    2.34151   2.36020   2.37229   2.39175   2.40598
 Alpha virt. eigenvalues --    2.43293   2.44118   2.45614   2.47559   2.48123
 Alpha virt. eigenvalues --    2.49284   2.49536   2.51385   2.53979   2.55680
 Alpha virt. eigenvalues --    2.57421   2.59722   2.61781   2.62811   2.70304
 Alpha virt. eigenvalues --    2.73518   2.76043   2.79688   2.83684   2.85197
 Alpha virt. eigenvalues --    2.87558   2.88664   2.92209   2.95364   2.99697
 Alpha virt. eigenvalues --    3.00328   3.01786   3.03168   3.04924   3.22881
 Alpha virt. eigenvalues --    3.25341   3.30895   3.34153   3.44760   3.54018
 Alpha virt. eigenvalues --    3.60063   3.75748   3.82230   4.13089   4.25884
          Condensed to atoms (all electrons):
               1          2          3          4          5          6
     1  C   10.161179  -2.086858  -1.118936  -0.767738  -0.305102  -0.356563
     2  C   -2.086858  10.670639  -2.300083   0.484032   0.329710   0.282360
     3  C   -1.118936  -2.300083  14.471667  -0.949730  -1.798542  -0.123260
     4  C   -0.767738   0.484032  -0.949730   5.950980   0.171590   0.022182
     5  C   -0.305102   0.329710  -1.798542   0.171590   7.250075   0.041015
     6  H   -0.356563   0.282360  -0.123260   0.022182   0.041015   1.645050
     7  S   -0.579793   0.104672  -0.325693   0.120498   0.445307  -0.006720
     8  H    0.087938   0.092557  -0.015601   0.032486   0.142100  -0.065973
     9  C    0.503984  -1.066221  -1.830878  -0.046999   0.172259   0.070778
    10  S    0.022263   0.125727  -0.557878  -0.046447   0.007691  -0.000005
    11  C    0.023874  -0.020995  -0.400620  -0.020572   0.026198   0.003067
    12  C   -0.019326   0.084563   0.590811   0.096385  -0.004831  -0.002119
    13  C   -0.224667   0.131964  -0.217534  -0.139648  -0.151302  -0.015137
    14  H    0.015074   0.063718   0.072575   0.027431  -0.003211   0.000132
    15  S   -0.001458  -0.001828  -0.064481  -0.001730  -0.001561  -0.000037
    16  C   -0.000590   0.000318   0.034148  -0.002053   0.000349  -0.000041
    17  C    0.002180   0.008297  -0.412644  -0.019004  -0.001772  -0.000105
    18  H   -0.000062   0.000207  -0.000181   0.000047   0.000016  -0.000006
    19  H    0.000003  -0.000196  -0.012603  -0.000550  -0.000094   0.000009
    20  H   -0.050752   0.073632  -0.019075   0.318817   0.019143  -0.007045
    21  H   -0.022999   0.064366  -0.044848   0.301150   0.028584  -0.005422
    22  H   -0.042218   0.211555   0.081224  -0.012784  -0.048329   0.001154
               7          8          9         10         11         12
     1  C   -0.579793   0.087938   0.503984   0.022263   0.023874  -0.019326
     2  C    0.104672   0.092557  -1.066221   0.125727  -0.020995   0.084563
     3  C   -0.325693  -0.015601  -1.830878  -0.557878  -0.400620   0.590811
     4  C    0.120498   0.032486  -0.046999  -0.046447  -0.020572   0.096385
     5  C    0.445307   0.142100   0.172259   0.007691   0.026198  -0.004831
     6  H   -0.006720  -0.065973   0.070778  -0.000005   0.003067  -0.002119
     7  S   16.324472  -0.164402  -0.572577   0.070009  -0.006892   0.039923
     8  H   -0.164402   1.261512  -0.012138  -0.000344  -0.000640   0.001217
     9  C   -0.572577  -0.012138  14.181878   0.253411   0.179354  -1.093630
    10  S    0.070009  -0.000344   0.253411  16.546827   0.321312  -0.434345
    11  C   -0.006892  -0.000640   0.179354   0.321312  11.341500  -0.662541
    12  C    0.039923   0.001217  -1.093630  -0.434345  -0.662541  12.083691
    13  C    0.206993   0.000057  -4.129410  -0.491209  -1.882274  -2.864119
    14  H    0.015343  -0.000083  -0.104445   0.038993  -0.050201   0.802204
    15  S    0.002191  -0.000113  -0.247240   0.084454  -0.103633  -0.238890
    16  C    0.001862   0.000051   0.055367  -0.087109  -0.058025  -0.923593
    17  C    0.005404  -0.000104  -0.784235  -0.233112  -2.603872  -1.112799
    18  H    0.000140   0.000003   0.006831   0.006630   0.059549  -0.030204
    19  H    0.001364  -0.000016   0.134221   0.011982   0.633656   0.048308
    20  H    0.006231   0.001463  -0.003042  -0.002781   0.002309   0.000103
    21  H    0.002891   0.001418  -0.006561   0.001505  -0.003355   0.004906
    22  H    0.007847  -0.000433  -0.127174   0.005469  -0.011584   0.036972
              13         14         15         16         17         18
     1  C   -0.224667   0.015074  -0.001458  -0.000590   0.002180  -0.000062
     2  C    0.131964   0.063718  -0.001828   0.000318   0.008297   0.000207
     3  C   -0.217534   0.072575  -0.064481   0.034148  -0.412644  -0.000181
     4  C   -0.139648   0.027431  -0.001730  -0.002053  -0.019004   0.000047
     5  C   -0.151302  -0.003211  -0.001561   0.000349  -0.001772   0.000016
     6  H   -0.015137   0.000132  -0.000037  -0.000041  -0.000105  -0.000006
     7  S    0.206993   0.015343   0.002191   0.001862   0.005404   0.000140
     8  H    0.000057  -0.000083  -0.000113   0.000051  -0.000104   0.000003
     9  C   -4.129410  -0.104445  -0.247240   0.055367  -0.784235   0.006831
    10  S   -0.491209   0.038993   0.084454  -0.087109  -0.233112   0.006630
    11  C   -1.882274  -0.050201  -0.103633  -0.058025  -2.603872   0.059549
    12  C   -2.864119   0.802204  -0.238890  -0.923593  -1.112799  -0.030204
    13  C   16.105764  -1.110429   0.034640  -0.204024   0.770203   0.030964
    14  H   -1.110429   1.775191  -0.041834   0.023264  -0.050200   0.001703
    15  S    0.034640  -0.041834  15.940949   0.170866   0.004218  -0.159990
    16  C   -0.204024   0.023264   0.170866   6.868196   0.104939   0.178355
    17  C    0.770203  -0.050200   0.004218   0.104939  10.236726   0.060725
    18  H    0.030964   0.001703  -0.159990   0.178355   0.060725   1.294353
    19  H   -0.078763  -0.002514  -0.007714  -0.118535  -0.655828  -0.068542
    20  H   -0.018278  -0.000593   0.000145  -0.000343   0.000466   0.000023
    21  H   -0.015457   0.003129  -0.000420   0.000265  -0.000878   0.000038
    22  H    0.089177   0.005824   0.000676   0.001321  -0.011765  -0.000182
              19         20         21         22
     1  C    0.000003  -0.050752  -0.022999  -0.042218
     2  C   -0.000196   0.073632   0.064366   0.211555
     3  C   -0.012603  -0.019075  -0.044848   0.081224
     4  C   -0.000550   0.318817   0.301150  -0.012784
     5  C   -0.000094   0.019143   0.028584  -0.048329
     6  H    0.000009  -0.007045  -0.005422   0.001154
     7  S    0.001364   0.006231   0.002891   0.007847
     8  H   -0.000016   0.001463   0.001418  -0.000433
     9  C    0.134221  -0.003042  -0.006561  -0.127174
    10  S    0.011982  -0.002781   0.001505   0.005469
    11  C    0.633656   0.002309  -0.003355  -0.011584
    12  C    0.048308   0.000103   0.004906   0.036972
    13  C   -0.078763  -0.018278  -0.015457   0.089177
    14  H   -0.002514  -0.000593   0.003129   0.005824
    15  S   -0.007714   0.000145  -0.000420   0.000676
    16  C   -0.118535  -0.000343   0.000265   0.001321
    17  C   -0.655828   0.000466  -0.000878  -0.011765
    18  H   -0.068542   0.000023   0.000038  -0.000182
    19  H    1.444403   0.000008  -0.000058   0.000073
    20  H    0.000008   0.863012  -0.112573  -0.127356
    21  H   -0.000058  -0.112573   0.851570  -0.119265
    22  H    0.000073  -0.127356  -0.119265   1.176379
 Mulliken charges:
               1
     1  C    0.760568
     2  C   -1.252135
     3  C    0.942162
     4  C    0.481657
     5  C   -0.319292
     6  H   -0.483315
     7  S    0.300933
     8  H   -0.360957
     9  C    0.466468
    10  S    0.356957
    11  C   -0.765616
    12  C   -0.402687
    13  C    0.172489
    14  H   -0.481073
    15  S    0.632790
    16  C   -0.044987
    17  C    0.693156
    18  H   -0.380418
    19  H   -0.328614
    20  H    0.056486
    21  H    0.072014
    22  H   -0.116583
 Sum of Mulliken charges =  -0.00000
 Mulliken charges with hydrogens summed into heavy atoms:
               1
     1  C    0.277252
     2  C   -1.252135
     3  C    0.942162
     4  C    0.493574
     5  C   -0.680249
     7  S    0.300933
     9  C    0.466468
    10  S    0.356957
    11  C   -0.765616
    12  C   -0.402687
    13  C   -0.308584
    15  S    0.632790
    16  C   -0.425405
    17  C    0.364542
 Electronic spatial extent (au):  <R**2>=           4340.5544
 Charge=             -0.0000 electrons
 Dipole moment (field-independent basis, Debye):
    X=             -0.3678    Y=              1.1630    Z=              0.5084  Tot=              1.3215
 Quadrupole moment (field-independent basis, Debye-Ang):
   XX=            -86.8707   YY=           -105.0087   ZZ=           -104.9789
   XY=             -4.6276   XZ=              3.3899   YZ=             -1.1359
 Traceless Quadrupole moment (field-independent basis, Debye-Ang):
   XX=             12.0820   YY=             -6.0559   ZZ=             -6.0261
   XY=             -4.6276   XZ=              3.3899   YZ=             -1.1359
 Octapole moment (field-independent basis, Debye-Ang**2):
  XXX=             -0.0807  YYY=              6.8199  ZZZ=              3.5087  XYY=            -14.6148
  XXY=             -8.5305  XXZ=             13.0341  XZZ=              7.0051  YZZ=              0.4516
  YYZ=              1.2354  XYZ=            -15.7378
 Hexadecapole moment (field-independent basis, Debye-Ang**3):
 XXXX=          -4136.1790 YYYY=           -726.1272 ZZZZ=           -606.0172 XXXY=            -10.0277
 XXXZ=             85.0061 YYYX=            -14.0221 YYYZ=              3.5520 ZZZX=              5.9929
 ZZZY=            -16.3455 XXYY=           -922.4363 XXZZ=           -929.4155 YYZZ=           -214.4953
 XXYZ=             10.1669 YYXZ=              7.0570 ZZXY=            -11.9179
 N-N= 1.122538210707D+03 E-N=-6.065306089993D+03  KE= 1.613721324791D+03
 Calling FoFJK, ICntrl=  10002127 FMM=F ISym2X=0 I1Cent= 0 IOpClX= 0 NMat=1 NMatS=1 NMatT=0.
 ***** Axes restored to original set *****
 -------------------------------------------------------------------
 Center     Atomic                   Forces (Hartrees/Bohr)
 Number     Number              X              Y              Z
 -------------------------------------------------------------------
      1        6           0.015186534    0.030420284    0.014941595
      2        6          -0.029338211    0.027304846    0.011099099
      3        6           0.028948830   -0.026062370   -0.009387719
      4        6          -0.002184185   -0.005319244   -0.002595800
      5        6           0.000150087   -0.027270398   -0.012639645
      6        1          -0.007069938    0.005700668    0.002181802
      7       16           0.003450574   -0.005920407   -0.002293245
      8        1          -0.008579644   -0.006006011   -0.003363221
      9        6          -0.031076772   -0.013404548    0.022280134
     10       16          -0.003605018   -0.003848882    0.006809350
     11        6           0.008278051   -0.020760256    0.036529337
     12        6          -0.009849402    0.020855338   -0.036005339
     13        6           0.031364810    0.011924212   -0.019738104
     14        1          -0.003707178    0.004903693   -0.008900948
     15       16           0.002946112    0.003813705   -0.006498194
     16        6           0.014583244    0.012273910   -0.021243369
     17        6          -0.028031728   -0.010436211    0.017903722
     18        1           0.010284879    0.000457282   -0.000706796
     19        1           0.003087572   -0.004842067    0.008419042
     20        1          -0.003102324    0.000690360    0.006866892
     21        1          -0.001903584    0.005888551   -0.004294265
     22        1           0.010167289   -0.000362457    0.000635672
 -------------------------------------------------------------------
 Cartesian Forces:  Max     0.036529337 RMS     0.015301137

 GradGradGradGradGradGradGradGradGradGradGradGradGradGradGradGradGradGrad
 Berny optimization.
 FormGI is forming the generalized inverse of G from B-inverse, IUseBI=4.
 Internal  Forces:  Max     0.042972082 RMS     0.008875090
 Search for a local minimum.
 Step number   1 out of a maximum of  127
 All quantities printed in internal units (Hartrees-Bohrs-Radians)
 Mixed Optimization -- RFO/linear search
 Second derivative matrix not updated -- first step.
 ITU=  0
     Eigenvalues ---    0.00693   0.01391   0.01407   0.01574   0.01624
     Eigenvalues ---    0.01664   0.01745   0.01868   0.01979   0.02030
     Eigenvalues ---    0.02058   0.02131   0.02271   0.02289   0.02374
     Eigenvalues ---    0.02411   0.07149   0.07320   0.16000   0.16000
     Eigenvalues ---    0.16000   0.16000   0.16000   0.16000   0.16000
     Eigenvalues ---    0.16000   0.22519   0.22566   0.23649   0.24768
     Eigenvalues ---    0.24785   0.25000   0.25000   0.25000   0.25000
     Eigenvalues ---    0.29101   0.30097   0.30295   0.31017   0.31139
     Eigenvalues ---    0.31807   0.32139   0.34681   0.34704   0.34898
     Eigenvalues ---    0.35313   0.35937   0.36295   0.36316   0.36359
     Eigenvalues ---    0.36473   0.38270   0.39049   0.39270   0.45855
     Eigenvalues ---    0.50410   0.52726   0.53771   0.542041000.00000
     Eigenvalues --- 1000.000001000.000001000.000001000.000001000.00000
     Eigenvalues --- 1000.000001000.000001000.000001000.000001000.00000
     Eigenvalues --- 1000.000001000.000001000.000001000.000001000.00000
     Eigenvalues --- 1000.000001000.000001000.000001000.000001000.00000
     Eigenvalues --- 1000.000001000.000001000.000001000.000001000.00000
     Eigenvalues --- 1000.000001000.000001000.000001000.000001000.00000
     Eigenvalues --- 1000.000001000.000001000.000001000.000001000.00000
     Eigenvalues --- 1000.000001000.000001000.000001000.000001000.00000
     Eigenvalues --- 1000.000001000.000001000.000001000.000001000.00000
     Eigenvalues --- 1000.000001000.000001000.000001000.000001000.00000
     Eigenvalues --- 1000.000001000.000001000.000001000.000001000.00000
     Eigenvalues --- 1000.000001000.00000
 RFO step:  Lambda=-1.77299782D-02 EMin= 6.93180988D-03
 Linear search not attempted -- first point.
 Iteration  1 RMS(Cart)=  0.02758893 RMS(Int)=  0.00021013
 Iteration  2 RMS(Cart)=  0.00041350 RMS(Int)=  0.00003927
 Iteration  3 RMS(Cart)=  0.00000007 RMS(Int)=  0.00003927
 Iteration  1 RMS(Cart)=  0.00000592 RMS(Int)=  0.00000225
 Iteration  2 RMS(Cart)=  0.00000326 RMS(Int)=  0.00000251
 Iteration  3 RMS(Cart)=  0.00000179 RMS(Int)=  0.00000284
 Iteration  4 RMS(Cart)=  0.00000099 RMS(Int)=  0.00000306
 Variable       Old X    -DE/DX   Delta X   Delta X   Delta X     New X
                                 (Linear)    (Quad)   (Total)
    R1        2.72605  -0.00462   0.00000  -0.00900  -0.00895   2.71710
    R2        2.54767   0.04023   0.00000   0.07131   0.07134   2.61901
    R3        2.04181   0.00934   0.00000   0.02477   0.02477   2.06658
    R4        2.56162   0.03717   0.00000   0.06710   0.06712   2.62874
    R5        2.84498   0.00186   0.00000   0.00554   0.00554   2.85052
    R6        3.30214   0.00356   0.00000   0.00845   0.00841   3.31055
    R7        2.79140  -0.00579   0.00000  -0.01580  -0.01580   2.77560
    R8        2.06158   0.00756   0.00000   0.02074   0.02074   2.08232
    R9        2.06196   0.00753   0.00000   0.02065   0.02065   2.08260
   R10        2.05169   0.01014   0.00000   0.02735   0.02735   2.07904
   R11        3.26254   0.00609   0.00000   0.01610   0.01606   3.27860
   R12        2.03348   0.01089   0.00000   0.02847   0.02847   2.06195
   R13        3.32491   0.00597   0.00000   0.01627   0.01622   3.34113
   R14        2.55176   0.04079   0.00000   0.07232   0.07234   2.62410
   R15        3.28243   0.00552   0.00000   0.01461   0.01456   3.29700
   R16        2.57821   0.04297   0.00000   0.08212   0.08220   2.66041
   R17        2.71362  -0.00248   0.00000  -0.00353  -0.00347   2.71014
   R18        2.71027  -0.00375   0.00000  -0.00641  -0.00634   2.70393
   R19        3.28305   0.00538   0.00000   0.01456   0.01453   3.29758
   R20        2.03590   0.01080   0.00000   0.02834   0.02834   2.06424
   R21        3.29762   0.00629   0.00000   0.01638   0.01634   3.31395
   R22        2.54958   0.03852   0.00000   0.06776   0.06777   2.61735
   R23        2.03524   0.01024   0.00000   0.02685   0.02685   2.06210
   R24        2.03623   0.01019   0.00000   0.02677   0.02677   2.06300
    A1        1.97945  -0.00312   0.00000  -0.00676  -0.00668   1.97277
    A2        2.14996   0.00155   0.00000   0.00331   0.00327   2.15323
    A3        2.15377   0.00157   0.00000   0.00345   0.00341   2.15718
    A4        1.95262  -0.00261   0.00000  -0.00547  -0.00539   1.94723
    A5        2.13587   0.00618   0.00000   0.02094   0.02091   2.15677
    A6        2.19468  -0.00357   0.00000  -0.01547  -0.01551   2.17917
    A7        1.94902   0.00264   0.00000   0.00811   0.00810   1.95712
    A8        2.23583  -0.00288   0.00000  -0.00989  -0.00988   2.22595
    A9        2.09832   0.00024   0.00000   0.00178   0.00178   2.10011
   A10        1.92656   0.00036   0.00000   0.00278   0.00277   1.92934
   A11        1.92868   0.00041   0.00000   0.00270   0.00269   1.93137
   A12        1.94594  -0.00164   0.00000  -0.01036  -0.01036   1.93558
   A13        1.87780   0.00012   0.00000   0.00292   0.00290   1.88070
   A14        1.89106   0.00049   0.00000   0.00201   0.00201   1.89307
   A15        1.89189   0.00031   0.00000   0.00036   0.00036   1.89225
   A16        1.95073   0.00099   0.00000   0.00499   0.00498   1.95571
   A17        2.22840   0.00109   0.00000   0.00641   0.00642   2.23482
   A18        2.10405  -0.00208   0.00000  -0.01140  -0.01140   2.09265
   A19        1.59293   0.00210   0.00000  -0.00088  -0.00102   1.59192
   A20        2.10167  -0.00301   0.00000  -0.01097  -0.01098   2.09069
   A21        2.22295  -0.00021   0.00000  -0.00048  -0.00049   2.22246
   A22        1.95855   0.00322   0.00000   0.01150   0.01147   1.97003
   A23        1.58608   0.00198   0.00000  -0.00099  -0.00114   1.58494
   A24        1.93868   0.00161   0.00000   0.00392   0.00389   1.94257
   A25        2.35519   0.00158   0.00000   0.00167   0.00161   2.35680
   A26        1.98931  -0.00319   0.00000  -0.00560  -0.00550   1.98381
   A27        1.98999  -0.00258   0.00000  -0.00344  -0.00333   1.98667
   A28        1.94035   0.00116   0.00000   0.00268   0.00264   1.94298
   A29        2.35284   0.00142   0.00000   0.00076   0.00069   2.35353
   A30        1.95145  -0.00423   0.00000  -0.01101  -0.01090   1.94055
   A31        2.14765   0.00144   0.00000   0.00167   0.00162   2.14927
   A32        2.18407   0.00280   0.00000   0.00934   0.00929   2.19336
   A33        1.58032   0.00259   0.00000   0.00135   0.00122   1.58154
   A34        1.97740   0.00237   0.00000   0.00820   0.00818   1.98559
   A35        2.08690  -0.00249   0.00000  -0.01145  -0.01144   2.07546
   A36        2.21888   0.00012   0.00000   0.00325   0.00325   2.22213
   A37        1.93740  -0.00293   0.00000  -0.00663  -0.00655   1.93085
   A38        2.18233   0.00168   0.00000   0.00453   0.00449   2.18682
   A39        2.16345   0.00125   0.00000   0.00210   0.00206   2.16551
    D1        0.00511   0.00002   0.00000   0.00056   0.00056   0.00567
    D2       -3.13160  -0.00000   0.00000  -0.00055  -0.00056  -3.13216
    D3       -3.13964   0.00003   0.00000   0.00132   0.00132  -3.13833
    D4        0.00684   0.00001   0.00000   0.00021   0.00019   0.00703
    D5       -0.00251   0.00002   0.00000   0.00090   0.00089  -0.00162
    D6        3.14133   0.00001   0.00000   0.00064   0.00063  -3.14122
    D7       -3.14093   0.00001   0.00000   0.00014   0.00013  -3.14080
    D8        0.00290  -0.00001   0.00000  -0.00012  -0.00013   0.00278
    D9       -0.00527  -0.00011   0.00000  -0.00187  -0.00187  -0.00714
   D10        3.13900  -0.00007   0.00000  -0.00286  -0.00285   3.13616
   D11        3.13124  -0.00006   0.00000  -0.00059  -0.00061   3.13063
   D12       -0.00768  -0.00002   0.00000  -0.00158  -0.00159  -0.00926
   D13        1.00553   0.00032   0.00000   0.00431   0.00432   1.00985
   D14       -1.06954  -0.00033   0.00000  -0.00276  -0.00277  -1.07230
   D15        3.10835   0.00009   0.00000   0.00186   0.00186   3.11021
   D16       -2.13048   0.00029   0.00000   0.00299   0.00300  -2.12748
   D17        2.07765  -0.00036   0.00000  -0.00409  -0.00409   2.07356
   D18       -0.02766   0.00006   0.00000   0.00054   0.00054  -0.02712
   D19        0.00335   0.00009   0.00000   0.00199   0.00200   0.00534
   D20       -3.14068   0.00005   0.00000   0.00288   0.00287  -3.13781
   D21        1.65869  -0.00021   0.00000   0.00000   0.00000   1.65869
   D22       -1.48896   0.00030   0.00000   0.01237   0.01231  -1.47665
   D23       -1.48002  -0.00017   0.00000  -0.00107  -0.00105  -1.48107
   D24        1.65552   0.00034   0.00000   0.01129   0.01126   1.66677
   D25       -0.00039  -0.00009   0.00000  -0.00167  -0.00167  -0.00206
   D26        3.13914  -0.00007   0.00000  -0.00140  -0.00141   3.13773
   D27        3.14004   0.00045   0.00000   0.01187   0.01186  -3.13129
   D28        0.00364   0.00002   0.00000   0.00128   0.00127   0.00491
   D29        3.14155  -0.00050   0.00000  -0.01259  -0.01264   3.12891
   D30       -0.00432  -0.00040   0.00000  -0.00934  -0.00940  -0.01372
   D31       -0.00568  -0.00004   0.00000  -0.00114  -0.00112  -0.00680
   D32        3.13163   0.00006   0.00000   0.00212   0.00213   3.13376
   D33       -0.00048  -0.00004   0.00000  -0.00113  -0.00112  -0.00160
   D34        3.13907  -0.00004   0.00000  -0.00052  -0.00052   3.13855
   D35       -0.00263  -0.00000   0.00000   0.00068   0.00068  -0.00195
   D36        3.14114  -0.00004   0.00000  -0.00047  -0.00048   3.14066
   D37        3.14054  -0.00001   0.00000   0.00020   0.00021   3.14075
   D38        0.00113  -0.00004   0.00000  -0.00095  -0.00095   0.00018
   D39       -3.14037   0.00002   0.00000  -0.00019  -0.00019  -3.14056
   D40        0.00212   0.00001   0.00000  -0.00018  -0.00018   0.00194
   D41       -0.00086   0.00003   0.00000   0.00043   0.00043  -0.00043
   D42       -3.14156   0.00002   0.00000   0.00045   0.00044  -3.14111
   D43        0.00546  -0.00002   0.00000   0.00020   0.00019   0.00565
   D44       -3.13175  -0.00011   0.00000  -0.00311  -0.00313  -3.13488
   D45       -3.13899   0.00002   0.00000   0.00171   0.00171  -3.13729
   D46        0.00699  -0.00007   0.00000  -0.00160  -0.00161   0.00537
   D47       -0.00084   0.00004   0.00000   0.00093   0.00093   0.00009
   D48       -3.13963   0.00000   0.00000  -0.00054  -0.00056  -3.14019
   D49        0.00036  -0.00003   0.00000  -0.00070  -0.00071  -0.00035
   D50        3.14071  -0.00000   0.00000  -0.00021  -0.00021   3.14049
   D51        0.00019   0.00001   0.00000   0.00030   0.00030   0.00050
   D52        3.14090   0.00002   0.00000   0.00029   0.00029   3.14120
   D53       -3.14004  -0.00001   0.00000  -0.00022  -0.00023  -3.14026
   D54        0.00067  -0.00000   0.00000  -0.00023  -0.00024   0.00043
         Item               Value     Threshold  Converged?
 Maximum Force            0.042972     0.000450     NO 
 RMS     Force            0.008913     0.000300     NO 
 Maximum Displacement     0.088266     0.001800     NO 
 RMS     Displacement     0.027690     0.001200     NO 
 Predicted change in Energy=-9.181431D-03
 GradGradGradGradGradGradGradGradGradGradGradGradGradGradGradGradGradGrad

                          Input orientation:                          
 ---------------------------------------------------------------------
 Center     Atomic      Atomic             Coordinates (Angstroms)
 Number     Number       Type             X           Y           Z
 ---------------------------------------------------------------------
      1          6           0       -3.991917    0.663486    0.083474
      2          6           0       -2.611502    0.989414    0.319222
      3          6           0       -1.765574   -0.029484   -0.106599
      4          6           0       -2.155744    2.278957    0.955406
      5          6           0       -4.162902   -0.581299   -0.501372
      6          1           0       -4.819873    1.329525    0.341953
      7         16           0       -2.649949   -1.383228   -0.780622
      8          1           0       -5.097215   -1.068697   -0.784368
      9          6           0       -0.298641   -0.061201   -0.040006
     10         16           0        0.501772   -0.844828    1.327938
     11          6           0        2.068293   -0.441019    0.674552
     12          6           0        1.950321    0.261227   -0.539906
     13          6           0        0.597748    0.476766   -0.953968
     14          1           0        0.284886    0.992418   -1.864708
     15         16           0        3.516782    0.666743   -1.193205
     16          6           0        4.305968   -0.108927    0.167265
     17          6           0        3.425321   -0.656048    1.085665
     18          1           0        5.396299   -0.116685    0.210470
     19          1           0        3.734238   -1.177705    1.993538
     20          1           0       -2.608101    2.398986    1.952995
     21          1           0       -2.459056    3.143282    0.342631
     22          1           0       -1.061154    2.297316    1.064647
 ---------------------------------------------------------------------
                    Distance matrix (angstroms):
                    1          2          3          4          5
     1  C    0.000000
     2  C    1.437829   0.000000
     3  C    2.339432   1.391069   0.000000
     4  C    2.596448   1.508432   2.570796   0.000000
     5  C    1.385919   2.355282   2.491491   3.785756   0.000000
     6  H    1.093586   2.234524   3.372959   2.894017   2.189533
     7  S    2.595492   2.615448   1.751870   4.082846   1.734963
     8  H    2.230537   3.410645   3.555161   4.783917   1.091139
     9  C    3.765728   2.565573   1.468786   3.148971   3.926305
    10  S    4.900708   3.751590   2.804200   4.118155   5.017469
    11  C    6.188332   4.906412   3.934220   5.031862   6.342733
    12  C    5.988372   4.698786   3.752351   4.813206   6.171128
    13  C    4.709159   3.490431   2.561174   3.804644   4.897768
    14  H    4.711120   3.627482   2.887839   3.945237   4.911017
    15  S    7.616461   6.320397   5.437713   6.276409   7.811132
    16  C    8.334178   7.005771   6.078234   6.933749   8.508346
    17  C    7.600064   6.303826   5.362785   6.307100   7.752767
    18  H    9.421433   8.084563   7.169418   7.957850   9.596922
    19  H    8.168954   6.911452   5.998077   6.907831   8.303319
    20  H    2.902071   2.157804   3.293820   1.101916   4.162142
    21  H    2.926809   2.159383   3.278593   1.102066   4.181858
    22  H    3.495922   2.160982   2.698523   1.100181   4.512170
                    6          7          8          9         10
     6  H    0.000000
     7  S    3.650722   0.000000
     8  H    2.664017   2.467398   0.000000
     9  C    4.745688   2.797305   4.959378   0.000000
    10  S    5.832657   3.830045   5.988373   1.768051   0.000000
    11  C    7.119851   5.026639   7.339410   2.501446   1.744696
    12  C    6.910461   4.891284   7.176087   2.326304   2.609692
    13  C    5.635356   3.746620   5.903374   1.388613   2.638733
    14  H    5.571495   3.928383   5.863646   2.186357   3.689919
    15  S    8.502695   6.511619   8.796582   4.051818   4.210855
    16  C    9.240164   7.134922   9.499822   4.609519   4.044826
    17  C    8.513451   6.396931   8.735040   3.935591   2.939639
    18  H   10.318866   8.205395  10.583472   5.700716   5.073000
    19  H    9.065692   6.963911   9.258684   4.652527   3.317028
    20  H    2.937880   4.666857   5.070865   3.918952   4.536996
    21  H    2.977108   4.667701   5.096153   3.883622   5.063828
    22  H    3.948022   4.413127   5.571238   2.713722   3.519251
                   11         12         13         14         15
    11  C    0.000000
    12  C    1.407826   0.000000
    13  C    2.378425   1.430859   0.000000
    14  H    3.418059   2.250203   1.092350   0.000000
    15  S    2.610321   1.745006   2.934976   3.316946   0.000000
    16  C    2.318364   2.487202   3.918047   4.637992   1.753669
    17  C    1.434147   2.378971   3.665861   4.613510   2.636549
    18  H    3.375824   3.546921   4.973348   5.626990   2.473186
    19  H    2.248957   3.416318   4.611143   5.611910   3.688443
    20  H    5.618604   5.618165   4.735276   4.992261   7.100242
    21  H    5.783967   5.341134   4.258583   4.126473   6.648510
    22  H    4.176612   3.973566   3.184520   3.477888   5.358560
                   16         17         18         19         20
    16  C    0.000000
    17  C    1.385041   0.000000
    18  H    1.091215   2.222979   0.000000
    19  H    2.191903   1.091691   2.658485   0.000000
    20  H    7.568541   6.818187   8.569447   7.281458   0.000000
    21  H    7.508206   7.043643   8.505966   7.730027   1.780299
    22  H    5.949899   5.371337   6.946634   5.994531   1.786769
                   21         22
    21  H    0.000000
    22  H    1.786364   0.000000
 Stoichiometry    C11H8S3
 Framework group  C1[X(C11H8S3)]
 Deg. of freedom    60
 Full point group                 C1      NOp   1
 Largest Abelian subgroup         C1      NOp   1
 Largest concise Abelian subgroup C1      NOp   1
                         Standard orientation:                         
 ---------------------------------------------------------------------
 Center     Atomic      Atomic             Coordinates (Angstroms)
 Number     Number       Type             X           Y           Z
 ---------------------------------------------------------------------
      1          6           0       -3.983760    0.684899    0.106133
      2          6           0       -2.601762    0.995474    0.353070
      3          6           0       -1.761010   -0.013119   -0.106221
      4          6           0       -2.139523    2.260654    1.032056
      5          6           0       -4.161018   -0.538767   -0.519959
      6          1           0       -4.808319    1.346320    0.386411
      7         16           0       -2.652179   -1.338932   -0.825306
      8          1           0       -5.097749   -1.011506   -0.819357
      9          6           0       -0.294299   -0.054801   -0.040244
     10         16           0        0.501280   -0.887837    1.301065
     11          6           0        2.070239   -0.470758    0.662020
     12          6           0        1.956585    0.272213   -0.528379
     13          6           0        0.605376    0.508595   -0.935463
     14          1           0        0.295698    1.055982   -1.828601
     15         16           0        3.525492    0.690995   -1.167281
     16          6           0        4.309889   -0.133779    0.166820
     17          6           0        3.425906   -0.706556    1.066176
     18          1           0        5.400143   -0.148743    0.210098
     19          1           0        3.731610   -1.259827    1.956247
     20          1           0       -2.591742    2.349740    2.032946
     21          1           0       -2.437962    3.146527    0.448349
     22          1           0       -1.044907    2.269567    1.142206
 ---------------------------------------------------------------------
 Rotational constants (GHZ):           1.2544762           0.2580262           0.2533029
 Standard basis: Aug-CC-pVDZ (5D, 7F)
 There are   434 symmetry adapted cartesian basis functions of A   symmetry.
 There are   406 symmetry adapted basis functions of A   symmetry.
   406 basis functions,   804 primitive gaussians,   434 cartesian basis functions
    61 alpha electrons       61 beta electrons
       nuclear repulsion energy      1114.8440388169 Hartrees.
 NAtoms=   22 NActive=   22 NUniq=   22 SFac= 1.00D+00 NAtFMM=   60 NAOKFM=F Big=F
 Integral buffers will be    131072 words long.
 Raffenetti 1 integral format.
 Two-electron integral symmetry is turned on.
 One-electron integrals computed using PRISM.
 NBasis=   406 RedAO= T EigKep=  4.14D-06  NBF=   406
 NBsUse=   406 1.00D-06 EigRej= -1.00D+00 NBFU=   406
 Initial guess from the checkpoint file:  "/tmp/pbs.4766302[270].pbs/Gau-2542499.chk"
 B after Tr=    -0.000000    0.000000    0.000000
         Rot=    0.999839   -0.017825    0.000466    0.001767 Ang=  -2.05 deg.
 ExpMin= 2.97D-02 ExpMax= 1.11D+05 ExpMxC= 1.07D+03 IAcc=3 IRadAn=         5 AccDes= 0.00D+00
 Harris functional with IExCor=  205 and IRadAn=       5 diagonalized for initial guess.
 HarFok:  IExCor=  205 AccDes= 0.00D+00 IRadAn=         5 IDoV= 1 UseB2=F ITyADJ=14
 ICtDFT=  3500011 ScaDFX=  1.000000  1.000000  1.000000  1.000000
 FoFCou: FMM=F IPFlag=           0 FMFlag=      100000 FMFlg1=           0
         NFxFlg=           0 DoJE=T BraDBF=F KetDBF=T FulRan=T
         wScrn=  0.000000 ICntrl=       500 IOpCl=  0 I1Cent=   200000004 NGrid=           0
         NMat0=    1 NMatS0=      1 NMatT0=    0 NMatD0=    1 NMtDS0=    0 NMtDT0=    0
 Petite list used in FoFCou.
 Requested convergence on RMS density matrix=1.00D-08 within 128 cycles.
 Requested convergence on MAX density matrix=1.00D-06.
 Requested convergence on             energy=1.00D-06.
 No special actions if energy rises.
 SCF Done:  E(RHF) =  -1613.80609106     A.U. after   14 cycles
            NFock= 14  Conv=0.75D-08     -V/T= 2.0006
 ExpMin= 2.97D-02 ExpMax= 1.11D+05 ExpMxC= 1.07D+03 IAcc=3 IRadAn=         5 AccDes= 0.00D+00
 HarFok:  IExCor=  205 AccDes= 0.00D+00 IRadAn=         5 IDoV=-2 UseB2=F ITyADJ=14
 ICtDFT= 12500011 ScaDFX=  1.000000  1.000000  1.000000  1.000000
 GSVD:  LWork=        -884 too small for GESVD, short by        3770 words or        3770 for optimal perf.
 Range of M.O.s used for correlation:    27   406
 NBasis=   406 NAE=    61 NBE=    61 NFC=    26 NFV=     0
 NROrb=    380 NOA=    35 NOB=    35 NVA=   345 NVB=   345

 **** Warning!!: The largest alpha MO coefficient is  0.85879012D+02

 Disk-based method using ON**2 memory for 35 occupieds at a time.
 Estimated scratch disk usage=  5830283768 words.
 Actual    scratch disk usage=  4754872312 words.
 JobTyp=1 Pass  1:  I=  27 to  61 NPSUse= 16 ParTrn=T ParDer=T DoDerP=T.
 (rs|ai) integrals will be sorted in core.
 Spin components of T(2) and E(2):
     alpha-alpha T2 =       0.1162921358D+00 E2=     -0.2667171928D+00
     alpha-beta  T2 =       0.5745367280D+00 E2=     -0.1410953396D+01
     beta-beta   T2 =       0.1162921358D+00 E2=     -0.2667171928D+00
 ANorm=    0.1344292007D+01
 E2 =    -0.1944387782D+01 EUMP2 =    -0.16157504788390D+04
          IDoAtm=1111111111111111111111
          Differentiating once with respect to electric field.
                with respect to dipole field.
          Differentiating once with respect to nuclear coordinates.
 Keep R1 ints in memory in canonical form, NReq=3454318301.
          There are     1 degrees of freedom in the 1st order CPHF.  IDoFFX=0 NUNeed=     1.
 LinEq1:  Iter=  0 NonCon=     1 RMS=2.73D-03 Max=9.70D-02 NDo=     1
 AX will form     1 AO Fock derivatives at one time.
 LinEq1:  Iter=  1 NonCon=     1 RMS=6.21D-04 Max=9.68D-03 NDo=     1
 LinEq1:  Iter=  2 NonCon=     1 RMS=3.46D-04 Max=1.93D-02 NDo=     1
 LinEq1:  Iter=  3 NonCon=     1 RMS=9.85D-05 Max=3.10D-03 NDo=     1
 LinEq1:  Iter=  4 NonCon=     1 RMS=3.92D-05 Max=1.06D-03 NDo=     1
 LinEq1:  Iter=  5 NonCon=     1 RMS=1.42D-05 Max=5.17D-04 NDo=     1
 LinEq1:  Iter=  6 NonCon=     1 RMS=4.53D-06 Max=1.89D-04 NDo=     1
 LinEq1:  Iter=  7 NonCon=     1 RMS=2.18D-06 Max=1.01D-04 NDo=     1
 LinEq1:  Iter=  8 NonCon=     1 RMS=8.79D-07 Max=3.19D-05 NDo=     1
 LinEq1:  Iter=  9 NonCon=     1 RMS=3.33D-07 Max=5.99D-06 NDo=     1
 LinEq1:  Iter= 10 NonCon=     1 RMS=1.26D-07 Max=5.16D-06 NDo=     1
 LinEq1:  Iter= 11 NonCon=     1 RMS=6.28D-08 Max=2.97D-06 NDo=     1
 LinEq1:  Iter= 12 NonCon=     1 RMS=2.84D-08 Max=8.35D-07 NDo=     1
 LinEq1:  Iter= 13 NonCon=     1 RMS=1.07D-08 Max=2.31D-07 NDo=     1
 LinEq1:  Iter= 14 NonCon=     1 RMS=3.73D-09 Max=9.75D-08 NDo=     1
 LinEq1:  Iter= 15 NonCon=     1 RMS=1.31D-09 Max=3.46D-08 NDo=     1
 LinEq1:  Iter= 16 NonCon=     1 RMS=5.75D-10 Max=2.11D-08 NDo=     1
 LinEq1:  Iter= 17 NonCon=     1 RMS=2.14D-10 Max=8.53D-09 NDo=     1
 LinEq1:  Iter= 18 NonCon=     1 RMS=8.58D-11 Max=4.64D-09 NDo=     1
 LinEq1:  Iter= 19 NonCon=     0 RMS=3.46D-11 Max=8.35D-10 NDo=     1
 Linear equations converged to 1.000D-10 1.000D-09 after    19 iterations.
 End of Minotr F.D. properties file   721 does not exist.
 End of Minotr F.D. properties file   722 does not exist.
 End of Minotr F.D. properties file   788 does not exist.
 Calling FoFJK, ICntrl=  10002127 FMM=F ISym2X=0 I1Cent= 0 IOpClX= 0 NMat=1 NMatS=1 NMatT=0.
 ***** Axes restored to original set *****
 -------------------------------------------------------------------
 Center     Atomic                   Forces (Hartrees/Bohr)
 Number     Number              X              Y              Z
 -------------------------------------------------------------------
      1        6           0.007385823    0.003521661    0.002036538
      2        6          -0.011312062    0.003497428    0.000906402
      3        6           0.007589873   -0.005838772   -0.002155381
      4        6           0.001271915   -0.001380102   -0.000504384
      5        6          -0.001943083   -0.004513365   -0.002116929
      6        1          -0.000544571   -0.000946213   -0.000473848
      7       16          -0.001540143    0.005148342    0.002289372
      8        1           0.000172027   -0.000095639   -0.000017095
      9        6          -0.007000739   -0.001810333    0.002542266
     10       16           0.001356342    0.002332637   -0.003602402
     11        6           0.005965192   -0.004305291    0.007834420
     12        6          -0.006006987    0.004313295   -0.007360263
     13        6           0.008899873    0.001126919   -0.000659169
     14        1          -0.001260432   -0.000466750    0.000631308
     15       16          -0.000923585   -0.002122073    0.003573103
     16        6           0.003335015    0.001301444   -0.002152031
     17        6          -0.006961093   -0.000169670   -0.000094545
     18        1          -0.000009221    0.000100783   -0.000104741
     19        1           0.000899578    0.000307808   -0.000506300
     20        1           0.000121533    0.000052324    0.000147204
     21        1           0.000203293    0.000184488   -0.000038985
     22        1           0.000301453   -0.000238920   -0.000174539
 -------------------------------------------------------------------
 Cartesian Forces:  Max     0.011312062 RMS     0.003585459

 GradGradGradGradGradGradGradGradGradGradGradGradGradGradGradGradGradGrad
 Berny optimization.
 Using GEDIIS/GDIIS optimizer.
 FormGI is forming the generalized inverse of G from B-inverse, IUseBI=4.
 Internal  Forces:  Max     0.005239297 RMS     0.001485292
 Search for a local minimum.
 Step number   2 out of a maximum of  127
 All quantities printed in internal units (Hartrees-Bohrs-Radians)
 Mixed Optimization -- RFO/linear search
 Update second derivatives using D2CorX and points    1    2
 DE= -9.31D-03 DEPred=-9.18D-03 R= 1.01D+00
 TightC=F SS=  1.41D+00  RLast= 1.90D-01 DXNew= 5.0454D-01 5.6924D-01
 Trust test= 1.01D+00 RLast= 1.90D-01 DXMaxT set to 5.05D-01
 ITU=  1  0
 Use linear search instead of GDIIS.
     Eigenvalues ---    0.00693   0.01385   0.01409   0.01572   0.01621
     Eigenvalues ---    0.01667   0.01743   0.01864   0.01978   0.02036
     Eigenvalues ---    0.02063   0.02139   0.02276   0.02288   0.02377
     Eigenvalues ---    0.02415   0.07216   0.07288   0.15897   0.16000
     Eigenvalues ---    0.16000   0.16000   0.16000   0.16000   0.16000
     Eigenvalues ---    0.16032   0.22535   0.22596   0.23704   0.24146
     Eigenvalues ---    0.24771   0.24895   0.25000   0.25000   0.25145
     Eigenvalues ---    0.29149   0.30094   0.30308   0.31041   0.31272
     Eigenvalues ---    0.31816   0.32215   0.34690   0.34740   0.34805
     Eigenvalues ---    0.35356   0.35985   0.36303   0.36341   0.36431
     Eigenvalues ---    0.36780   0.38240   0.39130   0.39294   0.45242
     Eigenvalues ---    0.49979   0.52329   0.53396   0.540691000.00000
     Eigenvalues --- 1000.000001000.000001000.000001000.000001000.00000
     Eigenvalues --- 1000.000001000.000001000.000001000.000001000.00000
     Eigenvalues --- 1000.000001000.000001000.000001000.000001000.00000
     Eigenvalues --- 1000.000001000.000001000.000001000.000001000.00000
     Eigenvalues --- 1000.000001000.000001000.000001000.000001000.00000
     Eigenvalues --- 1000.000001000.000001000.000001000.000001000.00000
     Eigenvalues --- 1000.000001000.000001000.000001000.000001000.00000
     Eigenvalues --- 1000.000001000.000001000.000001000.000001000.00000
     Eigenvalues --- 1000.000001000.000001000.000001000.000001000.00000
     Eigenvalues --- 1000.000001000.000001000.000001000.000001000.00000
     Eigenvalues --- 1000.000001000.000001000.000001000.000001000.00000
     Eigenvalues --- 1000.000001000.00000
 RFO step:  Lambda=-8.60842017D-04 EMin= 6.93180784D-03
 Quartic linear search produced a step of  0.09781.
 Iteration  1 RMS(Cart)=  0.02511791 RMS(Int)=  0.00019620
 Iteration  2 RMS(Cart)=  0.00030227 RMS(Int)=  0.00002044
 Iteration  3 RMS(Cart)=  0.00000003 RMS(Int)=  0.00002044
 Iteration  1 RMS(Cart)=  0.00000738 RMS(Int)=  0.00000279
 Iteration  2 RMS(Cart)=  0.00000405 RMS(Int)=  0.00000312
 Iteration  3 RMS(Cart)=  0.00000222 RMS(Int)=  0.00000352
 Iteration  4 RMS(Cart)=  0.00000122 RMS(Int)=  0.00000379
 Iteration  5 RMS(Cart)=  0.00000067 RMS(Int)=  0.00000395
 Variable       Old X    -DE/DX   Delta X   Delta X   Delta X     New X
                                 (Linear)    (Quad)   (Total)
    R1        2.71710  -0.00422  -0.00088  -0.01131  -0.01220   2.70491
    R2        2.61901   0.00308   0.00698   0.00282   0.00980   2.62881
    R3        2.06658  -0.00028   0.00242  -0.00189   0.00053   2.06711
    R4        2.62874   0.00490   0.00657   0.00702   0.01358   2.64232
    R5        2.85052  -0.00085   0.00054  -0.00315  -0.00261   2.84791
    R6        3.31055  -0.00249   0.00082  -0.00920  -0.00837   3.30219
    R7        2.77560  -0.00171  -0.00155  -0.00471  -0.00625   2.76935
    R8        2.08232   0.00009   0.00203  -0.00059   0.00144   2.08376
[...]
 ---------------------------------------------------------------------
 Rotational constants (GHZ):           1.2683339           0.2589641           0.2526408

 **********************************************************************

            Population analysis using the SCF Density.

 **********************************************************************

 Orbital symmetries:
       Occupied  (A) (A) (A) (A) (A) (A) (A) (A) (A) (A) (A) (A)
                 (A) (A) (A) (A) (A) (A) (A) (A) (A) (A) (A) (A)
                 (A) (A) (A) (A) (A) (A) (A) (A) (A) (A) (A) (A)
                 (A) (A) (A) (A) (A) (A) (A) (A) (A) (A) (A) (A)
                 (A) (A) (A) (A) (A) (A) (A) (A) (A) (A) (A) (A)
                 (A)
       Virtual   (A) (A) (A) (A) (A) (A) (A) (A) (A) (A) (A) (A)
                 (A) (A) (A) (A) (A) (A) (A) (A) (A) (A) (A) (A)
                 (A) (A) (A) (A) (A) (A) (A) (A) (A) (A) (A) (A)
                 (A) (A) (A) (A) (A) (A) (A) (A) (A) (A) (A) (A)
                 (A) (A) (A) (A) (A) (A) (A) (A) (A) (A) (A) (A)
                 (A) (A) (A) (A) (A) (A) (A) (A) (A) (A) (A) (A)
                 (A) (A) (A) (A) (A) (A) (A) (A) (A) (A) (A) (A)
                 (A) (A) (A) (A) (A) (A) (A) (A) (A) (A) (A) (A)
                 (A) (A) (A) (A) (A) (A) (A) (A) (A) (A) (A) (A)
                 (A) (A) (A) (A) (A) (A) (A) (A) (A) (A) (A) (A)
                 (A) (A) (A) (A) (A) (A) (A) (A) (A) (A) (A) (A)
                 (A) (A) (A) (A) (A) (A) (A) (A) (A) (A) (A) (A)
                 (A) (A) (A) (A) (A) (A) (A) (A) (A) (A) (A) (A)
                 (A) (A) (A) (A) (A) (A) (A) (A) (A) (A) (A) (A)
                 (A) (A) (A) (A) (A) (A) (A) (A) (A) (A) (A) (A)
                 (A) (A) (A) (A) (A) (A) (A) (A) (A) (A) (A) (A)
                 (A) (A) (A) (A) (A) (A) (A) (A) (A) (A) (A) (A)
                 (A) (A) (A) (A) (A) (A) (A) (A) (A) (A) (A) (A)
                 (A) (A) (A) (A) (A) (A) (A) (A) (A) (A) (A) (A)
                 (A) (A) (A) (A) (A) (A) (A) (A) (A) (A) (A) (A)
                 (A) (A) (A) (A) (A) (A) (A) (A) (A) (A) (A) (A)
                 (A) (A) (A) (A) (A) (A) (A) (A) (A) (A) (A) (A)
                 (A) (A) (A) (A) (A) (A) (A) (A) (A) (A) (A) (A)
                 (A) (A) (A) (A) (A) (A) (A) (A) (A) (A) (A) (A)
                 (A) (A) (A) (A) (A) (A) (A) (A) (A) (A) (A) (A)
                 (A) (A) (A) (A) (A) (A) (A) (A) (A) (A) (A) (A)
                 (A) (A) (A) (A) (A) (A) (A) (A) (A) (A) (A) (A)
                 (A) (A) (A) (A) (A) (A) (A) (A) (A) (A) (A) (A)
                 (A) (A) (A) (A) (A) (A) (A) (A) (A)
 The electronic state is 1-A.
 Alpha  occ. eigenvalues --  -91.99532 -91.99391 -91.98905 -11.29234 -11.28562
 Alpha  occ. eigenvalues --  -11.28098 -11.27957 -11.27953 -11.27783 -11.26590
 Alpha  occ. eigenvalues --  -11.26568 -11.26113 -11.25030 -11.23958  -8.99643
 Alpha  occ. eigenvalues --   -8.99472  -8.99053  -6.67808  -6.67728  -6.67633
 Alpha  occ. eigenvalues --   -6.67548  -6.67531  -6.67353  -6.67213  -6.67122
 Alpha  occ. eigenvalues --   -6.66944  -1.20605  -1.17642  -1.11834  -1.03417
 Alpha  occ. eigenvalues --   -1.02665  -1.01060  -0.94947  -0.94436  -0.91129
 Alpha  occ. eigenvalues --   -0.81900  -0.76840  -0.75882  -0.72461  -0.69648
 Alpha  occ. eigenvalues --   -0.66673  -0.66209  -0.60230  -0.58761  -0.58515
 Alpha  occ. eigenvalues --   -0.56819  -0.55653  -0.54098  -0.53491  -0.52397
 Alpha  occ. eigenvalues --   -0.51696  -0.50805  -0.49396  -0.47553  -0.46284
 Alpha  occ. eigenvalues --   -0.45659  -0.38953  -0.34263  -0.32360  -0.31798
 Alpha  occ. eigenvalues --   -0.29315
 Alpha virt. eigenvalues --    0.03426   0.03495   0.04172   0.04641   0.04893
 Alpha virt. eigenvalues --    0.05625   0.06298   0.07379   0.07634   0.08396
 Alpha virt. eigenvalues --    0.08761   0.08907   0.09407   0.10234   0.10842
 Alpha virt. eigenvalues --    0.11165   0.11890   0.12419   0.12653   0.12855
 Alpha virt. eigenvalues --    0.13157   0.13787   0.14028   0.14082   0.14514
 Alpha virt. eigenvalues --    0.14623   0.15205   0.15593   0.15665   0.16212
 Alpha virt. eigenvalues --    0.16441   0.16671   0.17138   0.17963   0.18280
 Alpha virt. eigenvalues --    0.18541   0.18866   0.19102   0.19837   0.20085
 Alpha virt. eigenvalues --    0.20235   0.20838   0.21087   0.21640   0.21714
 Alpha virt. eigenvalues --    0.22564   0.22878   0.23053   0.23313   0.23988
 Alpha virt. eigenvalues --    0.24363   0.24793   0.24916   0.25303   0.26221
 Alpha virt. eigenvalues --    0.26611   0.27079   0.27526   0.28818   0.29160
 Alpha virt. eigenvalues --    0.29735   0.30273   0.30412   0.31595   0.31925
 Alpha virt. eigenvalues --    0.32238   0.32579   0.32841   0.33507   0.33777
 Alpha virt. eigenvalues --    0.34479   0.34667   0.35337   0.35752   0.36191
 Alpha virt. eigenvalues --    0.36873   0.37147   0.38355   0.39560   0.39952
 Alpha virt. eigenvalues --    0.40588   0.40860   0.41351   0.42012   0.42660
 Alpha virt. eigenvalues --    0.43057   0.43967   0.44397   0.44610   0.45023
 Alpha virt. eigenvalues --    0.45596   0.46099   0.46673   0.47268   0.47925
 Alpha virt. eigenvalues --    0.48669   0.48811   0.50027   0.50221   0.51120
 Alpha virt. eigenvalues --    0.51686   0.52089   0.53308   0.53745   0.54739
 Alpha virt. eigenvalues --    0.55177   0.56157   0.56858   0.57588   0.57847
 Alpha virt. eigenvalues --    0.58440   0.58630   0.59533   0.59969   0.60865
 Alpha virt. eigenvalues --    0.61612   0.61939   0.62307   0.62981   0.63031
 Alpha virt. eigenvalues --    0.63834   0.64479   0.65564   0.65986   0.66478
 Alpha virt. eigenvalues --    0.67350   0.67866   0.68346   0.68480   0.69096
 Alpha virt. eigenvalues --    0.69620   0.69815   0.70060   0.71041   0.71272
 Alpha virt. eigenvalues --    0.72255   0.72651   0.73335   0.73910   0.74076
 Alpha virt. eigenvalues --    0.74501   0.75235   0.75877   0.76178   0.76576
 Alpha virt. eigenvalues --    0.77012   0.77634   0.78115   0.78388   0.79334
 Alpha virt. eigenvalues --    0.79939   0.80446   0.81261   0.82177   0.82835
 Alpha virt. eigenvalues --    0.83390   0.83895   0.84839   0.85585   0.86767
 Alpha virt. eigenvalues --    0.87206   0.88437   0.88979   0.90189   0.90305
 Alpha virt. eigenvalues --    0.91225   0.91682   0.92413   0.92752   0.94244
 Alpha virt. eigenvalues --    0.94642   0.95187   0.95800   0.95819   0.96580
 Alpha virt. eigenvalues --    0.97794   0.98267   0.98785   0.99326   0.99972
 Alpha virt. eigenvalues --    1.01308   1.02513   1.02739   1.04126   1.05342
 Alpha virt. eigenvalues --    1.06314   1.06750   1.08018   1.08793   1.09581
 Alpha virt. eigenvalues --    1.10219   1.10898   1.11955   1.13005   1.14031
 Alpha virt. eigenvalues --    1.15984   1.16764   1.17124   1.18680   1.19337
 Alpha virt. eigenvalues --    1.20040   1.21238   1.22093   1.24051   1.24574
 Alpha virt. eigenvalues --    1.25581   1.25752   1.26893   1.27665   1.28410
 Alpha virt. eigenvalues --    1.29386   1.30537   1.31473   1.32378   1.32806
 Alpha virt. eigenvalues --    1.33775   1.35733   1.36393   1.36537   1.38260
 Alpha virt. eigenvalues --    1.38661   1.40508   1.41697   1.44506   1.46566
 Alpha virt. eigenvalues --    1.46915   1.48203   1.50217   1.50584   1.53252
 Alpha virt. eigenvalues --    1.54111   1.55316   1.56308   1.58158   1.58678
 Alpha virt. eigenvalues --    1.60026   1.60903   1.61366   1.61850   1.63015
 Alpha virt. eigenvalues --    1.65161   1.65381   1.67013   1.67670   1.68421
 Alpha virt. eigenvalues --    1.68963   1.69649   1.71070   1.71829   1.72686
 Alpha virt. eigenvalues --    1.73598   1.74931   1.75221   1.76477   1.78048
 Alpha virt. eigenvalues --    1.80388   1.80767   1.81691   1.82554   1.83525
 Alpha virt. eigenvalues --    1.84507   1.84937   1.88043   1.89154   1.89491
 Alpha virt. eigenvalues --    1.91528   1.93062   1.94794   1.95089   1.96499
 Alpha virt. eigenvalues --    1.97226   1.97576   1.98811   2.00788   2.01596
 Alpha virt. eigenvalues --    2.03614   2.05453   2.05848   2.06065   2.08184
 Alpha virt. eigenvalues --    2.08375   2.09982   2.10865   2.12076   2.13779
 Alpha virt. eigenvalues --    2.13887   2.14246   2.16096   2.18818   2.19507
 Alpha virt. eigenvalues --    2.20232   2.22400   2.23959   2.24930   2.26547
 Alpha virt. eigenvalues --    2.27581   2.27806   2.28773   2.29778   2.31451
 Alpha virt. eigenvalues --    2.32564   2.34434   2.35874   2.37512   2.39022
 Alpha virt. eigenvalues --    2.41542   2.42244   2.43289   2.45529   2.45709
 Alpha virt. eigenvalues --    2.47049   2.48633   2.49741   2.51449   2.54043
 Alpha virt. eigenvalues --    2.55468   2.56064   2.59086   2.61566   2.68400
 Alpha virt. eigenvalues --    2.70315   2.72069   2.76489   2.79150   2.80833
 Alpha virt. eigenvalues --    2.83151   2.84081   2.88642   2.91481   2.94127
 Alpha virt. eigenvalues --    2.96428   2.99278   3.00385   3.02736   3.19758
 Alpha virt. eigenvalues --    3.21455   3.28780   3.29531   3.36626   3.47017
 Alpha virt. eigenvalues --    3.52501   3.69818   3.78196   4.11693   4.22136
          Condensed to atoms (all electrons):
               1          2          3          4          5          6
     1  C    9.863082  -2.066763  -1.091868  -0.805978   0.087880  -0.184994
     2  C   -2.066763   9.749460  -1.247334   0.365528   0.085362   0.196263
     3  C   -1.091868  -1.247334  13.038810  -0.749006  -1.618456  -0.079377
     4  C   -0.805978   0.365528  -0.749006   5.965779   0.188866   0.020763
     5  C    0.087880   0.085362  -1.618456   0.188866   6.883550  -0.013485
     6  H   -0.184994   0.196263  -0.079377   0.020763  -0.013485   1.514088
     7  S   -0.526805   0.139855  -0.388006   0.126929   0.431979  -0.004852
     8  H   -0.022210   0.097436  -0.030507   0.032782   0.264781  -0.059476
     9  C    0.355444  -0.881626  -1.738625  -0.065878   0.190045   0.059377
    10  S    0.016105   0.110699  -0.490760  -0.050847   0.006671  -0.000252
    11  C    0.014787  -0.032746  -0.240079  -0.018085   0.025749   0.002460
    12  C   -0.015263   0.060690   0.450682   0.088661  -0.005438  -0.001652
    13  C   -0.160349   0.107755  -0.349219  -0.135633  -0.132647  -0.011307
    14  H    0.013322   0.046120   0.084409   0.024452  -0.000424   0.000282
    15  S   -0.001686  -0.003196  -0.060481  -0.003865  -0.001493  -0.000021
    16  C   -0.000682  -0.001325   0.034772  -0.001730   0.000414  -0.000042
    17  C    0.000313   0.003157  -0.374452  -0.021321  -0.001538  -0.000153
    18  H   -0.000072   0.000112  -0.000050   0.000090   0.000018  -0.000006
    19  H   -0.000126  -0.000839  -0.009808  -0.000913  -0.000080   0.000004
    20  H   -0.056611   0.065691   0.012803   0.306895   0.005895  -0.003220
    21  H   -0.034640   0.065472   0.001167   0.285856   0.015617  -0.002037
    22  H   -0.051140   0.193450  -0.022477   0.064468  -0.032504   0.002119
               7          8          9         10         11         12
     1  C   -0.526805  -0.022210   0.355444   0.016105   0.014787  -0.015263
     2  C    0.139855   0.097436  -0.881626   0.110699  -0.032746   0.060690
     3  C   -0.388006  -0.030507  -1.738625  -0.490760  -0.240079   0.450682
     4  C    0.126929   0.032782  -0.065878  -0.050847  -0.018085   0.088661
     5  C    0.431979   0.264781   0.190045   0.006671   0.025749  -0.005438
     6  H   -0.004852  -0.059476   0.059377  -0.000252   0.002460  -0.001652
     7  S   16.255300  -0.148278  -0.526121   0.082181  -0.003186   0.032345
     8  H   -0.148278   1.211182  -0.016550   0.000096  -0.000454   0.000983
     9  C   -0.526121  -0.016550  12.583565   0.227762  -0.006440  -0.875994
    10  S    0.082181   0.000096   0.227762  16.408110   0.294308  -0.320738
    11  C   -0.003186  -0.000454  -0.006440   0.294308  10.088896   0.114996
    12  C    0.032345   0.000983  -0.875994  -0.320738   0.114996  10.503302
    13  C    0.146396   0.000049  -2.907246  -0.414070  -1.387241  -2.563323
    14  H    0.010752  -0.000056  -0.073255   0.034703  -0.047613   0.616756
    15  S    0.003580  -0.000114  -0.211342   0.072706  -0.072543  -0.173028
    16  C    0.002112   0.000049   0.038395  -0.083676  -0.153665  -0.702791
    17  C    0.011965  -0.000098  -0.587783  -0.285028  -2.448574  -0.920242
    18  H    0.000186   0.000003   0.006896   0.004417   0.038286  -0.018538
    19  H    0.001573  -0.000013   0.115592   0.010974   0.554661   0.035252
    20  H    0.006133   0.001104  -0.006807  -0.001972   0.001801  -0.001528
    21  H    0.003264   0.001153  -0.011503   0.002347  -0.003993   0.002685
    22  H    0.006053  -0.000122  -0.079836  -0.001072   0.002272   0.041474
              13         14         15         16         17         18
     1  C   -0.160349   0.013322  -0.001686  -0.000682   0.000313  -0.000072
     2  C    0.107755   0.046120  -0.003196  -0.001325   0.003157   0.000112
     3  C   -0.349219   0.084409  -0.060481   0.034772  -0.374452  -0.000050
     4  C   -0.135633   0.024452  -0.003865  -0.001730  -0.021321   0.000090
     5  C   -0.132647  -0.000424  -0.001493   0.000414  -0.001538   0.000018
     6  H   -0.011307   0.000282  -0.000021  -0.000042  -0.000153  -0.000006
     7  S    0.146396   0.010752   0.003580   0.002112   0.011965   0.000186
     8  H    0.000049  -0.000056  -0.000114   0.000049  -0.000098   0.000003
     9  C   -2.907246  -0.073255  -0.211342   0.038395  -0.587783   0.006896
    10  S   -0.414070   0.034703   0.072706  -0.083676  -0.285028   0.004417
    11  C   -1.387241  -0.047613  -0.072543  -0.153665  -2.448574   0.038286
    12  C   -2.563323   0.616756  -0.173028  -0.702791  -0.920242  -0.018538
    13  C   14.092296  -0.850173  -0.045965  -0.153916   0.696898   0.027909
    14  H   -0.850173   1.631003  -0.036421   0.020023  -0.043580   0.001520
    15  S   -0.045965  -0.036421  15.858795   0.171099   0.021953  -0.152417
    16  C   -0.153916   0.020023   0.171099   6.477578   0.302873   0.268806
    17  C    0.696898  -0.043580   0.021953   0.302873   9.519712  -0.007097
    18  H    0.027909   0.001520  -0.152417   0.268806  -0.007097   1.244091
    19  H   -0.068935  -0.002527  -0.004934  -0.135313  -0.491913  -0.060288
    20  H   -0.012247  -0.000181   0.000109  -0.000234   0.000966   0.000035
    21  H   -0.009041   0.002151  -0.000499   0.000143  -0.000793   0.000040
    22  H    0.054292   0.005990   0.001577   0.002187  -0.015922  -0.000218
              19         20         21         22
     1  C   -0.000126  -0.056611  -0.034640  -0.051140
     2  C   -0.000839   0.065691   0.065472   0.193450
     3  C   -0.009808   0.012803   0.001167  -0.022477
     4  C   -0.000913   0.306895   0.285856   0.064468
     5  C   -0.000080   0.005895   0.015617  -0.032504
     6  H    0.000004  -0.003220  -0.002037   0.002119
     7  S    0.001573   0.006133   0.003264   0.006053
     8  H   -0.000013   0.001104   0.001153  -0.000122
     9  C    0.115592  -0.006807  -0.011503  -0.079836
    10  S    0.010974  -0.001972   0.002347  -0.001072
    11  C    0.554661   0.001801  -0.003993   0.002272
    12  C    0.035252  -0.001528   0.002685   0.041474
    13  C   -0.068935  -0.012247  -0.009041   0.054292
    14  H   -0.002527  -0.000181   0.002151   0.005990
    15  S   -0.004934   0.000109  -0.000499   0.001577
    16  C   -0.135313  -0.000234   0.000143   0.002187
    17  C   -0.491913   0.000966  -0.000793  -0.015922
    18  H   -0.060288   0.000035   0.000040  -0.000218
    19  H    1.354731   0.000007  -0.000058   0.000093
    20  H    0.000007   0.837694  -0.113695  -0.101815
    21  H   -0.000058  -0.113695   0.808167  -0.094902
    22  H    0.000093  -0.101815  -0.094902   1.120813
 Mulliken charges:
               1
     1  C    0.668253
     2  C   -1.053222
     3  C    0.867863
     4  C    0.382186
     5  C   -0.380761
     6  H   -0.434481
     7  S    0.336643
     8  H   -0.331739
     9  C    0.411931
    10  S    0.377337
    11  C   -0.723597
    12  C   -0.349290
    13  C    0.075719
    14  H   -0.437249
    15  S    0.638187
    16  C   -0.085075
    17  C    0.640657
    18  H   -0.353721
    19  H   -0.297139
    20  H    0.059177
    21  H    0.083099
    22  H   -0.094779
 Sum of Mulliken charges =  -0.00000
 Mulliken charges with hydrogens summed into heavy atoms:
               1
     1  C    0.233772
     2  C   -1.053222
     3  C    0.867863
     4  C    0.429684
     5  C   -0.712500
     7  S    0.336643
     9  C    0.411931
    10  S    0.377337
    11  C   -0.723597
    12  C   -0.349290
    13  C   -0.361531
    15  S    0.638187
    16  C   -0.438796
    17  C    0.343518
 Electronic spatial extent (au):  <R**2>=           4362.8971
 Charge=             -0.0000 electrons
 Dipole moment (field-independent basis, Debye):
    X=             -0.2780    Y=              1.0579    Z=              0.5876  Tot=              1.2417
 Quadrupole moment (field-independent basis, Debye-Ang):
   XX=            -87.6416   YY=           -104.7877   ZZ=           -105.4628
   XY=             -4.5112   XZ=              2.8412   YZ=             -1.4007
 Traceless Quadrupole moment (field-independent basis, Debye-Ang):
   XX=             11.6558   YY=             -5.4903   ZZ=             -6.1655
   XY=             -4.5112   XZ=              2.8412   YZ=             -1.4007
 Octapole moment (field-independent basis, Debye-Ang**2):
  XXX=              0.6601  YYY=              6.0739  ZZZ=              3.2794  XYY=            -11.3020
  XXY=             -9.4093  XXZ=             11.6678  XZZ=              4.7564  YZZ=              0.2599
  YYZ=              2.1269  XYZ=            -18.8245
 Hexadecapole moment (field-independent basis, Debye-Ang**3):
 XXXX=          -4162.4668 YYYY=           -751.7700 ZZZZ=           -601.0486 XXXY=             -9.7600
 XXXZ=             82.1922 YYYX=            -14.2169 YYYZ=             -1.3907 ZZZX=              1.6852
 ZZZY=            -14.6859 XXYY=           -934.4167 XXZZ=           -936.0655 YYZZ=           -212.7097
 XXYZ=             10.3842 YYXZ=              6.9070 ZZXY=            -11.2939
 N-N= 1.116198066346D+03 E-N=-6.051788202669D+03  KE= 1.612906992956D+03
 Unable to Open any file for archive entry.
 1\1\GINC-CX3-11-6\FOpt\RMP2-FC\Aug-CC-pVDZ\C11H8S3\NS5018\27-Oct-2021\
 0\\# opt=modredundant mp2/aug-cc-pvdz\\pBTTT_95.pdb\\0,1\C,-3.99226217
 76,0.6720783386,0.0946089742\C,-2.6146727393,0.9792748079,0.3068872928
 \C,-1.7785881687,-0.0577676836,-0.1293321945\C,-2.0977511104,2.2517367
 45,0.9284210783\C,-4.1950625612,-0.578320147,-0.4822853566\H,-4.815851
 9451,1.3412057907,0.3580145066\S,-2.6973962905,-1.3918831736,-0.776147
 411\H,-5.1386872848,-1.0556666814,-0.7491970639\C,-0.3163943057,-0.098
 240005,-0.0670830389\S,0.4884235606,-0.8853530368,1.2916579364\C,2.057
 0075956,-0.4457231711,0.6768515975\C,1.9333187782,0.2855759659,-0.5322
 360137\C,0.5894747069,0.4819768633,-0.9555011295\H,0.2628221466,1.0102
 015663,-1.8536660747\S,3.5018973258,0.7238248592,-1.1503330637\C,4.293
 2175957,-0.0652685301,0.1952176902\C,3.4066665933,-0.6479824227,1.0919
 895454\H,5.3827428932,-0.0534275279,0.2505267836\H,3.7259606666,-1.182
 2498491,1.9884567412\H,-2.5271467329,2.3997331482,1.9325535418\H,-2.36
 61228887,3.1277950625,0.3154945089\H,-1.0015956574,2.2174790807,1.0201
 011494\\Version=ES64L-G16RevC.01\State=1-A\HF=-1613.8036639\MP2=-1615.
 7511524\RMSD=4.706e-09\RMSF=7.831e-05\Dipole=-0.0452245,0.3112491,0.14
 13887\PG=C01 [X(C11H8S3)]\\@
 The archive entry for this job was punched.


 WHEN YOU REACH FOR THE STARS, YOU MAY NOT QUITE GET ONE,
 BUT YOU WON'T COME UP WITH A HANDFUL OF MUD, EITHER.

                                         -- LEO BURNETT (AD AGENCY HEAD)
 Job cpu time:       1 days  2 hours 26 minutes 43.9 seconds.
 Elapsed time:       0 days  1 hours 55 minutes 22.1 seconds.
 File lengths (MBytes):  RWF=  36419 Int=      0 D2E=      0 Chk=     18 Scr=      1
 Normal termination of Gaussian 16 at Wed Oct 27 06:16:25 2021.
