 Entering Gaussian System, Link 0=g16
 Input=pBTTT_150.gjf
 Output=pBTTT_150.log
 Initial command:
 /apps/gaussian/g16-c01-avx/g16/l1.exe "/tmp/pbs.4766302[325].pbs/Gau-2546332.inp" -scrdir="/tmp/pbs.4766302[325].pbs/"
 Entering Link 1 = /apps/gaussian/g16-c01-avx/g16/l1.exe PID=   2546333.
  
 Copyright (c) 1988-2019, Gaussian, Inc.  All Rights Reserved.
  
 This is part of the Gaussian(R) 16 program.  It is based on
 the Gaussian(R) 09 system (copyright 2009, Gaussian, Inc.),
 the Gaussian(R) 03 system (copyright 2003, Gaussian, Inc.),
 the Gaussian(R) 98 system (copyright 1998, Gaussian, Inc.),
 the Gaussian(R) 94 system (copyright 1995, Gaussian, Inc.),
 the Gaussian 92(TM) system (copyright 1992, Gaussian, Inc.),
 the Gaussian 90(TM) system (copyright 1990, Gaussian, Inc.),
 the Gaussian 88(TM) system (copyright 1988, Gaussian, Inc.),
 the Gaussian 86(TM) system (copyright 1986, Carnegie Mellon
 University), and the Gaussian 82(TM) system (copyright 1983,
 Carnegie Mellon University). Gaussian is a federally registered
 trademark of Gaussian, Inc.
  
 This software contains proprietary and confidential information,
 including trade secrets, belonging to Gaussian, Inc.
  
 This software is provided under written license and may be
 used, copied, transmitted, or stored only in accord with that
 written license.
  
 The following legend is applicable only to US Government
 contracts under FAR:
  
                    RESTRICTED RIGHTS LEGEND
  
 Use, reproduction and disclosure by the US Government is
 subject to restrictions as set forth in subparagraphs (a)
 and (c) of the Commercial Computer Software - Restricted
 Rights clause in FAR 52.227-19.
  
 Gaussian, Inc.
 340 Quinnipiac St., Bldg. 40, Wallingford CT 06492
  
  
 ---------------------------------------------------------------
 Warning -- This program may not be used in any manner that
 competes with the business of Gaussian, Inc. or will provide
 assistance to any competitor of Gaussian, Inc.  The licensee
 of this program is prohibited from giving any competitor of
 Gaussian, Inc. access to this program.  By using this program,
 the user acknowledges that Gaussian, Inc. is engaged in the
 business of creating and licensing software in the field of
 computational chemistry and represents and warrants to the
 licensee that it is not a competitor of Gaussian, Inc. and that
 it will not use this program in any manner prohibited above.
 ---------------------------------------------------------------
  

 Cite this work as:
 Gaussian 16, Revision C.01,
 M. J. Frisch, G. W. Trucks, H. B. Schlegel, G. E. Scuseria, 
 M. A. Robb, J. R. Cheeseman, G. Scalmani, V. Barone, 
 G. A. Petersson, H. Nakatsuji, X. Li, M. Caricato, A. V. Marenich, 
 J. Bloino, B. G. Janesko, R. Gomperts, B. Mennucci, H. P. Hratchian, 
 J. V. Ortiz, A. F. Izmaylov, J. L. Sonnenberg, D. Williams-Young, 
 F. Ding, F. Lipparini, F. Egidi, J. Goings, B. Peng, A. Petrone, 
 T. Henderson, D. Ranasinghe, V. G. Zakrzewski, J. Gao, N. Rega, 
 G. Zheng, W. Liang, M. Hada, M. Ehara, K. Toyota, R. Fukuda, 
 J. Hasegawa, M. Ishida, T. Nakajima, Y. Honda, O. Kitao, H. Nakai, 
 T. Vreven, K. Throssell, J. A. Montgomery, Jr., J. E. Peralta, 
 F. Ogliaro, M. J. Bearpark, J. J. Heyd, E. N. Brothers, K. N. Kudin, 
 V. N. Staroverov, T. A. Keith, R. Kobayashi, J. Normand, 
 K. Raghavachari, A. P. Rendell, J. C. Burant, S. S. Iyengar, 
 J. Tomasi, M. Cossi, J. M. Millam, M. Klene, C. Adamo, R. Cammi, 
 J. W. Ochterski, R. L. Martin, K. Morokuma, O. Farkas, 
 J. B. Foresman, and D. J. Fox, Gaussian, Inc., Wallingford CT, 2019.
 
 ******************************************
 Gaussian 16:  ES64L-G16RevC.01  3-Jul-2019
                27-Oct-2021 
 ******************************************
 %mem=100GB
 %nprocshared=16
 Will use up to   16 processors via shared memory.
 ----------------------------------
 # opt=modredundant mp2/aug-cc-pvdz
 ----------------------------------
 1/18=120,19=15,38=1/1,3;
 2/9=110,12=2,17=6,18=5,40=1/2;
 3/5=16,7=10,11=9,25=1,30=1,71=1/1,2,3;
 4//1;
 5/5=2,38=5/2;
 8/6=4,10=1/1;
 9/15=2,16=-3/6;
 10/5=1/2;
 6/7=2,8=2,9=2,10=2/1;
 7/12=2/1,2,3,16;
 1/18=20,19=15/3(2);
 2/9=110/2;
 99//99;
 2/9=110/2;
 3/5=16,7=10,11=9,25=1,30=1,71=1/1,2,3;
 4/5=5,16=3,69=1/1;
 5/5=2,38=5/2;
 8/6=4,10=1/1;
 9/15=2,16=-3/6;
 10/5=1/2;
 7/12=2/1,2,3,16;
 1/18=20,19=15/3(-8);
 2/9=110/2;
 6/7=2,8=2,9=2,10=2/1;
 99/9=10/99;
 -------------
 pBTTT_150.pdb
 -------------
 Symbolic Z-matrix:
 Charge =  0 Multiplicity = 1
 C                    -3.96      0.762     0.029 
 C                    -2.574     1.099     0.229 
 C                    -1.756     0.034     0.009 
 C                    -2.151     2.478     0.667 
 C                    -4.158    -0.521    -0.332 
 H                    -4.763     1.47      0.17 
 S                    -2.67     -1.382    -0.46 
 H                    -5.094    -1.017    -0.527 
 C                    -0.289    -0.023     0.045 
 S                     0.529    -1.514     0.507 
 C                     2.081    -0.786     0.233 
 C                     1.948     0.507    -0.177 
 C                     0.592     0.948    -0.299 
 H                     0.298     1.921    -0.655 
 S                     3.501     1.238    -0.451 
 C                     4.299    -0.245     0.004 
 C                     3.441    -1.23      0.341 
 H                     5.375    -0.294    -0.008 
 H                     3.748    -2.216     0.649 
 H                    -2.926     2.926     1.289 
 H                    -1.998     3.137    -0.19 
 H                    -1.229     2.449     1.243 
 
 The following ModRedundant input section has been read:
 D       2       3       9      10 F                                           
 

 GradGradGradGradGradGradGradGradGradGradGradGradGradGradGradGradGradGrad
 Berny optimization.
 Initialization pass.
                           ----------------------------
                           !    Initial Parameters    !
                           ! (Angstroms and Degrees)  !
 --------------------------                            --------------------------
 ! Name  Definition              Value          Derivative Info.                !
 --------------------------------------------------------------------------------
 ! R1    R(1,2)                  1.4403         estimate D2E/DX2                !
 ! R2    R(1,5)                  1.3474         estimate D2E/DX2                !
 ! R3    R(1,6)                  1.0798         estimate D2E/DX2                !
 ! R4    R(2,3)                  1.3608         estimate D2E/DX2                !
 ! R5    R(2,4)                  1.5075         estimate D2E/DX2                !
 ! R6    R(3,7)                  1.7494         estimate D2E/DX2                !
 ! R7    R(3,9)                  1.4685         estimate D2E/DX2                !
 ! R8    R(4,20)                 1.0901         estimate D2E/DX2                !
 ! R9    R(4,21)                 1.0919         estimate D2E/DX2                !
 ! R10   R(4,22)                 1.0875         estimate D2E/DX2                !
 ! R11   R(5,7)                  1.7239         estimate D2E/DX2                !
 ! R12   R(5,8)                  1.0771         estimate D2E/DX2                !
 ! R13   R(9,10)                 1.7623         estimate D2E/DX2                !
 ! R14   R(9,13)                 1.3555         estimate D2E/DX2                !
 ! R15   R(10,11)                1.736          estimate D2E/DX2                !
 ! R16   R(11,12)                1.363          estimate D2E/DX2                !
 ! R17   R(11,17)                1.4347         estimate D2E/DX2                !
 ! R18   R(12,13)                1.4311         estimate D2E/DX2                !
 ! R19   R(12,15)                1.7382         estimate D2E/DX2                !
 ! R20   R(13,14)                1.077          estimate D2E/DX2                !
 ! R21   R(15,16)                1.7445         estimate D2E/DX2                !
 ! R22   R(16,17)                1.3491         estimate D2E/DX2                !
 ! R23   R(16,18)                1.0772         estimate D2E/DX2                !
 ! R24   R(17,19)                1.0776         estimate D2E/DX2                !
 ! A1    A(2,1,5)              113.6648         estimate D2E/DX2                !
 ! A2    A(2,1,6)              122.9607         estimate D2E/DX2                !
 ! A3    A(5,1,6)              123.3689         estimate D2E/DX2                !
 ! A4    A(1,2,3)              111.8934         estimate D2E/DX2                !
 ! A5    A(1,2,4)              121.628          estimate D2E/DX2                !
 ! A6    A(3,2,4)              126.4585         estimate D2E/DX2                !
 ! A7    A(2,3,7)              111.2696         estimate D2E/DX2                !
 ! A8    A(2,3,9)              128.8219         estimate D2E/DX2                !
 ! A9    A(7,3,9)              119.8062         estimate D2E/DX2                !
 ! A10   A(2,4,20)             110.0147         estimate D2E/DX2                !
 ! A11   A(2,4,21)             111.3087         estimate D2E/DX2                !
 ! A12   A(2,4,22)             111.5551         estimate D2E/DX2                !
 ! A13   A(20,4,21)            107.4245         estimate D2E/DX2                !
 ! A14   A(20,4,22)            108.1497         estimate D2E/DX2                !
 ! A15   A(21,4,22)            108.241          estimate D2E/DX2                !
 ! A16   A(1,5,7)              111.6303         estimate D2E/DX2                !
 ! A17   A(1,5,8)              127.928          estimate D2E/DX2                !
 ! A18   A(7,5,8)              120.4409         estimate D2E/DX2                !
 ! A19   A(3,7,5)               91.5357         estimate D2E/DX2                !
 ! A20   A(3,9,10)             120.1951         estimate D2E/DX2                !
 ! A21   A(3,9,13)             127.9695         estimate D2E/DX2                !
 ! A22   A(10,9,13)            111.7723         estimate D2E/DX2                !
 ! A23   A(9,10,11)             91.0769         estimate D2E/DX2                !
 ! A24   A(10,11,12)           110.9816         estimate D2E/DX2                !
 ! A25   A(10,11,17)           134.8932         estimate D2E/DX2                !
 ! A26   A(12,11,17)           114.1252         estimate D2E/DX2                !
 ! A27   A(11,12,13)           114.2324         estimate D2E/DX2                !
 ! A28   A(11,12,15)           111.0514         estimate D2E/DX2                !
 ! A29   A(13,12,15)           134.7114         estimate D2E/DX2                !
 ! A30   A(9,13,12)            111.9291         estimate D2E/DX2                !
 ! A31   A(9,13,14)            123.6175         estimate D2E/DX2                !
 ! A32   A(12,13,14)           124.4184         estimate D2E/DX2                !
 ! A33   A(12,15,16)            90.5773         estimate D2E/DX2                !
 ! A34   A(15,16,17)           113.2613         estimate D2E/DX2                !
 ! A35   A(15,16,18)           119.5191         estimate D2E/DX2                !
 ! A36   A(17,16,18)           127.2196         estimate D2E/DX2                !
 ! A37   A(11,17,16)           110.9847         estimate D2E/DX2                !
 ! A38   A(11,17,19)           125.0796         estimate D2E/DX2                !
 ! A39   A(16,17,19)           123.9356         estimate D2E/DX2                !
 ! D1    D(5,1,2,3)             -0.0965         estimate D2E/DX2                !
 ! D2    D(5,1,2,4)           -178.5636         estimate D2E/DX2                !
 ! D3    D(6,1,2,3)            179.0684         estimate D2E/DX2                !
 ! D4    D(6,1,2,4)              0.6012         estimate D2E/DX2                !
 ! D5    D(2,1,5,7)             -0.466          estimate D2E/DX2                !
 ! D6    D(2,1,5,8)            179.1998         estimate D2E/DX2                !
 ! D7    D(6,1,5,7)           -179.6269         estimate D2E/DX2                !
 ! D8    D(6,1,5,8)              0.0388         estimate D2E/DX2                !
 ! D9    D(1,2,3,7)              0.6036         estimate D2E/DX2                !
 ! D10   D(1,2,3,9)            176.861          estimate D2E/DX2                !
 ! D11   D(4,2,3,7)            178.9808         estimate D2E/DX2                !
 ! D12   D(4,2,3,9)             -4.7617         estimate D2E/DX2                !
 ! D13   D(1,2,4,20)            30.655          estimate D2E/DX2                !
 ! D14   D(1,2,4,21)           -88.3029         estimate D2E/DX2                !
 ! D15   D(1,2,4,22)           150.6776         estimate D2E/DX2                !
 ! D16   D(3,2,4,20)          -147.5766         estimate D2E/DX2                !
 ! D17   D(3,2,4,21)            93.4656         estimate D2E/DX2                !
 ! D18   D(3,2,4,22)           -27.5539         estimate D2E/DX2                !
 ! D19   D(2,3,7,5)             -0.7359         estimate D2E/DX2                !
 ! D20   D(9,3,7,5)           -177.3761         estimate D2E/DX2                !
 ! D21   D(2,3,9,10)           150.0554         Frozen                          !
 ! D22   D(2,3,9,13)           -33.0857         estimate D2E/DX2                !
 ! D23   D(7,3,9,10)           -33.9644         estimate D2E/DX2                !
 ! D24   D(7,3,9,13)           142.8946         estimate D2E/DX2                !
 ! D25   D(1,5,7,3)              0.68           estimate D2E/DX2                !
 ! D26   D(8,5,7,3)           -179.0142         estimate D2E/DX2                !
 ! D27   D(3,9,10,11)          177.6823         estimate D2E/DX2                !
 ! D28   D(13,9,10,11)           0.3484         estimate D2E/DX2                !
 ! D29   D(3,9,13,12)         -177.8698         estimate D2E/DX2                !
 ! D30   D(3,9,13,14)            0.0574         estimate D2E/DX2                !
 ! D31   D(10,9,13,12)          -0.793          estimate D2E/DX2                !
 ! D32   D(10,9,13,14)         177.1342         estimate D2E/DX2                !
 ! D33   D(9,10,11,12)           0.212          estimate D2E/DX2                !
 ! D34   D(9,10,11,17)        -179.8995         estimate D2E/DX2                !
 ! D35   D(10,11,12,13)         -0.7078         estimate D2E/DX2                !
 ! D36   D(10,11,12,15)        179.9668         estimate D2E/DX2                !
 ! D37   D(17,11,12,13)        179.3788         estimate D2E/DX2                !
 ! D38   D(17,11,12,15)          0.0534         estimate D2E/DX2                !
 ! D39   D(10,11,17,16)       -179.9177         estimate D2E/DX2                !
 ! D40   D(10,11,17,19)          0.0846         estimate D2E/DX2                !
 ! D41   D(12,11,17,16)         -0.0317         estimate D2E/DX2                !
 ! D42   D(12,11,17,19)        179.9706         estimate D2E/DX2                !
 ! D43   D(11,12,13,9)           0.9879         estimate D2E/DX2                !
 ! D44   D(11,12,13,14)       -176.9197         estimate D2E/DX2                !
 ! D45   D(15,12,13,9)        -179.898          estimate D2E/DX2                !
 ! D46   D(15,12,13,14)          2.1944         estimate D2E/DX2                !
 ! D47   D(11,12,15,16)         -0.0464         estimate D2E/DX2                !
 ! D48   D(13,12,15,16)       -179.1808         estimate D2E/DX2                !
 ! D49   D(12,15,16,17)          0.0294         estimate D2E/DX2                !
 ! D50   D(12,15,16,18)        179.9872         estimate D2E/DX2                !
 ! D51   D(15,16,17,11)         -0.005          estimate D2E/DX2                !
 ! D52   D(15,16,17,19)        179.9927         estimate D2E/DX2                !
 ! D53   D(18,16,17,11)       -179.959          estimate D2E/DX2                !
 ! D54   D(18,16,17,19)          0.0388         estimate D2E/DX2                !
 --------------------------------------------------------------------------------
 Trust Radius=3.00D-01 FncErr=1.00D-07 GrdErr=1.00D-07 EigMax=2.50D+02 EigMin=1.00D-04
 Number of steps in this run=    127 maximum allowed number of steps=    132.
 GradGradGradGradGradGradGradGradGradGradGradGradGradGradGradGradGradGrad

                          Input orientation:                          
 ---------------------------------------------------------------------
 Center     Atomic      Atomic             Coordinates (Angstroms)
 Number     Number       Type             X           Y           Z
 ---------------------------------------------------------------------
      1          6           0       -3.960000    0.762000    0.029000
      2          6           0       -2.574000    1.099000    0.229000
      3          6           0       -1.756000    0.034000    0.009000
      4          6           0       -2.151000    2.478000    0.667000
      5          6           0       -4.158000   -0.521000   -0.332000
      6          1           0       -4.763000    1.470000    0.170000
      7         16           0       -2.670000   -1.382000   -0.460000
      8          1           0       -5.094000   -1.017000   -0.527000
      9          6           0       -0.289000   -0.023000    0.045000
     10         16           0        0.529000   -1.514000    0.507000
     11          6           0        2.081000   -0.786000    0.233000
     12          6           0        1.948000    0.507000   -0.177000
     13          6           0        0.592000    0.948000   -0.299000
     14          1           0        0.298000    1.921000   -0.655000
     15         16           0        3.501000    1.238000   -0.451000
     16          6           0        4.299000   -0.245000    0.004000
     17          6           0        3.441000   -1.230000    0.341000
     18          1           0        5.375000   -0.294000   -0.008000
     19          1           0        3.748000   -2.216000    0.649000
     20          1           0       -2.926000    2.926000    1.289000
     21          1           0       -1.998000    3.137000   -0.190000
     22          1           0       -1.229000    2.449000    1.243000
 ---------------------------------------------------------------------
                    Distance matrix (angstroms):
                    1          2          3          4          5
     1  C    0.000000
     2  C    1.440335   0.000000
     3  C    2.321207   1.360790   0.000000
     4  C    2.573748   1.507453   2.561664   0.000000
     5  C    1.347447   2.334133   2.488757   3.744336   0.000000
     6  H    1.079793   2.221000   3.336175   2.843522   2.140586
     7  S    2.549501   2.576684   1.749404   4.054515   1.723905
     8  H    2.181727   3.376299   3.540359   4.722490   1.077097
     9  C    3.754027   2.552247   1.468548   3.179454   3.919094
    10  S    5.055668   4.066161   2.804556   4.810828   4.863943
    11  C    6.239519   5.022177   3.930031   5.362078   6.270133
    12  C    5.917088   4.578623   3.738708   4.625903   6.193872
    13  C    4.567591   3.213276   2.538378   3.286047   4.972077
    14  H    4.465613   3.115369   2.867156   2.838227   5.091525
    15  S    7.491562   6.114519   5.412695   5.893439   7.859295
    16  C    8.320202   7.006789   6.061426   7.032553   8.468171
    17  C    7.670737   6.451125   5.358799   6.717589   7.661619
    18  H    9.394612   8.073613   7.138560   8.048620   9.541205
    19  H    8.286504   7.150756   5.980478   7.538711   8.144951
    20  H    2.709179   2.141362   3.372086   1.090052   4.003408
    21  H    3.088370   2.158884   3.118778   1.091851   4.250497
    22  H    3.431927   2.158639   2.762736   1.087521   4.458763
                    6          7          8          9         10
     6  H    0.000000
     7  S    3.593251   0.000000
     8  H    2.603947   2.452242   0.000000
     9  C    4.718194   2.787663   4.939964   0.000000
    10  S    6.084660   3.344565   5.738841   1.762285   0.000000
    11  C    7.206514   4.838126   7.218836   2.496881   1.736020
    12  C    6.788615   4.997433   7.213518   2.309622   2.562393
    13  C    5.400784   4.011915   6.020283   1.355484   2.591341
    14  H    5.147596   4.444869   6.141815   2.147954   3.633570
    15  S    8.290546   6.704157   8.886216   4.024952   4.162217
    16  C    9.224350   7.076371   9.439618   4.593551   4.009522
    17  C    8.638568   6.165146   8.581668   3.931586   2.930521
    18  H   10.291862   8.130810  10.506762   5.670727   5.023678
    19  H    9.287258   6.566290   9.000086   4.633728   3.297716
    20  H    2.597435   4.656544   4.852353   4.147036   5.679978
    21  H    3.248648   4.576663   5.191772   3.600209   5.338852
    22  H    3.820854   4.433199   5.484914   2.903375   4.397457
                   11         12         13         14         15
    11  C    0.000000
    12  C    1.362952   0.000000
    13  C    2.346679   1.431119   0.000000
    14  H    3.360875   2.224945   1.076987   0.000000
    15  S    2.565313   1.738173   2.927368   3.281359   0.000000
    16  C    2.294482   2.474968   3.906009   4.597155   1.744453
    17  C    1.434713   2.348306   3.642813   4.560621   2.592660
    18  H    3.339249   3.523420   4.950185   5.576806   2.460721
    19  H    2.235362   3.367047   4.568363   5.542354   3.633335
    20  H    6.321719   5.635299   4.337113   3.896580   6.869008
    21  H    5.675130   4.742150   3.392890   2.639412   5.823515
    22  H    4.737238   3.985109   2.819008   2.492572   5.168081
                   16         17         18         19         20
    16  C    0.000000
    17  C    1.349058   0.000000
    18  H    1.077182   2.176753   0.000000
    19  H    2.145802   1.077640   2.602472   0.000000
    20  H    7.994191   7.662227   8.997622   8.449381   0.000000
    21  H    7.150368   6.995382   8.134249   7.897787   1.758734
    22  H    6.273081   6.013114   7.259605   6.847305   1.763364
                   21         22
    21  H    0.000000
    22  H    1.765841   0.000000
 Stoichiometry    C11H8S3
 Framework group  C1[X(C11H8S3)]
 Deg. of freedom    60
 Full point group                 C1      NOp   1
 Largest Abelian subgroup         C1      NOp   1
 Largest concise Abelian subgroup C1      NOp   1
                         Standard orientation:                         
 ---------------------------------------------------------------------
 Center     Atomic      Atomic             Coordinates (Angstroms)
 Number     Number       Type             X           Y           Z
 ---------------------------------------------------------------------
      1          6           0       -3.960090    0.762031    0.028992
      2          6           0       -2.574097    1.099060    0.228992
      3          6           0       -1.756074    0.034078    0.008992
      4          6           0       -2.151126    2.478069    0.666992
      5          6           0       -4.158063   -0.520973   -0.332008
      6          1           0       -4.763105    1.470014    0.169992
      7         16           0       -2.670045   -1.381942   -0.460008
      8          1           0       -5.094052   -1.016993   -0.527008
      9          6           0       -0.289073   -0.022891    0.044992
     10         16           0        0.528958   -1.513874    0.506992
     11          6           0        2.080943   -0.785841    0.232992
     12          6           0        1.947916    0.507156   -0.177008
     13          6           0        0.591906    0.948127   -0.299008
     14          1           0        0.297886    1.921121   -0.655008
     15         16           0        3.500900    1.238189   -0.451008
     16          6           0        4.298931   -0.244795    0.003992
     17          6           0        3.440952   -1.229813    0.340992
     18          1           0        5.374932   -0.293772   -0.008008
     19          1           0        3.747973   -2.215806    0.648992
     20          1           0       -2.926135    2.926053    1.288992
     21          1           0       -1.998140    3.137073   -0.190008
     22          1           0       -1.229125    2.449089    1.242992
 ---------------------------------------------------------------------
 Rotational constants (GHZ):           1.2815475           0.2797356           0.2375296
 Standard basis: Aug-CC-pVDZ (5D, 7F)
 There are   434 symmetry adapted cartesian basis functions of A   symmetry.
 There are   406 symmetry adapted basis functions of A   symmetry.
   406 basis functions,   804 primitive gaussians,   434 cartesian basis functions
    61 alpha electrons       61 beta electrons
       nuclear repulsion energy      1125.2708201378 Hartrees.
 NAtoms=   22 NActive=   22 NUniq=   22 SFac= 1.00D+00 NAtFMM=   60 NAOKFM=F Big=F
 Integral buffers will be    131072 words long.
 Raffenetti 1 integral format.
 Two-electron integral symmetry is turned on.
 One-electron integrals computed using PRISM.
 NBasis=   406 RedAO= T EigKep=  3.03D-06  NBF=   406
 NBsUse=   406 1.00D-06 EigRej= -1.00D+00 NBFU=   406
 ExpMin= 2.97D-02 ExpMax= 1.11D+05 ExpMxC= 1.07D+03 IAcc=3 IRadAn=         5 AccDes= 0.00D+00
 Harris functional with IExCor=  205 and IRadAn=       5 diagonalized for initial guess.
 HarFok:  IExCor=  205 AccDes= 0.00D+00 IRadAn=         5 IDoV= 1 UseB2=F ITyADJ=14
 ICtDFT=  3500011 ScaDFX=  1.000000  1.000000  1.000000  1.000000
 FoFCou: FMM=F IPFlag=           0 FMFlag=      100000 FMFlg1=           0
         NFxFlg=           0 DoJE=T BraDBF=F KetDBF=T FulRan=T
         wScrn=  0.000000 ICntrl=       500 IOpCl=  0 I1Cent=   200000004 NGrid=           0
         NMat0=    1 NMatS0=      1 NMatT0=    0 NMatD0=    1 NMtDS0=    0 NMtDT0=    0
 Petite list used in FoFCou.
 Requested convergence on RMS density matrix=1.00D-08 within 128 cycles.
 Requested convergence on MAX density matrix=1.00D-06.
 Requested convergence on             energy=1.00D-06.
 No special actions if energy rises.
 SCF Done:  E(RHF) =  -1613.81325223     A.U. after   17 cycles
            NFock= 17  Conv=0.40D-08     -V/T= 2.0000
 ExpMin= 2.97D-02 ExpMax= 1.11D+05 ExpMxC= 1.07D+03 IAcc=3 IRadAn=         5 AccDes= 0.00D+00
 HarFok:  IExCor=  205 AccDes= 0.00D+00 IRadAn=         5 IDoV=-2 UseB2=F ITyADJ=14
 ICtDFT= 12500011 ScaDFX=  1.000000  1.000000  1.000000  1.000000
 GSVD:  LWork=        -884 too small for GESVD, short by        3770 words or        3770 for optimal perf.
 Range of M.O.s used for correlation:    27   406
 NBasis=   406 NAE=    61 NBE=    61 NFC=    26 NFV=     0
 NROrb=    380 NOA=    35 NOB=    35 NVA=   345 NVB=   345

 **** Warning!!: The largest alpha MO coefficient is  0.91079719D+02

 Disk-based method using ON**2 memory for 35 occupieds at a time.
 Estimated scratch disk usage=  5837270716 words.
 Actual    scratch disk usage=  4760263356 words.
 JobTyp=1 Pass  1:  I=  27 to  61 NPSUse= 16 ParTrn=T ParDer=T DoDerP=T.
 (rs|ai) integrals will be sorted in core.
 Spin components of T(2) and E(2):
     alpha-alpha T2 =       0.1137544236D+00 E2=     -0.2648651888D+00
     alpha-beta  T2 =       0.5606849744D+00 E2=     -0.1399458557D+01
     beta-beta   T2 =       0.1137544236D+00 E2=     -0.2648651888D+00
 ANorm=    0.1337233645D+01
 E2 =    -0.1929188935D+01 EUMP2 =    -0.16157424411611D+04
          IDoAtm=1111111111111111111111
          Differentiating once with respect to electric field.
                with respect to dipole field.
          Differentiating once with respect to nuclear coordinates.
 Keep R1 ints in memory in canonical form, NReq=3454318301.
          There are     1 degrees of freedom in the 1st order CPHF.  IDoFFX=0 NUNeed=     1.
 LinEq1:  Iter=  0 NonCon=     1 RMS=2.71D-03 Max=6.04D-02 NDo=     1
 AX will form     1 AO Fock derivatives at one time.
 LinEq1:  Iter=  1 NonCon=     1 RMS=5.92D-04 Max=1.32D-02 NDo=     1
 LinEq1:  Iter=  2 NonCon=     1 RMS=3.33D-04 Max=1.24D-02 NDo=     1
 LinEq1:  Iter=  3 NonCon=     1 RMS=9.40D-05 Max=2.43D-03 NDo=     1
 LinEq1:  Iter=  4 NonCon=     1 RMS=3.75D-05 Max=7.59D-04 NDo=     1
 LinEq1:  Iter=  5 NonCon=     1 RMS=1.33D-05 Max=3.89D-04 NDo=     1
 LinEq1:  Iter=  6 NonCon=     1 RMS=4.41D-06 Max=1.93D-04 NDo=     1
 LinEq1:  Iter=  7 NonCon=     1 RMS=2.19D-06 Max=5.81D-05 NDo=     1
 LinEq1:  Iter=  8 NonCon=     1 RMS=8.24D-07 Max=2.79D-05 NDo=     1
 LinEq1:  Iter=  9 NonCon=     1 RMS=3.40D-07 Max=1.01D-05 NDo=     1
 LinEq1:  Iter= 10 NonCon=     1 RMS=1.43D-07 Max=5.43D-06 NDo=     1
 LinEq1:  Iter= 11 NonCon=     1 RMS=7.35D-08 Max=2.18D-06 NDo=     1
 LinEq1:  Iter= 12 NonCon=     1 RMS=2.59D-08 Max=5.42D-07 NDo=     1
 LinEq1:  Iter= 13 NonCon=     1 RMS=8.79D-09 Max=1.40D-07 NDo=     1
 LinEq1:  Iter= 14 NonCon=     1 RMS=2.85D-09 Max=5.17D-08 NDo=     1
 LinEq1:  Iter= 15 NonCon=     1 RMS=1.06D-09 Max=2.29D-08 NDo=     1
 LinEq1:  Iter= 16 NonCon=     1 RMS=4.31D-10 Max=1.24D-08 NDo=     1
 LinEq1:  Iter= 17 NonCon=     1 RMS=1.84D-10 Max=4.71D-09 NDo=     1
 LinEq1:  Iter= 18 NonCon=     1 RMS=6.39D-11 Max=1.68D-09 NDo=     1
 LinEq1:  Iter= 19 NonCon=     0 RMS=2.31D-11 Max=4.57D-10 NDo=     1
 Linear equations converged to 1.000D-10 1.000D-09 after    19 iterations.
 End of Minotr F.D. properties file   721 does not exist.
 End of Minotr F.D. properties file   722 does not exist.
 End of Minotr F.D. properties file   788 does not exist.

 **********************************************************************

            Population analysis using the SCF Density.

 **********************************************************************

 Orbital symmetries:
       Occupied  (A) (A) (A) (A) (A) (A) (A) (A) (A) (A) (A) (A)
                 (A) (A) (A) (A) (A) (A) (A) (A) (A) (A) (A) (A)
                 (A) (A) (A) (A) (A) (A) (A) (A) (A) (A) (A) (A)
                 (A) (A) (A) (A) (A) (A) (A) (A) (A) (A) (A) (A)
                 (A) (A) (A) (A) (A) (A) (A) (A) (A) (A) (A) (A)
                 (A)
       Virtual   (A) (A) (A) (A) (A) (A) (A) (A) (A) (A) (A) (A)
                 (A) (A) (A) (A) (A) (A) (A) (A) (A) (A) (A) (A)
                 (A) (A) (A) (A) (A) (A) (A) (A) (A) (A) (A) (A)
                 (A) (A) (A) (A) (A) (A) (A) (A) (A) (A) (A) (A)
                 (A) (A) (A) (A) (A) (A) (A) (A) (A) (A) (A) (A)
                 (A) (A) (A) (A) (A) (A) (A) (A) (A) (A) (A) (A)
                 (A) (A) (A) (A) (A) (A) (A) (A) (A) (A) (A) (A)
                 (A) (A) (A) (A) (A) (A) (A) (A) (A) (A) (A) (A)
                 (A) (A) (A) (A) (A) (A) (A) (A) (A) (A) (A) (A)
                 (A) (A) (A) (A) (A) (A) (A) (A) (A) (A) (A) (A)
                 (A) (A) (A) (A) (A) (A) (A) (A) (A) (A) (A) (A)
                 (A) (A) (A) (A) (A) (A) (A) (A) (A) (A) (A) (A)
                 (A) (A) (A) (A) (A) (A) (A) (A) (A) (A) (A) (A)
                 (A) (A) (A) (A) (A) (A) (A) (A) (A) (A) (A) (A)
                 (A) (A) (A) (A) (A) (A) (A) (A) (A) (A) (A) (A)
                 (A) (A) (A) (A) (A) (A) (A) (A) (A) (A) (A) (A)
                 (A) (A) (A) (A) (A) (A) (A) (A) (A) (A) (A) (A)
                 (A) (A) (A) (A) (A) (A) (A) (A) (A) (A) (A) (A)
                 (A) (A) (A) (A) (A) (A) (A) (A) (A) (A) (A) (A)
                 (A) (A) (A) (A) (A) (A) (A) (A) (A) (A) (A) (A)
                 (A) (A) (A) (A) (A) (A) (A) (A) (A) (A) (A) (A)
                 (A) (A) (A) (A) (A) (A) (A) (A) (A) (A) (A) (A)
                 (A) (A) (A) (A) (A) (A) (A) (A) (A) (A) (A) (A)
                 (A) (A) (A) (A) (A) (A) (A) (A) (A) (A) (A) (A)
                 (A) (A) (A) (A) (A) (A) (A) (A) (A) (A) (A) (A)
                 (A) (A) (A) (A) (A) (A) (A) (A) (A) (A) (A) (A)
                 (A) (A) (A) (A) (A) (A) (A) (A) (A) (A) (A) (A)
                 (A) (A) (A) (A) (A) (A) (A) (A) (A) (A) (A) (A)
                 (A) (A) (A) (A) (A) (A) (A) (A) (A)
 The electronic state is 1-A.
 Alpha  occ. eigenvalues --  -91.99061 -91.98963 -91.98489 -11.29138 -11.27868
 Alpha  occ. eigenvalues --  -11.27773 -11.27318 -11.27162 -11.27159 -11.25824
 Alpha  occ. eigenvalues --  -11.25722 -11.25600 -11.24443 -11.23995  -8.99242
 Alpha  occ. eigenvalues --   -8.99147  -8.98732  -6.67409  -6.67331  -6.67313
 Alpha  occ. eigenvalues --   -6.67232  -6.67125  -6.67022  -6.66899  -6.66806
 Alpha  occ. eigenvalues --   -6.66613  -1.21829  -1.18720  -1.12906  -1.04227
 Alpha  occ. eigenvalues --   -1.02439  -1.01913  -0.95912  -0.94559  -0.92143
 Alpha  occ. eigenvalues --   -0.82309  -0.77368  -0.76860  -0.72750  -0.70114
 Alpha  occ. eigenvalues --   -0.67463  -0.66909  -0.60713  -0.59265  -0.59012
 Alpha  occ. eigenvalues --   -0.56718  -0.56340  -0.54747  -0.54162  -0.52507
 Alpha  occ. eigenvalues --   -0.52054  -0.51255  -0.49439  -0.47384  -0.46777
 Alpha  occ. eigenvalues --   -0.45934  -0.39157  -0.35273  -0.34262  -0.32304
 Alpha  occ. eigenvalues --   -0.28344
 Alpha virt. eigenvalues --    0.03372   0.03528   0.04024   0.04914   0.04966
 Alpha virt. eigenvalues --    0.05469   0.06771   0.06925   0.07771   0.08377
 Alpha virt. eigenvalues --    0.08748   0.09886   0.10020   0.10804   0.10954
 Alpha virt. eigenvalues --    0.11667   0.11887   0.12469   0.12576   0.13125
 Alpha virt. eigenvalues --    0.13457   0.13807   0.14207   0.14439   0.14619
 Alpha virt. eigenvalues --    0.15138   0.15246   0.15432   0.15915   0.16261
 Alpha virt. eigenvalues --    0.16750   0.17365   0.17712   0.18209   0.18541
 Alpha virt. eigenvalues --    0.18805   0.19175   0.19378   0.20118   0.20656
 Alpha virt. eigenvalues --    0.20847   0.21306   0.21444   0.21821   0.22033
 Alpha virt. eigenvalues --    0.22905   0.23295   0.23311   0.23975   0.24240
 Alpha virt. eigenvalues --    0.24845   0.25482   0.25893   0.26478   0.26640
 Alpha virt. eigenvalues --    0.26780   0.27327   0.27674   0.28193   0.29000
 Alpha virt. eigenvalues --    0.29401   0.29668   0.30758   0.31072   0.31751
 Alpha virt. eigenvalues --    0.32084   0.32659   0.32921   0.33407   0.33940
 Alpha virt. eigenvalues --    0.34491   0.34777   0.35124   0.35432   0.36896
 Alpha virt. eigenvalues --    0.37181   0.37757   0.38210   0.39104   0.40210
 Alpha virt. eigenvalues --    0.40510   0.40772   0.40967   0.41463   0.43569
 Alpha virt. eigenvalues --    0.44000   0.44116   0.44717   0.45377   0.45462
 Alpha virt. eigenvalues --    0.45868   0.46226   0.46797   0.47670   0.47917
 Alpha virt. eigenvalues --    0.48314   0.48955   0.49086   0.49720   0.51320
 Alpha virt. eigenvalues --    0.52204   0.53007   0.53568   0.54417   0.55326
 Alpha virt. eigenvalues --    0.55808   0.56723   0.56948   0.58351   0.58614
 Alpha virt. eigenvalues --    0.59043   0.60016   0.60256   0.61358   0.61566
 Alpha virt. eigenvalues --    0.62423   0.63000   0.63512   0.64171   0.64401
 Alpha virt. eigenvalues --    0.65146   0.65722   0.65971   0.66418   0.66828
 Alpha virt. eigenvalues --    0.67440   0.67710   0.67980   0.68640   0.68939
 Alpha virt. eigenvalues --    0.69502   0.70410   0.70608   0.71197   0.71469
 Alpha virt. eigenvalues --    0.72144   0.72714   0.73989   0.74182   0.74495
 Alpha virt. eigenvalues --    0.74671   0.75221   0.75551   0.76345   0.77132
 Alpha virt. eigenvalues --    0.77815   0.78145   0.79251   0.80107   0.80304
 Alpha virt. eigenvalues --    0.81196   0.81938   0.82402   0.83242   0.84307
 Alpha virt. eigenvalues --    0.84607   0.85486   0.86338   0.87279   0.87796
 Alpha virt. eigenvalues --    0.88382   0.88840   0.89592   0.90128   0.91132
 Alpha virt. eigenvalues --    0.91393   0.92398   0.92967   0.93527   0.93981
 Alpha virt. eigenvalues --    0.94716   0.95892   0.95938   0.97148   0.97727
 Alpha virt. eigenvalues --    0.98032   0.99271   0.99782   1.00071   1.00297
 Alpha virt. eigenvalues --    1.01664   1.03249   1.03312   1.04203   1.05803
 Alpha virt. eigenvalues --    1.06727   1.07245   1.08057   1.10849   1.11282
 Alpha virt. eigenvalues --    1.11475   1.12538   1.13354   1.14400   1.15575
 Alpha virt. eigenvalues --    1.15766   1.18274   1.19290   1.20644   1.21980
 Alpha virt. eigenvalues --    1.22749   1.23558   1.23632   1.24657   1.25173
 Alpha virt. eigenvalues --    1.25829   1.26825   1.27946   1.28796   1.29257
 Alpha virt. eigenvalues --    1.31413   1.31968   1.32440   1.33792   1.34190
 Alpha virt. eigenvalues --    1.34392   1.35662   1.36726   1.37767   1.39616
 Alpha virt. eigenvalues --    1.40179   1.41700   1.43944   1.44667   1.46501
 Alpha virt. eigenvalues --    1.47003   1.49053   1.50120   1.52071   1.52946
 Alpha virt. eigenvalues --    1.55019   1.56652   1.57103   1.58339   1.58761
 Alpha virt. eigenvalues --    1.61006   1.61498   1.62486   1.64431   1.65770
 Alpha virt. eigenvalues --    1.66106   1.66629   1.67769   1.69099   1.69692
 Alpha virt. eigenvalues --    1.70120   1.71585   1.72504   1.72743   1.73362
 Alpha virt. eigenvalues --    1.74058   1.74375   1.77114   1.78893   1.80030
 Alpha virt. eigenvalues --    1.81057   1.81424   1.82025   1.83205   1.84867
 Alpha virt. eigenvalues --    1.86018   1.86914   1.87153   1.88928   1.89672
 Alpha virt. eigenvalues --    1.91633   1.92153   1.94392   1.95654   1.95906
 Alpha virt. eigenvalues --    1.97371   1.98442   1.99356   2.00882   2.01287
 Alpha virt. eigenvalues --    2.04741   2.06031   2.08636   2.09173   2.10081
 Alpha virt. eigenvalues --    2.10274   2.11202   2.12116   2.12998   2.14725
 Alpha virt. eigenvalues --    2.15841   2.18119   2.19306   2.21089   2.21999
 Alpha virt. eigenvalues --    2.22574   2.24396   2.25023   2.26692   2.28558
 Alpha virt. eigenvalues --    2.30175   2.31086   2.32531   2.32927   2.33906
 Alpha virt. eigenvalues --    2.36026   2.37576   2.38751   2.39747   2.41054
 Alpha virt. eigenvalues --    2.41864   2.45196   2.46566   2.47514   2.47935
 Alpha virt. eigenvalues --    2.50534   2.50773   2.52836   2.53634   2.55063
 Alpha virt. eigenvalues --    2.58316   2.59616   2.62182   2.65331   2.72406
 Alpha virt. eigenvalues --    2.73302   2.76820   2.79112   2.84818   2.85795
 Alpha virt. eigenvalues --    2.87194   2.88447   2.92361   2.96667   3.00370
 Alpha virt. eigenvalues --    3.01090   3.04247   3.09325   3.11426   3.19110
 Alpha virt. eigenvalues --    3.25389   3.29691   3.37161   3.45258   3.57213
 Alpha virt. eigenvalues --    3.65706   3.75266   3.80620   4.11074   4.24682
          Condensed to atoms (all electrons):
               1          2          3          4          5          6
     1  C   10.460681  -2.479379  -0.852611  -1.036877  -0.090473  -0.378071
     2  C   -2.479379  11.536225  -2.255635   0.556828   0.117007   0.218264
     3  C   -0.852611  -2.255635  13.506752  -0.703779  -1.120818   0.117397
     4  C   -1.036877   0.556828  -0.703779   6.057835   0.055155   0.043407
     5  C   -0.090473   0.117007  -1.120818   0.055155   6.906699  -0.067666
     6  H   -0.378071   0.218264   0.117397   0.043407  -0.067666   1.679300
     7  S   -0.486106  -0.026726  -0.390927   0.127571   0.276696  -0.021311
     8  H    0.028651   0.145571  -0.082319   0.032141   0.142220  -0.068174
     9  C    0.524706  -0.838427  -1.872131   0.058830   0.075557  -0.035701
    10  S    0.004663  -0.003343  -0.459440   0.004666   0.001984  -0.002881
    11  C    0.072795   0.034653  -0.319523  -0.133563  -0.005436   0.000651
    12  C   -0.122026  -0.071680   0.745920   0.323948   0.002766  -0.004136
    13  C   -0.196393  -0.332175  -0.481356  -0.555361  -0.021392   0.021109
    14  H    0.039077  -0.085095   0.085742   0.098467  -0.007820   0.001421
    15  S   -0.000483   0.013738  -0.081109  -0.012297   0.000407  -0.000026
    16  C    0.001073  -0.004226   0.004791  -0.000879  -0.000108  -0.000004
    17  C    0.008070  -0.007112  -0.350611  -0.026237  -0.001716   0.000349
    18  H    0.000076   0.000314  -0.000615  -0.000305  -0.000018   0.000002
    19  H   -0.000091   0.001598  -0.008442   0.000134   0.000065  -0.000028
    20  H    0.054063   0.012407  -0.047541   0.128852   0.026256  -0.010401
    21  H   -0.005573   0.044461  -0.004599   0.279635   0.015769  -0.003441
    22  H   -0.046235   0.021307   0.090897   0.204586  -0.026784   0.002177
               7          8          9         10         11         12
     1  C   -0.486106   0.028651   0.524706   0.004663   0.072795  -0.122026
     2  C   -0.026726   0.145571  -0.838427  -0.003343   0.034653  -0.071680
     3  C   -0.390927  -0.082319  -1.872131  -0.459440  -0.319523   0.745920
     4  C    0.127571   0.032141   0.058830   0.004666  -0.133563   0.323948
     5  C    0.276696   0.142220   0.075557   0.001984  -0.005436   0.002766
     6  H   -0.021311  -0.068174  -0.035701  -0.002881   0.000651  -0.004136
     7  S   16.258586  -0.116069  -0.009004   0.145526   0.017555   0.012877
     8  H   -0.116069   1.274219   0.007660   0.006053   0.002431   0.000020
     9  C   -0.009004   0.007660  12.602950   0.241744  -0.400944  -0.039756
    10  S    0.145526   0.006053   0.241744  16.666706   0.291494  -0.606525
    11  C    0.017555   0.002431  -0.400944   0.291494  11.501120  -1.390090
    12  C    0.012877   0.000020  -0.039756  -0.606525  -1.390090  14.021787
    13  C   -0.268782  -0.009599  -3.995723  -0.602580  -0.719689  -4.544795
    14  H   -0.001908  -0.000476   0.386243   0.009759  -0.092550   0.591689
    15  S    0.000432  -0.000003  -0.403017   0.131058   0.074883  -0.661300
    16  C   -0.001955   0.000030   0.086634  -0.118642  -0.135616  -1.063392
    17  C    0.015380  -0.000218  -0.567085  -0.203185  -2.851564  -0.815993
    18  H   -0.000120   0.000001   0.003658   0.013452   0.107907  -0.077058
    19  H    0.001206   0.000021   0.102201   0.033455   0.631611   0.028016
    20  H   -0.000751   0.001555   0.077604   0.004246  -0.001136   0.015591
    21  H    0.007430   0.001603  -0.022546   0.000407  -0.003674  -0.006317
    22  H    0.001464   0.000032  -0.062718  -0.003017  -0.005558   0.011704
              13         14         15         16         17         18
     1  C   -0.196393   0.039077  -0.000483   0.001073   0.008070   0.000076
     2  C   -0.332175  -0.085095   0.013738  -0.004226  -0.007112   0.000314
     3  C   -0.481356   0.085742  -0.081109   0.004791  -0.350611  -0.000615
     4  C   -0.555361   0.098467  -0.012297  -0.000879  -0.026237  -0.000305
     5  C   -0.021392  -0.007820   0.000407  -0.000108  -0.001716  -0.000018
     6  H    0.021109   0.001421  -0.000026  -0.000004   0.000349   0.000002
     7  S   -0.268782  -0.001908   0.000432  -0.001955   0.015380  -0.000120
     8  H   -0.009599  -0.000476  -0.000003   0.000030  -0.000218   0.000001
     9  C   -3.995723   0.386243  -0.403017   0.086634  -0.567085   0.003658
    10  S   -0.602580   0.009759   0.131058  -0.118642  -0.203185   0.013452
    11  C   -0.719689  -0.092550   0.074883  -0.135616  -2.851564   0.107907
    12  C   -4.544795   0.591689  -0.661300  -1.063392  -0.815993  -0.077058
    13  C   18.101749  -1.331478   0.302468  -0.058989   0.243378   0.028428
    14  H   -1.331478   1.898953  -0.029449   0.015992  -0.040337   0.002368
    15  S    0.302468  -0.029449  16.084383   0.203968  -0.038846  -0.151414
    16  C   -0.058989   0.015992   0.203968   6.922761   0.170936   0.180970
    17  C    0.243378  -0.040337  -0.038846   0.170936  10.545851   0.038083
    18  H    0.028428   0.002368  -0.151414   0.180970   0.038083   1.307858
    19  H   -0.063286  -0.001350  -0.001640  -0.110673  -0.644377  -0.069769
    20  H   -0.076418   0.014703   0.000072   0.000290  -0.000312   0.000007
    21  H    0.019699  -0.036004  -0.003103  -0.000539  -0.001231  -0.000041
    22  H    0.085109  -0.003468  -0.000245  -0.000607  -0.006994   0.000018
              19         20         21         22
     1  C   -0.000091   0.054063  -0.005573  -0.046235
     2  C    0.001598   0.012407   0.044461   0.021307
     3  C   -0.008442  -0.047541  -0.004599   0.090897
     4  C    0.000134   0.128852   0.279635   0.204586
     5  C    0.000065   0.026256   0.015769  -0.026784
     6  H   -0.000028  -0.010401  -0.003441   0.002177
     7  S    0.001206  -0.000751   0.007430   0.001464
     8  H    0.000021   0.001555   0.001603   0.000032
     9  C    0.102201   0.077604  -0.022546  -0.062718
    10  S    0.033455   0.004246   0.000407  -0.003017
    11  C    0.631611  -0.001136  -0.003674  -0.005558
    12  C    0.028016   0.015591  -0.006317   0.011704
    13  C   -0.063286  -0.076418   0.019699   0.085109
    14  H   -0.001350   0.014703  -0.036004  -0.003468
    15  S   -0.001640   0.000072  -0.003103  -0.000245
    16  C   -0.110673   0.000290  -0.000539  -0.000607
    17  C   -0.644377  -0.000312  -0.001231  -0.006994
    18  H   -0.069769   0.000007  -0.000041   0.000018
    19  H    1.429901   0.000078   0.000026   0.000097
    20  H    0.000078   1.331739  -0.163736  -0.201190
    21  H    0.000026  -0.163736   0.821325  -0.096443
    22  H    0.000097  -0.201190  -0.096443   0.968058
 Mulliken charges:
               1
     1  C    0.500463
     2  C   -0.598575
     3  C    0.479959
     4  C    0.497243
     5  C   -0.278351
     6  H   -0.492238
     7  S    0.458938
     8  H   -0.365350
     9  C    0.079264
    10  S    0.444401
    11  C   -0.675755
    12  C   -0.351251
    13  C    0.456079
    14  H   -0.514480
    15  S    0.571524
    16  C   -0.091815
    17  C    0.533772
    18  H   -0.383800
    19  H   -0.328752
    20  H   -0.165978
    21  H    0.156892
    22  H    0.067810
 Sum of Mulliken charges =  -0.00000
 Mulliken charges with hydrogens summed into heavy atoms:
               1
     1  C    0.008225
     2  C   -0.598575
     3  C    0.479959
     4  C    0.555968
     5  C   -0.643701
     7  S    0.458938
     9  C    0.079264
    10  S    0.444401
    11  C   -0.675755
    12  C   -0.351251
    13  C   -0.058401
    15  S    0.571524
    16  C   -0.475616
    17  C    0.205020
 Electronic spatial extent (au):  <R**2>=           4346.4775
 Charge=             -0.0000 electrons
 Dipole moment (field-independent basis, Debye):
    X=             -0.4274    Y=              1.1282    Z=              0.2289  Tot=              1.2280
 Quadrupole moment (field-independent basis, Debye-Ang):
   XX=            -86.6467   YY=            -99.4110   ZZ=           -110.5009
   XY=             -6.9498   XZ=              1.1129   YZ=             -0.5834
 Traceless Quadrupole moment (field-independent basis, Debye-Ang):
   XX=             12.2062   YY=             -0.5581   ZZ=            -11.6481
   XY=             -6.9498   XZ=              1.1129   YZ=             -0.5834
 Octapole moment (field-independent basis, Debye-Ang**2):
  XXX=             -2.1974  YYY=              4.7399  ZZZ=              1.3770  XYY=             -5.3828
  XXY=            -17.6574  XXZ=              0.6845  XZZ=             -1.7558  YZZ=              2.1606
  YYZ=              1.4516  XYZ=            -11.1995
 Hexadecapole moment (field-independent basis, Debye-Ang**3):
 XXXX=          -4127.4677 YYYY=          -1073.1005 ZZZZ=           -246.8241 XXXY=            -41.9828
 XXXZ=             35.8556 YYYX=            -39.3176 YYYZ=            -10.8927 ZZZX=             -4.8759
 ZZZY=              3.3767 XXYY=           -933.8803 XXZZ=           -919.2377 YYZZ=           -223.6189
 XXYZ=             11.3392 YYXZ=              7.0008 ZZXY=             -2.1948
 N-N= 1.125270820138D+03 E-N=-6.070643954470D+03  KE= 1.613744876665D+03
 Calling FoFJK, ICntrl=  10002127 FMM=F ISym2X=0 I1Cent= 0 IOpClX= 0 NMat=1 NMatS=1 NMatT=0.
 ***** Axes restored to original set *****
 -------------------------------------------------------------------
 Center     Atomic                   Forces (Hartrees/Bohr)
 Number     Number              X              Y              Z
 -------------------------------------------------------------------
      1        6           0.015915343    0.032299894    0.009760165
      2        6          -0.027458273    0.028925610    0.007985823
      3        6           0.027589052   -0.026438313   -0.007433845
      4        6          -0.001381156   -0.005624525   -0.002512098
      5        6          -0.002058325   -0.029812950   -0.008221017
      6        1          -0.007256255    0.006552105    0.001323255
      7       16           0.004367731   -0.007443273   -0.001646554
      8        1          -0.007904415   -0.005842404   -0.001952423
      9        6          -0.029431239   -0.024380295    0.006937551
     10       16          -0.004159405   -0.008120545    0.004306244
     11        6           0.008036134   -0.040448596    0.012290371
     12        6          -0.008546147    0.040434413   -0.012492788
     13        6           0.028366287    0.021597186   -0.006503952
     14        1          -0.003553234    0.009408319   -0.003467036
     15       16           0.002607001    0.007709953   -0.002463409
     16        6           0.015060205    0.023448478   -0.007978313
     17        6          -0.028092772   -0.020116765    0.007284141
     18        1           0.010128164    0.000631662   -0.000469207
     19        1           0.003048814   -0.009217702    0.002861278
     20        1          -0.005474742    0.002798305    0.004095320
     21        1           0.001720777    0.004534266   -0.006114896
     22        1           0.008476455   -0.000894824    0.004411388
 -------------------------------------------------------------------
 Cartesian Forces:  Max     0.040448596 RMS     0.015157122

 GradGradGradGradGradGradGradGradGradGradGradGradGradGradGradGradGradGrad
 Berny optimization.
 FormGI is forming the generalized inverse of G from B-inverse, IUseBI=4.
 Internal  Forces:  Max     0.043762254 RMS     0.008862449
 Search for a local minimum.
 Step number   1 out of a maximum of  127
 All quantities printed in internal units (Hartrees-Bohrs-Radians)
 Mixed Optimization -- RFO/linear search
 Second derivative matrix not updated -- first step.
 ITU=  0
     Eigenvalues ---    0.00667   0.01375   0.01473   0.01577   0.01629
     Eigenvalues ---    0.01693   0.01762   0.01871   0.01984   0.02047
     Eigenvalues ---    0.02067   0.02134   0.02252   0.02272   0.02379
     Eigenvalues ---    0.02428   0.07081   0.07291   0.15985   0.15998
     Eigenvalues ---    0.16000   0.16000   0.16000   0.16000   0.16000
     Eigenvalues ---    0.16000   0.22518   0.22567   0.23644   0.24750
     Eigenvalues ---    0.24783   0.24946   0.24968   0.24988   0.24996
     Eigenvalues ---    0.28875   0.29923   0.30335   0.30955   0.31215
     Eigenvalues ---    0.31608   0.32386   0.34600   0.34807   0.35101
     Eigenvalues ---    0.35915   0.36019   0.36281   0.36337   0.36347
     Eigenvalues ---    0.36361   0.38550   0.39213   0.39667   0.45978
     Eigenvalues ---    0.49756   0.52017   0.53618   0.540241000.00000
     Eigenvalues --- 1000.000001000.000001000.000001000.000001000.00000
     Eigenvalues --- 1000.000001000.000001000.000001000.000001000.00000
     Eigenvalues --- 1000.000001000.000001000.000001000.000001000.00000
     Eigenvalues --- 1000.000001000.000001000.000001000.000001000.00000
     Eigenvalues --- 1000.000001000.000001000.000001000.000001000.00000
     Eigenvalues --- 1000.000001000.000001000.000001000.000001000.00000
     Eigenvalues --- 1000.000001000.000001000.000001000.000001000.00000
     Eigenvalues --- 1000.000001000.000001000.000001000.000001000.00000
     Eigenvalues --- 1000.000001000.000001000.000001000.000001000.00000
     Eigenvalues --- 1000.000001000.000001000.000001000.000001000.00000
     Eigenvalues --- 1000.000001000.000001000.000001000.000001000.00000
     Eigenvalues --- 1000.000001000.00000
 RFO step:  Lambda=-1.78264419D-02 EMin= 6.67361025D-03
 Linear search not attempted -- first point.
 Iteration  1 RMS(Cart)=  0.02585978 RMS(Int)=  0.00021397
 Iteration  2 RMS(Cart)=  0.00042437 RMS(Int)=  0.00004538
 Iteration  3 RMS(Cart)=  0.00000009 RMS(Int)=  0.00004538
 Iteration  1 RMS(Cart)=  0.00000883 RMS(Int)=  0.00000330
 Iteration  2 RMS(Cart)=  0.00000486 RMS(Int)=  0.00000369
 Iteration  3 RMS(Cart)=  0.00000267 RMS(Int)=  0.00000417
 Iteration  4 RMS(Cart)=  0.00000147 RMS(Int)=  0.00000449
 Iteration  5 RMS(Cart)=  0.00000081 RMS(Int)=  0.00000468
 Variable       Old X    -DE/DX   Delta X   Delta X   Delta X     New X
                                 (Linear)    (Quad)   (Total)
    R1        2.72184  -0.00420   0.00000  -0.00794  -0.00788   2.71396
    R2        2.54631   0.04110   0.00000   0.07285   0.07287   2.61918
    R3        2.04051   0.00987   0.00000   0.02610   0.02610   2.06661
    R4        2.57152   0.03590   0.00000   0.06586   0.06588   2.63740
    R5        2.84867   0.00165   0.00000   0.00493   0.00493   2.85360
    R6        3.30589   0.00394   0.00000   0.00939   0.00935   3.31525
    R7        2.77515  -0.00656   0.00000  -0.01740  -0.01740   2.75776
    R8        2.05990   0.00738   0.00000   0.02017   0.02017   2.08007
    R9        2.06330   0.00778   0.00000   0.02138   0.02138   2.08468
   R10        2.05512   0.00955   0.00000   0.02588   0.02588   2.08100
   R11        3.25771   0.00695   0.00000   0.01871   0.01867   3.27638
   R12        2.03542   0.00991   0.00000   0.02600   0.02600   2.06141
   R13        3.33024   0.00635   0.00000   0.01718   0.01712   3.34735
   R14        2.56149   0.03883   0.00000   0.06992   0.06994   2.63143
   R15        3.28060   0.00603   0.00000   0.01640   0.01635   3.29695
   R16        2.57561   0.04376   0.00000   0.08357   0.08364   2.65925
   R17        2.71121  -0.00243   0.00000  -0.00330  -0.00324   2.70798
   R18        2.70442  -0.00307   0.00000  -0.00472  -0.00464   2.69978
   R19        3.28467   0.00525   0.00000   0.01420   0.01417   3.29884
   R20        2.03521   0.01062   0.00000   0.02783   0.02783   2.06304
   R21        3.29654   0.00680   0.00000   0.01772   0.01766   3.31420
   R22        2.54935   0.03911   0.00000   0.06872   0.06873   2.61808
   R23        2.03558   0.01009   0.00000   0.02648   0.02648   2.06206
   R24        2.03645   0.01012   0.00000   0.02659   0.02659   2.06303
    A1        1.98383  -0.00320   0.00000  -0.00670  -0.00662   1.97721
    A2        2.14607   0.00148   0.00000   0.00264   0.00260   2.14867
    A3        2.15319   0.00172   0.00000   0.00404   0.00400   2.15719
    A4        1.95291  -0.00293   0.00000  -0.00716  -0.00708   1.94583
    A5        2.12281   0.00637   0.00000   0.02194   0.02190   2.14471
    A6        2.20712  -0.00344   0.00000  -0.01472  -0.01476   2.19236
    A7        1.94202   0.00370   0.00000   0.01129   0.01128   1.95330
    A8        2.24837  -0.00337   0.00000  -0.01123  -0.01124   2.23713
    A9        2.09101  -0.00029   0.00000   0.00033   0.00033   2.09134
   A10        1.92012  -0.00008   0.00000   0.00095   0.00094   1.92106
   A11        1.94270   0.00020   0.00000   0.00065   0.00064   1.94334
   A12        1.94700  -0.00111   0.00000  -0.00719  -0.00719   1.93981
   A13        1.87491   0.00036   0.00000   0.00384   0.00384   1.87875
   A14        1.88757   0.00079   0.00000   0.00527   0.00527   1.89284
   A15        1.88916  -0.00009   0.00000  -0.00302  -0.00304   1.88612
   A16        1.94832   0.00094   0.00000   0.00560   0.00559   1.95391
   A17        2.23277   0.00102   0.00000   0.00558   0.00558   2.23835
   A18        2.10209  -0.00196   0.00000  -0.01118  -0.01117   2.09092
   A19        1.59760   0.00148   0.00000  -0.00307  -0.00322   1.59438
   A20        2.09780  -0.00274   0.00000  -0.00932  -0.00933   2.08847
   A21        2.23349  -0.00176   0.00000  -0.00570  -0.00571   2.22778
   A22        1.95079   0.00454   0.00000   0.01556   0.01552   1.96631
   A23        1.58959   0.00108   0.00000  -0.00427  -0.00446   1.58513
   A24        1.93699   0.00201   0.00000   0.00631   0.00627   1.94326
   A25        2.35433   0.00148   0.00000   0.00045   0.00039   2.35472
   A26        1.99186  -0.00349   0.00000  -0.00677  -0.00667   1.98519
   A27        1.99373  -0.00317   0.00000  -0.00511  -0.00499   1.98874
   A28        1.93821   0.00157   0.00000   0.00423   0.00419   1.94240
   A29        2.35116   0.00160   0.00000   0.00087   0.00080   2.35195
   A30        1.95353  -0.00446   0.00000  -0.01243  -0.01232   1.94122
   A31        2.15753   0.00153   0.00000   0.00227   0.00221   2.15974
   A32        2.17151   0.00293   0.00000   0.01008   0.01002   2.18153
   A33        1.58087   0.00239   0.00000   0.00042   0.00028   1.58115
   A34        1.97678   0.00253   0.00000   0.00876   0.00875   1.98553
   A35        2.08600  -0.00243   0.00000  -0.01095  -0.01095   2.07505
   A36        2.22040  -0.00010   0.00000   0.00219   0.00220   2.22260
   A37        1.93705  -0.00300   0.00000  -0.00664  -0.00655   1.93050
   A38        2.18305   0.00167   0.00000   0.00431   0.00427   2.18732
   A39        2.16308   0.00132   0.00000   0.00233   0.00228   2.16537
    D1       -0.00168   0.00016   0.00000   0.00087   0.00087  -0.00081
    D2       -3.11652   0.00013   0.00000  -0.00133  -0.00136  -3.11788
    D3        3.12533   0.00004   0.00000  -0.00049  -0.00048   3.12485
    D4        0.01049   0.00001   0.00000  -0.00268  -0.00271   0.00779
    D5       -0.00813  -0.00002   0.00000  -0.00241  -0.00241  -0.01054
    D6        3.12763  -0.00014   0.00000  -0.00225  -0.00225   3.12537
    D7       -3.13508   0.00010   0.00000  -0.00103  -0.00104  -3.13612
    D8        0.00068  -0.00002   0.00000  -0.00088  -0.00088  -0.00020
    D9        0.01053  -0.00017   0.00000   0.00115   0.00113   0.01167
   D10        3.08681   0.00066   0.00000   0.00841   0.00842   3.09523
   D11        3.12380   0.00004   0.00000   0.00417   0.00412   3.12792
   D12       -0.08311   0.00088   0.00000   0.01143   0.01141  -0.07170
   D13        0.53503   0.00011   0.00000   0.00146   0.00147   0.53650
   D14       -1.54118  -0.00041   0.00000  -0.00435  -0.00434  -1.54551
   D15        2.62982   0.00034   0.00000   0.00405   0.00404   2.63386
   D16       -2.57570   0.00004   0.00000  -0.00132  -0.00132  -2.57702
   D17        1.63128  -0.00048   0.00000  -0.00713  -0.00713   1.62415
   D18       -0.48091   0.00026   0.00000   0.00126   0.00125  -0.47966
   D19       -0.01284   0.00011   0.00000  -0.00213  -0.00212  -0.01497
   D20       -3.09580  -0.00049   0.00000  -0.00811  -0.00818  -3.10398
   D21        2.61896  -0.00157   0.00000   0.00000   0.00000   2.61896
   D22       -0.57745  -0.00037   0.00000   0.01397   0.01392  -0.56354
   D23       -0.59279  -0.00056   0.00000   0.00809   0.00809  -0.58470
   D24        2.49398   0.00064   0.00000   0.02206   0.02201   2.51599
   D25        0.01187  -0.00004   0.00000   0.00259   0.00257   0.01444
   D26       -3.12439   0.00006   0.00000   0.00238   0.00237  -3.12201
   D27        3.10114   0.00039   0.00000   0.00361   0.00363   3.10477
   D28        0.00608  -0.00048   0.00000  -0.00775  -0.00780  -0.00172
   D29       -3.10441  -0.00052   0.00000  -0.00530  -0.00536  -3.10977
   D30        0.00100  -0.00066   0.00000  -0.00760  -0.00763  -0.00663
   D31       -0.01384   0.00042   0.00000   0.00710   0.00714  -0.00670
   D32        3.09157   0.00028   0.00000   0.00480   0.00486   3.09644
   D33        0.00370   0.00028   0.00000   0.00608   0.00609   0.00979
   D34       -3.13984   0.00007   0.00000   0.00221   0.00222  -3.13762
   D35       -0.01235  -0.00016   0.00000  -0.00341  -0.00339  -0.01575
   D36        3.14101  -0.00021   0.00000  -0.00306  -0.00303   3.13798
   D37        3.13075   0.00000   0.00000  -0.00042  -0.00041   3.13034
   D38        0.00093  -0.00005   0.00000  -0.00006  -0.00004   0.00089
   D39       -3.14016   0.00020   0.00000   0.00276   0.00275  -3.13740
   D40        0.00148   0.00018   0.00000   0.00317   0.00317   0.00464
   D41       -0.00055  -0.00002   0.00000  -0.00118  -0.00117  -0.00173
   D42        3.14108  -0.00004   0.00000  -0.00077  -0.00076   3.14032
   D43        0.01724  -0.00033   0.00000  -0.00280  -0.00278   0.01447
   D44       -3.08783  -0.00015   0.00000  -0.00028  -0.00027  -3.08810
   D45       -3.13981  -0.00028   0.00000  -0.00326  -0.00324   3.14013
   D46        0.03830  -0.00010   0.00000  -0.00074  -0.00073   0.03757
   D47       -0.00081   0.00008   0.00000   0.00094   0.00093   0.00012
   D48       -3.12729   0.00006   0.00000   0.00144   0.00144  -3.12585
   D49        0.00051  -0.00009   0.00000  -0.00166  -0.00165  -0.00114
   D50        3.14137  -0.00001   0.00000  -0.00015  -0.00016   3.14121
   D51       -0.00009   0.00009   0.00000   0.00190   0.00190   0.00181
   D52        3.14147   0.00011   0.00000   0.00149   0.00150  -3.14022
   D53       -3.14088  -0.00001   0.00000   0.00026   0.00026  -3.14062
   D54        0.00068   0.00001   0.00000  -0.00015  -0.00015   0.00053
         Item               Value     Threshold  Converged?
 Maximum Force            0.043757     0.000450     NO 
 RMS     Force            0.008898     0.000300     NO 
 Maximum Displacement     0.087707     0.001800     NO 
 RMS     Displacement     0.025964     0.001200     NO 
 Predicted change in Energy=-9.241542D-03
 GradGradGradGradGradGradGradGradGradGradGradGradGradGradGradGradGradGrad

                          Input orientation:                          
 ---------------------------------------------------------------------
 Center     Atomic      Atomic             Coordinates (Angstroms)
 Number     Number       Type             X           Y           Z
 ---------------------------------------------------------------------
      1          6           0       -3.973020    0.774414    0.038594
      2          6           0       -2.590194    1.112345    0.228782
      3          6           0       -1.759293    0.015086   -0.002445
      4          6           0       -2.133573    2.485869    0.659150
      5          6           0       -4.168513   -0.547856   -0.328013
      6          1           0       -4.788124    1.488635    0.185094
      7         16           0       -2.670771   -1.410098   -0.467001
      8          1           0       -5.110639   -1.063412   -0.519228
      9          6           0       -0.301319   -0.036016    0.034676
     10         16           0        0.511579   -1.540523    0.496530
     11          6           0        2.072668   -0.807172    0.233709
     12          6           0        1.946382    0.533198   -0.175812
     13          6           0        0.593953    0.976164   -0.301503
     14          1           0        0.288727    1.964078   -0.651793
     15         16           0        3.509157    1.267405   -0.432790
     16          6           0        4.306152   -0.230345    0.011466
     17          6           0        3.430646   -1.251205    0.344255
     18          1           0        5.396564   -0.270409    0.001516
     19          1           0        3.744885   -2.251922    0.646992
     20          1           0       -2.898101    2.955514    1.296743
     21          1           0       -1.971551    3.145763   -0.209906
     22          1           0       -1.191613    2.431488    1.226983
 ---------------------------------------------------------------------
                    Distance matrix (angstroms):
                    1          2          3          4          5
     1  C    0.000000
     2  C    1.436167   0.000000
     3  C    2.340695   1.395651   0.000000
     4  C    2.587998   1.510062   2.585066   0.000000
     5  C    1.386008   2.357410   2.495444   3.784041   0.000000
     6  H    1.093603   2.230336   3.373476   2.875039   2.189633
     7  S    2.592985   2.617886   1.754352   4.090887   1.733785
     8  H    2.232252   3.412635   3.558334   4.780052   1.090854
     9  C    3.760080   2.568143   1.459342   3.179154   3.917744
    10  S    5.067571   4.090281   2.797455   4.820281   4.854743
    11  C    6.252187   5.042505   3.926297   5.358879   6.271772
    12  C    5.928194   4.591256   3.745735   4.599578   6.211585
    13  C    4.584061   3.230873   2.559468   3.262125   5.000443
    14  H    4.478217   3.128746   2.900795   2.803279   5.126562
    15  S    7.513203   6.137085   5.432317   5.875150   7.890043
    16  C    8.339962   7.029199   6.070424   7.019071   8.487403
    17  C    7.681851   6.469175   5.353425   6.710098   7.661192
    18  H    9.427733   8.108759   7.161552   8.045652   9.574773
    19  H    8.312336   7.185153   5.988077   7.550038   8.153303
    20  H    2.737806   2.152351   3.410409   1.100724   4.065388
    21  H    3.113025   2.170243   3.144716   1.103163   4.299234
    22  H    3.448824   2.166234   2.769973   1.101217   4.489592
                    6          7          8          9         10
     6  H    0.000000
     7  S    3.648433   0.000000
     8  H    2.667027   2.464929   0.000000
     9  C    4.741161   2.784616   4.948931   0.000000
    10  S    6.112254   3.327576   5.733127   1.771343   0.000000
    11  C    7.234886   4.832673   7.227204   2.504019   1.744671
    12  C    6.811512   5.017897   7.243525   2.328190   2.609793
    13  C    5.428274   4.047229   6.062149   1.392493   2.641468
    14  H    5.167286   4.491975   6.191642   2.195398   3.694664
    15  S    8.323197   6.735110   8.929785   4.054277   4.211124
    16  C    9.256938   7.092122   9.468452   4.611625   4.043591
    17  C    8.664886   6.157165   8.586875   3.937015   2.937319
    18  H   10.337109   8.160901  10.549946   5.702799   5.071618
    19  H    9.328310   6.565843   9.010712   4.653702   3.314060
    20  H    2.638121   4.713919   4.934049   4.157563   5.699176
    21  H    3.291684   4.616370   5.259916   3.601835   5.350352
    22  H    3.861269   4.451435   5.533746   2.881456   4.383069
                   11         12         13         14         15
    11  C    0.000000
    12  C    1.407213   0.000000
    13  C    2.377675   1.428664   0.000000
    14  H    3.412681   2.240937   1.091715   0.000000
    15  S    2.609902   1.745670   2.932656   3.302194   0.000000
    16  C    2.317449   2.487284   3.915869   4.625485   1.753801
    17  C    1.433000   2.378572   3.664015   4.604543   2.636922
    18  H    3.374954   3.546969   4.971000   5.613354   2.473014
    19  H    2.248203   3.415921   4.609616   5.604153   3.688789
    20  H    6.324270   5.612936   4.320492   3.864661   6.847916
    21  H    5.672584   4.709232   3.361155   2.588533   5.797937
    22  H    4.704364   3.926621   2.764504   2.437146   5.119295
                   16         17         18         19         20
    16  C    0.000000
    17  C    1.385429   0.000000
    18  H    1.091194   2.223571   0.000000
    19  H    2.192188   1.091710   2.659151   0.000000
    20  H    7.981409   7.658770   8.993645   8.465744   0.000000
    21  H    7.131386   6.987429   8.124288   7.908662   1.778955
    22  H    6.228022   5.975510   7.225379   6.829329   1.786496
                   21         22
    21  H    0.000000
    22  H    1.784137   0.000000
 Stoichiometry    C11H8S3
 Framework group  C1[X(C11H8S3)]
 Deg. of freedom    60
 Full point group                 C1      NOp   1
 Largest Abelian subgroup         C1      NOp   1
 Largest concise Abelian subgroup C1      NOp   1
                         Standard orientation:                         
 ---------------------------------------------------------------------
 Center     Atomic      Atomic             Coordinates (Angstroms)
 Number     Number       Type             X           Y           Z
 ---------------------------------------------------------------------
      1          6           0       -3.965370    0.799864    0.043189
      2          6           0       -2.580397    1.130359    0.230803
      3          6           0       -1.755992    0.028075    0.000222
      4          6           0       -2.115463    2.502023    0.658193
      5          6           0       -4.168800   -0.521904   -0.320906
      6          1           0       -4.776246    1.518885    0.189666
      7         16           0       -2.676114   -1.392756   -0.460611
      8          1           0       -5.114076   -1.032493   -0.509886
      9          6           0       -0.298275   -0.031132    0.035316
     10         16           0        0.506858   -1.539393    0.498526
     11          6           0        2.071644   -0.815243    0.232208
     12          6           0        1.952270    0.525125   -0.179388
     13          6           0        0.602161    0.975450   -0.303865
     14          1           0        0.301962    1.964471   -0.655377
     15         16           0        3.518756    1.250132   -0.439867
     16          6           0        4.307997   -0.251313    0.005757
     17          6           0        3.427274   -1.266692    0.341534
     18          1           0        5.398152   -0.297502   -0.005705
     19          1           0        3.736344   -2.268645    0.645502
     20          1           0       -2.876418    2.977013    1.296101
     21          1           0       -1.951016    3.159541   -0.212207
     22          1           0       -1.172996    2.443317    1.224752
 ---------------------------------------------------------------------
 Rotational constants (GHZ):           1.2493146           0.2792198           0.2358610
 Standard basis: Aug-CC-pVDZ (5D, 7F)
 There are   434 symmetry adapted cartesian basis functions of A   symmetry.
 There are   406 symmetry adapted basis functions of A   symmetry.
   406 basis functions,   804 primitive gaussians,   434 cartesian basis functions
    61 alpha electrons       61 beta electrons
       nuclear repulsion energy      1117.7885257907 Hartrees.
 NAtoms=   22 NActive=   22 NUniq=   22 SFac= 1.00D+00 NAtFMM=   60 NAOKFM=F Big=F
 Integral buffers will be    131072 words long.
 Raffenetti 1 integral format.
 Two-electron integral symmetry is turned on.
 One-electron integrals computed using PRISM.
 NBasis=   406 RedAO= T EigKep=  3.37D-06  NBF=   406
 NBsUse=   406 1.00D-06 EigRej= -1.00D+00 NBFU=   406
 Initial guess from the checkpoint file:  "/tmp/pbs.4766302[325].pbs/Gau-2546333.chk"
 B after Tr=    -0.000000    0.000000   -0.000000
         Rot=    0.999998   -0.001092    0.000040    0.001930 Ang=  -0.25 deg.
 ExpMin= 2.97D-02 ExpMax= 1.11D+05 ExpMxC= 1.07D+03 IAcc=3 IRadAn=         5 AccDes= 0.00D+00
 Harris functional with IExCor=  205 and IRadAn=       5 diagonalized for initial guess.
 HarFok:  IExCor=  205 AccDes= 0.00D+00 IRadAn=         5 IDoV= 1 UseB2=F ITyADJ=14
 ICtDFT=  3500011 ScaDFX=  1.000000  1.000000  1.000000  1.000000
 FoFCou: FMM=F IPFlag=           0 FMFlag=      100000 FMFlg1=           0
         NFxFlg=           0 DoJE=T BraDBF=F KetDBF=T FulRan=T
         wScrn=  0.000000 ICntrl=       500 IOpCl=  0 I1Cent=   200000004 NGrid=           0
         NMat0=    1 NMatS0=      1 NMatT0=    0 NMatD0=    1 NMtDS0=    0 NMtDT0=    0
 Petite list used in FoFCou.
 Requested convergence on RMS density matrix=1.00D-08 within 128 cycles.
 Requested convergence on MAX density matrix=1.00D-06.
 Requested convergence on             energy=1.00D-06.
 No special actions if energy rises.
 SCF Done:  E(RHF) =  -1613.80465521     A.U. after   15 cycles
            NFock= 15  Conv=0.72D-08     -V/T= 2.0005
 ExpMin= 2.97D-02 ExpMax= 1.11D+05 ExpMxC= 1.07D+03 IAcc=3 IRadAn=         5 AccDes= 0.00D+00
 HarFok:  IExCor=  205 AccDes= 0.00D+00 IRadAn=         5 IDoV=-2 UseB2=F ITyADJ=14
 ICtDFT= 12500011 ScaDFX=  1.000000  1.000000  1.000000  1.000000
 GSVD:  LWork=        -884 too small for GESVD, short by        3770 words or        3770 for optimal perf.
 Range of M.O.s used for correlation:    27   406
 NBasis=   406 NAE=    61 NBE=    61 NFC=    26 NFV=     0
 NROrb=    380 NOA=    35 NOB=    35 NVA=   345 NVB=   345

 **** Warning!!: The largest alpha MO coefficient is  0.79196573D+02

 Disk-based method using ON**2 memory for 35 occupieds at a time.
 Estimated scratch disk usage=  5834380020 words.
 Actual    scratch disk usage=  4757937908 words.
 JobTyp=1 Pass  1:  I=  27 to  61 NPSUse= 16 ParTrn=T ParDer=T DoDerP=T.
 (rs|ai) integrals will be sorted in core.
 Spin components of T(2) and E(2):
     alpha-alpha T2 =       0.1169835224D+00 E2=     -0.2675267784D+00
     alpha-beta  T2 =       0.5755558371D+00 E2=     -0.1412037178D+01
     beta-beta   T2 =       0.1169835224D+00 E2=     -0.2675267784D+00
 ANorm=    0.1345185073D+01
 E2 =    -0.1947090735D+01 EUMP2 =    -0.16157517459412D+04
          IDoAtm=1111111111111111111111
          Differentiating once with respect to electric field.
                with respect to dipole field.
          Differentiating once with respect to nuclear coordinates.
 Keep R1 ints in memory in canonical form, NReq=3454318301.
          There are     1 degrees of freedom in the 1st order CPHF.  IDoFFX=0 NUNeed=     1.
 LinEq1:  Iter=  0 NonCon=     1 RMS=2.73D-03 Max=7.45D-02 NDo=     1
 AX will form     1 AO Fock derivatives at one time.
 LinEq1:  Iter=  1 NonCon=     1 RMS=6.25D-04 Max=1.11D-02 NDo=     1
 LinEq1:  Iter=  2 NonCon=     1 RMS=3.53D-04 Max=1.64D-02 NDo=     1
 LinEq1:  Iter=  3 NonCon=     1 RMS=1.05D-04 Max=2.28D-03 NDo=     1
 LinEq1:  Iter=  4 NonCon=     1 RMS=4.38D-05 Max=1.49D-03 NDo=     1
 LinEq1:  Iter=  5 NonCon=     1 RMS=1.63D-05 Max=7.40D-04 NDo=     1
 LinEq1:  Iter=  6 NonCon=     1 RMS=5.98D-06 Max=3.56D-04 NDo=     1
 LinEq1:  Iter=  7 NonCon=     1 RMS=3.13D-06 Max=1.07D-04 NDo=     1
 LinEq1:  Iter=  8 NonCon=     1 RMS=1.23D-06 Max=4.82D-05 NDo=     1
 LinEq1:  Iter=  9 NonCon=     1 RMS=5.72D-07 Max=1.98D-05 NDo=     1
 LinEq1:  Iter= 10 NonCon=     1 RMS=2.53D-07 Max=9.23D-06 NDo=     1
 LinEq1:  Iter= 11 NonCon=     1 RMS=1.15D-07 Max=3.53D-06 NDo=     1
 LinEq1:  Iter= 12 NonCon=     1 RMS=3.79D-08 Max=6.80D-07 NDo=     1
 LinEq1:  Iter= 13 NonCon=     1 RMS=1.29D-08 Max=2.26D-07 NDo=     1
 LinEq1:  Iter= 14 NonCon=     1 RMS=4.29D-09 Max=8.75D-08 NDo=     1
 LinEq1:  Iter= 15 NonCon=     1 RMS=1.75D-09 Max=4.89D-08 NDo=     1
 LinEq1:  Iter= 16 NonCon=     1 RMS=7.66D-10 Max=2.30D-08 NDo=     1
 LinEq1:  Iter= 17 NonCon=     1 RMS=3.09D-10 Max=8.72D-09 NDo=     1
 LinEq1:  Iter= 18 NonCon=     1 RMS=1.05D-10 Max=2.45D-09 NDo=     1
 LinEq1:  Iter= 19 NonCon=     0 RMS=3.89D-11 Max=6.03D-10 NDo=     1
 Linear equations converged to 1.000D-10 1.000D-09 after    19 iterations.
 End of Minotr F.D. properties file   721 does not exist.
 End of Minotr F.D. properties file   722 does not exist.
 End of Minotr F.D. properties file   788 does not exist.
 Calling FoFJK, ICntrl=  10002127 FMM=F ISym2X=0 I1Cent= 0 IOpClX= 0 NMat=1 NMatS=1 NMatT=0.
 ***** Axes restored to original set *****
 -------------------------------------------------------------------
 Center     Atomic                   Forces (Hartrees/Bohr)
 Number     Number              X              Y              Z
 -------------------------------------------------------------------
      1        6           0.007347070    0.003452266    0.001540107
      2        6          -0.010921826    0.003873618    0.001971779
      3        6           0.008559641   -0.005362325   -0.003374895
      4        6           0.000899199   -0.001620981   -0.000347164
      5        6          -0.002625040   -0.004258352   -0.001329808
      6        1          -0.000575516   -0.000989278   -0.000275772
      7       16          -0.001031881    0.004874130    0.001561799
      8        1           0.000135743   -0.000099795    0.000058027
      9        6          -0.007887536   -0.003405569    0.000085828
     10       16           0.001296606    0.003978682   -0.000222401
     11        6           0.006320319   -0.008084826    0.002217266
     12        6          -0.005480758    0.008045463   -0.002194713
     13        6           0.008349262    0.001650885    0.000029658
     14        1          -0.001006179   -0.000953278    0.000023984
     15       16          -0.001142350   -0.004107893    0.001245538
     16        6           0.003572957    0.002502611   -0.000785377
     17        6          -0.007183734   -0.000080454    0.000204601
     18        1           0.000013330    0.000079167   -0.000025694
     19        1           0.000914702    0.000546240   -0.000237055
     20        1          -0.000176018    0.000082810   -0.000051311
     21        1           0.000403287    0.000115917   -0.000129199
     22        1           0.000218722   -0.000239036    0.000034802
 -------------------------------------------------------------------
 Cartesian Forces:  Max     0.010921826 RMS     0.003582380

 GradGradGradGradGradGradGradGradGradGradGradGradGradGradGradGradGradGrad
 Berny optimization.
 Using GEDIIS/GDIIS optimizer.
 FormGI is forming the generalized inverse of G from B-inverse, IUseBI=4.
 Internal  Forces:  Max     0.005453817 RMS     0.001457327
 Search for a local minimum.
 Step number   2 out of a maximum of  127
 All quantities printed in internal units (Hartrees-Bohrs-Radians)
 Mixed Optimization -- RFO/linear search
 Update second derivatives using D2CorX and points    1    2
 DE= -9.30D-03 DEPred=-9.24D-03 R= 1.01D+00
 TightC=F SS=  1.41D+00  RLast= 1.93D-01 DXNew= 5.0454D-01 5.7842D-01
 Trust test= 1.01D+00 RLast= 1.93D-01 DXMaxT set to 5.05D-01
 ITU=  1  0
 Use linear search instead of GDIIS.
     Eigenvalues ---    0.00667   0.01368   0.01474   0.01576   0.01627
     Eigenvalues ---    0.01695   0.01761   0.01867   0.01983   0.02054
     Eigenvalues ---    0.02072   0.02142   0.02256   0.02271   0.02382
     Eigenvalues ---    0.02433   0.07134   0.07281   0.15912   0.15990
     Eigenvalues ---    0.15999   0.16000   0.16000   0.16000   0.16000
     Eigenvalues ---    0.16028   0.22534   0.22596   0.23715   0.24372
     Eigenvalues ---    0.24764   0.24909   0.24965   0.24983   0.25248
     Eigenvalues ---    0.28924   0.29930   0.30350   0.31002   0.31341
     Eigenvalues ---    0.31613   0.32486   0.34622   0.34834   0.35137
     Eigenvalues ---    0.35702   0.36063   0.36297   0.36339   0.36349
     Eigenvalues ---    0.36825   0.38509   0.39284   0.39722   0.45423
     Eigenvalues ---    0.48771   0.51445   0.53386   0.538991000.00000
     Eigenvalues --- 1000.000001000.000001000.000001000.000001000.00000
     Eigenvalues --- 1000.000001000.000001000.000001000.000001000.00000
     Eigenvalues --- 1000.000001000.000001000.000001000.000001000.00000
     Eigenvalues --- 1000.000001000.000001000.000001000.000001000.00000
     Eigenvalues --- 1000.000001000.000001000.000001000.000001000.00000
     Eigenvalues --- 1000.000001000.000001000.000001000.000001000.00000
     Eigenvalues --- 1000.000001000.000001000.000001000.000001000.00000
     Eigenvalues --- 1000.000001000.000001000.000001000.000001000.00000
     Eigenvalues --- 1000.000001000.000001000.000001000.000001000.00000
     Eigenvalues --- 1000.000001000.000001000.000001000.000001000.00000
     Eigenvalues --- 1000.000001000.000001000.000001000.000001000.00000
     Eigenvalues --- 1000.000001000.00000
 RFO step:  Lambda=-8.10257885D-04 EMin= 6.67290314D-03
 Quartic linear search produced a step of  0.08962.
 Iteration  1 RMS(Cart)=  0.01630322 RMS(Int)=  0.00012088
 Iteration  2 RMS(Cart)=  0.00016241 RMS(Int)=  0.00001599
 Iteration  3 RMS(Cart)=  0.00000002 RMS(Int)=  0.00001599
 Iteration  1 RMS(Cart)=  0.00001075 RMS(Int)=  0.00000401
 Iteration  2 RMS(Cart)=  0.00000590 RMS(Int)=  0.00000448
 Iteration  3 RMS(Cart)=  0.00000324 RMS(Int)=  0.00000506
 Iteration  4 RMS(Cart)=  0.00000178 RMS(Int)=  0.00000545
 Iteration  5 RMS(Cart)=  0.00000097 RMS(Int)=  0.00000568
 Variable       Old X    -DE/DX   Delta X   Delta X   Delta X     New X
                                 (Linear)    (Quad)   (Total)
    R1        2.71396  -0.00402  -0.00071  -0.01069  -0.01141   2.70256
    R2        2.61918   0.00280   0.00653   0.00241   0.00893   2.62810
    R3        2.06661  -0.00025   0.00234  -0.00177   0.00057   2.06718
    R4        2.63740   0.00545   0.00590   0.00869   0.01460   2.65199
    R5        2.85360  -0.00124   0.00044  -0.00446  -0.00402   2.84958
    R6        3.31525  -0.00215   0.00084  -0.00793  -0.00708   3.30816
[...]
 ---------------------------------------------------------------------
 Rotational constants (GHZ):           1.2614428           0.2792777           0.2352538

 **********************************************************************

            Population analysis using the SCF Density.

 **********************************************************************

 Orbital symmetries:
       Occupied  (A) (A) (A) (A) (A) (A) (A) (A) (A) (A) (A) (A)
                 (A) (A) (A) (A) (A) (A) (A) (A) (A) (A) (A) (A)
                 (A) (A) (A) (A) (A) (A) (A) (A) (A) (A) (A) (A)
                 (A) (A) (A) (A) (A) (A) (A) (A) (A) (A) (A) (A)
                 (A) (A) (A) (A) (A) (A) (A) (A) (A) (A) (A) (A)
                 (A)
       Virtual   (A) (A) (A) (A) (A) (A) (A) (A) (A) (A) (A) (A)
                 (A) (A) (A) (A) (A) (A) (A) (A) (A) (A) (A) (A)
                 (A) (A) (A) (A) (A) (A) (A) (A) (A) (A) (A) (A)
                 (A) (A) (A) (A) (A) (A) (A) (A) (A) (A) (A) (A)
                 (A) (A) (A) (A) (A) (A) (A) (A) (A) (A) (A) (A)
                 (A) (A) (A) (A) (A) (A) (A) (A) (A) (A) (A) (A)
                 (A) (A) (A) (A) (A) (A) (A) (A) (A) (A) (A) (A)
                 (A) (A) (A) (A) (A) (A) (A) (A) (A) (A) (A) (A)
                 (A) (A) (A) (A) (A) (A) (A) (A) (A) (A) (A) (A)
                 (A) (A) (A) (A) (A) (A) (A) (A) (A) (A) (A) (A)
                 (A) (A) (A) (A) (A) (A) (A) (A) (A) (A) (A) (A)
                 (A) (A) (A) (A) (A) (A) (A) (A) (A) (A) (A) (A)
                 (A) (A) (A) (A) (A) (A) (A) (A) (A) (A) (A) (A)
                 (A) (A) (A) (A) (A) (A) (A) (A) (A) (A) (A) (A)
                 (A) (A) (A) (A) (A) (A) (A) (A) (A) (A) (A) (A)
                 (A) (A) (A) (A) (A) (A) (A) (A) (A) (A) (A) (A)
                 (A) (A) (A) (A) (A) (A) (A) (A) (A) (A) (A) (A)
                 (A) (A) (A) (A) (A) (A) (A) (A) (A) (A) (A) (A)
                 (A) (A) (A) (A) (A) (A) (A) (A) (A) (A) (A) (A)
                 (A) (A) (A) (A) (A) (A) (A) (A) (A) (A) (A) (A)
                 (A) (A) (A) (A) (A) (A) (A) (A) (A) (A) (A) (A)
                 (A) (A) (A) (A) (A) (A) (A) (A) (A) (A) (A) (A)
                 (A) (A) (A) (A) (A) (A) (A) (A) (A) (A) (A) (A)
                 (A) (A) (A) (A) (A) (A) (A) (A) (A) (A) (A) (A)
                 (A) (A) (A) (A) (A) (A) (A) (A) (A) (A) (A) (A)
                 (A) (A) (A) (A) (A) (A) (A) (A) (A) (A) (A) (A)
                 (A) (A) (A) (A) (A) (A) (A) (A) (A) (A) (A) (A)
                 (A) (A) (A) (A) (A) (A) (A) (A) (A) (A) (A) (A)
                 (A) (A) (A) (A) (A) (A) (A) (A) (A)
 The electronic state is 1-A.
 Alpha  occ. eigenvalues --  -91.99511 -91.99423 -91.99100 -11.29700 -11.28446
 Alpha  occ. eigenvalues --  -11.28324 -11.28094 -11.27984 -11.27946 -11.26556
 Alpha  occ. eigenvalues --  -11.26442 -11.26224 -11.25282 -11.24497  -8.99621
 Alpha  occ. eigenvalues --   -8.99537  -8.99272  -6.67787  -6.67707  -6.67701
 Alpha  occ. eigenvalues --   -6.67617  -6.67511  -6.67436  -6.67416  -6.67343
 Alpha  occ. eigenvalues --   -6.67163  -1.20695  -1.17826  -1.11872  -1.03907
 Alpha  occ. eigenvalues --   -1.02537  -1.01465  -0.95005  -0.94400  -0.91529
 Alpha  occ. eigenvalues --   -0.82159  -0.76809  -0.76466  -0.72410  -0.69894
 Alpha  occ. eigenvalues --   -0.66800  -0.66258  -0.60273  -0.58910  -0.58816
 Alpha  occ. eigenvalues --   -0.56478  -0.55899  -0.54566  -0.53862  -0.52436
 Alpha  occ. eigenvalues --   -0.51859  -0.51011  -0.49670  -0.47535  -0.46383
 Alpha  occ. eigenvalues --   -0.45931  -0.39318  -0.34738  -0.34234  -0.32278
 Alpha  occ. eigenvalues --   -0.26771
 Alpha virt. eigenvalues --    0.03393   0.03543   0.04006   0.04898   0.04963
 Alpha virt. eigenvalues --    0.05435   0.05700   0.06779   0.07800   0.08288
 Alpha virt. eigenvalues --    0.08724   0.09885   0.10013   0.10726   0.10847
 Alpha virt. eigenvalues --    0.11386   0.11863   0.12409   0.12571   0.13055
 Alpha virt. eigenvalues --    0.13365   0.13851   0.14134   0.14320   0.14618
 Alpha virt. eigenvalues --    0.15093   0.15241   0.15412   0.15938   0.16257
 Alpha virt. eigenvalues --    0.16712   0.17366   0.17642   0.18213   0.18617
 Alpha virt. eigenvalues --    0.18730   0.19129   0.19401   0.20075   0.20530
 Alpha virt. eigenvalues --    0.20626   0.21162   0.21336   0.21659   0.21846
 Alpha virt. eigenvalues --    0.22734   0.23157   0.23255   0.23866   0.24289
 Alpha virt. eigenvalues --    0.24758   0.25503   0.25703   0.26270   0.26412
 Alpha virt. eigenvalues --    0.26750   0.27331   0.27607   0.28201   0.28844
 Alpha virt. eigenvalues --    0.29285   0.29714   0.30515   0.30896   0.31627
 Alpha virt. eigenvalues --    0.32030   0.32640   0.32965   0.33105   0.33916
 Alpha virt. eigenvalues --    0.34373   0.34834   0.35029   0.35477   0.36625
 Alpha virt. eigenvalues --    0.36884   0.37590   0.37991   0.38914   0.39562
 Alpha virt. eigenvalues --    0.40340   0.40670   0.40836   0.41180   0.43321
 Alpha virt. eigenvalues --    0.43604   0.44007   0.44383   0.44945   0.45385
 Alpha virt. eigenvalues --    0.45683   0.46182   0.46638   0.47301   0.47683
 Alpha virt. eigenvalues --    0.48074   0.48764   0.49003   0.49517   0.51294
 Alpha virt. eigenvalues --    0.52191   0.52743   0.53599   0.54418   0.55087
 Alpha virt. eigenvalues --    0.55410   0.56432   0.56654   0.57940   0.58414
 Alpha virt. eigenvalues --    0.58794   0.59705   0.60118   0.61131   0.61189
 Alpha virt. eigenvalues --    0.61525   0.62143   0.62890   0.63837   0.64059
 Alpha virt. eigenvalues --    0.65085   0.65455   0.65748   0.66051   0.66583
 Alpha virt. eigenvalues --    0.66736   0.67276   0.67620   0.68198   0.68568
 Alpha virt. eigenvalues --    0.69181   0.70082   0.70646   0.70850   0.71222
 Alpha virt. eigenvalues --    0.72040   0.72434   0.73397   0.73861   0.74094
 Alpha virt. eigenvalues --    0.74275   0.74787   0.75272   0.75691   0.76698
 Alpha virt. eigenvalues --    0.77351   0.78056   0.78933   0.79804   0.80203
 Alpha virt. eigenvalues --    0.81005   0.81598   0.82367   0.83147   0.83876
 Alpha virt. eigenvalues --    0.84787   0.85088   0.85872   0.86980   0.87686
 Alpha virt. eigenvalues --    0.88062   0.88992   0.89103   0.89550   0.90950
 Alpha virt. eigenvalues --    0.91163   0.91776   0.92575   0.92990   0.93636
 Alpha virt. eigenvalues --    0.94479   0.95234   0.95640   0.96676   0.97124
 Alpha virt. eigenvalues --    0.97661   0.98750   0.99251   0.99684   1.00127
 Alpha virt. eigenvalues --    1.01284   1.02487   1.02753   1.04061   1.05740
 Alpha virt. eigenvalues --    1.05963   1.06621   1.07856   1.10283   1.10453
 Alpha virt. eigenvalues --    1.11017   1.12040   1.13141   1.13965   1.15264
 Alpha virt. eigenvalues --    1.15757   1.17070   1.19008   1.19481   1.21038
 Alpha virt. eigenvalues --    1.22541   1.23137   1.23506   1.24097   1.24286
 Alpha virt. eigenvalues --    1.25155   1.26495   1.27468   1.28689   1.29149
 Alpha virt. eigenvalues --    1.30638   1.31574   1.31909   1.33127   1.33671
 Alpha virt. eigenvalues --    1.34635   1.35485   1.36761   1.37545   1.38987
 Alpha virt. eigenvalues --    1.40044   1.41819   1.43831   1.44529   1.46005
 Alpha virt. eigenvalues --    1.46152   1.48650   1.50441   1.51839   1.52717
 Alpha virt. eigenvalues --    1.55632   1.56246   1.57402   1.58078   1.58793
 Alpha virt. eigenvalues --    1.61143   1.61727   1.62413   1.64515   1.66040
 Alpha virt. eigenvalues --    1.66372   1.66644   1.68049   1.69148   1.69670
 Alpha virt. eigenvalues --    1.69828   1.70687   1.71769   1.72618   1.73280
 Alpha virt. eigenvalues --    1.73886   1.74539   1.77593   1.78676   1.79452
 Alpha virt. eigenvalues --    1.81054   1.81263   1.81725   1.83235   1.83685
 Alpha virt. eigenvalues --    1.85912   1.86712   1.87064   1.88599   1.89132
 Alpha virt. eigenvalues --    1.90517   1.91853   1.94215   1.95187   1.96406
 Alpha virt. eigenvalues --    1.96680   1.97960   1.98470   1.99098   2.01622
 Alpha virt. eigenvalues --    2.03183   2.05118   2.07686   2.07933   2.08994
 Alpha virt. eigenvalues --    2.09735   2.10721   2.11307   2.12350   2.13444
 Alpha virt. eigenvalues --    2.14426   2.17503   2.18166   2.19023   2.19849
 Alpha virt. eigenvalues --    2.21035   2.22076   2.23664   2.25115   2.25242
 Alpha virt. eigenvalues --    2.28465   2.29768   2.30702   2.31333   2.32464
 Alpha virt. eigenvalues --    2.34653   2.36072   2.36949   2.37735   2.39205
 Alpha virt. eigenvalues --    2.40298   2.43285   2.44551   2.44893   2.45613
 Alpha virt. eigenvalues --    2.48801   2.49291   2.50804   2.51549   2.52542
 Alpha virt. eigenvalues --    2.57431   2.58042   2.59595   2.63101   2.69306
 Alpha virt. eigenvalues --    2.70556   2.72672   2.76011   2.80284   2.81355
 Alpha virt. eigenvalues --    2.83313   2.85666   2.88230   2.95089   2.96155
 Alpha virt. eigenvalues --    2.97974   3.00504   3.05829   3.08827   3.15260
 Alpha virt. eigenvalues --    3.21712   3.28621   3.33511   3.38210   3.51810
 Alpha virt. eigenvalues --    3.58150   3.69042   3.77363   4.10020   4.21556
          Condensed to atoms (all electrons):
               1          2          3          4          5          6
     1  C   10.295436  -2.571165  -0.954609  -1.047726   0.257281  -0.312271
     2  C   -2.571165  11.081968  -1.609516   0.538801   0.008089   0.241015
     3  C   -0.954609  -1.609516  13.011363  -0.603640  -1.067434   0.117590
     4  C   -1.047726   0.538801  -0.603640   5.980400   0.058722   0.056635
     5  C    0.257281   0.008089  -1.067434   0.058722   6.648101  -0.105966
     6  H   -0.312271   0.241015   0.117590   0.056635  -0.105966   1.576397
     7  S   -0.374227  -0.077820  -0.376879   0.109055   0.222174  -0.018564
     8  H   -0.039596   0.115676  -0.065119   0.029116   0.228015  -0.062012
     9  C    0.515906  -0.985961  -2.021831   0.032834   0.144317  -0.046030
    10  S    0.007041   0.002316  -0.405186   0.006503  -0.007613  -0.002731
    11  C    0.066928   0.016786  -0.178969  -0.107569  -0.003344  -0.000091
    12  C   -0.120027  -0.048806   0.587845   0.291028  -0.003483  -0.002806
    13  C   -0.183951  -0.369917  -0.532897  -0.464188  -0.030514   0.020705
    14  H    0.037282  -0.074239   0.083570   0.095313  -0.008087   0.001099
    15  S   -0.000692   0.011540  -0.076245  -0.011930   0.000400  -0.000040
    16  C    0.001106  -0.003235  -0.000196  -0.001519  -0.000143   0.000011
    17  C    0.007564  -0.003524  -0.333650  -0.020998  -0.001242   0.000233
    18  H    0.000078   0.000327  -0.000941  -0.000328  -0.000023   0.000002
    19  H   -0.000163   0.001360  -0.005578   0.000225   0.000089  -0.000030
    20  H    0.054995   0.013568  -0.023262   0.108160   0.019877  -0.010268
    21  H   -0.012358   0.025431   0.016115   0.297400   0.007975   0.001636
    22  H   -0.061411   0.021178   0.013599   0.281857  -0.015569   0.001268
               7          8          9         10         11         12
     1  C   -0.374227  -0.039596   0.515906   0.007041   0.066928  -0.120027
     2  C   -0.077820   0.115676  -0.985961   0.002316   0.016786  -0.048806
     3  C   -0.376879  -0.065119  -2.021831  -0.405186  -0.178969   0.587845
     4  C    0.109055   0.029116   0.032834   0.006503  -0.107569   0.291028
     5  C    0.222174   0.228015   0.144317  -0.007613  -0.003344  -0.003483
     6  H   -0.018564  -0.062012  -0.046030  -0.002731  -0.000091  -0.002806
     7  S   16.249559  -0.102224  -0.025446   0.140121   0.026485  -0.012697
     8  H   -0.102224   1.231756   0.002996   0.005855   0.002692  -0.000706
     9  C   -0.025446   0.002996  11.918069   0.176696  -0.406899  -0.078585
    10  S    0.140121   0.005855   0.176696  16.546698   0.216291  -0.465054
    11  C    0.026485   0.002692  -0.406899   0.216291  10.435133  -0.602447
    12  C   -0.012697  -0.000706  -0.078585  -0.465054  -0.602447  12.717639
    13  C   -0.234406  -0.006989  -3.010950  -0.519063  -0.429152  -4.332624
    14  H   -0.000271  -0.000344   0.299379   0.003741  -0.081930   0.481928
    15  S    0.000606  -0.000009  -0.375251   0.120091   0.093617  -0.607239
    16  C   -0.001737   0.000015   0.066837  -0.104306  -0.185756  -0.852792
    17  C    0.020415  -0.000147  -0.382484  -0.235858  -2.875275  -0.568776
    18  H   -0.000097   0.000000   0.003591   0.009589   0.070248  -0.055607
    19  H    0.001156   0.000023   0.090149   0.036853   0.563183   0.010343
    20  H   -0.004445   0.001323   0.056593   0.002297   0.000382   0.013069
    21  H    0.007198   0.001154  -0.035809   0.000335  -0.004572  -0.003677
    22  H    0.003930   0.000302   0.015384   0.003583  -0.008317   0.006585
              13         14         15         16         17         18
     1  C   -0.183951   0.037282  -0.000692   0.001106   0.007564   0.000078
     2  C   -0.369917  -0.074239   0.011540  -0.003235  -0.003524   0.000327
     3  C   -0.532897   0.083570  -0.076245  -0.000196  -0.333650  -0.000941
     4  C   -0.464188   0.095313  -0.011930  -0.001519  -0.020998  -0.000328
     5  C   -0.030514  -0.008087   0.000400  -0.000143  -0.001242  -0.000023
     6  H    0.020705   0.001099  -0.000040   0.000011   0.000233   0.000002
     7  S   -0.234406  -0.000271   0.000606  -0.001737   0.020415  -0.000097
     8  H   -0.006989  -0.000344  -0.000009   0.000015  -0.000147   0.000000
     9  C   -3.010950   0.299379  -0.375251   0.066837  -0.382484   0.003591
    10  S   -0.519063   0.003741   0.120091  -0.104306  -0.235858   0.009589
    11  C   -0.429152  -0.081930   0.093617  -0.185756  -2.875275   0.070248
    12  C   -4.332624   0.481928  -0.607239  -0.852792  -0.568776  -0.055607
    13  C   16.481207  -1.070256   0.254304  -0.017467   0.147394   0.028066
    14  H   -1.070256   1.814285  -0.023845   0.016021  -0.045806   0.002255
    15  S    0.254304  -0.023845  16.017333   0.198705  -0.026054  -0.142846
    16  C   -0.017467   0.016021   0.198705   6.522901   0.354166   0.271209
    17  C    0.147394  -0.045806  -0.026054   0.354166  10.005424  -0.022736
    18  H    0.028066   0.002255  -0.142846   0.271209  -0.022736   1.256593
    19  H   -0.062427  -0.001529  -0.001037  -0.127629  -0.490519  -0.061908
    20  H   -0.054195   0.017342   0.000139   0.000288  -0.000056   0.000011
    21  H    0.030975  -0.051109  -0.003761  -0.000846  -0.000517  -0.000067
    22  H    0.013386  -0.005448  -0.000268  -0.000770  -0.005866   0.000011
              19         20         21         22
     1  C   -0.000163   0.054995  -0.012358  -0.061411
     2  C    0.001360   0.013568   0.025431   0.021178
     3  C   -0.005578  -0.023262   0.016115   0.013599
     4  C    0.000225   0.108160   0.297400   0.281857
     5  C    0.000089   0.019877   0.007975  -0.015569
     6  H   -0.000030  -0.010268   0.001636   0.001268
     7  S    0.001156  -0.004445   0.007198   0.003930
     8  H    0.000023   0.001323   0.001154   0.000302
     9  C    0.090149   0.056593  -0.035809   0.015384
    10  S    0.036853   0.002297   0.000335   0.003583
    11  C    0.563183   0.000382  -0.004572  -0.008317
    12  C    0.010343   0.013069  -0.003677   0.006585
    13  C   -0.062427  -0.054195   0.030975   0.013386
    14  H   -0.001529   0.017342  -0.051109  -0.005448
    15  S   -0.001037   0.000139  -0.003761  -0.000268
    16  C   -0.127629   0.000288  -0.000846  -0.000770
    17  C   -0.490519  -0.000056  -0.000517  -0.005866
    18  H   -0.061908   0.000011  -0.000067   0.000011
    19  H    1.345631   0.000066   0.000051   0.000164
    20  H    0.000066   1.344766  -0.171453  -0.176689
    21  H    0.000051  -0.171453   0.787949  -0.082554
    22  H    0.000164  -0.176689  -0.082554   0.852415
 Mulliken charges:
               1
     1  C    0.434580
     2  C   -0.333870
     3  C    0.425871
     4  C    0.371849
     5  C   -0.351621
     6  H   -0.455781
     7  S    0.448114
     8  H   -0.341777
     9  C    0.046494
    10  S    0.461804
    11  C   -0.607426
    12  C   -0.353110
    13  C    0.342961
    14  H   -0.489351
    15  S    0.572482
    16  C   -0.134863
    17  C    0.478315
    18  H   -0.357425
    19  H   -0.298471
    20  H   -0.192508
    21  H    0.190503
    22  H    0.143230
 Sum of Mulliken charges =  -0.00000
 Mulliken charges with hydrogens summed into heavy atoms:
               1
     1  C   -0.021201
     2  C   -0.333870
     3  C    0.425871
     4  C    0.513075
     5  C   -0.693399
     7  S    0.448114
     9  C    0.046494
    10  S    0.461804
    11  C   -0.607426
    12  C   -0.353110
    13  C   -0.146390
    15  S    0.572482
    16  C   -0.492288
    17  C    0.179844
 Electronic spatial extent (au):  <R**2>=           4374.5970
 Charge=             -0.0000 electrons
 Dipole moment (field-independent basis, Debye):
    X=             -0.4279    Y=              1.0406    Z=              0.2457  Tot=              1.1517
 Quadrupole moment (field-independent basis, Debye-Ang):
   XX=            -87.4155   YY=            -98.8059   ZZ=           -111.3663
   XY=             -6.3564   XZ=              0.8154   YZ=             -0.7160
 Traceless Quadrupole moment (field-independent basis, Debye-Ang):
   XX=             11.7804   YY=              0.3900   ZZ=            -12.1704
   XY=             -6.3564   XZ=              0.8154   YZ=             -0.7160
 Octapole moment (field-independent basis, Debye-Ang**2):
  XXX=             -2.5890  YYY=              3.8861  ZZZ=              1.0280  XYY=             -5.2553
  XXY=            -17.7458  XXZ=              2.5016  XZZ=             -1.1730  YZZ=              1.9988
  YYZ=              1.6967  XYZ=            -11.3774
 Hexadecapole moment (field-independent basis, Debye-Ang**3):
 XXXX=          -4163.8003 YYYY=          -1101.0213 ZZZZ=           -233.1819 XXXY=            -32.2691
 XXXZ=             26.7523 YYYX=            -37.9842 YYYZ=            -11.3448 ZZZX=             -4.6953
 ZZZY=              2.6524 XXYY=           -938.1008 XXZZ=           -933.4926 YYZZ=           -228.0308
 XXYZ=             10.2493 YYXZ=              5.6835 ZZXY=             -0.3807
 N-N= 1.118615863344D+03 E-N=-6.056473311006D+03  KE= 1.612929407946D+03
 Unable to Open any file for archive entry.
 1\1\GINC-CX3-11-6\FOpt\RMP2-FC\Aug-CC-pVDZ\C11H8S3\NS5018\27-Oct-2021\
 0\\# opt=modredundant mp2/aug-cc-pvdz\\pBTTT_150.pdb\\0,1\C,-3.9783941
 41,0.7699814406,0.0656263302\C,-2.6029610103,1.1139072404,0.2167305398
 \C,-1.7619005356,0.0152334787,-0.0374930384\C,-2.1160768808,2.47942095
 96,0.6320409304\C,-4.1854931933,-0.5585771592,-0.2929296103\H,-4.79996
 39951,1.4726652713,0.2293559218\S,-2.6866730838,-1.4043604751,-0.46696
 12697\H,-5.1288741012,-1.0795834012,-0.4587747516\C,-0.309906209,-0.03
 4602835,-0.0001577056\S,0.5074044824,-1.5434280792,0.4309009569\C,2.07
 28886898,-0.81192582,0.2120882241\C,1.9423857608,0.5488565158,-0.16107
 62141\C,0.5977402415,0.9903673296,-0.2905025709\H,0.2857521335,1.98253
 90944,-0.6188420436\S,3.5089842467,1.2818442425,-0.3714721783\C,4.3072
 489571,-0.2202317474,0.0370527887\C,3.4232864042,-1.2528728964,0.32672
 05106\H,5.3976094607,-0.2578214964,0.0408267242\H,3.7466063238,-2.2584
 216907,0.6014812947\H,-2.9001821916,3.0080583895,1.1954186871\H,-1.855
 9215984,3.100660135,-0.2420505146\H,-1.2195597605,2.3992915033,1.26801
 69885\\Version=ES64L-G16RevC.01\State=1-A\HF=-1613.8024942\MP2=-1615.7
 524068\RMSD=5.797e-09\RMSF=2.305e-04\Dipole=-0.0714624,0.2956927,0.068
 6384\PG=C01 [X(C11H8S3)]\\@
 The archive entry for this job was punched.


 WHERE THERE IS MUCH DESIRE TO LEARN, THERE OF NECESSITY WILL BE
 MUCH ARGUING, MUCH WRITING, MANY OPINIONS; FOR OPINION IN GOOD MEN
 IS BUT KNOWLEDGE IN THE MAKING. -- JOHN MILTON.
 Job cpu time:       0 days 17 hours 26 minutes 54.0 seconds.
 Elapsed time:       0 days  1 hours 16 minutes 24.6 seconds.
 File lengths (MBytes):  RWF=  36408 Int=      0 D2E=      0 Chk=     18 Scr=      1
 Normal termination of Gaussian 16 at Wed Oct 27 07:35:55 2021.
