 Entering Gaussian System, Link 0=g16
 Input=pBTTT_140.gjf
 Output=pBTTT_140.log
 Initial command:
 /apps/gaussian/g16-c01-avx/g16/l1.exe "/tmp/pbs.4766302[315].pbs/Gau-4128199.inp" -scrdir="/tmp/pbs.4766302[315].pbs/"
 Entering Link 1 = /apps/gaussian/g16-c01-avx/g16/l1.exe PID=   4128200.
  
 Copyright (c) 1988-2019, Gaussian, Inc.  All Rights Reserved.
  
 This is part of the Gaussian(R) 16 program.  It is based on
 the Gaussian(R) 09 system (copyright 2009, Gaussian, Inc.),
 the Gaussian(R) 03 system (copyright 2003, Gaussian, Inc.),
 the Gaussian(R) 98 system (copyright 1998, Gaussian, Inc.),
 the Gaussian(R) 94 system (copyright 1995, Gaussian, Inc.),
 the Gaussian 92(TM) system (copyright 1992, Gaussian, Inc.),
 the Gaussian 90(TM) system (copyright 1990, Gaussian, Inc.),
 the Gaussian 88(TM) system (copyright 1988, Gaussian, Inc.),
 the Gaussian 86(TM) system (copyright 1986, Carnegie Mellon
 University), and the Gaussian 82(TM) system (copyright 1983,
 Carnegie Mellon University). Gaussian is a federally registered
 trademark of Gaussian, Inc.
  
 This software contains proprietary and confidential information,
 including trade secrets, belonging to Gaussian, Inc.
  
 This software is provided under written license and may be
 used, copied, transmitted, or stored only in accord with that
 written license.
  
 The following legend is applicable only to US Government
 contracts under FAR:
  
                    RESTRICTED RIGHTS LEGEND
  
 Use, reproduction and disclosure by the US Government is
 subject to restrictions as set forth in subparagraphs (a)
 and (c) of the Commercial Computer Software - Restricted
 Rights clause in FAR 52.227-19.
  
 Gaussian, Inc.
 340 Quinnipiac St., Bldg. 40, Wallingford CT 06492
  
  
 ---------------------------------------------------------------
 Warning -- This program may not be used in any manner that
 competes with the business of Gaussian, Inc. or will provide
 assistance to any competitor of Gaussian, Inc.  The licensee
 of this program is prohibited from giving any competitor of
 Gaussian, Inc. access to this program.  By using this program,
 the user acknowledges that Gaussian, Inc. is engaged in the
 business of creating and licensing software in the field of
 computational chemistry and represents and warrants to the
 licensee that it is not a competitor of Gaussian, Inc. and that
 it will not use this program in any manner prohibited above.
 ---------------------------------------------------------------
  

 Cite this work as:
 Gaussian 16, Revision C.01,
 M. J. Frisch, G. W. Trucks, H. B. Schlegel, G. E. Scuseria, 
 M. A. Robb, J. R. Cheeseman, G. Scalmani, V. Barone, 
 G. A. Petersson, H. Nakatsuji, X. Li, M. Caricato, A. V. Marenich, 
 J. Bloino, B. G. Janesko, R. Gomperts, B. Mennucci, H. P. Hratchian, 
 J. V. Ortiz, A. F. Izmaylov, J. L. Sonnenberg, D. Williams-Young, 
 F. Ding, F. Lipparini, F. Egidi, J. Goings, B. Peng, A. Petrone, 
 T. Henderson, D. Ranasinghe, V. G. Zakrzewski, J. Gao, N. Rega, 
 G. Zheng, W. Liang, M. Hada, M. Ehara, K. Toyota, R. Fukuda, 
 J. Hasegawa, M. Ishida, T. Nakajima, Y. Honda, O. Kitao, H. Nakai, 
 T. Vreven, K. Throssell, J. A. Montgomery, Jr., J. E. Peralta, 
 F. Ogliaro, M. J. Bearpark, J. J. Heyd, E. N. Brothers, K. N. Kudin, 
 V. N. Staroverov, T. A. Keith, R. Kobayashi, J. Normand, 
 K. Raghavachari, A. P. Rendell, J. C. Burant, S. S. Iyengar, 
 J. Tomasi, M. Cossi, J. M. Millam, M. Klene, C. Adamo, R. Cammi, 
 J. W. Ochterski, R. L. Martin, K. Morokuma, O. Farkas, 
 J. B. Foresman, and D. J. Fox, Gaussian, Inc., Wallingford CT, 2019.
 
 ******************************************
 Gaussian 16:  ES64L-G16RevC.01  3-Jul-2019
                27-Oct-2021 
 ******************************************
 %mem=100GB
 %nprocshared=16
 Will use up to   16 processors via shared memory.
 ----------------------------------
 # opt=modredundant mp2/aug-cc-pvdz
 ----------------------------------
 1/18=120,19=15,38=1/1,3;
 2/9=110,12=2,17=6,18=5,40=1/2;
 3/5=16,7=10,11=9,25=1,30=1,71=1/1,2,3;
 4//1;
 5/5=2,38=5/2;
 8/6=4,10=1/1;
 9/15=2,16=-3/6;
 10/5=1/2;
 6/7=2,8=2,9=2,10=2/1;
 7/12=2/1,2,3,16;
 1/18=20,19=15/3(2);
 2/9=110/2;
 99//99;
 2/9=110/2;
 3/5=16,7=10,11=9,25=1,30=1,71=1/1,2,3;
 4/5=5,16=3,69=1/1;
 5/5=2,38=5/2;
 8/6=4,10=1/1;
 9/15=2,16=-3/6;
 10/5=1/2;
 7/12=2/1,2,3,16;
 1/18=20,19=15/3(-8);
 2/9=110/2;
 6/7=2,8=2,9=2,10=2/1;
 99/9=10/99;
 -------------
 pBTTT_140.pdb
 -------------
 Symbolic Z-matrix:
 Charge =  0 Multiplicity = 1
 C                    -3.96      0.752     0.069 
 C                    -2.572     1.075     0.286 
 C                    -1.756     0.03     -0.016 
 C                    -2.145     2.418     0.818 
 C                    -4.159    -0.504    -0.379 
 H                    -4.763     1.447     0.262 
 S                    -2.67     -1.353    -0.574 
 H                    -5.095    -0.984    -0.604 
 C                    -0.289    -0.029     0.022 
 S                     0.529    -1.471     0.619 
 C                     2.08     -0.762     0.292 
 C                     1.947     0.491    -0.229 
 C                     0.588     0.914    -0.397 
 H                     0.288     1.852    -0.831 
 S                     3.498     1.202    -0.557 
 C                     4.298    -0.234     0.029 
 C                     3.442    -1.189     0.445 
 H                     5.374    -0.28      0.028 
 H                     3.751    -2.144     0.838 
 H                    -2.861     2.772     1.559 
 H                    -2.104     3.162     0.02 
 H                    -1.166     2.369     1.287 
 
 The following ModRedundant input section has been read:
 D       2       3       9      10 F                                           
 

 GradGradGradGradGradGradGradGradGradGradGradGradGradGradGradGradGradGrad
 Berny optimization.
 Initialization pass.
                           ----------------------------
                           !    Initial Parameters    !
                           ! (Angstroms and Degrees)  !
 --------------------------                            --------------------------
 ! Name  Definition              Value          Derivative Info.                !
 --------------------------------------------------------------------------------
 ! R1    R(1,2)                  1.4415         estimate D2E/DX2                !
 ! R2    R(1,5)                  1.3483         estimate D2E/DX2                !
 ! R3    R(1,6)                  1.0794         estimate D2E/DX2                !
 ! R4    R(2,3)                  1.3598         estimate D2E/DX2                !
 ! R5    R(2,4)                  1.5063         estimate D2E/DX2                !
 ! R6    R(3,7)                  1.7491         estimate D2E/DX2                !
 ! R7    R(3,9)                  1.4687         estimate D2E/DX2                !
 ! R8    R(4,20)                 1.0895         estimate D2E/DX2                !
 ! R9    R(4,21)                 1.0918         estimate D2E/DX2                !
 ! R10   R(4,22)                 1.0866         estimate D2E/DX2                !
 ! R11   R(5,7)                  1.7251         estimate D2E/DX2                !
 ! R12   R(5,8)                  1.0757         estimate D2E/DX2                !
 ! R13   R(9,10)                 1.7621         estimate D2E/DX2                !
 ! R14   R(9,13)                 1.3542         estimate D2E/DX2                !
 ! R15   R(10,11)                1.7364         estimate D2E/DX2                !
 ! R16   R(11,12)                1.3635         estimate D2E/DX2                !
 ! R17   R(11,17)                1.4355         estimate D2E/DX2                !
 ! R18   R(12,13)                1.4332         estimate D2E/DX2                !
 ! R19   R(12,15)                1.7374         estimate D2E/DX2                !
 ! R20   R(13,14)                1.0762         estimate D2E/DX2                !
 ! R21   R(15,16)                1.7451         estimate D2E/DX2                !
 ! R22   R(16,17)                1.3483         estimate D2E/DX2                !
 ! R23   R(16,18)                1.077          estimate D2E/DX2                !
 ! R24   R(17,19)                1.0779         estimate D2E/DX2                !
 ! A1    A(2,1,5)              113.6327         estimate D2E/DX2                !
 ! A2    A(2,1,6)              123.0335         estimate D2E/DX2                !
 ! A3    A(5,1,6)              123.3277         estimate D2E/DX2                !
 ! A4    A(1,2,3)              111.85           estimate D2E/DX2                !
 ! A5    A(1,2,4)              121.7282         estimate D2E/DX2                !
 ! A6    A(3,2,4)              126.4056         estimate D2E/DX2                !
 ! A7    A(2,3,7)              111.4019         estimate D2E/DX2                !
 ! A8    A(2,3,9)              128.6472         estimate D2E/DX2                !
 ! A9    A(7,3,9)              119.8968         estimate D2E/DX2                !
 ! A10   A(2,4,20)             110.0963         estimate D2E/DX2                !
 ! A11   A(2,4,21)             111.1042         estimate D2E/DX2                !
 ! A12   A(2,4,22)             111.5689         estimate D2E/DX2                !
 ! A13   A(20,4,21)            107.4797         estimate D2E/DX2                !
 ! A14   A(20,4,22)            108.251          estimate D2E/DX2                !
 ! A15   A(21,4,22)            108.2013         estimate D2E/DX2                !
 ! A16   A(1,5,7)              111.6311         estimate D2E/DX2                !
 ! A17   A(1,5,8)              127.8513         estimate D2E/DX2                !
 ! A18   A(7,5,8)              120.5173         estimate D2E/DX2                !
 ! A19   A(3,7,5)               91.4807         estimate D2E/DX2                !
 ! A20   A(3,9,10)             120.3537         estimate D2E/DX2                !
 ! A21   A(3,9,13)             127.6533         estimate D2E/DX2                !
 ! A22   A(10,9,13)            111.9652         estimate D2E/DX2                !
 ! A23   A(9,10,11)             90.9573         estimate D2E/DX2                !
 ! A24   A(10,11,12)           111.1031         estimate D2E/DX2                !
 ! A25   A(10,11,17)           134.9046         estimate D2E/DX2                !
 ! A26   A(12,11,17)           113.9922         estimate D2E/DX2                !
 ! A27   A(11,12,13)           114.1113         estimate D2E/DX2                !
 ! A28   A(11,12,15)           111.1688         estimate D2E/DX2                !
 ! A29   A(13,12,15)           134.7142         estimate D2E/DX2                !
 ! A30   A(9,13,12)            111.8568         estimate D2E/DX2                !
 ! A31   A(9,13,14)            123.4471         estimate D2E/DX2                !
 ! A32   A(12,13,14)           124.6698         estimate D2E/DX2                !
 ! A33   A(12,15,16)            90.5215         estimate D2E/DX2                !
 ! A34   A(15,16,17)           113.2914         estimate D2E/DX2                !
 ! A35   A(15,16,18)           119.527          estimate D2E/DX2                !
 ! A36   A(17,16,18)           127.1816         estimate D2E/DX2                !
 ! A37   A(11,17,16)           111.026          estimate D2E/DX2                !
 ! A38   A(11,17,19)           125.0544         estimate D2E/DX2                !
 ! A39   A(16,17,19)           123.9195         estimate D2E/DX2                !
 ! D1    D(5,1,2,3)              0.1713         estimate D2E/DX2                !
 ! D2    D(5,1,2,4)           -178.454          estimate D2E/DX2                !
 ! D3    D(6,1,2,3)            179.2978         estimate D2E/DX2                !
 ! D4    D(6,1,2,4)              0.6725         estimate D2E/DX2                !
 ! D5    D(2,1,5,7)             -0.5321         estimate D2E/DX2                !
 ! D6    D(2,1,5,8)            179.2564         estimate D2E/DX2                !
 ! D7    D(6,1,5,7)           -179.6556         estimate D2E/DX2                !
 ! D8    D(6,1,5,8)              0.1329         estimate D2E/DX2                !
 ! D9    D(1,2,3,7)              0.2651         estimate D2E/DX2                !
 ! D10   D(1,2,3,9)            177.5488         estimate D2E/DX2                !
 ! D11   D(4,2,3,7)            178.8122         estimate D2E/DX2                !
 ! D12   D(4,2,3,9)             -3.9041         estimate D2E/DX2                !
 ! D13   D(1,2,4,20)            36.9572         estimate D2E/DX2                !
 ! D14   D(1,2,4,21)           -81.9928         estimate D2E/DX2                !
 ! D15   D(1,2,4,22)           157.1706         estimate D2E/DX2                !
 ! D16   D(3,2,4,20)          -141.4573         estimate D2E/DX2                !
 ! D17   D(3,2,4,21)            99.5927         estimate D2E/DX2                !
 ! D18   D(3,2,4,22)           -21.2439         estimate D2E/DX2                !
 ! D19   D(2,3,7,5)             -0.4762         estimate D2E/DX2                !
 ! D20   D(9,3,7,5)           -178.0293         estimate D2E/DX2                !
 ! D21   D(2,3,9,10)           140.0473         Frozen                          !
 ! D22   D(2,3,9,13)           -42.0287         estimate D2E/DX2                !
 ! D23   D(7,3,9,10)           -42.87           estimate D2E/DX2                !
 ! D24   D(7,3,9,13)           135.0539         estimate D2E/DX2                !
 ! D25   D(1,5,7,3)              0.5733         estimate D2E/DX2                !
 ! D26   D(8,5,7,3)           -179.2329         estimate D2E/DX2                !
 ! D27   D(3,9,10,11)          178.4125         estimate D2E/DX2                !
 ! D28   D(13,9,10,11)           0.1847         estimate D2E/DX2                !
 ! D29   D(3,9,13,12)         -178.684          estimate D2E/DX2                !
 ! D30   D(3,9,13,14)           -0.4736         estimate D2E/DX2                !
 ! D31   D(10,9,13,12)          -0.6156         estimate D2E/DX2                !
 ! D32   D(10,9,13,14)         177.5948         estimate D2E/DX2                !
 ! D33   D(9,10,11,12)           0.3173         estimate D2E/DX2                !
 ! D34   D(9,10,11,17)        -179.7617         estimate D2E/DX2                !
 ! D35   D(10,11,12,13)         -0.7327         estimate D2E/DX2                !
 ! D36   D(10,11,12,15)       -179.9946         estimate D2E/DX2                !
 ! D37   D(17,11,12,13)        179.3286         estimate D2E/DX2                !
 ! D38   D(17,11,12,15)          0.0666         estimate D2E/DX2                !
 ! D39   D(10,11,17,16)       -179.9639         estimate D2E/DX2                !
 ! D40   D(10,11,17,19)          0.0939         estimate D2E/DX2                !
 ! D41   D(12,11,17,16)         -0.0445         estimate D2E/DX2                !
 ! D42   D(12,11,17,19)       -179.9868         estimate D2E/DX2                !
 ! D43   D(11,12,13,9)           0.8853         estimate D2E/DX2                !
 ! D44   D(11,12,13,14)       -177.2992         estimate D2E/DX2                !
 ! D45   D(15,12,13,9)         179.9168         estimate D2E/DX2                !
 ! D46   D(15,12,13,14)          1.7324         estimate D2E/DX2                !
 ! D47   D(11,12,15,16)         -0.0543         estimate D2E/DX2                !
 ! D48   D(13,12,15,16)       -179.1064         estimate D2E/DX2                !
 ! D49   D(12,15,16,17)          0.0299         estimate D2E/DX2                !
 ! D50   D(12,15,16,18)       -179.9633         estimate D2E/DX2                !
 ! D51   D(15,16,17,11)          0.0015         estimate D2E/DX2                !
 ! D52   D(15,16,17,19)        179.9446         estimate D2E/DX2                !
 ! D53   D(18,16,17,11)        179.9941         estimate D2E/DX2                !
 ! D54   D(18,16,17,19)         -0.0628         estimate D2E/DX2                !
 --------------------------------------------------------------------------------
 Trust Radius=3.00D-01 FncErr=1.00D-07 GrdErr=1.00D-07 EigMax=2.50D+02 EigMin=1.00D-04
 Number of steps in this run=    127 maximum allowed number of steps=    132.
 GradGradGradGradGradGradGradGradGradGradGradGradGradGradGradGradGradGrad

                          Input orientation:                          
 ---------------------------------------------------------------------
 Center     Atomic      Atomic             Coordinates (Angstroms)
 Number     Number       Type             X           Y           Z
 ---------------------------------------------------------------------
      1          6           0       -3.960000    0.752000    0.069000
      2          6           0       -2.572000    1.075000    0.286000
      3          6           0       -1.756000    0.030000   -0.016000
      4          6           0       -2.145000    2.418000    0.818000
      5          6           0       -4.159000   -0.504000   -0.379000
      6          1           0       -4.763000    1.447000    0.262000
      7         16           0       -2.670000   -1.353000   -0.574000
      8          1           0       -5.095000   -0.984000   -0.604000
      9          6           0       -0.289000   -0.029000    0.022000
     10         16           0        0.529000   -1.471000    0.619000
     11          6           0        2.080000   -0.762000    0.292000
     12          6           0        1.947000    0.491000   -0.229000
     13          6           0        0.588000    0.914000   -0.397000
     14          1           0        0.288000    1.852000   -0.831000
     15         16           0        3.498000    1.202000   -0.557000
     16          6           0        4.298000   -0.234000    0.029000
     17          6           0        3.442000   -1.189000    0.445000
     18          1           0        5.374000   -0.280000    0.028000
     19          1           0        3.751000   -2.144000    0.838000
     20          1           0       -2.861000    2.772000    1.559000
     21          1           0       -2.104000    3.162000    0.020000
     22          1           0       -1.166000    2.369000    1.287000
 ---------------------------------------------------------------------
                    Distance matrix (angstroms):
                    1          2          3          4          5
     1  C    0.000000
     2  C    1.441514   0.000000
     3  C    2.320803   1.359811   0.000000
     4  C    2.575030   1.506321   2.559184   0.000000
     5  C    1.348273   2.335388   2.488239   3.745276   0.000000
     6  H    1.079390   2.222485   3.335749   2.847086   2.140584
     7  S    2.551191   2.577671   1.749128   4.053854   1.725093
     8  H    2.180562   3.375961   3.538765   4.722096   1.075696
     9  C    3.753453   2.549628   1.468678   3.172721   3.919608
    10  S    5.039380   4.026066   2.806680   4.723791   4.889625
    11  C    6.230853   5.001571   3.928998   5.314104   6.280281
    12  C    5.920268   4.585591   3.737660   4.642629   6.188357
    13  C    4.574681   3.236975   2.533960   3.347765   4.954297
    14  H    4.479454   3.167178   2.856894   2.993167   5.052806
    15  S    7.497742   6.129574   5.410248   5.934032   7.846768
    16  C    8.316752   6.998316   6.059921   7.011981   8.471140
    17  C    7.661492   6.427999   5.358889   6.660642   7.676158
    18  H    9.390967   8.064831   7.136872   8.027370   9.544313
    19  H    8.272708   7.116670   5.981859   7.454868   8.169381
    20  H    2.740128   2.140995   3.349659   1.089520   4.021545
    21  H    3.042242   2.155307   3.151480   1.091797   4.221585
    22  H    3.450311   2.157145   2.741684   1.086648   4.470764
                    6          7          8          9         10
     6  H    0.000000
     7  S    3.594377   0.000000
     8  H    2.601911   2.453097   0.000000
     9  C    4.717293   2.788791   4.939791   0.000000
    10  S    6.053713   3.416251   5.776008   1.762072   0.000000
    11  C    7.190774   4.864333   7.234136   2.494464   1.736436
    12  C    6.795522   4.983578   7.204583   2.309350   2.565009
    13  C    5.417709   3.973057   5.995143   1.354230   2.593060
    14  H    5.183751   4.368963   6.088605   2.144458   3.633581
    15  S    8.305113   6.676267   8.866818   4.023925   4.164477
    16  C    9.218556   7.082993   9.444132   4.591584   4.010440
    17  C    8.619977   6.198532   8.603650   3.929999   2.931786
    18  H   10.285721   8.137547  10.511660   5.668563   5.024121
    19  H    9.258253   6.621833   9.037515   4.632567   3.298814
    20  H    2.656207   4.647773   4.876152   4.101604   5.511692
    21  H    3.173337   4.588945   5.150221   3.671064   5.362479
    22  H    3.852158   4.424774   5.500503   2.849519   4.250276
                   11         12         13         14         15
    11  C    0.000000
    12  C    1.363502   0.000000
    13  C    2.347288   1.433190   0.000000
    14  H    3.362349   2.228678   1.076197   0.000000
    15  S    2.566870   1.737442   2.928591   3.286590   0.000000
    16  C    2.295098   2.473740   3.906850   4.601206   1.745134
    17  C    1.435542   2.347701   3.643747   4.563285   2.593072
    18  H    3.339529   3.522048   4.950965   5.581281   2.461285
    19  H    2.236131   3.366917   4.569591   5.544903   3.633972
    20  H    6.205475   5.613980   4.378778   4.058904   6.883258
    21  H    5.742614   4.858687   3.531891   2.856915   5.962963
    22  H    4.618409   3.939024   2.833619   2.620559   5.149284
                   16         17         18         19         20
    16  C    0.000000
    17  C    1.348264   0.000000
    18  H    1.076983   2.175499   0.000000
    19  H    2.145178   1.077940   2.600908   0.000000
    20  H    7.913799   7.527173   8.914813   8.270758   0.000000
    21  H    7.246965   7.061865   8.232127   7.943789   1.758883
    22  H    6.181704   5.882346   7.167558   6.689220   1.763354
                   21         22
    21  H    0.000000
    22  H    1.764648   0.000000
 Stoichiometry    C11H8S3
 Framework group  C1[X(C11H8S3)]
 Deg. of freedom    60
 Full point group                 C1      NOp   1
 Largest Abelian subgroup         C1      NOp   1
 Largest concise Abelian subgroup C1      NOp   1
                         Standard orientation:                         
 ---------------------------------------------------------------------
 Center     Atomic      Atomic             Coordinates (Angstroms)
 Number     Number       Type             X           Y           Z
 ---------------------------------------------------------------------
      1          6           0       -3.959857    0.751770    0.069007
      2          6           0       -2.571870    1.074763    0.286099
      3          6           0       -1.755836    0.029843   -0.016088
      4          6           0       -2.144915    2.417670    0.818371
      5          6           0       -4.158815   -0.504147   -0.379243
      6          1           0       -4.762879    1.446712    0.262126
      7         16           0       -2.669789   -1.353071   -0.574378
      8          1           0       -5.094798   -0.984127   -0.604357
      9          6           0       -0.288836   -0.029126    0.021931
     10         16           0        0.529189   -1.471222    0.618666
     11          6           0        2.080177   -0.762119    0.291837
     12          6           0        1.947156    0.490980   -0.228920
     13          6           0        0.588149    0.913978   -0.396866
     14          1           0        0.288134    1.852055   -0.830689
     15         16           0        3.498145    1.202084   -0.556749
     16          6           0        4.298169   -0.234010    0.028987
     17          6           0        3.442185   -1.189114    0.444782
     18          1           0        5.374171   -0.279983    0.028001
     19          1           0        3.751201   -2.144183    0.837602
     20          1           0       -2.860940    2.771507    1.559425
     21          1           0       -2.103917    3.161827    0.020517
     22          1           0       -1.165924    2.368604    1.287382
 ---------------------------------------------------------------------
 Rotational constants (GHZ):           1.2808349           0.2770794           0.2397465
 Standard basis: Aug-CC-pVDZ (5D, 7F)
 There are   434 symmetry adapted cartesian basis functions of A   symmetry.
 There are   406 symmetry adapted basis functions of A   symmetry.
   406 basis functions,   804 primitive gaussians,   434 cartesian basis functions
    61 alpha electrons       61 beta electrons
       nuclear repulsion energy      1124.6154383525 Hartrees.
 NAtoms=   22 NActive=   22 NUniq=   22 SFac= 1.00D+00 NAtFMM=   60 NAOKFM=F Big=F
 Integral buffers will be    131072 words long.
 Raffenetti 1 integral format.
 Two-electron integral symmetry is turned on.
 One-electron integrals computed using PRISM.
 NBasis=   406 RedAO= T EigKep=  3.14D-06  NBF=   406
 NBsUse=   406 1.00D-06 EigRej= -1.00D+00 NBFU=   406
 ExpMin= 2.97D-02 ExpMax= 1.11D+05 ExpMxC= 1.07D+03 IAcc=3 IRadAn=         5 AccDes= 0.00D+00
 Harris functional with IExCor=  205 and IRadAn=       5 diagonalized for initial guess.
 HarFok:  IExCor=  205 AccDes= 0.00D+00 IRadAn=         5 IDoV= 1 UseB2=F ITyADJ=14
 ICtDFT=  3500011 ScaDFX=  1.000000  1.000000  1.000000  1.000000
 FoFCou: FMM=F IPFlag=           0 FMFlag=      100000 FMFlg1=           0
         NFxFlg=           0 DoJE=T BraDBF=F KetDBF=T FulRan=T
         wScrn=  0.000000 ICntrl=       500 IOpCl=  0 I1Cent=   200000004 NGrid=           0
         NMat0=    1 NMatS0=      1 NMatT0=    0 NMatD0=    1 NMtDS0=    0 NMtDT0=    0
 Petite list used in FoFCou.
 Requested convergence on RMS density matrix=1.00D-08 within 128 cycles.
 Requested convergence on MAX density matrix=1.00D-06.
 Requested convergence on             energy=1.00D-06.
 No special actions if energy rises.
 SCF Done:  E(RHF) =  -1613.81406573     A.U. after   17 cycles
            NFock= 17  Conv=0.41D-08     -V/T= 2.0000
 ExpMin= 2.97D-02 ExpMax= 1.11D+05 ExpMxC= 1.07D+03 IAcc=3 IRadAn=         5 AccDes= 0.00D+00
 HarFok:  IExCor=  205 AccDes= 0.00D+00 IRadAn=         5 IDoV=-2 UseB2=F ITyADJ=14
 ICtDFT= 12500011 ScaDFX=  1.000000  1.000000  1.000000  1.000000
 GSVD:  LWork=        -884 too small for GESVD, short by        3770 words or        3770 for optimal perf.
 Range of M.O.s used for correlation:    27   406
 NBasis=   406 NAE=    61 NBE=    61 NFC=    26 NFV=     0
 NROrb=    380 NOA=    35 NOB=    35 NVA=   345 NVB=   345

 **** Warning!!: The largest alpha MO coefficient is  0.96665960D+02

 Disk-based method using ON**2 memory for 35 occupieds at a time.
 Estimated scratch disk usage=  5838985830 words.
 Actual    scratch disk usage=  4761901158 words.
 JobTyp=1 Pass  1:  I=  27 to  61 NPSUse= 16 ParTrn=T ParDer=T DoDerP=T.
 (rs|ai) integrals will be sorted in core.
 Spin components of T(2) and E(2):
     alpha-alpha T2 =       0.1135964016D+00 E2=     -0.2646634399D+00
     alpha-beta  T2 =       0.5603989069D+00 E2=     -0.1399134833D+01
     beta-beta   T2 =       0.1135964016D+00 E2=     -0.2646634399D+00
 ANorm=    0.1337008493D+01
 E2 =    -0.1928461713D+01 EUMP2 =    -0.16157425274437D+04
          IDoAtm=1111111111111111111111
          Differentiating once with respect to electric field.
                with respect to dipole field.
          Differentiating once with respect to nuclear coordinates.
 Keep R1 ints in memory in canonical form, NReq=3454318301.
          There are     1 degrees of freedom in the 1st order CPHF.  IDoFFX=0 NUNeed=     1.
 LinEq1:  Iter=  0 NonCon=     1 RMS=2.71D-03 Max=5.96D-02 NDo=     1
 AX will form     1 AO Fock derivatives at one time.
 LinEq1:  Iter=  1 NonCon=     1 RMS=5.92D-04 Max=1.15D-02 NDo=     1
 LinEq1:  Iter=  2 NonCon=     1 RMS=3.33D-04 Max=1.17D-02 NDo=     1
 LinEq1:  Iter=  3 NonCon=     1 RMS=9.33D-05 Max=2.19D-03 NDo=     1
 LinEq1:  Iter=  4 NonCon=     1 RMS=3.70D-05 Max=6.58D-04 NDo=     1
 LinEq1:  Iter=  5 NonCon=     1 RMS=1.30D-05 Max=3.46D-04 NDo=     1
 LinEq1:  Iter=  6 NonCon=     1 RMS=4.21D-06 Max=1.54D-04 NDo=     1
 LinEq1:  Iter=  7 NonCon=     1 RMS=2.05D-06 Max=5.75D-05 NDo=     1
 LinEq1:  Iter=  8 NonCon=     1 RMS=7.73D-07 Max=2.24D-05 NDo=     1
 LinEq1:  Iter=  9 NonCon=     1 RMS=3.00D-07 Max=7.96D-06 NDo=     1
 LinEq1:  Iter= 10 NonCon=     1 RMS=1.12D-07 Max=4.26D-06 NDo=     1
 LinEq1:  Iter= 11 NonCon=     1 RMS=6.12D-08 Max=1.81D-06 NDo=     1
 LinEq1:  Iter= 12 NonCon=     1 RMS=2.40D-08 Max=6.61D-07 NDo=     1
 LinEq1:  Iter= 13 NonCon=     1 RMS=8.48D-09 Max=1.41D-07 NDo=     1
 LinEq1:  Iter= 14 NonCon=     1 RMS=2.83D-09 Max=5.61D-08 NDo=     1
 LinEq1:  Iter= 15 NonCon=     1 RMS=1.06D-09 Max=2.82D-08 NDo=     1
 LinEq1:  Iter= 16 NonCon=     1 RMS=4.38D-10 Max=1.19D-08 NDo=     1
 LinEq1:  Iter= 17 NonCon=     1 RMS=1.86D-10 Max=4.74D-09 NDo=     1
 LinEq1:  Iter= 18 NonCon=     1 RMS=6.37D-11 Max=1.59D-09 NDo=     1
 LinEq1:  Iter= 19 NonCon=     0 RMS=2.31D-11 Max=5.11D-10 NDo=     1
 Linear equations converged to 1.000D-10 1.000D-09 after    19 iterations.
 End of Minotr F.D. properties file   721 does not exist.
 End of Minotr F.D. properties file   722 does not exist.
 End of Minotr F.D. properties file   788 does not exist.

 **********************************************************************

            Population analysis using the SCF Density.

 **********************************************************************

 Orbital symmetries:
       Occupied  (A) (A) (A) (A) (A) (A) (A) (A) (A) (A) (A) (A)
                 (A) (A) (A) (A) (A) (A) (A) (A) (A) (A) (A) (A)
                 (A) (A) (A) (A) (A) (A) (A) (A) (A) (A) (A) (A)
                 (A) (A) (A) (A) (A) (A) (A) (A) (A) (A) (A) (A)
                 (A) (A) (A) (A) (A) (A) (A) (A) (A) (A) (A) (A)
                 (A)
       Virtual   (A) (A) (A) (A) (A) (A) (A) (A) (A) (A) (A) (A)
                 (A) (A) (A) (A) (A) (A) (A) (A) (A) (A) (A) (A)
                 (A) (A) (A) (A) (A) (A) (A) (A) (A) (A) (A) (A)
                 (A) (A) (A) (A) (A) (A) (A) (A) (A) (A) (A) (A)
                 (A) (A) (A) (A) (A) (A) (A) (A) (A) (A) (A) (A)
                 (A) (A) (A) (A) (A) (A) (A) (A) (A) (A) (A) (A)
                 (A) (A) (A) (A) (A) (A) (A) (A) (A) (A) (A) (A)
                 (A) (A) (A) (A) (A) (A) (A) (A) (A) (A) (A) (A)
                 (A) (A) (A) (A) (A) (A) (A) (A) (A) (A) (A) (A)
                 (A) (A) (A) (A) (A) (A) (A) (A) (A) (A) (A) (A)
                 (A) (A) (A) (A) (A) (A) (A) (A) (A) (A) (A) (A)
                 (A) (A) (A) (A) (A) (A) (A) (A) (A) (A) (A) (A)
                 (A) (A) (A) (A) (A) (A) (A) (A) (A) (A) (A) (A)
                 (A) (A) (A) (A) (A) (A) (A) (A) (A) (A) (A) (A)
                 (A) (A) (A) (A) (A) (A) (A) (A) (A) (A) (A) (A)
                 (A) (A) (A) (A) (A) (A) (A) (A) (A) (A) (A) (A)
                 (A) (A) (A) (A) (A) (A) (A) (A) (A) (A) (A) (A)
                 (A) (A) (A) (A) (A) (A) (A) (A) (A) (A) (A) (A)
                 (A) (A) (A) (A) (A) (A) (A) (A) (A) (A) (A) (A)
                 (A) (A) (A) (A) (A) (A) (A) (A) (A) (A) (A) (A)
                 (A) (A) (A) (A) (A) (A) (A) (A) (A) (A) (A) (A)
                 (A) (A) (A) (A) (A) (A) (A) (A) (A) (A) (A) (A)
                 (A) (A) (A) (A) (A) (A) (A) (A) (A) (A) (A) (A)
                 (A) (A) (A) (A) (A) (A) (A) (A) (A) (A) (A) (A)
                 (A) (A) (A) (A) (A) (A) (A) (A) (A) (A) (A) (A)
                 (A) (A) (A) (A) (A) (A) (A) (A) (A) (A) (A) (A)
                 (A) (A) (A) (A) (A) (A) (A) (A) (A) (A) (A) (A)
                 (A) (A) (A) (A) (A) (A) (A) (A) (A) (A) (A) (A)
                 (A) (A) (A) (A) (A) (A) (A) (A) (A)
 The electronic state is 1-A.
 Alpha  occ. eigenvalues --  -91.99066 -91.98979 -91.98450 -11.29036 -11.27768
 Alpha  occ. eigenvalues --  -11.27768 -11.27325 -11.27172 -11.27159 -11.25819
 Alpha  occ. eigenvalues --  -11.25748 -11.25588 -11.24415 -11.23862  -8.99247
 Alpha  occ. eigenvalues --   -8.99151  -8.98685  -6.67414  -6.67336  -6.67316
 Alpha  occ. eigenvalues --   -6.67235  -6.67129  -6.67025  -6.66851  -6.66759
 Alpha  occ. eigenvalues --   -6.66567  -1.21791  -1.18661  -1.12887  -1.04156
 Alpha  occ. eigenvalues --   -1.02432  -1.01852  -0.95905  -0.94559  -0.92053
 Alpha  occ. eigenvalues --   -0.82269  -0.77357  -0.76773  -0.72750  -0.70056
 Alpha  occ. eigenvalues --   -0.67443  -0.66901  -0.60739  -0.59191  -0.58971
 Alpha  occ. eigenvalues --   -0.56695  -0.56327  -0.54686  -0.54093  -0.52533
 Alpha  occ. eigenvalues --   -0.51975  -0.51156  -0.49461  -0.47359  -0.46632
 Alpha  occ. eigenvalues --   -0.46051  -0.39062  -0.34975  -0.34183  -0.32292
 Alpha  occ. eigenvalues --   -0.28708
 Alpha virt. eigenvalues --    0.03384   0.03525   0.04048   0.04866   0.04944
 Alpha virt. eigenvalues --    0.05471   0.06734   0.07185   0.07687   0.08424
 Alpha virt. eigenvalues --    0.08745   0.09617   0.10126   0.10779   0.11104
 Alpha virt. eigenvalues --    0.11485   0.11765   0.12405   0.12598   0.13086
 Alpha virt. eigenvalues --    0.13578   0.13679   0.14138   0.14438   0.14687
 Alpha virt. eigenvalues --    0.14996   0.15232   0.15391   0.15854   0.16208
 Alpha virt. eigenvalues --    0.16646   0.17247   0.17787   0.18156   0.18395
 Alpha virt. eigenvalues --    0.18791   0.19204   0.19470   0.20116   0.20594
 Alpha virt. eigenvalues --    0.20728   0.21347   0.21498   0.21667   0.22064
 Alpha virt. eigenvalues --    0.22600   0.22993   0.23215   0.23815   0.24171
 Alpha virt. eigenvalues --    0.24926   0.25242   0.25820   0.26381   0.26592
 Alpha virt. eigenvalues --    0.26909   0.27287   0.27575   0.28074   0.28885
 Alpha virt. eigenvalues --    0.29518   0.29544   0.30809   0.31394   0.31828
 Alpha virt. eigenvalues --    0.32196   0.32656   0.32742   0.33261   0.33977
 Alpha virt. eigenvalues --    0.34360   0.34863   0.35051   0.35459   0.36879
 Alpha virt. eigenvalues --    0.37225   0.37735   0.38238   0.39049   0.40345
 Alpha virt. eigenvalues --    0.40459   0.40740   0.41095   0.41719   0.43394
 Alpha virt. eigenvalues --    0.43971   0.44055   0.44561   0.45240   0.45657
 Alpha virt. eigenvalues --    0.45878   0.46214   0.46733   0.47857   0.48139
 Alpha virt. eigenvalues --    0.48414   0.48853   0.49051   0.49865   0.50770
 Alpha virt. eigenvalues --    0.52072   0.53061   0.53530   0.54171   0.55125
 Alpha virt. eigenvalues --    0.55604   0.56688   0.57419   0.58128   0.58689
 Alpha virt. eigenvalues --    0.59012   0.59692   0.60129   0.60985   0.61311
 Alpha virt. eigenvalues --    0.62279   0.63235   0.63281   0.64332   0.64593
 Alpha virt. eigenvalues --    0.65283   0.65409   0.65928   0.66486   0.66765
 Alpha virt. eigenvalues --    0.67278   0.67608   0.68095   0.68464   0.69022
 Alpha virt. eigenvalues --    0.69427   0.70012   0.70418   0.71099   0.71566
 Alpha virt. eigenvalues --    0.72407   0.72623   0.73906   0.74155   0.74466
 Alpha virt. eigenvalues --    0.74761   0.75212   0.75323   0.76247   0.76698
 Alpha virt. eigenvalues --    0.77288   0.78019   0.78962   0.79745   0.80222
 Alpha virt. eigenvalues --    0.80947   0.81180   0.82299   0.82940   0.83978
 Alpha virt. eigenvalues --    0.84504   0.84606   0.86072   0.86772   0.87517
 Alpha virt. eigenvalues --    0.87932   0.88827   0.89602   0.90337   0.91288
 Alpha virt. eigenvalues --    0.91535   0.92117   0.92617   0.93334   0.94186
 Alpha virt. eigenvalues --    0.94833   0.95726   0.96210   0.96872   0.97670
 Alpha virt. eigenvalues --    0.98161   0.99540   0.99759   0.99913   1.00460
 Alpha virt. eigenvalues --    1.01657   1.03063   1.03483   1.04624   1.05496
 Alpha virt. eigenvalues --    1.06913   1.07140   1.07752   1.10320   1.10824
 Alpha virt. eigenvalues --    1.11973   1.12891   1.13293   1.13721   1.15153
 Alpha virt. eigenvalues --    1.16343   1.18651   1.19188   1.20248   1.21924
 Alpha virt. eigenvalues --    1.22591   1.23066   1.23692   1.24077   1.25107
 Alpha virt. eigenvalues --    1.25748   1.26094   1.27618   1.28352   1.29352
 Alpha virt. eigenvalues --    1.30319   1.31577   1.31595   1.33201   1.33967
 Alpha virt. eigenvalues --    1.34242   1.35468   1.36197   1.37445   1.39915
 Alpha virt. eigenvalues --    1.40453   1.41360   1.42728   1.44546   1.46313
 Alpha virt. eigenvalues --    1.47693   1.48620   1.49937   1.51932   1.53206
 Alpha virt. eigenvalues --    1.54466   1.55964   1.57235   1.57782   1.58927
 Alpha virt. eigenvalues --    1.60201   1.61531   1.61907   1.64333   1.64558
 Alpha virt. eigenvalues --    1.65631   1.66432   1.67015   1.68738   1.69165
 Alpha virt. eigenvalues --    1.69526   1.70701   1.71805   1.72476   1.73283
 Alpha virt. eigenvalues --    1.74109   1.74565   1.77135   1.78574   1.79923
 Alpha virt. eigenvalues --    1.80679   1.81009   1.81795   1.82608   1.84373
 Alpha virt. eigenvalues --    1.85640   1.86114   1.87490   1.88809   1.89795
 Alpha virt. eigenvalues --    1.91869   1.92276   1.94541   1.95425   1.96962
 Alpha virt. eigenvalues --    1.97474   1.97964   1.99243   2.00569   2.02127
 Alpha virt. eigenvalues --    2.04965   2.05599   2.08726   2.08964   2.09776
 Alpha virt. eigenvalues --    2.10509   2.11300   2.12202   2.13174   2.14691
 Alpha virt. eigenvalues --    2.15484   2.17200   2.19520   2.21153   2.21568
 Alpha virt. eigenvalues --    2.23496   2.24361   2.25268   2.26115   2.28381
 Alpha virt. eigenvalues --    2.29417   2.30339   2.32100   2.33122   2.34354
 Alpha virt. eigenvalues --    2.35369   2.37425   2.38565   2.40743   2.41320
 Alpha virt. eigenvalues --    2.41856   2.44371   2.46376   2.47416   2.47775
 Alpha virt. eigenvalues --    2.49614   2.51234   2.52946   2.53441   2.55743
 Alpha virt. eigenvalues --    2.57440   2.59571   2.62153   2.64475   2.70981
 Alpha virt. eigenvalues --    2.73680   2.76130   2.79681   2.84575   2.85793
 Alpha virt. eigenvalues --    2.87208   2.87844   2.92429   2.95286   2.99866
 Alpha virt. eigenvalues --    3.00842   3.02743   3.08799   3.10143   3.20377
 Alpha virt. eigenvalues --    3.24763   3.29499   3.36694   3.45755   3.55780
 Alpha virt. eigenvalues --    3.64978   3.75385   3.80584   4.12060   4.24973
          Condensed to atoms (all electrons):
               1          2          3          4          5          6
     1  C   10.332024  -2.459720  -0.843199  -1.027259  -0.120084  -0.330623
     2  C   -2.459720  11.173373  -2.035436   0.601563   0.149095   0.201793
     3  C   -0.843199  -2.035436  13.306429  -0.725172  -1.225881   0.065745
     4  C   -1.027259   0.601563  -0.725172   6.049072   0.092477   0.047386
     5  C   -0.120084   0.149095  -1.225881   0.092477   6.875061  -0.060745
     6  H   -0.330623   0.201793   0.065745   0.047386  -0.060745   1.656381
     7  S   -0.521786   0.010916  -0.482590   0.129336   0.358317  -0.014758
     8  H    0.026284   0.143025  -0.072995   0.032099   0.153988  -0.069092
     9  C    0.599954  -0.930007  -1.818910   0.020799   0.092594  -0.006040
    10  S   -0.000401  -0.050079  -0.521710  -0.012055   0.026180  -0.001167
    11  C    0.069223   0.003759  -0.372871  -0.137022   0.003557   0.001409
    12  C   -0.112696  -0.024821   0.764963   0.298801   0.002338  -0.004673
    13  C   -0.169852  -0.022365  -0.409156  -0.530597  -0.074383   0.008142
    14  H    0.035004  -0.100081   0.120133   0.088419  -0.007812   0.000661
    15  S   -0.000418   0.014378  -0.087441  -0.012143   0.000292  -0.000011
    16  C    0.000674  -0.008779   0.013597  -0.000973   0.000127  -0.000017
    17  C    0.007310  -0.004267  -0.391516  -0.028364  -0.001769   0.000280
    18  H    0.000040   0.000080  -0.000303  -0.000222  -0.000003  -0.000001
    19  H   -0.000078   0.001106  -0.011127  -0.000139   0.000070  -0.000024
    20  H    0.034391  -0.001574  -0.056328   0.206707   0.023749  -0.006552
    21  H   -0.012906   0.066836  -0.003538   0.258298   0.020594  -0.004386
    22  H   -0.045705   0.042521   0.148538   0.145912  -0.032385   0.001839
               7          8          9         10         11         12
     1  C   -0.521786   0.026284   0.599954  -0.000401   0.069223  -0.112696
     2  C    0.010916   0.143025  -0.930007  -0.050079   0.003759  -0.024821
     3  C   -0.482590  -0.072995  -1.818910  -0.521710  -0.372871   0.764963
     4  C    0.129336   0.032099   0.020799  -0.012055  -0.137022   0.298801
     5  C    0.358317   0.153988   0.092594   0.026180   0.003557   0.002338
     6  H   -0.014758  -0.069092  -0.006040  -0.001167   0.001409  -0.004673
     7  S   16.241247  -0.129227   0.010854   0.204369   0.044189   0.011689
     8  H   -0.129227   1.271044   0.007022   0.004967   0.001854   0.000527
     9  C    0.010854   0.007022  12.564599   0.319298  -0.197481  -0.314701
    10  S    0.204369   0.004967   0.319298  16.616345   0.400055  -0.622411
    11  C    0.044189   0.001854  -0.197481   0.400055  11.540858  -1.133080
    12  C    0.011689   0.000527  -0.314701  -0.622411  -1.133080  13.354650
    13  C   -0.310285  -0.009249  -3.968481  -0.619680  -1.108746  -4.060017
    14  H    0.002254  -0.000297   0.338920   0.015278  -0.085523   0.602876
    15  S    0.000908  -0.000007  -0.373302   0.118342   0.001464  -0.555941
    16  C    0.001052   0.000042   0.087614  -0.116508  -0.171185  -0.979154
    17  C    0.017442  -0.000149  -0.688523  -0.219125  -2.851044  -0.892760
    18  H    0.000006   0.000002   0.002287   0.011908   0.092639  -0.066685
    19  H    0.001727   0.000018   0.108985   0.025719   0.630396   0.030303
    20  H    0.002190   0.001771   0.060298   0.002731  -0.001924   0.014170
    21  H    0.006950   0.001634   0.002179   0.000987  -0.002301  -0.009917
    22  H   -0.000495  -0.000307  -0.107164  -0.002586  -0.006665   0.038426
              13         14         15         16         17         18
     1  C   -0.169852   0.035004  -0.000418   0.000674   0.007310   0.000040
     2  C   -0.022365  -0.100081   0.014378  -0.008779  -0.004267   0.000080
     3  C   -0.409156   0.120133  -0.087441   0.013597  -0.391516  -0.000303
     4  C   -0.530597   0.088419  -0.012143  -0.000973  -0.028364  -0.000222
     5  C   -0.074383  -0.007812   0.000292   0.000127  -0.001769  -0.000003
     6  H    0.008142   0.000661  -0.000011  -0.000017   0.000280  -0.000001
     7  S   -0.310285   0.002254   0.000908   0.001052   0.017442   0.000006
     8  H   -0.009249  -0.000297  -0.000007   0.000042  -0.000149   0.000002
     9  C   -3.968481   0.338920  -0.373302   0.087614  -0.688523   0.002287
    10  S   -0.619680   0.015278   0.118342  -0.116508  -0.219125   0.011908
    11  C   -1.108746  -0.085523   0.001464  -0.171185  -2.851044   0.092639
    12  C   -4.060017   0.602876  -0.555941  -0.979154  -0.892760  -0.066685
    13  C   17.583640  -1.278356   0.257062  -0.102151   0.476410   0.030923
    14  H   -1.278356   1.811640  -0.028957   0.016038  -0.035325   0.002239
    15  S    0.257062  -0.028957  16.046292   0.193032  -0.004555  -0.154980
    16  C   -0.102151   0.016038   0.193032   6.903232   0.164312   0.178998
    17  C    0.476410  -0.035325  -0.004555   0.164312  10.492763   0.052587
    18  H    0.030923   0.002239  -0.154980   0.178998   0.052587   1.302421
    19  H   -0.067029  -0.001687  -0.002321  -0.106245  -0.645568  -0.069489
    20  H   -0.063007   0.008909   0.000031   0.000218  -0.000386   0.000014
    21  H   -0.001948  -0.020740  -0.002548  -0.000368  -0.001397  -0.000027
    22  H    0.086479   0.004507  -0.000903  -0.000142  -0.010042  -0.000013
              19         20         21         22
     1  C   -0.000078   0.034391  -0.012906  -0.045705
     2  C    0.001106  -0.001574   0.066836   0.042521
     3  C   -0.011127  -0.056328  -0.003538   0.148538
     4  C   -0.000139   0.206707   0.258298   0.145912
     5  C    0.000070   0.023749   0.020594  -0.032385
     6  H   -0.000024  -0.006552  -0.004386   0.001839
     7  S    0.001727   0.002190   0.006950  -0.000495
     8  H    0.000018   0.001771   0.001634  -0.000307
     9  C    0.108985   0.060298   0.002179  -0.107164
    10  S    0.025719   0.002731   0.000987  -0.002586
    11  C    0.630396  -0.001924  -0.002301  -0.006665
    12  C    0.030303   0.014170  -0.009917   0.038426
    13  C   -0.067029  -0.063007  -0.001948   0.086479
    14  H   -0.001687   0.008909  -0.020740   0.004507
    15  S   -0.002321   0.000031  -0.002548  -0.000903
    16  C   -0.106245   0.000218  -0.000368  -0.000142
    17  C   -0.645568  -0.000386  -0.001397  -0.010042
    18  H   -0.069489   0.000014  -0.000027  -0.000013
    19  H    1.433098   0.000064   0.000003   0.000086
    20  H    0.000064   1.217414  -0.147709  -0.188543
    21  H    0.000003  -0.147709   0.822040  -0.099218
    22  H    0.000086  -0.188543  -0.099218   1.030423
 Mulliken charges:
               1
     1  C    0.539821
     2  C   -0.771317
     3  C    0.638768
     4  C    0.503077
     5  C   -0.275377
     6  H   -0.485546
     7  S    0.415696
     8  H   -0.362958
     9  C    0.189205
    10  S    0.419544
    11  C   -0.721562
    12  C   -0.341886
    13  C    0.352644
    14  H   -0.488101
    15  S    0.591726
    16  C   -0.073415
    17  C    0.563683
    18  H   -0.382420
    19  H   -0.327868
    20  H   -0.106634
    21  H    0.127481
    22  H   -0.004562
 Sum of Mulliken charges =  -0.00000
 Mulliken charges with hydrogens summed into heavy atoms:
               1
     1  C    0.054275
     2  C   -0.771317
     3  C    0.638768
     4  C    0.519362
     5  C   -0.638335
     7  S    0.415696
     9  C    0.189205
    10  S    0.419544
    11  C   -0.721562
    12  C   -0.341886
    13  C   -0.135457
    15  S    0.591726
    16  C   -0.455835
    17  C    0.235815
 Electronic spatial extent (au):  <R**2>=           4343.9459
 Charge=             -0.0000 electrons
 Dipole moment (field-independent basis, Debye):
    X=             -0.4054    Y=              1.1238    Z=              0.3440  Tot=              1.2432
 Quadrupole moment (field-independent basis, Debye-Ang):
   XX=            -86.7170   YY=           -100.1103   ZZ=           -109.8224
   XY=             -6.7563   XZ=              1.3346   YZ=             -0.8015
 Traceless Quadrupole moment (field-independent basis, Debye-Ang):
   XX=             12.1662   YY=             -1.2270   ZZ=            -10.9392
   XY=             -6.7563   XZ=              1.3346   YZ=             -0.8015
 Octapole moment (field-independent basis, Debye-Ang**2):
  XXX=             -1.7073  YYY=              4.8859  ZZZ=              1.8431  XYY=             -5.3020
  XXY=            -16.9386  XXZ=              2.8693  XZZ=             -1.8205  YZZ=              2.0216
  YYZ=              1.8416  XYZ=            -13.4257
 Hexadecapole moment (field-independent basis, Debye-Ang**3):
 XXXX=          -4125.9900 YYYY=          -1030.5738 ZZZZ=           -297.7622 XXXY=            -39.8942
 XXXZ=             43.9430 YYYX=            -35.9270 YYYZ=            -13.0793 ZZZX=             -5.8757
 ZZZY=              3.2832 XXYY=           -933.7863 XXZZ=           -918.7066 YYZZ=           -219.4748
 XXYZ=             11.5663 YYXZ=              8.7025 ZZXY=             -4.0054
 N-N= 1.124615438353D+03 E-N=-6.069361330685D+03  KE= 1.613738380393D+03
 Calling FoFJK, ICntrl=  10002127 FMM=F ISym2X=0 I1Cent= 0 IOpClX= 0 NMat=1 NMatS=1 NMatT=0.
 ***** Axes restored to original set *****
 -------------------------------------------------------------------
 Center     Atomic                   Forces (Hartrees/Bohr)
 Number     Number              X              Y              Z
 -------------------------------------------------------------------
      1        6           0.016382374    0.030582922    0.011559180
      2        6          -0.028046502    0.027768594    0.009145155
      3        6           0.026842048   -0.026188485   -0.008376687
      4        6          -0.001140149   -0.005165103   -0.003240430
      5        6          -0.000410041   -0.027828109   -0.009761954
      6        1          -0.007495813    0.006654419    0.001905821
      7       16           0.003952122   -0.007123543   -0.001987933
      8        1          -0.008848273   -0.006244665   -0.002571971
      9        6          -0.029156156   -0.023881074    0.009195781
     10       16          -0.004033472   -0.007260381    0.004061857
     11        6           0.008706056   -0.038912930    0.015783181
     12        6          -0.010323743    0.039136282   -0.015853666
     13        6           0.030025810    0.019955001   -0.007570844
     14        1          -0.003904883    0.009852505   -0.004628090
     15       16           0.002882962    0.007084582   -0.002962394
     16        6           0.015337196    0.023397886   -0.010108125
     17        6          -0.028714185   -0.020216670    0.009005107
     18        1           0.010289677    0.000664482   -0.000492470
     19        1           0.002995935   -0.008731997    0.003605979
     20        1          -0.005394457    0.002394752    0.005297379
     21        1           0.000789998    0.005187459   -0.005626570
     22        1           0.009263497   -0.001125927    0.003621695
 -------------------------------------------------------------------
 Cartesian Forces:  Max     0.039136282 RMS     0.015158390

 GradGradGradGradGradGradGradGradGradGradGradGradGradGradGradGradGradGrad
 Berny optimization.
 FormGI is forming the generalized inverse of G from B-inverse, IUseBI=4.
 Internal  Forces:  Max     0.043401331 RMS     0.008853926
 Search for a local minimum.
 Step number   1 out of a maximum of  127
 All quantities printed in internal units (Hartrees-Bohrs-Radians)
 Mixed Optimization -- RFO/linear search
 Second derivative matrix not updated -- first step.
 ITU=  0
     Eigenvalues ---    0.00682   0.01379   0.01471   0.01573   0.01624
     Eigenvalues ---    0.01689   0.01751   0.01866   0.01979   0.02036
     Eigenvalues ---    0.02064   0.02130   0.02250   0.02271   0.02384
     Eigenvalues ---    0.02415   0.07106   0.07298   0.15989   0.15998
     Eigenvalues ---    0.16000   0.16000   0.16000   0.16000   0.16000
     Eigenvalues ---    0.16000   0.22519   0.22566   0.23647   0.24757
     Eigenvalues ---    0.24783   0.24971   0.24986   0.24990   0.24997
     Eigenvalues ---    0.28892   0.29947   0.30281   0.31013   0.31181
     Eigenvalues ---    0.31723   0.32271   0.34606   0.34868   0.35203
     Eigenvalues ---    0.35899   0.36068   0.36244   0.36361   0.36458
     Eigenvalues ---    0.36519   0.38401   0.39106   0.39400   0.45925
     Eigenvalues ---    0.49858   0.52234   0.53753   0.539401000.00000
     Eigenvalues --- 1000.000001000.000001000.000001000.000001000.00000
     Eigenvalues --- 1000.000001000.000001000.000001000.000001000.00000
     Eigenvalues --- 1000.000001000.000001000.000001000.000001000.00000
     Eigenvalues --- 1000.000001000.000001000.000001000.000001000.00000
     Eigenvalues --- 1000.000001000.000001000.000001000.000001000.00000
     Eigenvalues --- 1000.000001000.000001000.000001000.000001000.00000
     Eigenvalues --- 1000.000001000.000001000.000001000.000001000.00000
     Eigenvalues --- 1000.000001000.000001000.000001000.000001000.00000
     Eigenvalues --- 1000.000001000.000001000.000001000.000001000.00000
     Eigenvalues --- 1000.000001000.000001000.000001000.000001000.00000
     Eigenvalues --- 1000.000001000.000001000.000001000.000001000.00000
     Eigenvalues --- 1000.000001000.00000
 RFO step:  Lambda=-1.78215818D-02 EMin= 6.82337007D-03
 Linear search not attempted -- first point.
 Iteration  1 RMS(Cart)=  0.02739423 RMS(Int)=  0.00024328
 Iteration  2 RMS(Cart)=  0.00046643 RMS(Int)=  0.00004314
 Iteration  3 RMS(Cart)=  0.00000011 RMS(Int)=  0.00004314
 Iteration  1 RMS(Cart)=  0.00001067 RMS(Int)=  0.00000399
 Iteration  2 RMS(Cart)=  0.00000587 RMS(Int)=  0.00000446
 Iteration  3 RMS(Cart)=  0.00000323 RMS(Int)=  0.00000504
 Iteration  4 RMS(Cart)=  0.00000178 RMS(Int)=  0.00000543
 Iteration  5 RMS(Cart)=  0.00000098 RMS(Int)=  0.00000566
 Variable       Old X    -DE/DX   Delta X   Delta X   Delta X     New X
                                 (Linear)    (Quad)   (Total)
    R1        2.72407  -0.00468   0.00000  -0.00917  -0.00911   2.71496
    R2        2.54787   0.04019   0.00000   0.07138   0.07140   2.61926
    R3        2.03975   0.01020   0.00000   0.02695   0.02695   2.06670
    R4        2.56967   0.03575   0.00000   0.06540   0.06543   2.63510
    R5        2.84653   0.00217   0.00000   0.00647   0.00647   2.85300
    R6        3.30537   0.00375   0.00000   0.00896   0.00892   3.31429
    R7        2.77540  -0.00593   0.00000  -0.01574  -0.01574   2.75966
    R8        2.05889   0.00793   0.00000   0.02163   0.02163   2.08052
    R9        2.06320   0.00768   0.00000   0.02110   0.02110   2.08430
   R10        2.05347   0.00996   0.00000   0.02693   0.02693   2.08040
   R11        3.25995   0.00653   0.00000   0.01750   0.01746   3.27741
   R12        2.03277   0.01102   0.00000   0.02878   0.02878   2.06155
   R13        3.32983   0.00590   0.00000   0.01591   0.01585   3.34568
   R14        2.55912   0.03901   0.00000   0.06996   0.06998   2.62911
   R15        3.28139   0.00579   0.00000   0.01570   0.01566   3.29705
   R16        2.57665   0.04340   0.00000   0.08286   0.08293   2.65958
   R17        2.71278  -0.00263   0.00000  -0.00381  -0.00375   2.70903
   R18        2.70834  -0.00405   0.00000  -0.00715  -0.00708   2.70126
   R19        3.28329   0.00549   0.00000   0.01480   0.01477   3.29806
   R20        2.03372   0.01154   0.00000   0.03018   0.03018   2.06390
   R21        3.29782   0.00648   0.00000   0.01692   0.01687   3.31469
   R22        2.54785   0.03969   0.00000   0.06962   0.06963   2.61748
   R23        2.03520   0.01025   0.00000   0.02688   0.02688   2.06208
   R24        2.03701   0.00991   0.00000   0.02606   0.02606   2.06307
    A1        1.98326  -0.00320   0.00000  -0.00702  -0.00693   1.97633
    A2        2.14734   0.00145   0.00000   0.00266   0.00262   2.14996
    A3        2.15247   0.00175   0.00000   0.00433   0.00429   2.15677
    A4        1.95215  -0.00287   0.00000  -0.00690  -0.00681   1.94534
    A5        2.12456   0.00650   0.00000   0.02241   0.02236   2.14692
    A6        2.20619  -0.00363   0.00000  -0.01544  -0.01549   2.19070
    A7        1.94433   0.00354   0.00000   0.01105   0.01104   1.95537
    A8        2.24532  -0.00342   0.00000  -0.01155  -0.01156   2.23375
    A9        2.09259  -0.00010   0.00000   0.00084   0.00084   2.09343
   A10        1.92154  -0.00001   0.00000   0.00111   0.00110   1.92265
   A11        1.93913   0.00034   0.00000   0.00166   0.00165   1.94079
   A12        1.94724  -0.00128   0.00000  -0.00810  -0.00810   1.93914
   A13        1.87587   0.00024   0.00000   0.00312   0.00311   1.87898
   A14        1.88934   0.00077   0.00000   0.00476   0.00476   1.89409
   A15        1.88847   0.00001   0.00000  -0.00209  -0.00211   1.88636
   A16        1.94833   0.00119   0.00000   0.00634   0.00633   1.95466
   A17        2.23143   0.00097   0.00000   0.00561   0.00562   2.23705
   A18        2.10342  -0.00216   0.00000  -0.01196  -0.01195   2.09147
   A19        1.59664   0.00133   0.00000  -0.00349  -0.00364   1.59300
   A20        2.10057  -0.00270   0.00000  -0.00932  -0.00935   2.09122
   A21        2.22797  -0.00136   0.00000  -0.00429  -0.00432   2.22365
   A22        1.95416   0.00408   0.00000   0.01405   0.01401   1.96817
   A23        1.58750   0.00135   0.00000  -0.00304  -0.00321   1.58430
   A24        1.93912   0.00163   0.00000   0.00472   0.00468   1.94379
   A25        2.35453   0.00145   0.00000   0.00065   0.00058   2.35511
   A26        1.98954  -0.00308   0.00000  -0.00537  -0.00527   1.98427
   A27        1.99162  -0.00282   0.00000  -0.00400  -0.00389   1.98773
   A28        1.94026   0.00123   0.00000   0.00277   0.00273   1.94299
   A29        2.35121   0.00159   0.00000   0.00122   0.00115   2.35236
   A30        1.95227  -0.00425   0.00000  -0.01171  -0.01160   1.94067
   A31        2.15456   0.00139   0.00000   0.00172   0.00167   2.15623
   A32        2.17590   0.00286   0.00000   0.00994   0.00989   2.18579
   A33        1.57990   0.00266   0.00000   0.00144   0.00131   1.58121
   A34        1.97731   0.00227   0.00000   0.00802   0.00800   1.98531
   A35        2.08614  -0.00236   0.00000  -0.01090  -0.01089   2.07525
   A36        2.21974   0.00009   0.00000   0.00288   0.00289   2.22263
   A37        1.93777  -0.00308   0.00000  -0.00686  -0.00677   1.93100
   A38        2.18261   0.00170   0.00000   0.00436   0.00431   2.18693
   A39        2.16280   0.00137   0.00000   0.00250   0.00246   2.16526
    D1        0.00299   0.00005   0.00000   0.00057   0.00058   0.00357
    D2       -3.11461   0.00002   0.00000  -0.00193  -0.00196  -3.11657
    D3        3.12934  -0.00002   0.00000  -0.00068  -0.00067   3.12867
    D4        0.01174  -0.00006   0.00000  -0.00318  -0.00321   0.00853
    D5       -0.00929  -0.00002   0.00000  -0.00125  -0.00125  -0.01053
    D6        3.12861  -0.00012   0.00000  -0.00233  -0.00233   3.12628
    D7       -3.13558   0.00006   0.00000   0.00003   0.00002  -3.13556
    D8        0.00232  -0.00004   0.00000  -0.00105  -0.00107   0.00125
    D9        0.00463  -0.00009   0.00000   0.00031   0.00030   0.00492
   D10        3.09881   0.00047   0.00000   0.00888   0.00889   3.10770
   D11        3.12086   0.00012   0.00000   0.00360   0.00355   3.12441
   D12       -0.06814   0.00068   0.00000   0.01217   0.01214  -0.05600
   D13        0.64502   0.00017   0.00000   0.00291   0.00292   0.64794
   D14       -1.43104  -0.00034   0.00000  -0.00273  -0.00272  -1.43376
   D15        2.74315   0.00029   0.00000   0.00435   0.00435   2.74749
   D16       -2.46890   0.00009   0.00000  -0.00022  -0.00022  -2.46912
   D17        1.73822  -0.00042   0.00000  -0.00585  -0.00586   1.73236
   D18       -0.37078   0.00021   0.00000   0.00122   0.00121  -0.36957
   D19       -0.00831   0.00003   0.00000  -0.00089  -0.00087  -0.00919
   D20       -3.10720  -0.00036   0.00000  -0.00818  -0.00828  -3.11547
   D21        2.44429  -0.00076   0.00000   0.00000   0.00000   2.44429
   D22       -0.73354   0.00015   0.00000   0.01665   0.01659  -0.71695
   D23       -0.74822  -0.00008   0.00000   0.00939   0.00939  -0.73883
   D24        2.35714   0.00082   0.00000   0.02605   0.02598   2.38312
   D25        0.01001  -0.00002   0.00000   0.00119   0.00118   0.01118
   D26       -3.12820   0.00006   0.00000   0.00214   0.00212  -3.12608
   D27        3.11389   0.00034   0.00000   0.00684   0.00686   3.12075
   D28        0.00322  -0.00035   0.00000  -0.00709  -0.00715  -0.00392
   D29       -3.11862  -0.00047   0.00000  -0.00884  -0.00891  -3.12753
   D30       -0.00827  -0.00055   0.00000  -0.01000  -0.01005  -0.01832
   D31       -0.01074   0.00027   0.00000   0.00628   0.00632  -0.00442
   D32        3.09961   0.00019   0.00000   0.00511   0.00518   3.10479
   D33        0.00554   0.00021   0.00000   0.00575   0.00577   0.01130
   D34       -3.13743   0.00005   0.00000   0.00257   0.00258  -3.13486
   D35       -0.01279  -0.00015   0.00000  -0.00349  -0.00348  -0.01627
   D36       -3.14150  -0.00017   0.00000  -0.00300  -0.00299   3.13869
   D37        3.12987  -0.00003   0.00000  -0.00103  -0.00102   3.12886
   D38        0.00116  -0.00005   0.00000  -0.00054  -0.00053   0.00063
   D39       -3.14096   0.00017   0.00000   0.00292   0.00291  -3.13805
   D40        0.00164   0.00013   0.00000   0.00253   0.00253   0.00416
   D41       -0.00078   0.00001   0.00000  -0.00033  -0.00033  -0.00111
   D42       -3.14136  -0.00003   0.00000  -0.00071  -0.00071   3.14111
   D43        0.01545  -0.00021   0.00000  -0.00215  -0.00213   0.01332
   D44       -3.09445  -0.00010   0.00000  -0.00078  -0.00078  -3.09523
   D45        3.14014  -0.00020   0.00000  -0.00279  -0.00278   3.13737
   D46        0.03024  -0.00009   0.00000  -0.00143  -0.00142   0.02882
   D47       -0.00095   0.00007   0.00000   0.00095   0.00094  -0.00001
   D48       -3.12600   0.00009   0.00000   0.00163   0.00162  -3.12438
   D49        0.00052  -0.00006   0.00000  -0.00117  -0.00117  -0.00064
   D50       -3.14095  -0.00001   0.00000  -0.00026  -0.00026  -3.14121
   D51        0.00003   0.00005   0.00000   0.00107   0.00107   0.00110
   D52        3.14063   0.00009   0.00000   0.00145   0.00145  -3.14111
   D53        3.14149  -0.00001   0.00000   0.00007   0.00007   3.14156
   D54       -0.00110   0.00003   0.00000   0.00046   0.00045  -0.00064
         Item               Value     Threshold  Converged?
 Maximum Force            0.043400     0.000450     NO 
 RMS     Force            0.008891     0.000300     NO 
 Maximum Displacement     0.088410     0.001800     NO 
 RMS     Displacement     0.027534     0.001200     NO 
 Predicted change in Energy=-9.242651D-03
 GradGradGradGradGradGradGradGradGradGradGradGradGradGradGradGradGradGrad

                          Input orientation:                          
 ---------------------------------------------------------------------
 Center     Atomic      Atomic             Coordinates (Angstroms)
 Number     Number       Type             X           Y           Z
 ---------------------------------------------------------------------
      1          6           0       -3.973201    0.763344    0.081841
      2          6           0       -2.588491    1.087079    0.286454
      3          6           0       -1.760676    0.010693   -0.030652
      4          6           0       -2.125322    2.425502    0.809352
      5          6           0       -4.170647   -0.530538   -0.374264
      6          1           0       -4.787915    1.464775    0.282622
      7         16           0       -2.673788   -1.381531   -0.581945
      8          1           0       -5.114539   -1.030785   -0.595492
      9          6           0       -0.301793   -0.042770    0.007045
     10         16           0        0.510687   -1.498053    0.604166
     11          6           0        2.071443   -0.782956    0.293146
     12          6           0        1.944707    0.517512   -0.229793
     13          6           0        0.590904    0.941802   -0.404445
     14          1           0        0.280256    1.896826   -0.833702
     15         16           0        3.506620    1.233430   -0.536081
     16          6           0        4.305319   -0.218031    0.040173
     17          6           0        3.430666   -1.210353    0.451043
     18          1           0        5.395923   -0.254203    0.042849
     19          1           0        3.745797   -2.180790    0.839396
     20          1           0       -2.827660    2.799227    1.570386
     21          1           0       -2.077852    3.174673    0.001259
     22          1           0       -1.125439    2.349148    1.263644
 ---------------------------------------------------------------------
                    Distance matrix (angstroms):
                    1          2          3          4          5
     1  C    0.000000
     2  C    1.436695   0.000000
     3  C    2.339745   1.394433   0.000000
     4  C    2.589730   1.509744   2.582611   0.000000
     5  C    1.386055   2.357213   2.493785   3.784505   0.000000
     6  H    1.093653   2.231621   3.372932   2.879209   2.189474
     7  S    2.594142   2.618288   1.753849   4.090236   1.734332
     8  H    2.231665   3.412344   3.556982   4.780683   1.090926
     9  C    3.759608   2.565856   1.460349   3.171959   3.918080
    10  S    5.048959   4.048303   2.799714   4.731272   4.879375
    11  C    6.242869   5.021161   3.926812   5.307872   6.282741
    12  C    5.931205   4.597913   3.745182   4.613609   6.206194
    13  C    4.593405   3.256839   2.556680   3.324538   4.984081
    14  H    4.496098   3.184360   2.892713   2.960732   5.090552
    15  S    7.520008   6.152102   5.430925   5.911852   7.878972
    16  C    8.336589   7.020583   6.070718   6.995216   8.491844
    17  C    7.671312   6.444807   5.354718   6.649574   7.676147
    18  H    9.424298   8.099953   7.161876   8.021064   9.579645
    19  H    8.296068   7.148981   5.990061   7.462498   8.177188
    20  H    2.769991   2.153400   3.387875   1.100964   4.083211
    21  H    3.068118   2.167979   3.179998   1.102962   4.271931
    22  H    3.467157   2.165234   2.747199   1.100898   4.499848
                    6          7          8          9         10
     6  H    0.000000
     7  S    3.649447   0.000000
     8  H    2.665631   2.465861   0.000000
     9  C    4.740667   2.786674   4.949924   0.000000
    10  S    6.079221   3.400194   5.770675   1.770459   0.000000
    11  C    7.218254   4.862231   7.244959   2.502394   1.744722
    12  C    6.818216   5.006084   7.236291   2.327396   2.610441
    13  C    5.447683   4.010935   6.039840   1.391263   2.641330
    14  H    5.207610   4.420111   6.142594   2.192640   3.694018
    15  S    8.338051   6.711004   8.913729   4.053107   4.211505
    16  C    9.250812   7.102725   9.476199   4.610563   4.044227
    17  C    8.644636   6.193604   8.610923   3.935941   2.938110
    18  H   10.330678   8.171993  10.558426   5.701750   5.072255
    19  H    9.296472   6.623451   9.049142   4.652626   3.314725
    20  H    2.698462   4.704779   4.958813   4.111081   5.526731
    21  H    3.216730   4.631874   5.221441   3.675100   5.375723
    22  H    3.893359   4.440895   5.549166   2.824660   4.232349
                   11         12         13         14         15
    11  C    0.000000
    12  C    1.407389   0.000000
    13  C    2.377692   1.429444   0.000000
    14  H    3.414581   2.244462   1.092170   0.000000
    15  S    2.610203   1.745257   2.933219   3.307279   0.000000
    16  C    2.318046   2.487246   3.916603   4.630055   1.754061
    17  C    1.433557   2.378472   3.664407   4.607625   2.636713
    18  H    3.375558   3.546937   4.971791   5.618301   2.473394
    19  H    2.248509   3.415835   4.609889   5.606798   3.688637
    20  H    6.201982   5.587697   4.363091   4.031514   6.856531
    21  H    5.741487   4.826476   3.503222   2.809044   5.936622
    22  H    4.579519   3.874409   2.776505   2.565041   5.093113
                   16         17         18         19         20
    16  C    0.000000
    17  C    1.385112   0.000000
    18  H    1.091207   2.223304   0.000000
    19  H    2.191859   1.091730   2.658786   0.000000
    20  H    7.894605   7.516402   8.904162   8.279206   0.000000
    21  H    7.228888   7.055106   8.222908   7.956026   1.779138
    22  H    6.130287   5.838532   7.127127   6.665529   1.787237
                   21         22
    21  H    0.000000
    22  H    1.783871   0.000000
 Stoichiometry    C11H8S3
 Framework group  C1[X(C11H8S3)]
 Deg. of freedom    60
 Full point group                 C1      NOp   1
 Largest Abelian subgroup         C1      NOp   1
 Largest concise Abelian subgroup C1      NOp   1
                         Standard orientation:                         
 ---------------------------------------------------------------------
 Center     Atomic      Atomic             Coordinates (Angstroms)
 Number     Number       Type             X           Y           Z
 ---------------------------------------------------------------------
      1          6           0       -3.964459    0.790244    0.087788
      2          6           0       -2.577484    1.105980    0.289537
      3          6           0       -1.756695    0.024102   -0.027147
      4          6           0       -2.105389    2.442461    0.809411
      5          6           0       -4.170455   -0.503185   -0.365813
      6          1           0       -4.774598    1.496901    0.288755
      7         16           0       -2.679095   -1.363519   -0.574571
      8          1           0       -5.117711   -0.998110   -0.584619
      9          6           0       -0.298099   -0.038079    0.008196
     10         16           0        0.506616   -1.497228    0.606398
     11          6           0        2.071119   -0.792059    0.291564
     12          6           0        1.951330    0.508274   -0.233345
     13          6           0        0.599811    0.940413   -0.406441
     14          1           0        0.294192    1.896572   -0.836780
     15         16           0        3.517003    1.214265   -0.543450
     16          6           0        4.307924   -0.241014    0.033901
     17          6           0        3.428010   -1.227366    0.447901
     18          1           0        5.398294   -0.283745    0.034811
     19          1           0        3.737951   -2.199033    0.837356
     20          1           0       -2.804182    2.821676    1.570991
     21          1           0       -2.054775    3.189982   -0.000018
     22          1           0       -1.105220    2.360848    1.262155
 ---------------------------------------------------------------------
 Rotational constants (GHZ):           1.2499904           0.2765233           0.2379970
 Standard basis: Aug-CC-pVDZ (5D, 7F)
 There are   434 symmetry adapted cartesian basis functions of A   symmetry.
 There are   406 symmetry adapted basis functions of A   symmetry.
   406 basis functions,   804 primitive gaussians,   434 cartesian basis functions
    61 alpha electrons       61 beta electrons
       nuclear repulsion energy      1117.1820380139 Hartrees.
 NAtoms=   22 NActive=   22 NUniq=   22 SFac= 1.00D+00 NAtFMM=   60 NAOKFM=F Big=F
 Integral buffers will be    131072 words long.
 Raffenetti 1 integral format.
 Two-electron integral symmetry is turned on.
 One-electron integrals computed using PRISM.
 NBasis=   406 RedAO= T EigKep=  3.49D-06  NBF=   406
 NBsUse=   406 1.00D-06 EigRej= -1.00D+00 NBFU=   406
 Initial guess from the checkpoint file:  "/tmp/pbs.4766302[315].pbs/Gau-4128200.chk"
 B after Tr=    -0.000000    0.000000    0.000000
         Rot=    0.999997   -0.001411    0.000020    0.002095 Ang=  -0.29 deg.
 ExpMin= 2.97D-02 ExpMax= 1.11D+05 ExpMxC= 1.07D+03 IAcc=3 IRadAn=         5 AccDes= 0.00D+00
 Harris functional with IExCor=  205 and IRadAn=       5 diagonalized for initial guess.
 HarFok:  IExCor=  205 AccDes= 0.00D+00 IRadAn=         5 IDoV= 1 UseB2=F ITyADJ=14
 ICtDFT=  3500011 ScaDFX=  1.000000  1.000000  1.000000  1.000000
 FoFCou: FMM=F IPFlag=           0 FMFlag=      100000 FMFlg1=           0
         NFxFlg=           0 DoJE=T BraDBF=F KetDBF=T FulRan=T
         wScrn=  0.000000 ICntrl=       500 IOpCl=  0 I1Cent=   200000004 NGrid=           0
         NMat0=    1 NMatS0=      1 NMatT0=    0 NMatD0=    1 NMtDS0=    0 NMtDT0=    0
 Petite list used in FoFCou.
 Requested convergence on RMS density matrix=1.00D-08 within 128 cycles.
 Requested convergence on MAX density matrix=1.00D-06.
 Requested convergence on             energy=1.00D-06.
 No special actions if energy rises.
 SCF Done:  E(RHF) =  -1613.80548411     A.U. after   15 cycles
            NFock= 15  Conv=0.63D-08     -V/T= 2.0006
 ExpMin= 2.97D-02 ExpMax= 1.11D+05 ExpMxC= 1.07D+03 IAcc=3 IRadAn=         5 AccDes= 0.00D+00
 HarFok:  IExCor=  205 AccDes= 0.00D+00 IRadAn=         5 IDoV=-2 UseB2=F ITyADJ=14
 ICtDFT= 12500011 ScaDFX=  1.000000  1.000000  1.000000  1.000000
 GSVD:  LWork=        -884 too small for GESVD, short by        3770 words or        3770 for optimal perf.
 Range of M.O.s used for correlation:    27   406
 NBasis=   406 NAE=    61 NBE=    61 NFC=    26 NFV=     0
 NROrb=    380 NOA=    35 NOB=    35 NVA=   345 NVB=   345

 **** Warning!!: The largest alpha MO coefficient is  0.84603424D+02

 Disk-based method using ON**2 memory for 35 occupieds at a time.
 Estimated scratch disk usage=  5833114516 words.
 Actual    scratch disk usage=  4757091732 words.
 JobTyp=1 Pass  1:  I=  27 to  61 NPSUse= 16 ParTrn=T ParDer=T DoDerP=T.
 (rs|ai) integrals will be sorted in core.
 Spin components of T(2) and E(2):
     alpha-alpha T2 =       0.1168153049D+00 E2=     -0.2673321372D+00
     alpha-beta  T2 =       0.5752319483D+00 E2=     -0.1411722291D+01
     beta-beta   T2 =       0.1168153049D+00 E2=     -0.2673321372D+00
 ANorm=    0.1344939611D+01
 E2 =    -0.1946386565D+01 EUMP2 =    -0.16157518706786D+04
          IDoAtm=1111111111111111111111
          Differentiating once with respect to electric field.
                with respect to dipole field.
          Differentiating once with respect to nuclear coordinates.
 Keep R1 ints in memory in canonical form, NReq=3454318301.
          There are     1 degrees of freedom in the 1st order CPHF.  IDoFFX=0 NUNeed=     1.
 LinEq1:  Iter=  0 NonCon=     1 RMS=2.73D-03 Max=7.41D-02 NDo=     1
 AX will form     1 AO Fock derivatives at one time.
 LinEq1:  Iter=  1 NonCon=     1 RMS=6.24D-04 Max=1.07D-02 NDo=     1
 LinEq1:  Iter=  2 NonCon=     1 RMS=3.53D-04 Max=1.71D-02 NDo=     1
 LinEq1:  Iter=  3 NonCon=     1 RMS=1.04D-04 Max=2.46D-03 NDo=     1
 LinEq1:  Iter=  4 NonCon=     1 RMS=4.30D-05 Max=1.34D-03 NDo=     1
 LinEq1:  Iter=  5 NonCon=     1 RMS=1.58D-05 Max=7.12D-04 NDo=     1
 LinEq1:  Iter=  6 NonCon=     1 RMS=5.57D-06 Max=3.08D-04 NDo=     1
 LinEq1:  Iter=  7 NonCon=     1 RMS=2.88D-06 Max=1.13D-04 NDo=     1
 LinEq1:  Iter=  8 NonCon=     1 RMS=1.14D-06 Max=4.50D-05 NDo=     1
 LinEq1:  Iter=  9 NonCon=     1 RMS=5.18D-07 Max=1.74D-05 NDo=     1
 LinEq1:  Iter= 10 NonCon=     1 RMS=2.30D-07 Max=9.10D-06 NDo=     1
 LinEq1:  Iter= 11 NonCon=     1 RMS=1.09D-07 Max=3.46D-06 NDo=     1
 LinEq1:  Iter= 12 NonCon=     1 RMS=3.68D-08 Max=7.22D-07 NDo=     1
 LinEq1:  Iter= 13 NonCon=     1 RMS=1.27D-08 Max=2.17D-07 NDo=     1
 LinEq1:  Iter= 14 NonCon=     1 RMS=4.31D-09 Max=8.11D-08 NDo=     1
 LinEq1:  Iter= 15 NonCon=     1 RMS=1.77D-09 Max=4.42D-08 NDo=     1
 LinEq1:  Iter= 16 NonCon=     1 RMS=7.76D-10 Max=2.42D-08 NDo=     1
 LinEq1:  Iter= 17 NonCon=     1 RMS=3.13D-10 Max=8.12D-09 NDo=     1
 LinEq1:  Iter= 18 NonCon=     1 RMS=1.05D-10 Max=2.28D-09 NDo=     1
 LinEq1:  Iter= 19 NonCon=     0 RMS=3.91D-11 Max=6.65D-10 NDo=     1
 Linear equations converged to 1.000D-10 1.000D-09 after    19 iterations.
 End of Minotr F.D. properties file   721 does not exist.
 End of Minotr F.D. properties file   722 does not exist.
 End of Minotr F.D. properties file   788 does not exist.
 Calling FoFJK, ICntrl=  10002127 FMM=F ISym2X=0 I1Cent= 0 IOpClX= 0 NMat=1 NMatS=1 NMatT=0.
 ***** Axes restored to original set *****
 -------------------------------------------------------------------
 Center     Atomic                   Forces (Hartrees/Bohr)
 Number     Number              X              Y              Z
 -------------------------------------------------------------------
      1        6           0.007284338    0.003309369    0.001634930
      2        6          -0.010960202    0.003857721    0.001443153
      3        6           0.008312636   -0.005505241   -0.002754310
      4        6           0.001147321   -0.001470599   -0.000544294
      5        6          -0.002457112   -0.004213631   -0.001585747
      6        1          -0.000563255   -0.000984734   -0.000323160
      7       16          -0.001144624    0.004865036    0.001975022
      8        1           0.000150587   -0.000125134    0.000049798
      9        6          -0.007662479   -0.003292890    0.000588070
     10       16           0.001206893    0.003848206   -0.001184047
     11        6           0.006559437   -0.007970900    0.003064068
     12        6          -0.005960583    0.007984475   -0.002900378
     13        6           0.008672636    0.001618866    0.000164201
     14        1          -0.001133444   -0.000869483    0.000089010
     15       16          -0.000925532   -0.003994450    0.001571081
     16        6           0.003508591    0.002599054   -0.001021660
     17        6          -0.007334379   -0.000250490    0.000128574
     18        1          -0.000002318    0.000093231   -0.000038636
     19        1           0.000903439    0.000538955   -0.000254414
     20        1          -0.000149512    0.000095523    0.000027197
     21        1           0.000331978    0.000140334   -0.000097488
     22        1           0.000215582   -0.000273219   -0.000030970
 -------------------------------------------------------------------
 Cartesian Forces:  Max     0.010960202 RMS     0.003603503

 GradGradGradGradGradGradGradGradGradGradGradGradGradGradGradGradGradGrad
 Berny optimization.
 Using GEDIIS/GDIIS optimizer.
 FormGI is forming the generalized inverse of G from B-inverse, IUseBI=4.
 Internal  Forces:  Max     0.005288086 RMS     0.001465910
 Search for a local minimum.
 Step number   2 out of a maximum of  127
 All quantities printed in internal units (Hartrees-Bohrs-Radians)
 Mixed Optimization -- RFO/linear search
 Update second derivatives using D2CorX and points    1    2
 DE= -9.34D-03 DEPred=-9.24D-03 R= 1.01D+00
 TightC=F SS=  1.41D+00  RLast= 1.94D-01 DXNew= 5.0454D-01 5.8138D-01
 Trust test= 1.01D+00 RLast= 1.94D-01 DXMaxT set to 5.05D-01
 ITU=  1  0
 Use linear search instead of GDIIS.
     Eigenvalues ---    0.00682   0.01372   0.01471   0.01572   0.01622
     Eigenvalues ---    0.01691   0.01750   0.01861   0.01978   0.02043
     Eigenvalues ---    0.02070   0.02138   0.02254   0.02270   0.02386
     Eigenvalues ---    0.02420   0.07160   0.07285   0.15905   0.15993
     Eigenvalues ---    0.15999   0.16000   0.16000   0.16000   0.16000
     Eigenvalues ---    0.16030   0.22542   0.22597   0.23713   0.24274
     Eigenvalues ---    0.24770   0.24907   0.24985   0.24996   0.25209
     Eigenvalues ---    0.28936   0.29951   0.30295   0.31047   0.31311
     Eigenvalues ---    0.31736   0.32363   0.34631   0.34897   0.35239
     Eigenvalues ---    0.35704   0.36111   0.36283   0.36388   0.36495
     Eigenvalues ---    0.36901   0.38380   0.39189   0.39423   0.45345
     Eigenvalues ---    0.49054   0.51651   0.53438   0.538991000.00000
     Eigenvalues --- 1000.000001000.000001000.000001000.000001000.00000
     Eigenvalues --- 1000.000001000.000001000.000001000.000001000.00000
     Eigenvalues --- 1000.000001000.000001000.000001000.000001000.00000
     Eigenvalues --- 1000.000001000.000001000.000001000.000001000.00000
     Eigenvalues --- 1000.000001000.000001000.000001000.000001000.00000
     Eigenvalues --- 1000.000001000.000001000.000001000.000001000.00000
     Eigenvalues --- 1000.000001000.000001000.000001000.000001000.00000
     Eigenvalues --- 1000.000001000.000001000.000001000.000001000.00000
     Eigenvalues --- 1000.000001000.000001000.000001000.000001000.00000
     Eigenvalues --- 1000.000001000.000001000.000001000.000001000.00000
     Eigenvalues --- 1000.000001000.000001000.000001000.000001000.00000
     Eigenvalues --- 1000.000001000.00000
 RFO step:  Lambda=-8.59307616D-04 EMin= 6.82327036D-03
 Quartic linear search produced a step of  0.09522.
 Iteration  1 RMS(Cart)=  0.02326807 RMS(Int)=  0.00020634
 Iteration  2 RMS(Cart)=  0.00029767 RMS(Int)=  0.00002507
 Iteration  3 RMS(Cart)=  0.00000005 RMS(Int)=  0.00002507
 Iteration  1 RMS(Cart)=  0.00001606 RMS(Int)=  0.00000599
 Iteration  2 RMS(Cart)=  0.00000881 RMS(Int)=  0.00000669
 Iteration  3 RMS(Cart)=  0.00000484 RMS(Int)=  0.00000756
 Iteration  4 RMS(Cart)=  0.00000265 RMS(Int)=  0.00000814
 Iteration  5 RMS(Cart)=  0.00000146 RMS(Int)=  0.00000848
 Iteration  6 RMS(Cart)=  0.00000080 RMS(Int)=  0.00000867
 Variable       Old X    -DE/DX   Delta X   Delta X   Delta X     New X
                                 (Linear)    (Quad)   (Total)
    R1        2.71496  -0.00399  -0.00087  -0.01060  -0.01148   2.70348
    R2        2.61926   0.00281   0.00680   0.00227   0.00905   2.62832
    R3        2.06670  -0.00027   0.00257  -0.00197   0.00060   2.06731
    R4        2.63510   0.00529   0.00623   0.00809   0.01433   2.64943
    R5        2.85300  -0.00109   0.00062  -0.00401  -0.00339   2.84961
[...]
     22          1           0       -1.098480    2.330693    1.283728
 ---------------------------------------------------------------------
 Rotational constants (GHZ):           1.2635490           0.2771018           0.2372522

 **********************************************************************

            Population analysis using the SCF Density.

 **********************************************************************

 Orbital symmetries:
       Occupied  (A) (A) (A) (A) (A) (A) (A) (A) (A) (A) (A) (A)
                 (A) (A) (A) (A) (A) (A) (A) (A) (A) (A) (A) (A)
                 (A) (A) (A) (A) (A) (A) (A) (A) (A) (A) (A) (A)
                 (A) (A) (A) (A) (A) (A) (A) (A) (A) (A) (A) (A)
                 (A) (A) (A) (A) (A) (A) (A) (A) (A) (A) (A) (A)
                 (A)
       Virtual   (A) (A) (A) (A) (A) (A) (A) (A) (A) (A) (A) (A)
                 (A) (A) (A) (A) (A) (A) (A) (A) (A) (A) (A) (A)
                 (A) (A) (A) (A) (A) (A) (A) (A) (A) (A) (A) (A)
                 (A) (A) (A) (A) (A) (A) (A) (A) (A) (A) (A) (A)
                 (A) (A) (A) (A) (A) (A) (A) (A) (A) (A) (A) (A)
                 (A) (A) (A) (A) (A) (A) (A) (A) (A) (A) (A) (A)
                 (A) (A) (A) (A) (A) (A) (A) (A) (A) (A) (A) (A)
                 (A) (A) (A) (A) (A) (A) (A) (A) (A) (A) (A) (A)
                 (A) (A) (A) (A) (A) (A) (A) (A) (A) (A) (A) (A)
                 (A) (A) (A) (A) (A) (A) (A) (A) (A) (A) (A) (A)
                 (A) (A) (A) (A) (A) (A) (A) (A) (A) (A) (A) (A)
                 (A) (A) (A) (A) (A) (A) (A) (A) (A) (A) (A) (A)
                 (A) (A) (A) (A) (A) (A) (A) (A) (A) (A) (A) (A)
                 (A) (A) (A) (A) (A) (A) (A) (A) (A) (A) (A) (A)
                 (A) (A) (A) (A) (A) (A) (A) (A) (A) (A) (A) (A)
                 (A) (A) (A) (A) (A) (A) (A) (A) (A) (A) (A) (A)
                 (A) (A) (A) (A) (A) (A) (A) (A) (A) (A) (A) (A)
                 (A) (A) (A) (A) (A) (A) (A) (A) (A) (A) (A) (A)
                 (A) (A) (A) (A) (A) (A) (A) (A) (A) (A) (A) (A)
                 (A) (A) (A) (A) (A) (A) (A) (A) (A) (A) (A) (A)
                 (A) (A) (A) (A) (A) (A) (A) (A) (A) (A) (A) (A)
                 (A) (A) (A) (A) (A) (A) (A) (A) (A) (A) (A) (A)
                 (A) (A) (A) (A) (A) (A) (A) (A) (A) (A) (A) (A)
                 (A) (A) (A) (A) (A) (A) (A) (A) (A) (A) (A) (A)
                 (A) (A) (A) (A) (A) (A) (A) (A) (A) (A) (A) (A)
                 (A) (A) (A) (A) (A) (A) (A) (A) (A) (A) (A) (A)
                 (A) (A) (A) (A) (A) (A) (A) (A) (A) (A) (A) (A)
                 (A) (A) (A) (A) (A) (A) (A) (A) (A) (A) (A) (A)
                 (A) (A) (A) (A) (A) (A) (A) (A) (A)
 The electronic state is 1-A.
 Alpha  occ. eigenvalues --  -91.99515 -91.99438 -91.99073 -11.29582 -11.28459
 Alpha  occ. eigenvalues --  -11.28207 -11.28095 -11.27984 -11.27955 -11.26556
 Alpha  occ. eigenvalues --  -11.26468 -11.26202 -11.25244 -11.24365  -8.99625
 Alpha  occ. eigenvalues --   -8.99541  -8.99240  -6.67791  -6.67710  -6.67704
 Alpha  occ. eigenvalues --   -6.67620  -6.67514  -6.67420  -6.67403  -6.67311
 Alpha  occ. eigenvalues --   -6.67131  -1.20680  -1.17795  -1.11869  -1.03810
 Alpha  occ. eigenvalues --   -1.02548  -1.01398  -0.95000  -0.94407  -0.91436
 Alpha  occ. eigenvalues --   -0.82114  -0.76792  -0.76357  -0.72441  -0.69812
 Alpha  occ. eigenvalues --   -0.66776  -0.66243  -0.60284  -0.58822  -0.58770
 Alpha  occ. eigenvalues --   -0.56535  -0.55838  -0.54413  -0.53827  -0.52434
 Alpha  occ. eigenvalues --   -0.51860  -0.50929  -0.49629  -0.47522  -0.46329
 Alpha  occ. eigenvalues --   -0.45990  -0.39225  -0.34576  -0.34047  -0.32255
 Alpha  occ. eigenvalues --   -0.27105
 Alpha virt. eigenvalues --    0.03409   0.03541   0.04033   0.04873   0.04932
 Alpha virt. eigenvalues --    0.05494   0.05948   0.06780   0.07633   0.08343
 Alpha virt. eigenvalues --    0.08686   0.09663   0.10030   0.10663   0.10971
 Alpha virt. eigenvalues --    0.11242   0.11751   0.12406   0.12550   0.13023
 Alpha virt. eigenvalues --    0.13449   0.13776   0.14092   0.14316   0.14654
 Alpha virt. eigenvalues --    0.15048   0.15101   0.15418   0.15897   0.16252
 Alpha virt. eigenvalues --    0.16521   0.17304   0.17768   0.18156   0.18485
 Alpha virt. eigenvalues --    0.18666   0.19247   0.19492   0.20126   0.20485
 Alpha virt. eigenvalues --    0.20508   0.21212   0.21483   0.21562   0.21733
 Alpha virt. eigenvalues --    0.22466   0.22944   0.23187   0.23867   0.24024
 Alpha virt. eigenvalues --    0.24787   0.25271   0.25706   0.26320   0.26485
 Alpha virt. eigenvalues --    0.26722   0.27201   0.27578   0.28041   0.28711
 Alpha virt. eigenvalues --    0.29413   0.29648   0.30526   0.31153   0.31655
 Alpha virt. eigenvalues --    0.32046   0.32560   0.32792   0.33145   0.33828
 Alpha virt. eigenvalues --    0.34242   0.34691   0.35142   0.35323   0.36706
 Alpha virt. eigenvalues --    0.36916   0.37544   0.37917   0.38960   0.39742
 Alpha virt. eigenvalues --    0.40287   0.40540   0.41083   0.41498   0.43312
 Alpha virt. eigenvalues --    0.43576   0.43808   0.44316   0.45086   0.45448
 Alpha virt. eigenvalues --    0.45569   0.46201   0.46568   0.47573   0.48021
 Alpha virt. eigenvalues --    0.48071   0.48723   0.49021   0.49710   0.50683
 Alpha virt. eigenvalues --    0.51905   0.52859   0.53636   0.54198   0.54667
 Alpha virt. eigenvalues --    0.55384   0.56632   0.56915   0.57980   0.58318
 Alpha virt. eigenvalues --    0.58803   0.59395   0.59722   0.60751   0.61127
 Alpha virt. eigenvalues --    0.61667   0.62298   0.63141   0.63795   0.64266
 Alpha virt. eigenvalues --    0.64950   0.65244   0.65539   0.65981   0.66531
 Alpha virt. eigenvalues --    0.66777   0.67191   0.67597   0.67858   0.68527
 Alpha virt. eigenvalues --    0.69151   0.69792   0.70207   0.70742   0.71443
 Alpha virt. eigenvalues --    0.72218   0.72457   0.73461   0.73813   0.73916
 Alpha virt. eigenvalues --    0.74283   0.74725   0.75062   0.75516   0.76028
 Alpha virt. eigenvalues --    0.77286   0.77814   0.78225   0.79542   0.80012
 Alpha virt. eigenvalues --    0.80681   0.81335   0.81450   0.82921   0.83833
 Alpha virt. eigenvalues --    0.84478   0.84885   0.85777   0.86912   0.87364
 Alpha virt. eigenvalues --    0.87716   0.88783   0.88876   0.89964   0.90823
 Alpha virt. eigenvalues --    0.91180   0.91607   0.92339   0.93106   0.93786
 Alpha virt. eigenvalues --    0.94119   0.95092   0.95716   0.96502   0.97239
 Alpha virt. eigenvalues --    0.97805   0.98838   0.99479   0.99671   1.00432
 Alpha virt. eigenvalues --    1.01039   1.02399   1.02747   1.04267   1.05317
 Alpha virt. eigenvalues --    1.06142   1.06914   1.07292   1.10104   1.10580
 Alpha virt. eigenvalues --    1.11404   1.12024   1.12880   1.13383   1.14882
 Alpha virt. eigenvalues --    1.15919   1.17486   1.18686   1.19324   1.21287
 Alpha virt. eigenvalues --    1.22909   1.23004   1.23392   1.23556   1.24655
 Alpha virt. eigenvalues --    1.24787   1.25947   1.27461   1.28209   1.29344
 Alpha virt. eigenvalues --    1.30620   1.30806   1.31576   1.32931   1.33156
 Alpha virt. eigenvalues --    1.34513   1.35176   1.35658   1.37267   1.39250
 Alpha virt. eigenvalues --    1.40335   1.41318   1.42535   1.44613   1.45670
 Alpha virt. eigenvalues --    1.46969   1.47757   1.49703   1.52019   1.52837
 Alpha virt. eigenvalues --    1.55235   1.55794   1.56744   1.58033   1.58392
 Alpha virt. eigenvalues --    1.60355   1.61480   1.61917   1.64242   1.65409
 Alpha virt. eigenvalues --    1.65913   1.66241   1.67311   1.68626   1.69471
 Alpha virt. eigenvalues --    1.69568   1.70163   1.71028   1.72531   1.72874
 Alpha virt. eigenvalues --    1.73916   1.74637   1.77197   1.78757   1.79087
 Alpha virt. eigenvalues --    1.80407   1.80854   1.81313   1.82550   1.83378
 Alpha virt. eigenvalues --    1.85507   1.86043   1.87427   1.88309   1.88968
 Alpha virt. eigenvalues --    1.91068   1.91936   1.94438   1.95760   1.96191
 Alpha virt. eigenvalues --    1.96984   1.97243   1.98764   1.99899   2.00969
 Alpha virt. eigenvalues --    2.03600   2.04810   2.07444   2.08094   2.09039
 Alpha virt. eigenvalues --    2.09773   2.10472   2.11711   2.12319   2.13256
 Alpha virt. eigenvalues --    2.14140   2.17381   2.18356   2.18832   2.19637
 Alpha virt. eigenvalues --    2.21945   2.22458   2.23019   2.24881   2.25319
 Alpha virt. eigenvalues --    2.28122   2.29121   2.30440   2.31989   2.32466
 Alpha virt. eigenvalues --    2.34229   2.35860   2.36686   2.38340   2.38885
 Alpha virt. eigenvalues --    2.40468   2.42826   2.44335   2.44803   2.45784
 Alpha virt. eigenvalues --    2.48604   2.49334   2.50417   2.51509   2.52921
 Alpha virt. eigenvalues --    2.56652   2.58318   2.59151   2.62495   2.68794
 Alpha virt. eigenvalues --    2.69917   2.72371   2.75976   2.80177   2.81569
 Alpha virt. eigenvalues --    2.83331   2.84814   2.88341   2.93492   2.94618
 Alpha virt. eigenvalues --    2.97663   2.98855   3.05754   3.08858   3.15080
 Alpha virt. eigenvalues --    3.21225   3.28433   3.32414   3.38356   3.50020
 Alpha virt. eigenvalues --    3.57826   3.68956   3.77454   4.11034   4.21796
          Condensed to atoms (all electrons):
               1          2          3          4          5          6
     1  C   10.173955  -2.565394  -0.933046  -1.052567   0.254617  -0.255343
     2  C   -2.565394  10.719524  -1.351907   0.552168  -0.001316   0.210682
     3  C   -0.933046  -1.351907  12.637304  -0.582490  -1.145928   0.082712
     4  C   -1.052567   0.552168  -0.582490   6.015437   0.086356   0.057464
     5  C    0.254617  -0.001316  -1.145928   0.086356   6.598146  -0.103678
     6  H   -0.255343   0.210682   0.082712   0.057464  -0.103678   1.547727
     7  S   -0.401508  -0.042615  -0.445821   0.114970   0.300433  -0.013882
     8  H   -0.051078   0.119155  -0.057753   0.030226   0.244659  -0.062743
     9  C    0.565764  -1.032088  -1.855511  -0.038253   0.180336  -0.019614
    10  S    0.003427  -0.032459  -0.446174  -0.010251   0.010061  -0.001149
    11  C    0.062616  -0.006474  -0.212547  -0.114556   0.006754   0.000562
    12  C   -0.116147  -0.022463   0.577409   0.290241  -0.007551  -0.003591
    13  C   -0.139332  -0.113485  -0.502615  -0.464742  -0.068052   0.009957
    14  H    0.033340  -0.091021   0.109508   0.088307  -0.007612   0.000343
    15  S   -0.000344   0.013265  -0.082354  -0.014149   0.000219  -0.000001
    16  C    0.000582  -0.006396   0.011654  -0.001193   0.000145  -0.000006
    17  C    0.006750  -0.000187  -0.369402  -0.023987  -0.001350   0.000176
    18  H    0.000037   0.000138  -0.000517  -0.000237  -0.000003  -0.000000
    19  H   -0.000148   0.001044  -0.006966  -0.000023   0.000036  -0.000027
    20  H    0.042890   0.002705  -0.044133   0.164608   0.018956  -0.005525
    21  H   -0.013372   0.041917   0.034382   0.273991   0.008389   0.001818
    22  H   -0.069006   0.028622   0.054412   0.267938  -0.018145   0.000314
               7          8          9         10         11         12
     1  C   -0.401508  -0.051078   0.565764   0.003427   0.062616  -0.116147
     2  C   -0.042615   0.119155  -1.032088  -0.032459  -0.006474  -0.022463
     3  C   -0.445821  -0.057753  -1.855511  -0.446174  -0.212547   0.577409
     4  C    0.114970   0.030226  -0.038253  -0.010251  -0.114556   0.290241
     5  C    0.300433   0.244659   0.180336   0.010061   0.006754  -0.007551
     6  H   -0.013882  -0.062743  -0.019614  -0.001149   0.000562  -0.003591
     7  S   16.212950  -0.114313   0.007331   0.183455   0.048313  -0.016993
     8  H   -0.114313   1.226185  -0.000945   0.004633   0.002187  -0.000423
     9  C    0.007331  -0.000945  11.713971   0.226180  -0.253854  -0.213619
    10  S    0.183455   0.004633   0.226180  16.459334   0.324657  -0.503603
    11  C    0.048313   0.002187  -0.253854   0.324657  10.402811  -0.370936
    12  C   -0.016993  -0.000423  -0.213619  -0.503603  -0.370936  12.125187
    13  C   -0.276612  -0.006157  -3.025863  -0.473416  -0.720793  -3.973014
    14  H    0.001999  -0.000245   0.266303   0.010410  -0.078427   0.473842
    15  S    0.000836  -0.000020  -0.359183   0.109492   0.025479  -0.502402
    16  C    0.000602   0.000030   0.063912  -0.100718  -0.214287  -0.767072
    17  C    0.021565  -0.000084  -0.470410  -0.257096  -2.848951  -0.651890
    18  H    0.000017   0.000002   0.002262   0.008386   0.056437  -0.048045
    19  H    0.001369   0.000018   0.095344   0.029892   0.564476   0.015474
    20  H   -0.001829   0.001604   0.052892   0.001167   0.000599   0.010000
    21  H    0.007070   0.001135  -0.023263   0.000276  -0.003908  -0.003660
    22  H    0.002381   0.000101  -0.025114   0.004417  -0.011218   0.039234
              13         14         15         16         17         18
     1  C   -0.139332   0.033340  -0.000344   0.000582   0.006750   0.000037
     2  C   -0.113485  -0.091021   0.013265  -0.006396  -0.000187   0.000138
     3  C   -0.502615   0.109508  -0.082354   0.011654  -0.369402  -0.000517
     4  C   -0.464742   0.088307  -0.014149  -0.001193  -0.023987  -0.000237
     5  C   -0.068052  -0.007612   0.000219   0.000145  -0.001350  -0.000003
     6  H    0.009957   0.000343  -0.000001  -0.000006   0.000176  -0.000000
     7  S   -0.276612   0.001999   0.000836   0.000602   0.021565   0.000017
     8  H   -0.006157  -0.000245  -0.000020   0.000030  -0.000084   0.000002
     9  C   -3.025863   0.266303  -0.359183   0.063912  -0.470410   0.002262
    10  S   -0.473416   0.010410   0.109492  -0.100718  -0.257096   0.008386
    11  C   -0.720793  -0.078427   0.025479  -0.214287  -2.848951   0.056437
    12  C   -3.973014   0.473842  -0.502402  -0.767072  -0.651890  -0.048045
    13  C   16.101655  -0.999261   0.211114  -0.053786   0.336566   0.030148
    14  H   -0.999261   1.704415  -0.023545   0.014852  -0.038740   0.002068
    15  S    0.211114  -0.023545  15.981305   0.186154   0.012138  -0.146218
    16  C   -0.053786   0.014852   0.186154   6.486423   0.355294   0.273305
    17  C    0.336566  -0.038740   0.012138   0.355294   9.940539  -0.011313
    18  H    0.030148   0.002068  -0.146218   0.273305  -0.011313   1.250260
    19  H   -0.066312  -0.001846  -0.001752  -0.128440  -0.492136  -0.061504
    20  H   -0.044479   0.011387   0.000139   0.000247   0.000009   0.000020
    21  H    0.011193  -0.032428  -0.003699  -0.000550  -0.001135  -0.000048
    22  H    0.000811   0.006055  -0.000895  -0.000471  -0.009431  -0.000024
              19         20         21         22
     1  C   -0.000148   0.042890  -0.013372  -0.069006
     2  C    0.001044   0.002705   0.041917   0.028622
     3  C   -0.006966  -0.044133   0.034382   0.054412
     4  C   -0.000023   0.164608   0.273991   0.267938
     5  C    0.000036   0.018956   0.008389  -0.018145
     6  H   -0.000027  -0.005525   0.001818   0.000314
     7  S    0.001369  -0.001829   0.007070   0.002381
     8  H    0.000018   0.001604   0.001135   0.000101
     9  C    0.095344   0.052892  -0.023263  -0.025114
    10  S    0.029892   0.001167   0.000276   0.004417
    11  C    0.564476   0.000599  -0.003908  -0.011218
    12  C    0.015474   0.010000  -0.003660   0.039234
    13  C   -0.066312  -0.044479   0.011193   0.000811
    14  H   -0.001846   0.011387  -0.032428   0.006055
    15  S   -0.001752   0.000139  -0.003699  -0.000895
    16  C   -0.128440   0.000247  -0.000550  -0.000471
    17  C   -0.492136   0.000009  -0.001135  -0.009431
    18  H   -0.061504   0.000020  -0.000048  -0.000024
    19  H    1.347986   0.000059   0.000020   0.000194
    20  H    0.000059   1.257464  -0.159743  -0.164301
    21  H    0.000020  -0.159743   0.789939  -0.083824
    22  H    0.000194  -0.164301  -0.083824   0.887220
 Mulliken charges:
               1
     1  C    0.453306
     2  C   -0.423415
     3  C    0.529784
     4  C    0.360742
     5  C   -0.355470
     6  H   -0.446196
     7  S    0.410283
     8  H   -0.336175
     9  C    0.143423
    10  S    0.449079
    11  C   -0.658938
    12  C   -0.329977
    13  C    0.226474
    14  H   -0.449704
    15  S    0.594422
    16  C   -0.120282
    17  C    0.503075
    18  H   -0.355171
    19  H   -0.296757
    20  H   -0.144733
    21  H    0.155504
    22  H    0.090728
 Sum of Mulliken charges =  -0.00000
 Mulliken charges with hydrogens summed into heavy atoms:
               1
     1  C    0.007110
     2  C   -0.423415
     3  C    0.529784
     4  C    0.462241
     5  C   -0.691645
     7  S    0.410283
     9  C    0.143423
    10  S    0.449079
    11  C   -0.658938
    12  C   -0.329977
    13  C   -0.223230
    15  S    0.594422
    16  C   -0.475454
    17  C    0.206317
 Electronic spatial extent (au):  <R**2>=           4369.2142
 Charge=             -0.0000 electrons
 Dipole moment (field-independent basis, Debye):
    X=             -0.3921    Y=              1.0335    Z=              0.3623  Tot=              1.1632
 Quadrupole moment (field-independent basis, Debye-Ang):
   XX=            -87.5332   YY=            -99.4961   ZZ=           -110.6953
   XY=             -6.1490   XZ=              0.9975   YZ=             -0.9607
 Traceless Quadrupole moment (field-independent basis, Debye-Ang):
   XX=             11.7084   YY=             -0.2546   ZZ=            -11.4538
   XY=             -6.1490   XZ=              0.9975   YZ=             -0.9607
 Octapole moment (field-independent basis, Debye-Ang**2):
  XXX=             -2.1611  YYY=              4.0153  ZZZ=              1.3568  XYY=             -5.0493
  XXY=            -17.3373  XXZ=              5.0638  XZZ=             -1.1169  YZZ=              1.9574
  YYZ=              2.1764  XYZ=            -13.7572
 Hexadecapole moment (field-independent basis, Debye-Ang**3):
 XXXX=          -4159.2346 YYYY=          -1063.9378 ZZZZ=           -276.8421 XXXY=            -28.9871
 XXXZ=             33.0370 YYYX=            -34.4727 YYYZ=            -13.8828 ZZZX=             -5.6810
 ZZZY=              2.5391 XXYY=           -938.9853 XXZZ=           -932.1789 YYZZ=           -223.3117
 XXYZ=             10.5789 YYXZ=              7.0236 ZZXY=             -2.6666
 N-N= 1.118282515688D+03 E-N=-6.055835337012D+03  KE= 1.612924312840D+03
 Unable to Open any file for archive entry.
 1\1\GINC-CX3-12-29\FOpt\RMP2-FC\Aug-CC-pVDZ\C11H8S3\NS5018\27-Oct-2021
 \0\\# opt=modredundant mp2/aug-cc-pvdz\\pBTTT_140.pdb\\0,1\C,-3.977689
 5937,0.7567154268,0.1143385889\C,-2.5990650613,1.0861628695,0.27198931
 3\C,-1.7658511355,0.0080293565,-0.0734451282\C,-2.0962629116,2.4165684
 369,0.7736675615\C,-4.19188932,-0.5441767556,-0.3316679425\H,-4.796060
 3442,1.4467350703,0.3373086486\S,-2.6977913008,-1.3792491451,-0.582158
 9951\H,-5.1389682835,-1.050195571,-0.521528819\C,-0.313080388,-0.04651
 09081,-0.0380593215\S,0.5038036318,-1.5106409191,0.5229097122\C,2.0685
 405606,-0.7886113104,0.2690650333\C,1.9365584242,0.5394048193,-0.20889
 50106\C,0.5910906486,0.960248794,-0.3906266663\H,0.2719519284,1.923720
 3679,-0.7918172398\S,3.5022390321,1.2620651954,-0.4577645892\C,4.30235
 09211,-0.2002488907,0.0731460765\C,3.4198981296,-1.2125960685,0.430397
 4185\H,5.3927463005,-0.2310880609,0.0930842993\H,3.7444520339,-2.19262
 65673,0.784471565\H,-2.8323042999,2.8717167367,1.4542294737\H,-1.92569
 33079,3.123620556,-0.0559329187\H,-1.1439756643,2.2949565676,1.3142889
 404\\Version=ES64L-G16RevC.01\State=1-A\HF=-1613.8031605\MP2=-1615.752
 5861\RMSD=5.526e-09\RMSF=5.694e-06\Dipole=-0.0650395,0.2915717,0.10513
 5\PG=C01 [X(C11H8S3)]\\@
 The archive entry for this job was punched.


 HERE WE GO......
 SLIDING DOWN THE RAZOR BLADE OF LIFE......
                                 TOM LEHRER
 Job cpu time:       0 days 16 hours 19 minutes 57.0 seconds.
 Elapsed time:       0 days  1 hours 11 minutes 43.3 seconds.
 File lengths (MBytes):  RWF=  36421 Int=      0 D2E=      0 Chk=     18 Scr=      1
 Normal termination of Gaussian 16 at Wed Oct 27 07:18:06 2021.
