 Entering Gaussian System, Link 0=g16
 Input=pBTTT_-125.gjf
 Output=pBTTT_-125.log
 Initial command:
 /apps/gaussian/g16-c01-avx/g16/l1.exe "/tmp/pbs.4766302[50].pbs/Gau-1588173.inp" -scrdir="/tmp/pbs.4766302[50].pbs/"
 Entering Link 1 = /apps/gaussian/g16-c01-avx/g16/l1.exe PID=   1588174.
  
 Copyright (c) 1988-2019, Gaussian, Inc.  All Rights Reserved.
  
 This is part of the Gaussian(R) 16 program.  It is based on
 the Gaussian(R) 09 system (copyright 2009, Gaussian, Inc.),
 the Gaussian(R) 03 system (copyright 2003, Gaussian, Inc.),
 the Gaussian(R) 98 system (copyright 1998, Gaussian, Inc.),
 the Gaussian(R) 94 system (copyright 1995, Gaussian, Inc.),
 the Gaussian 92(TM) system (copyright 1992, Gaussian, Inc.),
 the Gaussian 90(TM) system (copyright 1990, Gaussian, Inc.),
 the Gaussian 88(TM) system (copyright 1988, Gaussian, Inc.),
 the Gaussian 86(TM) system (copyright 1986, Carnegie Mellon
 University), and the Gaussian 82(TM) system (copyright 1983,
 Carnegie Mellon University). Gaussian is a federally registered
 trademark of Gaussian, Inc.
  
 This software contains proprietary and confidential information,
 including trade secrets, belonging to Gaussian, Inc.
  
 This software is provided under written license and may be
 used, copied, transmitted, or stored only in accord with that
 written license.
  
 The following legend is applicable only to US Government
 contracts under FAR:
  
                    RESTRICTED RIGHTS LEGEND
  
 Use, reproduction and disclosure by the US Government is
 subject to restrictions as set forth in subparagraphs (a)
 and (c) of the Commercial Computer Software - Restricted
 Rights clause in FAR 52.227-19.
  
 Gaussian, Inc.
 340 Quinnipiac St., Bldg. 40, Wallingford CT 06492
  
  
 ---------------------------------------------------------------
 Warning -- This program may not be used in any manner that
 competes with the business of Gaussian, Inc. or will provide
 assistance to any competitor of Gaussian, Inc.  The licensee
 of this program is prohibited from giving any competitor of
 Gaussian, Inc. access to this program.  By using this program,
 the user acknowledges that Gaussian, Inc. is engaged in the
 business of creating and licensing software in the field of
 computational chemistry and represents and warrants to the
 licensee that it is not a competitor of Gaussian, Inc. and that
 it will not use this program in any manner prohibited above.
 ---------------------------------------------------------------
  

 Cite this work as:
 Gaussian 16, Revision C.01,
 M. J. Frisch, G. W. Trucks, H. B. Schlegel, G. E. Scuseria, 
 M. A. Robb, J. R. Cheeseman, G. Scalmani, V. Barone, 
 G. A. Petersson, H. Nakatsuji, X. Li, M. Caricato, A. V. Marenich, 
 J. Bloino, B. G. Janesko, R. Gomperts, B. Mennucci, H. P. Hratchian, 
 J. V. Ortiz, A. F. Izmaylov, J. L. Sonnenberg, D. Williams-Young, 
 F. Ding, F. Lipparini, F. Egidi, J. Goings, B. Peng, A. Petrone, 
 T. Henderson, D. Ranasinghe, V. G. Zakrzewski, J. Gao, N. Rega, 
 G. Zheng, W. Liang, M. Hada, M. Ehara, K. Toyota, R. Fukuda, 
 J. Hasegawa, M. Ishida, T. Nakajima, Y. Honda, O. Kitao, H. Nakai, 
 T. Vreven, K. Throssell, J. A. Montgomery, Jr., J. E. Peralta, 
 F. Ogliaro, M. J. Bearpark, J. J. Heyd, E. N. Brothers, K. N. Kudin, 
 V. N. Staroverov, T. A. Keith, R. Kobayashi, J. Normand, 
 K. Raghavachari, A. P. Rendell, J. C. Burant, S. S. Iyengar, 
 J. Tomasi, M. Cossi, J. M. Millam, M. Klene, C. Adamo, R. Cammi, 
 J. W. Ochterski, R. L. Martin, K. Morokuma, O. Farkas, 
 J. B. Foresman, and D. J. Fox, Gaussian, Inc., Wallingford CT, 2019.
 
 ******************************************
 Gaussian 16:  ES64L-G16RevC.01  3-Jul-2019
                26-Oct-2021 
 ******************************************
 %mem=100GB
 %nprocshared=16
 Will use up to   16 processors via shared memory.
 ----------------------------------
 # opt=modredundant mp2/aug-cc-pvdz
 ----------------------------------
 1/18=120,19=15,38=1/1,3;
 2/9=110,12=2,17=6,18=5,40=1/2;
 3/5=16,7=10,11=9,25=1,30=1,71=1/1,2,3;
 4//1;
 5/5=2,38=5/2;
 8/6=4,10=1/1;
 9/15=2,16=-3/6;
 10/5=1/2;
 6/7=2,8=2,9=2,10=2/1;
 7/12=2/1,2,3,16;
 1/18=20,19=15/3(2);
 2/9=110/2;
 99//99;
 2/9=110/2;
 3/5=16,7=10,11=9,25=1,30=1,71=1/1,2,3;
 4/5=5,16=3,69=1/1;
 5/5=2,38=5/2;
 8/6=4,10=1/1;
 9/15=2,16=-3/6;
 10/5=1/2;
 7/12=2/1,2,3,16;
 1/18=20,19=15/3(-8);
 2/9=110/2;
 6/7=2,8=2,9=2,10=2/1;
 99/9=10/99;
 --------------
 pBTTT_-125.pdb
 --------------
 Symbolic Z-matrix:
 Charge =  0 Multiplicity = 1
 C                     3.961     0.727     0.126 
 C                     2.57      1.03      0.363 
 C                     1.757     0.026    -0.054 
 C                     2.136     2.313     1.021 
 C                     4.16     -0.478    -0.442 
 H                     4.764     1.399     0.392 
 S                     2.671    -1.302    -0.732 
 H                     5.098    -0.935    -0.708 
 C                     0.288    -0.038    -0.012 
 S                    -0.527    -1.381     0.782 
 C                    -2.079    -0.714     0.38 
 C                    -1.947     0.457    -0.307 
 C                    -0.588     0.847    -0.542 
 H                    -0.283     1.723    -1.09 
 S                    -3.499     1.124    -0.712 
 C                    -4.298    -0.215     0.069 
 C                    -3.44     -1.111     0.601 
 H                    -5.374    -0.257     0.085 
 H                    -3.749    -2.003     1.121 
 H                     2.76      2.518     1.891 
 H                     1.101     2.266     1.345 
 H                     2.242     3.156     0.336 
 
 The following ModRedundant input section has been read:
 D       2       3       9      10 F                                           
 

 GradGradGradGradGradGradGradGradGradGradGradGradGradGradGradGradGradGrad
 Berny optimization.
 Initialization pass.
                           ----------------------------
                           !    Initial Parameters    !
                           ! (Angstroms and Degrees)  !
 --------------------------                            --------------------------
 ! Name  Definition              Value          Derivative Info.                !
 --------------------------------------------------------------------------------
 ! R1    R(1,2)                  1.4432         estimate D2E/DX2                !
 ! R2    R(1,5)                  1.3469         estimate D2E/DX2                !
 ! R3    R(1,6)                  1.0803         estimate D2E/DX2                !
 ! R4    R(2,3)                  1.3575         estimate D2E/DX2                !
 ! R5    R(2,4)                  1.5058         estimate D2E/DX2                !
 ! R6    R(3,7)                  1.7489         estimate D2E/DX2                !
 ! R7    R(3,9)                  1.471          estimate D2E/DX2                !
 ! R8    R(4,20)                 1.0901         estimate D2E/DX2                !
 ! R9    R(4,21)                 1.0855         estimate D2E/DX2                !
 ! R10   R(4,22)                 1.0914         estimate D2E/DX2                !
 ! R11   R(5,7)                  1.7263         estimate D2E/DX2                !
 ! R12   R(5,8)                  1.0768         estimate D2E/DX2                !
 ! R13   R(9,10)                 1.7602         estimate D2E/DX2                !
 ! R14   R(9,13)                 1.3533         estimate D2E/DX2                !
 ! R15   R(10,11)                1.7364         estimate D2E/DX2                !
 ! R16   R(11,12)                1.3641         estimate D2E/DX2                !
 ! R17   R(11,17)                1.4348         estimate D2E/DX2                !
 ! R18   R(12,13)                1.4333         estimate D2E/DX2                !
 ! R19   R(12,15)                1.7371         estimate D2E/DX2                !
 ! R20   R(13,14)                1.0774         estimate D2E/DX2                !
 ! R21   R(15,16)                1.7439         estimate D2E/DX2                !
 ! R22   R(16,17)                1.3498         estimate D2E/DX2                !
 ! R23   R(16,18)                1.0769         estimate D2E/DX2                !
 ! R24   R(17,19)                1.0777         estimate D2E/DX2                !
 ! A1    A(2,1,5)              113.5451         estimate D2E/DX2                !
 ! A2    A(2,1,6)              123.0496         estimate D2E/DX2                !
 ! A3    A(5,1,6)              123.4005         estimate D2E/DX2                !
 ! A4    A(1,2,3)              111.8082         estimate D2E/DX2                !
 ! A5    A(1,2,4)              121.9            estimate D2E/DX2                !
 ! A6    A(3,2,4)              126.283          estimate D2E/DX2                !
 ! A7    A(2,3,7)              111.5731         estimate D2E/DX2                !
 ! A8    A(2,3,9)              128.4243         estimate D2E/DX2                !
 ! A9    A(7,3,9)              119.9958         estimate D2E/DX2                !
 ! A10   A(2,4,20)             110.1207         estimate D2E/DX2                !
 ! A11   A(2,4,21)             111.6129         estimate D2E/DX2                !
 ! A12   A(2,4,22)             110.8468         estimate D2E/DX2                !
 ! A13   A(20,4,21)            108.4037         estimate D2E/DX2                !
 ! A14   A(20,4,22)            107.4616         estimate D2E/DX2                !
 ! A15   A(21,4,22)            108.2629         estimate D2E/DX2                !
 ! A16   A(1,5,7)              111.7417         estimate D2E/DX2                !
 ! A17   A(1,5,8)              127.7751         estimate D2E/DX2                !
 ! A18   A(7,5,8)              120.4831         estimate D2E/DX2                !
 ! A19   A(3,7,5)               91.3296         estimate D2E/DX2                !
 ! A20   A(3,9,10)             120.5615         estimate D2E/DX2                !
 ! A21   A(3,9,13)             127.3572         estimate D2E/DX2                !
 ! A22   A(10,9,13)            112.0797         estimate D2E/DX2                !
 ! A23   A(9,10,11)             90.9357         estimate D2E/DX2                !
 ! A24   A(10,11,12)           111.0918         estimate D2E/DX2                !
 ! A25   A(10,11,17)           134.8983         estimate D2E/DX2                !
 ! A26   A(12,11,17)           114.0097         estimate D2E/DX2                !
 ! A27   A(11,12,13)           114.0752         estimate D2E/DX2                !
 ! A28   A(11,12,15)           111.1364         estimate D2E/DX2                !
 ! A29   A(13,12,15)           134.784          estimate D2E/DX2                !
 ! A30   A(9,13,12)            111.8145         estimate D2E/DX2                !
 ! A31   A(9,13,14)            123.2075         estimate D2E/DX2                !
 ! A32   A(12,13,14)           124.9656         estimate D2E/DX2                !
 ! A33   A(12,15,16)            90.5793         estimate D2E/DX2                !
 ! A34   A(15,16,17)           113.2626         estimate D2E/DX2                !
 ! A35   A(15,16,18)           119.6275         estimate D2E/DX2                !
 ! A36   A(17,16,18)           127.1099         estimate D2E/DX2                !
 ! A37   A(11,17,16)           111.0119         estimate D2E/DX2                !
 ! A38   A(11,17,19)           125.1183         estimate D2E/DX2                !
 ! A39   A(16,17,19)           123.8697         estimate D2E/DX2                !
 ! D1    D(5,1,2,3)             -0.5147         estimate D2E/DX2                !
 ! D2    D(5,1,2,4)            178.4704         estimate D2E/DX2                !
 ! D3    D(6,1,2,3)           -179.7443         estimate D2E/DX2                !
 ! D4    D(6,1,2,4)             -0.7592         estimate D2E/DX2                !
 ! D5    D(2,1,5,7)              0.5093         estimate D2E/DX2                !
 ! D6    D(2,1,5,8)           -179.3902         estimate D2E/DX2                !
 ! D7    D(6,1,5,7)            179.7358         estimate D2E/DX2                !
 ! D8    D(6,1,5,8)             -0.1636         estimate D2E/DX2                !
 ! D9    D(1,2,3,7)              0.2768         estimate D2E/DX2                !
 ! D10   D(1,2,3,9)           -178.7568         estimate D2E/DX2                !
 ! D11   D(4,2,3,7)           -178.6543         estimate D2E/DX2                !
 ! D12   D(4,2,3,9)              2.312          estimate D2E/DX2                !
 ! D13   D(1,2,4,20)           -45.0729         estimate D2E/DX2                !
 ! D14   D(1,2,4,21)          -165.5242         estimate D2E/DX2                !
 ! D15   D(1,2,4,22)            73.7083         estimate D2E/DX2                !
 ! D16   D(3,2,4,20)           133.7582         estimate D2E/DX2                !
 ! D17   D(3,2,4,21)            13.3069         estimate D2E/DX2                !
 ! D18   D(3,2,4,22)          -107.4607         estimate D2E/DX2                !
 ! D19   D(2,3,7,5)             -0.0004         estimate D2E/DX2                !
 ! D20   D(9,3,7,5)            179.1255         estimate D2E/DX2                !
 ! D21   D(2,3,9,10)          -125.0085         Frozen                          !
 ! D22   D(2,3,9,13)            55.4911         estimate D2E/DX2                !
 ! D23   D(7,3,9,10)            56.0291         estimate D2E/DX2                !
 ! D24   D(7,3,9,13)          -123.4713         estimate D2E/DX2                !
 ! D25   D(1,5,7,3)             -0.2957         estimate D2E/DX2                !
 ! D26   D(8,5,7,3)            179.6121         estimate D2E/DX2                !
 ! D27   D(3,9,10,11)         -179.6203         estimate D2E/DX2                !
 ! D28   D(13,9,10,11)          -0.0489         estimate D2E/DX2                !
 ! D29   D(3,9,13,12)          179.8988         estimate D2E/DX2                !
 ! D30   D(3,9,13,14)            1.1212         estimate D2E/DX2                !
 ! D31   D(10,9,13,12)           0.3631         estimate D2E/DX2                !
 ! D32   D(10,9,13,14)        -178.4146         estimate D2E/DX2                !
 ! D33   D(9,10,11,12)          -0.2933         estimate D2E/DX2                !
 ! D34   D(9,10,11,17)         179.5479         estimate D2E/DX2                !
 ! D35   D(10,11,12,13)          0.5599         estimate D2E/DX2                !
 ! D36   D(10,11,12,15)        179.9085         estimate D2E/DX2                !
 ! D37   D(17,11,12,13)       -179.3169         estimate D2E/DX2                !
 ! D38   D(17,11,12,15)          0.0317         estimate D2E/DX2                !
 ! D39   D(10,11,17,16)       -179.9296         estimate D2E/DX2                !
 ! D40   D(10,11,17,19)          0.0821         estimate D2E/DX2                !
 ! D41   D(12,11,17,16)         -0.0918         estimate D2E/DX2                !
 ! D42   D(12,11,17,19)        179.9198         estimate D2E/DX2                !
 ! D43   D(11,12,13,9)          -0.6054         estimate D2E/DX2                !
 ! D44   D(11,12,13,14)        178.1466         estimate D2E/DX2                !
 ! D45   D(15,12,13,9)        -179.7493         estimate D2E/DX2                !
 ! D46   D(15,12,13,14)         -0.9973         estimate D2E/DX2                !
 ! D47   D(11,12,15,16)          0.0252         estimate D2E/DX2                !
 ! D48   D(13,12,15,16)        179.1872         estimate D2E/DX2                !
 ! D49   D(12,15,16,17)         -0.08           estimate D2E/DX2                !
 ! D50   D(12,15,16,18)        179.9946         estimate D2E/DX2                !
 ! D51   D(15,16,17,11)          0.1099         estimate D2E/DX2                !
 ! D52   D(15,16,17,19)       -179.9016         estimate D2E/DX2                !
 ! D53   D(18,16,17,11)       -179.9713         estimate D2E/DX2                !
 ! D54   D(18,16,17,19)          0.0172         estimate D2E/DX2                !
 --------------------------------------------------------------------------------
 Trust Radius=3.00D-01 FncErr=1.00D-07 GrdErr=1.00D-07 EigMax=2.50D+02 EigMin=1.00D-04
 Number of steps in this run=    127 maximum allowed number of steps=    132.
 GradGradGradGradGradGradGradGradGradGradGradGradGradGradGradGradGradGrad

                          Input orientation:                          
 ---------------------------------------------------------------------
 Center     Atomic      Atomic             Coordinates (Angstroms)
 Number     Number       Type             X           Y           Z
 ---------------------------------------------------------------------
      1          6           0        3.961000    0.727000    0.126000
      2          6           0        2.570000    1.030000    0.363000
      3          6           0        1.757000    0.026000   -0.054000
      4          6           0        2.136000    2.313000    1.021000
      5          6           0        4.160000   -0.478000   -0.442000
      6          1           0        4.764000    1.399000    0.392000
      7         16           0        2.671000   -1.302000   -0.732000
      8          1           0        5.098000   -0.935000   -0.708000
      9          6           0        0.288000   -0.038000   -0.012000
     10         16           0       -0.527000   -1.381000    0.782000
     11          6           0       -2.079000   -0.714000    0.380000
     12          6           0       -1.947000    0.457000   -0.307000
     13          6           0       -0.588000    0.847000   -0.542000
     14          1           0       -0.283000    1.723000   -1.090000
     15         16           0       -3.499000    1.124000   -0.712000
     16          6           0       -4.298000   -0.215000    0.069000
     17          6           0       -3.440000   -1.111000    0.601000
     18          1           0       -5.374000   -0.257000    0.085000
     19          1           0       -3.749000   -2.003000    1.121000
     20          1           0        2.760000    2.518000    1.891000
     21          1           0        1.101000    2.266000    1.345000
     22          1           0        2.242000    3.156000    0.336000
 ---------------------------------------------------------------------
                    Distance matrix (angstroms):
                    1          2          3          4          5
     1  C    0.000000
     2  C    1.443211   0.000000
     3  C    2.319788   1.357525   0.000000
     4  C    2.578187   1.505792   2.555315   0.000000
     5  C    1.346941   2.334564   2.485753   3.745214   0.000000
     6  H    1.080347   2.225003   3.335580   2.852617   2.140911
     7  S    2.552862   2.578265   1.748904   4.053080   1.726325
     8  H    2.179580   3.376248   3.537445   4.723599   1.076777
     9  C    3.754357   2.547307   1.470993   3.163763   3.920572
    10  S    5.001614   3.947137   2.809840   4.560080   4.927632
    11  C    6.214708   4.965383   3.930757   5.228751   6.297341
    12  C    5.929996   4.602230   3.737564   4.677522   6.179636
    13  C    4.599350   3.290209   2.532037   3.465877   4.930429
    14  H    4.525727   3.275831   2.848632   3.264350   5.000455
    15  S    7.517410   6.164189   5.409631   6.014170   7.829405
    16  C    8.312743   6.986121   6.061042   6.978069   8.477503
    17  C    7.640594   6.384405   5.360094   6.556825   7.697307
    18  H    9.386808   8.052378   7.137967   7.992565   9.551111
    19  H    8.239358   7.050065   5.984438   7.298704   8.204930
    20  H    2.786630   2.141268   3.316489   1.090092   4.047086
    21  H    3.469017   2.156381   2.721238   1.085546   4.481114
    22  H    2.983136   2.151323   3.191273   1.091380   4.182100
                    6          7          8          9         10
     6  H    0.000000
     7  S    3.597141   0.000000
     8  H    2.601752   2.454709   0.000000
     9  C    4.718343   2.791914   4.942178   0.000000
    10  S    5.989589   3.539158   5.836064   1.760202   0.000000
    11  C    7.161813   4.913735   7.262363   2.492655   1.736432
    12  C    6.812744   4.959902   7.192391   2.308089   2.565261
    13  C    5.460857   3.908373   5.961013   1.353330   2.592428
    14  H    5.270058   4.243219   6.013821   2.142253   3.633006
    15  S    8.340960   6.629840   8.840130   4.022638   4.164114
    16  C    9.210275   7.098601   9.455525   4.590129   4.011031
    17  C    8.581923   6.257611   8.639554   3.927478   2.931080
    18  H   10.276946   8.153621  10.523845   5.667064   5.024201
    19  H    9.196533   6.718736   9.096993   4.630581   3.298953
    20  H    2.741382   4.634701   4.913680   4.033030   5.218855
    21  H    3.882971   4.416951   5.516994   2.794787   4.033356
    22  H    3.074194   4.604175   5.097348   3.760433   5.333915
                   11         12         13         14         15
    11  C    0.000000
    12  C    1.364051   0.000000
    13  C    2.347315   1.433250   0.000000
    14  H    3.365336   2.232653   1.077360   0.000000
    15  S    2.566536   1.737129   2.929087   3.293075   0.000000
    16  C    2.295579   2.473896   3.907079   4.606447   1.743927
    17  C    1.434842   2.347794   3.643366   4.567022   2.592812
    18  H    3.339596   3.522469   4.951539   5.587424   2.461299
    19  H    2.235957   3.367193   4.569463   5.548401   3.633252
    20  H    6.012060   5.588808   4.463276   4.333386   6.920544
    21  H    4.463634   3.910484   2.902938   2.852986   5.166760
    22  H    5.800851   5.024517   3.756496   3.234593   6.179515
                   16         17         18         19         20
    16  C    0.000000
    17  C    1.349816   0.000000
    18  H    1.076938   2.176219   0.000000
    19  H    2.145938   1.077750   2.600469   0.000000
    20  H    7.784879   7.298886   8.782039   7.962375   0.000000
    21  H    6.077231   5.707744   7.062489   6.465063   1.764625
    22  H    7.362508   7.110741   8.349552   7.945035   1.758804
                   21         22
    21  H    0.000000
    22  H    1.764104   0.000000
 Stoichiometry    C11H8S3
 Framework group  C1[X(C11H8S3)]
 Deg. of freedom    60
 Full point group                 C1      NOp   1
 Largest Abelian subgroup         C1      NOp   1
 Largest concise Abelian subgroup C1      NOp   1
                         Standard orientation:                         
 ---------------------------------------------------------------------
 Center     Atomic      Atomic             Coordinates (Angstroms)
 Number     Number       Type             X           Y           Z
 ---------------------------------------------------------------------
      1          6           0        3.961040    0.726931    0.126016
      2          6           0        2.570054    1.029993    0.363016
      3          6           0        1.757009    0.026029   -0.053984
      4          6           0        2.136111    2.313012    1.021016
      5          6           0        4.159987   -0.478078   -0.441984
      6          1           0        4.764070    1.398896    0.392016
      7         16           0        2.670951   -1.302012   -0.731984
      8          1           0        5.097967   -0.935119   -0.707984
      9          6           0        0.288007   -0.037906   -0.011984
     10         16           0       -0.527053   -1.380870    0.782016
     11          6           0       -2.079023   -0.713801    0.380016
     12          6           0       -1.946972    0.457193   -0.306984
     13          6           0       -0.587954    0.847133   -0.541984
     14          1           0       -0.282916    1.723119   -1.089984
     15         16           0       -3.498942    1.124261   -0.711984
     16          6           0       -4.298001   -0.214703    0.069016
     17          6           0       -3.440041   -1.110741    0.601016
     18          1           0       -5.374003   -0.256656    0.085016
     19          1           0       -3.749080   -2.002727    1.121016
     20          1           0        2.760120    2.517984    1.891016
     21          1           0        1.101109    2.266058    1.345016
     22          1           0        2.242148    3.156007    0.336016
 ---------------------------------------------------------------------
 Rotational constants (GHZ):           1.2827410           0.2721388           0.2437366
 Standard basis: Aug-CC-pVDZ (5D, 7F)
 There are   434 symmetry adapted cartesian basis functions of A   symmetry.
 There are   406 symmetry adapted basis functions of A   symmetry.
   406 basis functions,   804 primitive gaussians,   434 cartesian basis functions
    61 alpha electrons       61 beta electrons
       nuclear repulsion energy      1123.7817010983 Hartrees.
 NAtoms=   22 NActive=   22 NUniq=   22 SFac= 1.00D+00 NAtFMM=   60 NAOKFM=F Big=F
 Integral buffers will be    131072 words long.
 Raffenetti 1 integral format.
 Two-electron integral symmetry is turned on.
 One-electron integrals computed using PRISM.
 NBasis=   406 RedAO= T EigKep=  3.34D-06  NBF=   406
 NBsUse=   406 1.00D-06 EigRej= -1.00D+00 NBFU=   406
 ExpMin= 2.97D-02 ExpMax= 1.11D+05 ExpMxC= 1.07D+03 IAcc=3 IRadAn=         5 AccDes= 0.00D+00
 Harris functional with IExCor=  205 and IRadAn=       5 diagonalized for initial guess.
 HarFok:  IExCor=  205 AccDes= 0.00D+00 IRadAn=         5 IDoV= 1 UseB2=F ITyADJ=14
 ICtDFT=  3500011 ScaDFX=  1.000000  1.000000  1.000000  1.000000
 FoFCou: FMM=F IPFlag=           0 FMFlag=      100000 FMFlg1=           0
         NFxFlg=           0 DoJE=T BraDBF=F KetDBF=T FulRan=T
         wScrn=  0.000000 ICntrl=       500 IOpCl=  0 I1Cent=   200000004 NGrid=           0
         NMat0=    1 NMatS0=      1 NMatT0=    0 NMatD0=    1 NMtDS0=    0 NMtDT0=    0
 Petite list used in FoFCou.
 Requested convergence on RMS density matrix=1.00D-08 within 128 cycles.
 Requested convergence on MAX density matrix=1.00D-06.
 Requested convergence on             energy=1.00D-06.
 No special actions if energy rises.
 SCF Done:  E(RHF) =  -1613.81463261     A.U. after   17 cycles
            NFock= 17  Conv=0.44D-08     -V/T= 2.0001
 ExpMin= 2.97D-02 ExpMax= 1.11D+05 ExpMxC= 1.07D+03 IAcc=3 IRadAn=         5 AccDes= 0.00D+00
 HarFok:  IExCor=  205 AccDes= 0.00D+00 IRadAn=         5 IDoV=-2 UseB2=F ITyADJ=14
 ICtDFT= 12500011 ScaDFX=  1.000000  1.000000  1.000000  1.000000
 GSVD:  LWork=        -884 too small for GESVD, short by        3770 words or        3770 for optimal perf.
 Range of M.O.s used for correlation:    27   406
 NBasis=   406 NAE=    61 NBE=    61 NFC=    26 NFV=     0
 NROrb=    380 NOA=    35 NOB=    35 NVA=   345 NVB=   345

 **** Warning!!: The largest alpha MO coefficient is  0.98252215D+02

 Disk-based method using ON**2 memory for 35 occupieds at a time.
 Estimated scratch disk usage=  5839315544 words.
 Actual    scratch disk usage=  4762482776 words.
 JobTyp=1 Pass  1:  I=  27 to  61 NPSUse= 16 ParTrn=T ParDer=T DoDerP=T.
 (rs|ai) integrals will be sorted in core.
 Spin components of T(2) and E(2):
     alpha-alpha T2 =       0.1133848759D+00 E2=     -0.2644133550D+00
     alpha-beta  T2 =       0.5600431991D+00 E2=     -0.1398756937D+01
     beta-beta   T2 =       0.1133848759D+00 E2=     -0.2644133550D+00
 ANorm=    0.1336717229D+01
 E2 =    -0.1927583647D+01 EUMP2 =    -0.16157422162615D+04
          IDoAtm=1111111111111111111111
          Differentiating once with respect to electric field.
                with respect to dipole field.
          Differentiating once with respect to nuclear coordinates.
 Keep R1 ints in memory in canonical form, NReq=3454318301.
          There are     1 degrees of freedom in the 1st order CPHF.  IDoFFX=0 NUNeed=     1.
 LinEq1:  Iter=  0 NonCon=     1 RMS=2.71D-03 Max=7.58D-02 NDo=     1
 AX will form     1 AO Fock derivatives at one time.
 LinEq1:  Iter=  1 NonCon=     1 RMS=5.91D-04 Max=8.98D-03 NDo=     1
 LinEq1:  Iter=  2 NonCon=     1 RMS=3.31D-04 Max=1.24D-02 NDo=     1
 LinEq1:  Iter=  3 NonCon=     1 RMS=9.18D-05 Max=1.76D-03 NDo=     1
 LinEq1:  Iter=  4 NonCon=     1 RMS=3.61D-05 Max=7.99D-04 NDo=     1
 LinEq1:  Iter=  5 NonCon=     1 RMS=1.25D-05 Max=3.95D-04 NDo=     1
 LinEq1:  Iter=  6 NonCon=     1 RMS=3.98D-06 Max=1.35D-04 NDo=     1
 LinEq1:  Iter=  7 NonCon=     1 RMS=1.90D-06 Max=6.25D-05 NDo=     1
 LinEq1:  Iter=  8 NonCon=     1 RMS=7.22D-07 Max=1.99D-05 NDo=     1
 LinEq1:  Iter=  9 NonCon=     1 RMS=2.60D-07 Max=9.51D-06 NDo=     1
 LinEq1:  Iter= 10 NonCon=     1 RMS=8.03D-08 Max=2.08D-06 NDo=     1
 LinEq1:  Iter= 11 NonCon=     1 RMS=3.76D-08 Max=1.74D-06 NDo=     1
 LinEq1:  Iter= 12 NonCon=     1 RMS=1.55D-08 Max=4.03D-07 NDo=     1
 LinEq1:  Iter= 13 NonCon=     1 RMS=7.04D-09 Max=1.59D-07 NDo=     1
 LinEq1:  Iter= 14 NonCon=     1 RMS=2.53D-09 Max=5.35D-08 NDo=     1
 LinEq1:  Iter= 15 NonCon=     1 RMS=1.01D-09 Max=2.85D-08 NDo=     1
 LinEq1:  Iter= 16 NonCon=     1 RMS=4.15D-10 Max=8.75D-09 NDo=     1
 LinEq1:  Iter= 17 NonCon=     1 RMS=1.82D-10 Max=5.43D-09 NDo=     1
 LinEq1:  Iter= 18 NonCon=     1 RMS=6.18D-11 Max=1.54D-09 NDo=     1
 LinEq1:  Iter= 19 NonCon=     0 RMS=2.30D-11 Max=4.52D-10 NDo=     1
 Linear equations converged to 1.000D-10 1.000D-09 after    19 iterations.
 End of Minotr F.D. properties file   721 does not exist.
 End of Minotr F.D. properties file   722 does not exist.
 End of Minotr F.D. properties file   788 does not exist.

 **********************************************************************

            Population analysis using the SCF Density.

 **********************************************************************

 Orbital symmetries:
       Occupied  (A) (A) (A) (A) (A) (A) (A) (A) (A) (A) (A) (A)
                 (A) (A) (A) (A) (A) (A) (A) (A) (A) (A) (A) (A)
                 (A) (A) (A) (A) (A) (A) (A) (A) (A) (A) (A) (A)
                 (A) (A) (A) (A) (A) (A) (A) (A) (A) (A) (A) (A)
                 (A) (A) (A) (A) (A) (A) (A) (A) (A) (A) (A) (A)
                 (A)
       Virtual   (A) (A) (A) (A) (A) (A) (A) (A) (A) (A) (A) (A)
                 (A) (A) (A) (A) (A) (A) (A) (A) (A) (A) (A) (A)
                 (A) (A) (A) (A) (A) (A) (A) (A) (A) (A) (A) (A)
                 (A) (A) (A) (A) (A) (A) (A) (A) (A) (A) (A) (A)
                 (A) (A) (A) (A) (A) (A) (A) (A) (A) (A) (A) (A)
                 (A) (A) (A) (A) (A) (A) (A) (A) (A) (A) (A) (A)
                 (A) (A) (A) (A) (A) (A) (A) (A) (A) (A) (A) (A)
                 (A) (A) (A) (A) (A) (A) (A) (A) (A) (A) (A) (A)
                 (A) (A) (A) (A) (A) (A) (A) (A) (A) (A) (A) (A)
                 (A) (A) (A) (A) (A) (A) (A) (A) (A) (A) (A) (A)
                 (A) (A) (A) (A) (A) (A) (A) (A) (A) (A) (A) (A)
                 (A) (A) (A) (A) (A) (A) (A) (A) (A) (A) (A) (A)
                 (A) (A) (A) (A) (A) (A) (A) (A) (A) (A) (A) (A)
                 (A) (A) (A) (A) (A) (A) (A) (A) (A) (A) (A) (A)
                 (A) (A) (A) (A) (A) (A) (A) (A) (A) (A) (A) (A)
                 (A) (A) (A) (A) (A) (A) (A) (A) (A) (A) (A) (A)
                 (A) (A) (A) (A) (A) (A) (A) (A) (A) (A) (A) (A)
                 (A) (A) (A) (A) (A) (A) (A) (A) (A) (A) (A) (A)
                 (A) (A) (A) (A) (A) (A) (A) (A) (A) (A) (A) (A)
                 (A) (A) (A) (A) (A) (A) (A) (A) (A) (A) (A) (A)
                 (A) (A) (A) (A) (A) (A) (A) (A) (A) (A) (A) (A)
                 (A) (A) (A) (A) (A) (A) (A) (A) (A) (A) (A) (A)
                 (A) (A) (A) (A) (A) (A) (A) (A) (A) (A) (A) (A)
                 (A) (A) (A) (A) (A) (A) (A) (A) (A) (A) (A) (A)
                 (A) (A) (A) (A) (A) (A) (A) (A) (A) (A) (A) (A)
                 (A) (A) (A) (A) (A) (A) (A) (A) (A) (A) (A) (A)
                 (A) (A) (A) (A) (A) (A) (A) (A) (A) (A) (A) (A)
                 (A) (A) (A) (A) (A) (A) (A) (A) (A) (A) (A) (A)
                 (A) (A) (A) (A) (A) (A) (A) (A) (A)
 The electronic state is 1-A.
 Alpha  occ. eigenvalues --  -91.99072 -91.98970 -91.98378 -11.28901 -11.27790
 Alpha  occ. eigenvalues --  -11.27626 -11.27310 -11.27166 -11.27155 -11.25816
 Alpha  occ. eigenvalues --  -11.25778 -11.25578 -11.24360 -11.23721  -8.99254
 Alpha  occ. eigenvalues --   -8.99133  -8.98605  -6.67421  -6.67343  -6.67297
 Alpha  occ. eigenvalues --   -6.67215  -6.67137  -6.67007  -6.66771  -6.66678
 Alpha  occ. eigenvalues --   -6.66486  -1.21771  -1.18609  -1.12873  -1.04052
 Alpha  occ. eigenvalues --   -1.02447  -1.01749  -0.95861  -0.94591  -0.91939
 Alpha  occ. eigenvalues --   -0.82199  -0.77348  -0.76606  -0.72753  -0.69988
 Alpha  occ. eigenvalues --   -0.67400  -0.66868  -0.60739  -0.59109  -0.58895
 Alpha  occ. eigenvalues --   -0.56698  -0.56341  -0.54662  -0.53967  -0.52541
 Alpha  occ. eigenvalues --   -0.51867  -0.51041  -0.49483  -0.47346  -0.46416
 Alpha  occ. eigenvalues --   -0.46132  -0.38935  -0.34500  -0.34045  -0.32230
 Alpha  occ. eigenvalues --   -0.29336
 Alpha virt. eigenvalues --    0.03391   0.03520   0.04081   0.04780   0.04938
 Alpha virt. eigenvalues --    0.05500   0.06608   0.07350   0.07917   0.08476
 Alpha virt. eigenvalues --    0.08785   0.09284   0.10250   0.10689   0.11058
 Alpha virt. eigenvalues --    0.11321   0.11694   0.12355   0.12616   0.13062
 Alpha virt. eigenvalues --    0.13345   0.13755   0.14104   0.14313   0.14739
 Alpha virt. eigenvalues --    0.14900   0.15209   0.15538   0.15711   0.16022
 Alpha virt. eigenvalues --    0.16727   0.16963   0.17608   0.18084   0.18312
 Alpha virt. eigenvalues --    0.18843   0.19079   0.19409   0.20086   0.20463
 Alpha virt. eigenvalues --    0.20578   0.21141   0.21356   0.21571   0.22039
 Alpha virt. eigenvalues --    0.22469   0.22820   0.23078   0.23548   0.24048
 Alpha virt. eigenvalues --    0.24864   0.25085   0.25540   0.26111   0.26584
 Alpha virt. eigenvalues --    0.26719   0.27148   0.27864   0.28228   0.28895
 Alpha virt. eigenvalues --    0.29345   0.29743   0.30846   0.31799   0.31995
 Alpha virt. eigenvalues --    0.32235   0.32663   0.32933   0.33316   0.34008
 Alpha virt. eigenvalues --    0.34289   0.34842   0.35386   0.35828   0.36614
 Alpha virt. eigenvalues --    0.37395   0.37740   0.38221   0.39191   0.40301
 Alpha virt. eigenvalues --    0.40357   0.40939   0.41173   0.41892   0.42872
 Alpha virt. eigenvalues --    0.43761   0.43994   0.44567   0.45058   0.45498
 Alpha virt. eigenvalues --    0.45810   0.46233   0.46507   0.47668   0.48282
 Alpha virt. eigenvalues --    0.48733   0.49021   0.49247   0.49541   0.50904
 Alpha virt. eigenvalues --    0.51901   0.53141   0.53416   0.54205   0.54549
 Alpha virt. eigenvalues --    0.55372   0.56612   0.57980   0.58214   0.58785
 Alpha virt. eigenvalues --    0.58852   0.59435   0.59935   0.60861   0.60913
 Alpha virt. eigenvalues --    0.61775   0.62817   0.63134   0.63720   0.64358
 Alpha virt. eigenvalues --    0.64577   0.65297   0.65838   0.66266   0.66994
 Alpha virt. eigenvalues --    0.67735   0.67948   0.68472   0.68645   0.68937
 Alpha virt. eigenvalues --    0.69308   0.69836   0.70277   0.71114   0.71427
 Alpha virt. eigenvalues --    0.72259   0.72682   0.73908   0.74320   0.74650
 Alpha virt. eigenvalues --    0.74968   0.75077   0.75812   0.76111   0.77055
 Alpha virt. eigenvalues --    0.77266   0.78042   0.78251   0.79264   0.79649
 Alpha virt. eigenvalues --    0.81173   0.81610   0.81969   0.82573   0.83331
 Alpha virt. eigenvalues --    0.83603   0.84466   0.85772   0.86268   0.87283
 Alpha virt. eigenvalues --    0.87462   0.88145   0.89945   0.90046   0.90598
 Alpha virt. eigenvalues --    0.91504   0.92128   0.92532   0.92865   0.93833
 Alpha virt. eigenvalues --    0.95384   0.95725   0.96147   0.96556   0.97484
 Alpha virt. eigenvalues --    0.97969   0.99147   0.99681   0.99939   1.00629
 Alpha virt. eigenvalues --    1.01594   1.03211   1.03603   1.05405   1.05822
 Alpha virt. eigenvalues --    1.06336   1.07466   1.08480   1.09150   1.10166
 Alpha virt. eigenvalues --    1.12100   1.12750   1.13335   1.14108   1.15688
 Alpha virt. eigenvalues --    1.16864   1.18214   1.19003   1.19585   1.20242
 Alpha virt. eigenvalues --    1.21830   1.22404   1.23336   1.24090   1.24452
 Alpha virt. eigenvalues --    1.25270   1.25789   1.26634   1.27466   1.28890
 Alpha virt. eigenvalues --    1.30278   1.30500   1.31803   1.32699   1.33609
 Alpha virt. eigenvalues --    1.34198   1.35932   1.36409   1.37194   1.39643
 Alpha virt. eigenvalues --    1.39969   1.41065   1.41588   1.44464   1.46336
 Alpha virt. eigenvalues --    1.48275   1.49234   1.49674   1.52165   1.53398
 Alpha virt. eigenvalues --    1.53835   1.55167   1.57255   1.58087   1.58834
 Alpha virt. eigenvalues --    1.60037   1.61284   1.62204   1.62448   1.64082
 Alpha virt. eigenvalues --    1.64950   1.65929   1.67010   1.68248   1.68486
 Alpha virt. eigenvalues --    1.69696   1.69830   1.71036   1.71940   1.72885
 Alpha virt. eigenvalues --    1.74279   1.74537   1.77175   1.77333   1.79383
 Alpha virt. eigenvalues --    1.80032   1.80808   1.81709   1.82584   1.84134
 Alpha virt. eigenvalues --    1.84739   1.85953   1.87988   1.89292   1.89960
 Alpha virt. eigenvalues --    1.91538   1.92784   1.94718   1.95597   1.96914
 Alpha virt. eigenvalues --    1.97790   1.98073   1.99314   1.99834   2.03331
 Alpha virt. eigenvalues --    2.04926   2.05684   2.08044   2.08811   2.09811
 Alpha virt. eigenvalues --    2.10603   2.10922   2.11946   2.13359   2.15028
 Alpha virt. eigenvalues --    2.15265   2.15442   2.18553   2.20577   2.21926
 Alpha virt. eigenvalues --    2.23352   2.24042   2.25554   2.26483   2.27461
 Alpha virt. eigenvalues --    2.29173   2.29459   2.31706   2.32864   2.34167
 Alpha virt. eigenvalues --    2.35477   2.37004   2.37996   2.40355   2.41610
 Alpha virt. eigenvalues --    2.42460   2.43359   2.46054   2.46615   2.47804
 Alpha virt. eigenvalues --    2.49253   2.51631   2.52792   2.54005   2.56068
 Alpha virt. eigenvalues --    2.57309   2.59079   2.63022   2.64178   2.70389
 Alpha virt. eigenvalues --    2.73931   2.75448   2.79494   2.84130   2.85016
 Alpha virt. eigenvalues --    2.87158   2.88192   2.91975   2.94605   2.99469
 Alpha virt. eigenvalues --    3.00719   3.01620   3.07104   3.08083   3.22131
 Alpha virt. eigenvalues --    3.24321   3.29889   3.35682   3.45931   3.54750
 Alpha virt. eigenvalues --    3.63252   3.75161   3.81042   4.13057   4.24500
          Condensed to atoms (all electrons):
               1          2          3          4          5          6
     1  C   10.216415  -2.371043  -0.857879  -0.963878  -0.222470  -0.300989
     2  C   -2.371043  10.977772  -2.100115   0.635802   0.226919   0.215106
     3  C   -0.857879  -2.100115  13.839117  -0.852974  -1.450613  -0.023344
     4  C   -0.963878   0.635802  -0.852974   6.051414   0.144105   0.040835
     5  C   -0.222470   0.226919  -1.450613   0.144105   6.979905  -0.034408
     6  H   -0.300989   0.215106  -0.023344   0.040835  -0.034408   1.640065
     7  S   -0.571261   0.024337  -0.575693   0.122859   0.444096  -0.007507
     8  H    0.033493   0.128718  -0.049977   0.032209   0.164990  -0.069192
     9  C    0.631915  -1.107720  -1.765304  -0.042016   0.091012   0.036648
    10  S   -0.001150  -0.122623  -0.583277  -0.052656   0.044764   0.000781
    11  C    0.055889  -0.016173  -0.413651  -0.111016   0.011267   0.002492
    12  C   -0.079959   0.028006   0.725137   0.214523   0.001655  -0.004688
    13  C   -0.166346   0.379363  -0.453111  -0.350352  -0.106539  -0.007563
    14  H    0.029286  -0.077038   0.139456   0.071150  -0.006351   0.000264
    15  S   -0.001379   0.011964  -0.090767  -0.009450   0.000210  -0.000034
    16  C    0.000259  -0.012848   0.021973  -0.002094   0.000403  -0.000012
    17  C    0.004755  -0.001667  -0.423387  -0.026685  -0.001662   0.000128
    18  H   -0.000007  -0.000116  -0.000248  -0.000147   0.000016  -0.000003
    19  H   -0.000144   0.000216  -0.013612  -0.000533   0.000089  -0.000016
    20  H    0.002252  -0.000016  -0.041523   0.295350   0.016139  -0.006264
    21  H   -0.047802   0.109253   0.171363   0.042322  -0.038782   0.002673
    22  H   -0.021482   0.077097  -0.016185   0.252351   0.028180  -0.005786
               7          8          9         10         11         12
     1  C   -0.571261   0.033493   0.631915  -0.001150   0.055889  -0.079959
     2  C    0.024337   0.128718  -1.107720  -0.122623  -0.016173   0.028006
     3  C   -0.575693  -0.049977  -1.765304  -0.583277  -0.413651   0.725137
     4  C    0.122859   0.032209  -0.042016  -0.052656  -0.111016   0.214523
     5  C    0.444096   0.164990   0.091012   0.044764   0.011267   0.001655
     6  H   -0.007507  -0.069192   0.036648   0.000781   0.002492  -0.004688
     7  S   16.315145  -0.143711  -0.078487   0.292355   0.058012   0.008333
     8  H   -0.143711   1.262401  -0.001574   0.003551   0.000656   0.001106
     9  C   -0.078487  -0.001574  12.606066   0.356320   0.004647  -0.634171
    10  S    0.292355   0.003551   0.356320  16.622624   0.455616  -0.592263
    11  C    0.058012   0.000656   0.004647   0.455616  11.410751  -0.803117
    12  C    0.008333   0.001106  -0.634171  -0.592263  -0.803117  12.481898
    13  C   -0.294019  -0.005792  -3.714839  -0.658913  -1.480264  -3.352902
    14  H    0.006853  -0.000095   0.255148   0.022255  -0.074632   0.628744
    15  S    0.002863  -0.000011  -0.317767   0.103334  -0.090779  -0.413185
    16  C    0.005188   0.000050   0.089699  -0.107956  -0.193372  -0.902128
    17  C    0.022071  -0.000094  -0.767822  -0.207206  -2.739749  -1.014867
    18  H    0.000225   0.000003   0.002673   0.009277   0.064633  -0.047732
    19  H    0.002647   0.000011   0.116055   0.017670   0.627414   0.042882
    20  H    0.003407   0.001711   0.017405  -0.001838  -0.003978   0.012227
    21  H    0.002586  -0.000475  -0.117084   0.005244  -0.005727   0.048229
    22  H    0.005921   0.001699   0.031001   0.002180  -0.000158  -0.013058
              13         14         15         16         17         18
     1  C   -0.166346   0.029286  -0.001379   0.000259   0.004755  -0.000007
     2  C    0.379363  -0.077038   0.011964  -0.012848  -0.001667  -0.000116
     3  C   -0.453111   0.139456  -0.090767   0.021973  -0.423387  -0.000248
     4  C   -0.350352   0.071150  -0.009450  -0.002094  -0.026685  -0.000147
     5  C   -0.106539  -0.006351   0.000210   0.000403  -0.001662   0.000016
     6  H   -0.007563   0.000264  -0.000034  -0.000012   0.000128  -0.000003
     7  S   -0.294019   0.006853   0.002863   0.005188   0.022071   0.000225
     8  H   -0.005792  -0.000095  -0.000011   0.000050  -0.000094   0.000003
     9  C   -3.714839   0.255148  -0.317767   0.089699  -0.767822   0.002673
    10  S   -0.658913   0.022255   0.103334  -0.107956  -0.207206   0.009277
    11  C   -1.480264  -0.074632  -0.090779  -0.193372  -2.739749   0.064633
    12  C   -3.352902   0.628744  -0.413185  -0.902128  -1.014867  -0.047732
    13  C   16.528488  -1.214713   0.164753  -0.146483   0.649196   0.033271
    14  H   -1.214713   1.747567  -0.032309   0.016123  -0.035216   0.001942
    15  S    0.164753  -0.032309  16.011684   0.183563   0.025158  -0.159525
    16  C   -0.146483   0.016123   0.183563   6.878579   0.156271   0.181301
    17  C    0.649196  -0.035216   0.025158   0.156271  10.354010   0.067436
    18  H    0.033271   0.001942  -0.159525   0.181301   0.067436   1.295484
    19  H   -0.071678  -0.002077  -0.003250  -0.107722  -0.647005  -0.068964
    20  H   -0.036955   0.003573  -0.000181   0.000023  -0.000427   0.000020
    21  H    0.070580   0.004042  -0.000201   0.000428  -0.012655  -0.000089
    22  H   -0.020692  -0.006424  -0.001366  -0.000200  -0.001007  -0.000006
              19         20         21         22
     1  C   -0.000144   0.002252  -0.047802  -0.021482
     2  C    0.000216  -0.000016   0.109253   0.077097
     3  C   -0.013612  -0.041523   0.171363  -0.016185
     4  C   -0.000533   0.295350   0.042322   0.252351
     5  C    0.000089   0.016139  -0.038782   0.028180
     6  H   -0.000016  -0.006264   0.002673  -0.005786
     7  S    0.002647   0.003407   0.002586   0.005921
     8  H    0.000011   0.001711  -0.000475   0.001699
     9  C    0.116055   0.017405  -0.117084   0.031001
    10  S    0.017670  -0.001838   0.005244   0.002180
    11  C    0.627414  -0.003978  -0.005727  -0.000158
    12  C    0.042882   0.012227   0.048229  -0.013058
    13  C   -0.071678  -0.036955   0.070580  -0.020692
    14  H   -0.002077   0.003573   0.004042  -0.006424
    15  S   -0.003250  -0.000181  -0.000201  -0.001366
    16  C   -0.107722   0.000023   0.000428  -0.000200
    17  C   -0.647005  -0.000427  -0.012655  -0.001007
    18  H   -0.068964   0.000020  -0.000089  -0.000006
    19  H    1.436598   0.000012   0.000138  -0.000011
    20  H    0.000012   1.058075  -0.165850  -0.124302
    21  H    0.000138  -0.165850   1.124848  -0.110045
    22  H   -0.000011  -0.124302  -0.110045   0.814779
 Mulliken charges:
               1
     1  C    0.631524
     2  C   -1.005193
     3  C    0.814613
     4  C    0.508879
     5  C   -0.292926
     6  H   -0.479186
     7  S    0.353781
     8  H   -0.359678
     9  C    0.308195
    10  S    0.391910
    11  C   -0.758763
    12  C   -0.334670
    13  C    0.255511
    14  H   -0.477547
    15  S    0.616676
    16  C   -0.061045
    17  C    0.600423
    18  H   -0.379443
    19  H   -0.328720
    20  H   -0.028859
    21  H   -0.082996
    22  H    0.107516
 Sum of Mulliken charges =  -0.00000
 Mulliken charges with hydrogens summed into heavy atoms:
               1
     1  C    0.152338
     2  C   -1.005193
     3  C    0.814613
     4  C    0.504539
     5  C   -0.652605
     7  S    0.353781
     9  C    0.308195
    10  S    0.391910
    11  C   -0.758763
    12  C   -0.334670
    13  C   -0.222036
    15  S    0.616676
    16  C   -0.440488
    17  C    0.271704
 Electronic spatial extent (au):  <R**2>=           4341.2987
 Charge=             -0.0000 electrons
 Dipole moment (field-independent basis, Debye):
    X=              0.3823    Y=              1.1153    Z=              0.5051  Tot=              1.2826
 Quadrupole moment (field-independent basis, Debye-Ang):
   XX=            -86.8193   YY=           -101.3397   ZZ=           -108.6084
   XY=              6.3814   XZ=             -1.6572   YZ=             -1.0746
 Traceless Quadrupole moment (field-independent basis, Debye-Ang):
   XX=             12.1032   YY=             -2.4172   ZZ=             -9.6859
   XY=              6.3814   XZ=             -1.6572   YZ=             -1.0746
 Octapole moment (field-independent basis, Debye-Ang**2):
  XXX=              1.1193  YYY=              5.2725  ZZZ=              2.5543  XYY=              5.6555
  XXY=            -15.4740  XXZ=              6.1571  XZZ=              1.5121  YZZ=              1.6397
  YYZ=              2.2552  XYZ=             16.0226
 Hexadecapole moment (field-independent basis, Debye-Ang**3):
 XXXX=          -4127.4987 YYYY=           -949.3569 ZZZZ=           -387.6607 XXXY=             36.1484
 XXXZ=            -56.1178 YYYX=             30.5871 YYYZ=            -13.6388 ZZZX=              6.5346
 ZZZY=              1.0662 XXYY=           -932.7495 XXZZ=           -919.8055 YYZZ=           -213.6789
 XXYZ=             11.1902 YYXZ=            -10.2688 ZZXY=              6.5937
 N-N= 1.123781701098D+03 E-N=-6.067738554551D+03  KE= 1.613732049868D+03
 Calling FoFJK, ICntrl=  10002127 FMM=F ISym2X=0 I1Cent= 0 IOpClX= 0 NMat=1 NMatS=1 NMatT=0.
 ***** Axes restored to original set *****
 -------------------------------------------------------------------
 Center     Atomic                   Forces (Hartrees/Bohr)
 Number     Number              X              Y              Z
 -------------------------------------------------------------------
      1        6          -0.016668043    0.031050714    0.015190274
      2        6           0.028907243    0.027386960    0.011100579
      3        6          -0.027276024   -0.026613127   -0.009939512
      4        6           0.002054259   -0.004889484   -0.003435056
      5        6           0.001180961   -0.028424621   -0.013248436
      6        1           0.007026920    0.005897854    0.002419146
      7       16          -0.003501770   -0.006337128   -0.002431015
      8        1           0.008210077   -0.005619185   -0.002991673
      9        6           0.029006408   -0.021587848    0.012037979
     10       16           0.003978895   -0.007141566    0.004414833
     11        6          -0.008119779   -0.036244166    0.020849346
     12        6           0.009954397    0.036359783   -0.020732415
     13        6          -0.029729088    0.019336145   -0.010261988
     14        1           0.003722888    0.008590403   -0.005496913
     15       16          -0.002869024    0.007105062   -0.004128846
     16        6          -0.014310513    0.020406311   -0.012200536
     17        6           0.027090483   -0.017840841    0.010753902
     18        1          -0.010327436    0.000728198   -0.000507188
     19        1          -0.002966212   -0.008276662    0.004851428
     20        1           0.004443315    0.001326338    0.006275883
     21        1          -0.010120082   -0.001186039    0.002421200
     22        1           0.000312124    0.005972899   -0.004940996
 -------------------------------------------------------------------
 Cartesian Forces:  Max     0.036359783 RMS     0.015151345

 GradGradGradGradGradGradGradGradGradGradGradGradGradGradGradGradGradGrad
 Berny optimization.
 FormGI is forming the generalized inverse of G from B-inverse, IUseBI=4.
 Internal  Forces:  Max     0.043151962 RMS     0.008839453
 Search for a local minimum.
 Step number   1 out of a maximum of  127
 All quantities printed in internal units (Hartrees-Bohrs-Radians)
 Mixed Optimization -- RFO/linear search
 Second derivative matrix not updated -- first step.
 ITU=  0
     Eigenvalues ---    0.00689   0.01382   0.01453   0.01577   0.01630
     Eigenvalues ---    0.01680   0.01753   0.01867   0.01979   0.02034
     Eigenvalues ---    0.02061   0.02129   0.02261   0.02273   0.02371
     Eigenvalues ---    0.02423   0.07119   0.07318   0.15995   0.15998
     Eigenvalues ---    0.16000   0.16000   0.16000   0.16000   0.16000
     Eigenvalues ---    0.16000   0.22517   0.22567   0.23649   0.24764
     Eigenvalues ---    0.24783   0.24994   0.24997   0.24997   0.24999
     Eigenvalues ---    0.29044   0.29966   0.30385   0.31040   0.31187
     Eigenvalues ---    0.31777   0.32152   0.34654   0.34802   0.35332
     Eigenvalues ---    0.35622   0.35952   0.36268   0.36315   0.36367
     Eigenvalues ---    0.36387   0.38188   0.39196   0.39395   0.45855
     Eigenvalues ---    0.50222   0.52300   0.53543   0.542651000.00000
     Eigenvalues --- 1000.000001000.000001000.000001000.000001000.00000
     Eigenvalues --- 1000.000001000.000001000.000001000.000001000.00000
     Eigenvalues --- 1000.000001000.000001000.000001000.000001000.00000
     Eigenvalues --- 1000.000001000.000001000.000001000.000001000.00000
     Eigenvalues --- 1000.000001000.000001000.000001000.000001000.00000
     Eigenvalues --- 1000.000001000.000001000.000001000.000001000.00000
     Eigenvalues --- 1000.000001000.000001000.000001000.000001000.00000
     Eigenvalues --- 1000.000001000.000001000.000001000.000001000.00000
     Eigenvalues --- 1000.000001000.000001000.000001000.000001000.00000
     Eigenvalues --- 1000.000001000.000001000.000001000.000001000.00000
     Eigenvalues --- 1000.000001000.000001000.000001000.000001000.00000
     Eigenvalues --- 1000.000001000.00000
 RFO step:  Lambda=-1.77201517D-02 EMin= 6.89332874D-03
 Linear search not attempted -- first point.
 Iteration  1 RMS(Cart)=  0.02822921 RMS(Int)=  0.00025688
 Iteration  2 RMS(Cart)=  0.00048324 RMS(Int)=  0.00004219
 Iteration  3 RMS(Cart)=  0.00000011 RMS(Int)=  0.00004219
 Iteration  1 RMS(Cart)=  0.00001179 RMS(Int)=  0.00000441
 Iteration  2 RMS(Cart)=  0.00000649 RMS(Int)=  0.00000493
 Iteration  3 RMS(Cart)=  0.00000357 RMS(Int)=  0.00000557
 Iteration  4 RMS(Cart)=  0.00000197 RMS(Int)=  0.00000600
 Iteration  5 RMS(Cart)=  0.00000108 RMS(Int)=  0.00000625
 Iteration  6 RMS(Cart)=  0.00000060 RMS(Int)=  0.00000640
 Variable       Old X    -DE/DX   Delta X   Delta X   Delta X     New X
                                 (Linear)    (Quad)   (Total)
    R1        2.72727  -0.00513   0.00000  -0.01028  -0.01022   2.71705
    R2        2.54535   0.04131   0.00000   0.07301   0.07303   2.61838
    R3        2.04156   0.00949   0.00000   0.02515   0.02515   2.06671
    R4        2.56535   0.03662   0.00000   0.06645   0.06647   2.63182
    R5        2.84553   0.00214   0.00000   0.00637   0.00637   2.85190
    R6        3.30495   0.00370   0.00000   0.00873   0.00869   3.31364
    R7        2.77977  -0.00550   0.00000  -0.01470  -0.01470   2.76507
    R8        2.05998   0.00780   0.00000   0.02133   0.02133   2.08131
    R9        2.05138   0.01042   0.00000   0.02809   0.02809   2.07948
   R10        2.06241   0.00775   0.00000   0.02126   0.02126   2.08367
   R11        3.26228   0.00614   0.00000   0.01642   0.01638   3.27866
   R12        2.03481   0.01028   0.00000   0.02693   0.02693   2.06174
   R13        3.32630   0.00614   0.00000   0.01664   0.01659   3.34288
   R14        2.55742   0.03899   0.00000   0.06972   0.06974   2.62716
   R15        3.28138   0.00582   0.00000   0.01576   0.01572   3.29710
   R16        2.57768   0.04315   0.00000   0.08264   0.08271   2.66039
   R17        2.71146  -0.00207   0.00000  -0.00250  -0.00244   2.70902
   R18        2.70845  -0.00375   0.00000  -0.00643  -0.00636   2.70209
   R19        3.28270   0.00552   0.00000   0.01503   0.01499   3.29769
   R20        2.03592   0.01083   0.00000   0.02845   0.02845   2.06436
   R21        3.29555   0.00690   0.00000   0.01808   0.01803   3.31357
   R22        2.55078   0.03816   0.00000   0.06724   0.06725   2.61803
   R23        2.03512   0.01028   0.00000   0.02696   0.02696   2.06208
   R24        2.03665   0.01004   0.00000   0.02640   0.02640   2.06305
    A1        1.98174  -0.00320   0.00000  -0.00684  -0.00676   1.97498
    A2        2.14762   0.00156   0.00000   0.00316   0.00312   2.15074
    A3        2.15375   0.00165   0.00000   0.00366   0.00362   2.15737
    A4        1.95142  -0.00268   0.00000  -0.00605  -0.00597   1.94545
    A5        2.12756   0.00642   0.00000   0.02201   0.02197   2.14952
    A6        2.20405  -0.00374   0.00000  -0.01593  -0.01597   2.18808
    A7        1.94732   0.00318   0.00000   0.00965   0.00964   1.95695
    A8        2.24143  -0.00330   0.00000  -0.01115  -0.01115   2.23027
    A9        2.09432   0.00012   0.00000   0.00160   0.00160   2.09592
   A10        1.92197   0.00024   0.00000   0.00242   0.00242   1.92439
   A11        1.94801  -0.00153   0.00000  -0.00977  -0.00978   1.93823
   A12        1.93464   0.00038   0.00000   0.00219   0.00218   1.93682
   A13        1.89200   0.00062   0.00000   0.00327   0.00328   1.89528
   A14        1.87556   0.00022   0.00000   0.00352   0.00351   1.87906
   A15        1.88954   0.00015   0.00000  -0.00116  -0.00117   1.88837
   A16        1.95026   0.00094   0.00000   0.00533   0.00532   1.95558
   A17        2.23010   0.00108   0.00000   0.00607   0.00608   2.23618
   A18        2.10283  -0.00202   0.00000  -0.01141  -0.01140   2.09142
   A19        1.59400   0.00176   0.00000  -0.00210  -0.00224   1.59177
   A20        2.10420  -0.00292   0.00000  -0.01030  -0.01034   2.09386
   A21        2.22280  -0.00094   0.00000  -0.00290  -0.00294   2.21986
   A22        1.95616   0.00387   0.00000   0.01332   0.01327   1.96943
   A23        1.58713   0.00147   0.00000  -0.00259  -0.00275   1.58438
   A24        1.93892   0.00159   0.00000   0.00449   0.00445   1.94336
   A25        2.35442   0.00161   0.00000   0.00123   0.00117   2.35559
   A26        1.98984  -0.00320   0.00000  -0.00571  -0.00562   1.98423
   A27        1.99099  -0.00278   0.00000  -0.00403  -0.00392   1.98707
   A28        1.93970   0.00121   0.00000   0.00305   0.00301   1.94271
   A29        2.35242   0.00156   0.00000   0.00096   0.00089   2.35331
   A30        1.95153  -0.00416   0.00000  -0.01120  -0.01109   1.94044
   A31        2.15038   0.00138   0.00000   0.00167   0.00161   2.15199
   A32        2.18106   0.00278   0.00000   0.00954   0.00949   2.19055
   A33        1.58091   0.00245   0.00000   0.00083   0.00070   1.58161
   A34        1.97680   0.00252   0.00000   0.00867   0.00865   1.98545
   A35        2.08789  -0.00259   0.00000  -0.01183  -0.01182   2.07607
   A36        2.21849   0.00007   0.00000   0.00316   0.00317   2.22166
   A37        1.93752  -0.00298   0.00000  -0.00683  -0.00674   1.93078
   A38        2.18373   0.00158   0.00000   0.00394   0.00389   2.18762
   A39        2.16193   0.00140   0.00000   0.00289   0.00285   2.16479
    D1       -0.00898   0.00007   0.00000  -0.00001  -0.00002  -0.00900
    D2        3.11490   0.00007   0.00000   0.00148   0.00149   3.11639
    D3       -3.13713   0.00009   0.00000   0.00109   0.00108  -3.13605
    D4       -0.01325   0.00010   0.00000   0.00258   0.00259  -0.01066
    D5        0.00889   0.00004   0.00000   0.00042   0.00042   0.00931
    D6       -3.13095   0.00005   0.00000   0.00145   0.00145  -3.12949
    D7        3.13698   0.00001   0.00000  -0.00069  -0.00069   3.13629
    D8       -0.00286   0.00003   0.00000   0.00034   0.00035  -0.00251
    D9        0.00483  -0.00003   0.00000  -0.00018  -0.00016   0.00467
   D10       -3.11990  -0.00017   0.00000  -0.00700  -0.00702  -3.12691
   D11       -3.11811  -0.00016   0.00000  -0.00222  -0.00218  -3.12029
   D12        0.04035  -0.00030   0.00000  -0.00905  -0.00904   0.03132
   D13       -0.78667  -0.00029   0.00000  -0.00460  -0.00461  -0.79128
   D14       -2.88894  -0.00022   0.00000  -0.00394  -0.00394  -2.89288
   D15        1.28645   0.00037   0.00000   0.00267   0.00267   1.28912
   D16        2.33452  -0.00025   0.00000  -0.00270  -0.00270   2.33182
   D17        0.23225  -0.00018   0.00000  -0.00203  -0.00203   0.23022
   D18       -1.87554   0.00041   0.00000   0.00457   0.00458  -1.87096
   D19       -0.00001   0.00008   0.00000   0.00041   0.00040   0.00039
   D20        3.12633   0.00017   0.00000   0.00644   0.00651   3.13284
   D21       -2.18181  -0.00016   0.00000   0.00000  -0.00000  -2.18181
   D22        0.96850  -0.00070   0.00000  -0.01841  -0.01833   0.95017
   D23        0.97789  -0.00033   0.00000  -0.00738  -0.00739   0.97050
   D24       -2.15498  -0.00087   0.00000  -0.02579  -0.02572  -2.18070
   D25       -0.00516  -0.00003   0.00000  -0.00041  -0.00039  -0.00556
   D26        3.13482  -0.00004   0.00000  -0.00133  -0.00132   3.13351
   D27       -3.13497  -0.00027   0.00000  -0.00982  -0.00982   3.13840
   D28       -0.00085   0.00017   0.00000   0.00591   0.00596   0.00511
   D29        3.13983   0.00039   0.00000   0.01232   0.01240  -3.13095
   D30        0.01957   0.00039   0.00000   0.01195   0.01203   0.03160
   D31        0.00634  -0.00008   0.00000  -0.00469  -0.00473   0.00161
   D32       -3.11392  -0.00008   0.00000  -0.00506  -0.00510  -3.11903
   D33       -0.00512  -0.00014   0.00000  -0.00538  -0.00538  -0.01050
   D34        3.13370  -0.00001   0.00000  -0.00175  -0.00174   3.13196
   D35        0.00977   0.00015   0.00000   0.00391   0.00390   0.01367
   D36        3.14000   0.00012   0.00000   0.00283   0.00282  -3.14037
   D37       -3.12967   0.00005   0.00000   0.00109   0.00108  -3.12859
   D38        0.00055   0.00002   0.00000   0.00001   0.00000   0.00056
   D39       -3.14036  -0.00009   0.00000  -0.00248  -0.00249   3.14033
   D40        0.00143  -0.00008   0.00000  -0.00249  -0.00249  -0.00106
   D41       -0.00160   0.00004   0.00000   0.00124   0.00122  -0.00038
   D42        3.14019   0.00005   0.00000   0.00123   0.00122   3.14141
   D43       -0.01057   0.00004   0.00000   0.00072   0.00073  -0.00983
   D44        3.10925   0.00002   0.00000   0.00098   0.00099   3.11024
   D45       -3.13722   0.00010   0.00000   0.00214   0.00214  -3.13508
   D46       -0.01741   0.00008   0.00000   0.00239   0.00240  -0.01500
   D47        0.00044  -0.00004   0.00000  -0.00088  -0.00088  -0.00044
   D48        3.12741  -0.00012   0.00000  -0.00230  -0.00231   3.12510
   D49       -0.00140   0.00006   0.00000   0.00163   0.00163   0.00023
   D50        3.14150  -0.00000   0.00000  -0.00013  -0.00012   3.14138
   D51        0.00192  -0.00006   0.00000  -0.00188  -0.00188   0.00004
   D52       -3.13987  -0.00007   0.00000  -0.00187  -0.00188   3.14143
   D53       -3.14109   0.00001   0.00000   0.00002   0.00003  -3.14106
   D54        0.00030  -0.00000   0.00000   0.00003   0.00003   0.00033
         Item               Value     Threshold  Converged?
 Maximum Force            0.043152     0.000450     NO 
 RMS     Force            0.008877     0.000300     NO 
 Maximum Displacement     0.084343     0.001800     NO 
 RMS     Displacement     0.028379     0.001200     NO 
 Predicted change in Energy=-9.187450D-03
 GradGradGradGradGradGradGradGradGradGradGradGradGradGradGradGradGradGrad

                          Input orientation:                          
 ---------------------------------------------------------------------
 Center     Atomic      Atomic             Coordinates (Angstroms)
 Number     Number       Type             X           Y           Z
 ---------------------------------------------------------------------
      1          6           0        3.974404    0.738243    0.141831
      2          6           0        2.586793    1.041244    0.365447
      3          6           0        1.762557    0.006658   -0.070302
      4          6           0        2.115192    2.319584    1.014302
      5          6           0        4.174227   -0.503876   -0.438740
      6          1           0        4.787643    1.415854    0.416723
      7         16           0        2.678584   -1.329495   -0.741392
      8          1           0        5.119858   -0.979632   -0.702898
      9          6           0        0.301080   -0.052540   -0.030662
     10         16           0       -0.507053   -1.408897    0.767148
     11          6           0       -2.069750   -0.734395    0.383505
     12          6           0       -1.945568    0.482968   -0.312594
     13          6           0       -0.592033    0.873221   -0.557980
     14          1           0       -0.278066    1.765678   -1.104160
     15         16           0       -3.509051    1.157688   -0.694068
     16          6           0       -4.304807   -0.198355    0.082185
     17          6           0       -3.428203   -1.130745    0.612803
     18          1           0       -5.395371   -0.229543    0.102880
     19          1           0       -3.742176   -2.038314    1.132024
     20          1           0        2.721130    2.540156    1.907177
     21          1           0        1.059839    2.243509    1.316540
     22          1           0        2.214771    3.172989    0.323231
 ---------------------------------------------------------------------
                    Distance matrix (angstroms):
                    1          2          3          4          5
     1  C    0.000000
     2  C    1.437803   0.000000
     3  C    2.339334   1.392699   0.000000
     4  C    2.592009   1.509163   2.578826   0.000000
     5  C    1.385587   2.356706   2.492498   3.784558   0.000000
     6  H    1.093655   2.233092   3.372562   2.883717   2.189397
     7  S    2.595144   2.618000   1.753503   4.088477   1.734991
     8  H    2.230858   3.411997   3.555899   4.781383   1.091028
     9  C    3.761436   2.564713   1.463213   3.163847   3.920651
    10  S    5.008462   3.966919   2.802901   4.564956   4.918091
    11  C    6.225661   4.983635   3.929590   5.219045   6.302101
    12  C    5.942873   4.616678   3.746434   4.650117   6.200135
    13  C    4.621720   3.314496   2.555945   3.448638   4.962646
    14  H    4.548803   3.300298   2.885681   3.243821   5.041485
    15  S    7.541668   6.188332   5.431741   5.991714   7.865034
    16  C    8.332233   7.007924   6.072742   6.958825   8.500514
    17  C    7.649413   6.399915   5.357640   6.541804   7.700367
    18  H    9.419703   8.086951   7.163917   7.983563   9.588838
    19  H    8.260469   7.080054   5.994129   7.301636   8.215305
    20  H    2.816742   2.154464   3.353788   1.101380   4.108643
    21  H    3.484315   2.163702   2.724086   1.100411   4.508719
    22  H    3.009518   2.164374   3.222579   1.102632   4.235493
                    6          7          8          9         10
     6  H    0.000000
     7  S    3.650521   0.000000
     8  H    2.665009   2.466516   0.000000
     9  C    4.741897   2.790748   4.952981   0.000000
    10  S    6.011308   3.525661   5.831589   1.768978   0.000000
    11  C    7.186690   4.915914   7.275361   2.501458   1.744751
    12  C    6.836543   4.985146   7.225772   2.326732   2.610426
    13  C    5.494125   3.947472   6.006644   1.390233   2.640312
    14  H    5.300648   4.295751   6.069211   2.189458   3.692175
    15  S    8.374702   6.668969   8.889673   4.052389   4.211236
    16  C    9.240684   7.122185   9.489524   4.609576   4.044444
    17  C    8.603705   6.258291   8.650044   3.934987   2.938419
    18  H   10.319864   8.192157  10.572698   5.700764   5.072255
    19  H    9.230425   6.725940   9.111717   4.652209   3.315919
    20  H    2.784957   4.689448   4.995528   4.041526   5.226457
    21  H    3.923162   4.429647   5.563319   2.768124   4.012113
    22  H    3.117039   4.649828   5.170757   3.767160   5.347810
                   11         12         13         14         15
    11  C    0.000000
    12  C    1.407817   0.000000
    13  C    2.377912   1.429884   0.000000
    14  H    3.416671   2.247773   1.092414   0.000000
    15  S    2.610121   1.745064   2.934013   3.313169   0.000000
    16  C    2.318106   2.487179   3.916986   4.634596   1.753468
    17  C    1.433550   2.378789   3.664761   4.610921   2.636546
    18  H    3.375408   3.547031   4.972411   5.623580   2.473406
    19  H    2.248887   3.416370   4.610482   5.609895   3.688277
    20  H    5.999732   5.562147   4.453394   4.320086   6.891505
    21  H    4.419592   3.845264   2.849596   2.806795   5.108455
    22  H    5.799000   4.994888   3.734115   3.198781   6.152924
                   16         17         18         19         20
    16  C    0.000000
    17  C    1.385404   0.000000
    18  H    1.091205   2.223046   0.000000
    19  H    2.191841   1.091719   2.657789   0.000000
    20  H    7.758468   7.277720   8.763806   7.958490   0.000000
    21  H    6.022106   5.658919   7.018453   6.436412   1.787942
    22  H    7.343634   7.102756   8.339067   7.955944   1.779259
                   21         22
    21  H    0.000000
    22  H    1.784507   0.000000
 Stoichiometry    C11H8S3
 Framework group  C1[X(C11H8S3)]
 Deg. of freedom    60
 Full point group                 C1      NOp   1
 Largest Abelian subgroup         C1      NOp   1
 Largest concise Abelian subgroup C1      NOp   1
                         Standard orientation:                         
 ---------------------------------------------------------------------
 Center     Atomic      Atomic             Coordinates (Angstroms)
 Number     Number       Type             X           Y           Z
 ---------------------------------------------------------------------
      1          6           0        3.965108    0.765841    0.149878
      2          6           0        2.575253    1.060227    0.371053
      3          6           0        1.758230    0.020457   -0.065942
      4          6           0        2.094580    2.335705    1.018881
      5          6           0        4.173666   -0.475100   -0.430140
      6          1           0        4.773635    1.448548    0.426057
      7         16           0        2.683719   -1.310068   -0.735228
      8          1           0        5.122696   -0.944998   -0.692588
      9          6           0        0.297084   -0.047839   -0.028809
     10         16           0       -0.503958   -1.409078    0.767836
     11          6           0       -2.070162   -0.744385    0.381388
     12          6           0       -1.952367    0.473619   -0.314700
     13          6           0       -0.600869    0.872258   -0.557819
     14          1           0       -0.291526    1.766568   -1.103607
     15         16           0       -3.519363    1.138526   -0.698980
     16          6           0       -4.307993   -0.222326    0.076129
     17          6           0       -3.426513   -1.149155    0.608413
     18          1           0       -5.398375   -0.260305    0.094951
     19          1           0       -3.735720   -2.058580    1.127244
     20          1           0        2.697592    2.560188    1.912761
     21          1           0        1.039202    2.253104    1.319313
     22          1           0        2.190032    3.189606    0.327838
 ---------------------------------------------------------------------
 Rotational constants (GHZ):           1.2526565           0.2713862           0.2418759
 Standard basis: Aug-CC-pVDZ (5D, 7F)
 There are   434 symmetry adapted cartesian basis functions of A   symmetry.
 There are   406 symmetry adapted basis functions of A   symmetry.
   406 basis functions,   804 primitive gaussians,   434 cartesian basis functions
    61 alpha electrons       61 beta electrons
       nuclear repulsion energy      1116.1940653271 Hartrees.
 NAtoms=   22 NActive=   22 NUniq=   22 SFac= 1.00D+00 NAtFMM=   60 NAOKFM=F Big=F
 Integral buffers will be    131072 words long.
 Raffenetti 1 integral format.
 Two-electron integral symmetry is turned on.
 One-electron integrals computed using PRISM.
 NBasis=   406 RedAO= T EigKep=  3.73D-06  NBF=   406
 NBsUse=   406 1.00D-06 EigRej= -1.00D+00 NBFU=   406
 Initial guess from the checkpoint file:  "/tmp/pbs.4766302[50].pbs/Gau-1588174.chk"
 B after Tr=    -0.000000   -0.000000   -0.000000
         Rot=    0.999995   -0.002347    0.000015   -0.002191 Ang=  -0.37 deg.
 ExpMin= 2.97D-02 ExpMax= 1.11D+05 ExpMxC= 1.07D+03 IAcc=3 IRadAn=         5 AccDes= 0.00D+00
 Harris functional with IExCor=  205 and IRadAn=       5 diagonalized for initial guess.
 HarFok:  IExCor=  205 AccDes= 0.00D+00 IRadAn=         5 IDoV= 1 UseB2=F ITyADJ=14
 ICtDFT=  3500011 ScaDFX=  1.000000  1.000000  1.000000  1.000000
 FoFCou: FMM=F IPFlag=           0 FMFlag=      100000 FMFlg1=           0
         NFxFlg=           0 DoJE=T BraDBF=F KetDBF=T FulRan=T
         wScrn=  0.000000 ICntrl=       500 IOpCl=  0 I1Cent=   200000004 NGrid=           0
         NMat0=    1 NMatS0=      1 NMatT0=    0 NMatD0=    1 NMtDS0=    0 NMtDT0=    0
 Petite list used in FoFCou.
 Requested convergence on RMS density matrix=1.00D-08 within 128 cycles.
 Requested convergence on MAX density matrix=1.00D-06.
 Requested convergence on             energy=1.00D-06.
 No special actions if energy rises.
 SCF Done:  E(RHF) =  -1613.80603753     A.U. after   15 cycles
            NFock= 15  Conv=0.56D-08     -V/T= 2.0006
 ExpMin= 2.97D-02 ExpMax= 1.11D+05 ExpMxC= 1.07D+03 IAcc=3 IRadAn=         5 AccDes= 0.00D+00
 HarFok:  IExCor=  205 AccDes= 0.00D+00 IRadAn=         5 IDoV=-2 UseB2=F ITyADJ=14
 ICtDFT= 12500011 ScaDFX=  1.000000  1.000000  1.000000  1.000000
 GSVD:  LWork=        -884 too small for GESVD, short by        3770 words or        3770 for optimal perf.
 Range of M.O.s used for correlation:    27   406
 NBasis=   406 NAE=    61 NBE=    61 NFC=    26 NFV=     0
 NROrb=    380 NOA=    35 NOB=    35 NVA=   345 NVB=   345

 **** Warning!!: The largest alpha MO coefficient is  0.86654543D+02

 Disk-based method using ON**2 memory for 35 occupieds at a time.
 Estimated scratch disk usage=  5836125108 words.
 Actual    scratch disk usage=  4759629236 words.
 JobTyp=1 Pass  1:  I=  27 to  61 NPSUse= 16 ParTrn=T ParDer=T DoDerP=T.
 (rs|ai) integrals will be sorted in core.
 Spin components of T(2) and E(2):
     alpha-alpha T2 =       0.1165861784D+00 E2=     -0.2670647484D+00
     alpha-beta  T2 =       0.5748769037D+00 E2=     -0.1411353948D+01
     beta-beta   T2 =       0.1165861784D+00 E2=     -0.2670647484D+00
 ANorm=    0.1344637223D+01
 E2 =    -0.1945483445D+01 EUMP2 =    -0.16157515209747D+04
          IDoAtm=1111111111111111111111
          Differentiating once with respect to electric field.
                with respect to dipole field.
          Differentiating once with respect to nuclear coordinates.
 Keep R1 ints in memory in canonical form, NReq=3454318301.
          There are     1 degrees of freedom in the 1st order CPHF.  IDoFFX=0 NUNeed=     1.
 LinEq1:  Iter=  0 NonCon=     1 RMS=2.73D-03 Max=6.91D-02 NDo=     1
 AX will form     1 AO Fock derivatives at one time.
 LinEq1:  Iter=  1 NonCon=     1 RMS=6.23D-04 Max=1.19D-02 NDo=     1
 LinEq1:  Iter=  2 NonCon=     1 RMS=3.51D-04 Max=1.32D-02 NDo=     1
 LinEq1:  Iter=  3 NonCon=     1 RMS=1.02D-04 Max=2.76D-03 NDo=     1
 LinEq1:  Iter=  4 NonCon=     1 RMS=4.15D-05 Max=9.10D-04 NDo=     1
 LinEq1:  Iter=  5 NonCon=     1 RMS=1.51D-05 Max=5.06D-04 NDo=     1
 LinEq1:  Iter=  6 NonCon=     1 RMS=5.00D-06 Max=2.08D-04 NDo=     1
 LinEq1:  Iter=  7 NonCon=     1 RMS=2.49D-06 Max=8.03D-05 NDo=     1
 LinEq1:  Iter=  8 NonCon=     1 RMS=9.74D-07 Max=3.13D-05 NDo=     1
 LinEq1:  Iter=  9 NonCon=     1 RMS=4.03D-07 Max=9.98D-06 NDo=     1
 LinEq1:  Iter= 10 NonCon=     1 RMS=1.66D-07 Max=6.38D-06 NDo=     1
 LinEq1:  Iter= 11 NonCon=     1 RMS=9.06D-08 Max=2.92D-06 NDo=     1
 LinEq1:  Iter= 12 NonCon=     1 RMS=3.39D-08 Max=1.01D-06 NDo=     1
 LinEq1:  Iter= 13 NonCon=     1 RMS=1.20D-08 Max=1.98D-07 NDo=     1
 LinEq1:  Iter= 14 NonCon=     1 RMS=4.25D-09 Max=1.12D-07 NDo=     1
 LinEq1:  Iter= 15 NonCon=     1 RMS=1.72D-09 Max=3.46D-08 NDo=     1
 LinEq1:  Iter= 16 NonCon=     1 RMS=7.65D-10 Max=1.94D-08 NDo=     1
 LinEq1:  Iter= 17 NonCon=     1 RMS=3.12D-10 Max=6.14D-09 NDo=     1
 LinEq1:  Iter= 18 NonCon=     1 RMS=1.04D-10 Max=2.13D-09 NDo=     1
 LinEq1:  Iter= 19 NonCon=     0 RMS=3.93D-11 Max=5.77D-10 NDo=     1
 Linear equations converged to 1.000D-10 1.000D-09 after    19 iterations.
 End of Minotr F.D. properties file   721 does not exist.
 End of Minotr F.D. properties file   722 does not exist.
 End of Minotr F.D. properties file   788 does not exist.
 Calling FoFJK, ICntrl=  10002127 FMM=F ISym2X=0 I1Cent= 0 IOpClX= 0 NMat=1 NMatS=1 NMatT=0.
 ***** Axes restored to original set *****
 -------------------------------------------------------------------
 Center     Atomic                   Forces (Hartrees/Bohr)
 Number     Number              X              Y              Z
 -------------------------------------------------------------------
      1        6          -0.007616507    0.003523960    0.001982439
      2        6           0.011343569    0.003978650    0.000816488
      3        6          -0.008007456   -0.006175018   -0.002138089
      4        6          -0.001163641   -0.001305726   -0.000678942
      5        6           0.002258816   -0.004518656   -0.002125963
      6        1           0.000598649   -0.000996686   -0.000412875
      7       16           0.001294216    0.004972718    0.002583477
      8        1          -0.000147084   -0.000094725    0.000021308
      9        6           0.007234600   -0.002462788    0.001060463
     10       16          -0.001228193    0.003343527   -0.002233244
     11        6          -0.006104774   -0.007495283    0.004236814
     12        6           0.005880430    0.007447612   -0.003850300
     13        6          -0.008544927    0.001490969    0.000234006
     14        1           0.001209171   -0.000776454    0.000207725
     15       16           0.000926027   -0.003536304    0.001925503
     16        6          -0.003333534    0.001996251   -0.001094791
     17        6           0.006809947   -0.000016564   -0.000105967
     18        1          -0.000004307    0.000169520   -0.000060844
     19        1          -0.000841096    0.000494963   -0.000305370
     20        1           0.000004264    0.000063925    0.000122494
     21        1          -0.000269250   -0.000259709   -0.000123470
     22        1          -0.000298920    0.000155819   -0.000060861
 -------------------------------------------------------------------
 Cartesian Forces:  Max     0.011343569 RMS     0.003581398

 GradGradGradGradGradGradGradGradGradGradGradGradGradGradGradGradGradGrad
 Berny optimization.
 Using GEDIIS/GDIIS optimizer.
 FormGI is forming the generalized inverse of G from B-inverse, IUseBI=4.
 Internal  Forces:  Max     0.005235335 RMS     0.001471093
 Search for a local minimum.
 Step number   2 out of a maximum of  127
 All quantities printed in internal units (Hartrees-Bohrs-Radians)
 Mixed Optimization -- RFO/linear search
 Update second derivatives using D2CorX and points    1    2
 DE= -9.30D-03 DEPred=-9.19D-03 R= 1.01D+00
 TightC=F SS=  1.41D+00  RLast= 1.93D-01 DXNew= 5.0454D-01 5.7914D-01
 Trust test= 1.01D+00 RLast= 1.93D-01 DXMaxT set to 5.05D-01
 ITU=  1  0
 Use linear search instead of GDIIS.
     Eigenvalues ---    0.00689   0.01375   0.01452   0.01575   0.01628
     Eigenvalues ---    0.01683   0.01752   0.01862   0.01978   0.02040
     Eigenvalues ---    0.02066   0.02137   0.02265   0.02272   0.02374
     Eigenvalues ---    0.02428   0.07184   0.07292   0.15901   0.15996
     Eigenvalues ---    0.15999   0.16000   0.16000   0.16000   0.16000
     Eigenvalues ---    0.16032   0.22534   0.22600   0.23709   0.24216
     Eigenvalues ---    0.24770   0.24902   0.24999   0.24999   0.25184
     Eigenvalues ---    0.29092   0.29965   0.30401   0.31070   0.31328
     Eigenvalues ---    0.31790   0.32239   0.34679   0.34838   0.35335
     Eigenvalues ---    0.35494   0.36001   0.36284   0.36340   0.36378
     Eigenvalues ---    0.36766   0.38147   0.39296   0.39422   0.45255
     Eigenvalues ---    0.49542   0.51888   0.53368   0.540201000.00000
     Eigenvalues --- 1000.000001000.000001000.000001000.000001000.00000
     Eigenvalues --- 1000.000001000.000001000.000001000.000001000.00000
     Eigenvalues --- 1000.000001000.000001000.000001000.000001000.00000
     Eigenvalues --- 1000.000001000.000001000.000001000.000001000.00000
     Eigenvalues --- 1000.000001000.000001000.000001000.000001000.00000
     Eigenvalues --- 1000.000001000.000001000.000001000.000001000.00000
     Eigenvalues --- 1000.000001000.000001000.000001000.000001000.00000
     Eigenvalues --- 1000.000001000.000001000.000001000.000001000.00000
     Eigenvalues --- 1000.000001000.000001000.000001000.000001000.00000
     Eigenvalues --- 1000.000001000.000001000.000001000.000001000.00000
     Eigenvalues --- 1000.000001000.000001000.000001000.000001000.00000
     Eigenvalues --- 1000.000001000.00000
 RFO step:  Lambda=-9.04394071D-04 EMin= 6.89363160D-03
 Quartic linear search produced a step of  0.09761.
 Iteration  1 RMS(Cart)=  0.02982494 RMS(Int)=  0.00030460
 Iteration  2 RMS(Cart)=  0.00045487 RMS(Int)=  0.00003548
 Iteration  3 RMS(Cart)=  0.00000011 RMS(Int)=  0.00003548
 Iteration  1 RMS(Cart)=  0.00001869 RMS(Int)=  0.00000696
 Iteration  2 RMS(Cart)=  0.00001026 RMS(Int)=  0.00000777
 Iteration  3 RMS(Cart)=  0.00000563 RMS(Int)=  0.00000879
 Iteration  4 RMS(Cart)=  0.00000309 RMS(Int)=  0.00000946
 Iteration  5 RMS(Cart)=  0.00000170 RMS(Int)=  0.00000986
 Iteration  6 RMS(Cart)=  0.00000093 RMS(Int)=  0.00001008
 Variable       Old X    -DE/DX   Delta X   Delta X   Delta X     New X
                                 (Linear)    (Quad)   (Total)
    R1        2.71705  -0.00425  -0.00100  -0.01136  -0.01236   2.70469
    R2        2.61838   0.00313   0.00713   0.00279   0.00991   2.62829
    R3        2.06671  -0.00028   0.00245  -0.00192   0.00054   2.06725
    R4        2.63182   0.00524   0.00649   0.00782   0.01431   2.64613
[...]
     21          1           0        0.993356    2.191954    1.339697
     22          1           0        1.967140    3.163101    0.206565
 ---------------------------------------------------------------------
 Rotational constants (GHZ):           1.2675382           0.2726297           0.2409802

 **********************************************************************

            Population analysis using the SCF Density.

 **********************************************************************

 Orbital symmetries:
       Occupied  (A) (A) (A) (A) (A) (A) (A) (A) (A) (A) (A) (A)
                 (A) (A) (A) (A) (A) (A) (A) (A) (A) (A) (A) (A)
                 (A) (A) (A) (A) (A) (A) (A) (A) (A) (A) (A) (A)
                 (A) (A) (A) (A) (A) (A) (A) (A) (A) (A) (A) (A)
                 (A) (A) (A) (A) (A) (A) (A) (A) (A) (A) (A) (A)
                 (A)
       Virtual   (A) (A) (A) (A) (A) (A) (A) (A) (A) (A) (A) (A)
                 (A) (A) (A) (A) (A) (A) (A) (A) (A) (A) (A) (A)
                 (A) (A) (A) (A) (A) (A) (A) (A) (A) (A) (A) (A)
                 (A) (A) (A) (A) (A) (A) (A) (A) (A) (A) (A) (A)
                 (A) (A) (A) (A) (A) (A) (A) (A) (A) (A) (A) (A)
                 (A) (A) (A) (A) (A) (A) (A) (A) (A) (A) (A) (A)
                 (A) (A) (A) (A) (A) (A) (A) (A) (A) (A) (A) (A)
                 (A) (A) (A) (A) (A) (A) (A) (A) (A) (A) (A) (A)
                 (A) (A) (A) (A) (A) (A) (A) (A) (A) (A) (A) (A)
                 (A) (A) (A) (A) (A) (A) (A) (A) (A) (A) (A) (A)
                 (A) (A) (A) (A) (A) (A) (A) (A) (A) (A) (A) (A)
                 (A) (A) (A) (A) (A) (A) (A) (A) (A) (A) (A) (A)
                 (A) (A) (A) (A) (A) (A) (A) (A) (A) (A) (A) (A)
                 (A) (A) (A) (A) (A) (A) (A) (A) (A) (A) (A) (A)
                 (A) (A) (A) (A) (A) (A) (A) (A) (A) (A) (A) (A)
                 (A) (A) (A) (A) (A) (A) (A) (A) (A) (A) (A) (A)
                 (A) (A) (A) (A) (A) (A) (A) (A) (A) (A) (A) (A)
                 (A) (A) (A) (A) (A) (A) (A) (A) (A) (A) (A) (A)
                 (A) (A) (A) (A) (A) (A) (A) (A) (A) (A) (A) (A)
                 (A) (A) (A) (A) (A) (A) (A) (A) (A) (A) (A) (A)
                 (A) (A) (A) (A) (A) (A) (A) (A) (A) (A) (A) (A)
                 (A) (A) (A) (A) (A) (A) (A) (A) (A) (A) (A) (A)
                 (A) (A) (A) (A) (A) (A) (A) (A) (A) (A) (A) (A)
                 (A) (A) (A) (A) (A) (A) (A) (A) (A) (A) (A) (A)
                 (A) (A) (A) (A) (A) (A) (A) (A) (A) (A) (A) (A)
                 (A) (A) (A) (A) (A) (A) (A) (A) (A) (A) (A) (A)
                 (A) (A) (A) (A) (A) (A) (A) (A) (A) (A) (A) (A)
                 (A) (A) (A) (A) (A) (A) (A) (A) (A) (A) (A) (A)
                 (A) (A) (A) (A) (A) (A) (A) (A) (A)
 The electronic state is 1-A.
 Alpha  occ. eigenvalues --  -91.99522 -91.99436 -91.99009 -11.29420 -11.28492
 Alpha  occ. eigenvalues --  -11.28086 -11.28039 -11.27984 -11.27971 -11.26560
 Alpha  occ. eigenvalues --  -11.26508 -11.26186 -11.25168 -11.24181  -8.99632
 Alpha  occ. eigenvalues --   -8.99526  -8.99170  -6.67798  -6.67718  -6.67688
 Alpha  occ. eigenvalues --   -6.67603  -6.67521  -6.67406  -6.67332  -6.67240
 Alpha  occ. eigenvalues --   -6.67062  -1.20649  -1.17738  -1.11856  -1.03659
 Alpha  occ. eigenvalues --   -1.02573  -1.01276  -0.94984  -0.94415  -0.91303
 Alpha  occ. eigenvalues --   -0.82032  -0.76780  -0.76172  -0.72485  -0.69714
 Alpha  occ. eigenvalues --   -0.66737  -0.66222  -0.60291  -0.58762  -0.58650
 Alpha  occ. eigenvalues --   -0.56631  -0.55757  -0.54229  -0.53726  -0.52432
 Alpha  occ. eigenvalues --   -0.51827  -0.50842  -0.49545  -0.47523  -0.46296
 Alpha  occ. eigenvalues --   -0.45932  -0.39091  -0.34413  -0.33565  -0.32171
 Alpha  occ. eigenvalues --   -0.27757
 Alpha virt. eigenvalues --    0.03425   0.03533   0.04074   0.04787   0.04918
 Alpha virt. eigenvalues --    0.05524   0.06440   0.06728   0.07509   0.08398
 Alpha virt. eigenvalues --    0.08719   0.09285   0.10034   0.10572   0.10752
 Alpha virt. eigenvalues --    0.11330   0.11682   0.12365   0.12575   0.12975
 Alpha virt. eigenvalues --    0.13406   0.13611   0.14100   0.14347   0.14561
 Alpha virt. eigenvalues --    0.14905   0.15154   0.15510   0.15736   0.16048
 Alpha virt. eigenvalues --    0.16634   0.17092   0.17675   0.18095   0.18328
 Alpha virt. eigenvalues --    0.18644   0.19142   0.19515   0.20036   0.20391
 Alpha virt. eigenvalues --    0.20404   0.21101   0.21256   0.21495   0.21877
 Alpha virt. eigenvalues --    0.22270   0.22592   0.23013   0.23494   0.23958
 Alpha virt. eigenvalues --    0.24898   0.24954   0.25556   0.26048   0.26576
 Alpha virt. eigenvalues --    0.26686   0.27152   0.27732   0.27930   0.28674
 Alpha virt. eigenvalues --    0.29405   0.29685   0.30557   0.31653   0.31718
 Alpha virt. eigenvalues --    0.32065   0.32632   0.32741   0.33219   0.33906
 Alpha virt. eigenvalues --    0.33981   0.34533   0.35228   0.35615   0.36482
 Alpha virt. eigenvalues --    0.37130   0.37643   0.38004   0.39113   0.39902
 Alpha virt. eigenvalues --    0.40280   0.40568   0.41131   0.41808   0.43109
 Alpha virt. eigenvalues --    0.43390   0.43733   0.44243   0.44880   0.45399
 Alpha virt. eigenvalues --    0.45738   0.45931   0.46512   0.47555   0.48093
 Alpha virt. eigenvalues --    0.48550   0.48807   0.49052   0.49247   0.50505
 Alpha virt. eigenvalues --    0.51773   0.52936   0.53438   0.54039   0.54338
 Alpha virt. eigenvalues --    0.55079   0.56426   0.57493   0.57971   0.58415
 Alpha virt. eigenvalues --    0.58473   0.59047   0.59502   0.60383   0.60659
 Alpha virt. eigenvalues --    0.61437   0.62506   0.63096   0.63752   0.64311
 Alpha virt. eigenvalues --    0.64676   0.65239   0.65517   0.65962   0.66546
 Alpha virt. eigenvalues --    0.66718   0.67419   0.67719   0.68102   0.68375
 Alpha virt. eigenvalues --    0.68844   0.69409   0.69959   0.70905   0.71004
 Alpha virt. eigenvalues --    0.71902   0.72542   0.73334   0.73679   0.74021
 Alpha virt. eigenvalues --    0.74163   0.74688   0.74965   0.75594   0.76336
 Alpha virt. eigenvalues --    0.76727   0.77510   0.78099   0.79013   0.79221
 Alpha virt. eigenvalues --    0.80820   0.80971   0.81238   0.82478   0.83040
 Alpha virt. eigenvalues --    0.84073   0.84362   0.85654   0.86349   0.86740
 Alpha virt. eigenvalues --    0.87304   0.88240   0.89413   0.90034   0.90643
 Alpha virt. eigenvalues --    0.90972   0.91510   0.92195   0.92654   0.93452
 Alpha virt. eigenvalues --    0.94491   0.95315   0.95885   0.96038   0.97344
 Alpha virt. eigenvalues --    0.98134   0.98451   0.99563   0.99839   1.00176
 Alpha virt. eigenvalues --    1.00706   1.02985   1.03392   1.04400   1.05216
 Alpha virt. eigenvalues --    1.06132   1.06337   1.07404   1.09385   1.09756
 Alpha virt. eigenvalues --    1.11282   1.12321   1.13022   1.13529   1.14743
 Alpha virt. eigenvalues --    1.16388   1.17624   1.18034   1.19523   1.20651
 Alpha virt. eigenvalues --    1.21650   1.22308   1.22897   1.23729   1.24605
 Alpha virt. eigenvalues --    1.25187   1.25418   1.26605   1.27810   1.28151
 Alpha virt. eigenvalues --    1.29971   1.30726   1.30927   1.32192   1.32670
 Alpha virt. eigenvalues --    1.33820   1.35257   1.35725   1.36885   1.39105
 Alpha virt. eigenvalues --    1.39859   1.40631   1.41005   1.44352   1.45535
 Alpha virt. eigenvalues --    1.47915   1.48286   1.49248   1.51764   1.53122
 Alpha virt. eigenvalues --    1.54079   1.54875   1.57061   1.58015   1.58499
 Alpha virt. eigenvalues --    1.60003   1.61252   1.61884   1.63220   1.64384
 Alpha virt. eigenvalues --    1.64699   1.66057   1.66805   1.68453   1.68766
 Alpha virt. eigenvalues --    1.69602   1.69839   1.70790   1.72277   1.72670
 Alpha virt. eigenvalues --    1.73942   1.74243   1.76339   1.77776   1.78427
 Alpha virt. eigenvalues --    1.79152   1.80479   1.81059   1.82243   1.82939
 Alpha virt. eigenvalues --    1.84927   1.85375   1.87787   1.88796   1.89155
 Alpha virt. eigenvalues --    1.91483   1.92064   1.94452   1.95778   1.95934
 Alpha virt. eigenvalues --    1.96849   1.97885   1.98594   1.99012   2.02145
 Alpha virt. eigenvalues --    2.03838   2.04830   2.06718   2.07775   2.09403
 Alpha virt. eigenvalues --    2.09950   2.10269   2.11312   2.12543   2.13344
 Alpha virt. eigenvalues --    2.14179   2.15823   2.16821   2.18846   2.19967
 Alpha virt. eigenvalues --    2.22038   2.23206   2.23311   2.24516   2.25232
 Alpha virt. eigenvalues --    2.27162   2.27777   2.30177   2.32018   2.32933
 Alpha virt. eigenvalues --    2.33925   2.34968   2.36520   2.38461   2.39514
 Alpha virt. eigenvalues --    2.40996   2.42144   2.43979   2.44422   2.45690
 Alpha virt. eigenvalues --    2.47159   2.49636   2.50969   2.51412   2.53327
 Alpha virt. eigenvalues --    2.55976   2.57623   2.59872   2.63154   2.67323
 Alpha virt. eigenvalues --    2.70384   2.71833   2.76268   2.79976   2.81286
 Alpha virt. eigenvalues --    2.83260   2.83887   2.87871   2.91486   2.93970
 Alpha virt. eigenvalues --    2.97414   2.97724   3.04948   3.07558   3.16496
 Alpha virt. eigenvalues --    3.20762   3.28229   3.31074   3.37929   3.48325
 Alpha virt. eigenvalues --    3.56233   3.68720   3.77886   4.12402   4.21343
          Condensed to atoms (all electrons):
               1          2          3          4          5          6
     1  C    9.971927  -2.428854  -0.911325  -1.018922   0.219477  -0.187005
     2  C   -2.428854  10.275621  -1.170161   0.513748  -0.028679   0.171937
     3  C   -0.911325  -1.170161  12.692569  -0.604064  -1.299951   0.020149
     4  C   -1.018922   0.513748  -0.604064   6.073648   0.126257   0.048804
     5  C    0.219477  -0.028679  -1.299951   0.126257   6.637493  -0.081657
     6  H   -0.187005   0.171937   0.020149   0.048804  -0.081657   1.518828
     7  S   -0.465908  -0.017277  -0.544770   0.128148   0.391408  -0.008055
     8  H   -0.055448   0.119118  -0.044918   0.031853   0.259974  -0.063306
     9  C    0.547826  -1.074958  -1.768976  -0.129978   0.211502   0.023983
    10  S   -0.004196  -0.084126  -0.530571  -0.047239   0.030911   0.000705
    11  C    0.048091  -0.018447  -0.244928  -0.104495   0.016175   0.001605
    12  C   -0.086091   0.015199   0.539385   0.233375  -0.011222  -0.003907
    13  C   -0.093727   0.264896  -0.519183  -0.347647  -0.100938  -0.004751
    14  H    0.026940  -0.081382   0.134275   0.075952  -0.005864   0.000028
    15  S   -0.000670   0.012194  -0.086980  -0.014101  -0.000010   0.000024
    16  C   -0.000017  -0.010252   0.023471  -0.001330   0.000472  -0.000018
    17  C    0.003488   0.000635  -0.392689  -0.025949  -0.000943   0.000037
    18  H   -0.000017  -0.000078  -0.000255  -0.000132   0.000020  -0.000003
    19  H   -0.000226   0.000276  -0.008568  -0.000469   0.000030  -0.000022
    20  H    0.014069  -0.004532  -0.037763   0.244720   0.011171  -0.001660
    21  H   -0.076418   0.080750   0.067633   0.206418  -0.021114   0.000466
    22  H   -0.017896   0.060194   0.034514   0.255370   0.011357   0.000545
               7          8          9         10         11         12
     1  C   -0.465908  -0.055448   0.547826  -0.004196   0.048091  -0.086091
     2  C   -0.017277   0.119118  -1.074958  -0.084126  -0.018447   0.015199
     3  C   -0.544770  -0.044918  -1.768976  -0.530571  -0.244928   0.539385
     4  C    0.128148   0.031853  -0.129978  -0.047239  -0.104495   0.233375
     5  C    0.391408   0.259974   0.211502   0.030911   0.016175  -0.011222
     6  H   -0.008055  -0.063306   0.023983   0.000705   0.001605  -0.003907
     7  S   16.269480  -0.128425  -0.040829   0.275324   0.059371  -0.016496
     8  H   -0.128425   1.220605  -0.008904   0.003720   0.001221   0.000028
     9  C   -0.040829  -0.008904  11.714202   0.281760  -0.144926  -0.401986
    10  S    0.275324   0.003720   0.281760  16.455216   0.404126  -0.503576
    11  C    0.059371   0.001221  -0.144926   0.404126  10.316731  -0.127010
    12  C   -0.016496   0.000028  -0.401986  -0.503576  -0.127010  11.295176
    13  C   -0.316969  -0.004471  -2.988407  -0.500624  -1.003857  -3.392705
    14  H    0.005234  -0.000165   0.235782   0.020238  -0.076855   0.498659
    15  S    0.002271  -0.000034  -0.309856   0.095891  -0.062422  -0.366758
    16  C    0.004164   0.000043   0.066581  -0.096683  -0.229070  -0.690329
    17  C    0.026931  -0.000018  -0.526657  -0.256358  -2.701949  -0.745773
    18  H    0.000223   0.000003   0.002689   0.006335   0.034527  -0.033211
    19  H    0.002137   0.000013   0.100743   0.020492   0.557615   0.028729
    20  H    0.000224   0.001571   0.024127  -0.001837  -0.000976   0.010050
    21  H    0.003140  -0.000003  -0.068962   0.007528  -0.007356   0.058444
    22  H    0.007450   0.001250   0.009453   0.001681  -0.002155  -0.010501
              13         14         15         16         17         18
     1  C   -0.093727   0.026940  -0.000670  -0.000017   0.003488  -0.000017
     2  C    0.264896  -0.081382   0.012194  -0.010252   0.000635  -0.000078
     3  C   -0.519183   0.134275  -0.086980   0.023471  -0.392689  -0.000255
     4  C   -0.347647   0.075952  -0.014101  -0.001330  -0.025949  -0.000132
     5  C   -0.100938  -0.005864  -0.000010   0.000472  -0.000943   0.000020
     6  H   -0.004751   0.000028   0.000024  -0.000018   0.000037  -0.000003
     7  S   -0.316969   0.005234   0.002271   0.004164   0.026931   0.000223
     8  H   -0.004471  -0.000165  -0.000034   0.000043  -0.000018   0.000003
     9  C   -2.988407   0.235782  -0.309856   0.066581  -0.526657   0.002689
    10  S   -0.500624   0.020238   0.095891  -0.096683  -0.256358   0.006335
    11  C   -1.003857  -0.076855  -0.062422  -0.229070  -2.701949   0.034527
    12  C   -3.392705   0.498659  -0.366758  -0.690329  -0.745773  -0.033211
    13  C   15.395823  -0.982641   0.128970  -0.103562   0.497884   0.031075
    14  H   -0.982641   1.636003  -0.028271   0.014289  -0.035561   0.001684
    15  S    0.128970  -0.028271  15.944555   0.177737   0.044049  -0.150634
    16  C   -0.103562   0.014289   0.177737   6.474360   0.332456   0.274528
    17  C    0.497884  -0.035561   0.044049   0.332456   9.739066   0.003062
    18  H    0.031075   0.001684  -0.150634   0.274528   0.003062   1.242775
    19  H   -0.070725  -0.002209  -0.002342  -0.130399  -0.488602  -0.060770
    20  H   -0.027797   0.005464  -0.000158   0.000168   0.000092   0.000031
    21  H    0.002391   0.008526  -0.000289  -0.000008  -0.014555  -0.000099
    22  H   -0.010881  -0.012716  -0.002458  -0.000281  -0.001084  -0.000020
              19         20         21         22
     1  C   -0.000226   0.014069  -0.076418  -0.017896
     2  C    0.000276  -0.004532   0.080750   0.060194
     3  C   -0.008568  -0.037763   0.067633   0.034514
     4  C   -0.000469   0.244720   0.206418   0.255370
     5  C    0.000030   0.011171  -0.021114   0.011357
     6  H   -0.000022  -0.001660   0.000466   0.000545
     7  S    0.002137   0.000224   0.003140   0.007450
     8  H    0.000013   0.001571  -0.000003   0.001250
     9  C    0.100743   0.024127  -0.068962   0.009453
    10  S    0.020492  -0.001837   0.007528   0.001681
    11  C    0.557615  -0.000976  -0.007356  -0.002155
    12  C    0.028729   0.010050   0.058444  -0.010501
    13  C   -0.070725  -0.027797   0.002391  -0.010881
    14  H   -0.002209   0.005464   0.008526  -0.012716
    15  S   -0.002342  -0.000158  -0.000289  -0.002458
    16  C   -0.130399   0.000168  -0.000008  -0.000281
    17  C   -0.488602   0.000092  -0.014555  -0.001084
    18  H   -0.060770   0.000031  -0.000099  -0.000020
    19  H    1.350022   0.000033   0.000207  -0.000001
    20  H    0.000033   1.114340  -0.142542  -0.137848
    21  H    0.000207  -0.142542   0.971431  -0.087882
    22  H   -0.000001  -0.137848  -0.087882   0.779108
 Mulliken charges:
               1
     1  C    0.514904
     2  C   -0.595824
     3  C    0.653104
     4  C    0.356034
     5  C   -0.365869
     6  H   -0.436730
     7  S    0.363223
     8  H   -0.333707
     9  C    0.245791
    10  S    0.421280
    11  C   -0.715018
    12  C   -0.289480
    13  C    0.147846
    14  H   -0.437411
    15  S    0.619291
    16  C   -0.106319
    17  C    0.542438
    18  H   -0.351734
    19  H   -0.295962
    20  H   -0.070947
    21  H    0.012293
    22  H    0.122799
 Sum of Mulliken charges =  -0.00000
 Mulliken charges with hydrogens summed into heavy atoms:
               1
     1  C    0.078174
     2  C   -0.595824
     3  C    0.653104
     4  C    0.420178
     5  C   -0.699576
     7  S    0.363223
     9  C    0.245791
    10  S    0.421280
    11  C   -0.715018
    12  C   -0.289480
    13  C   -0.289565
    15  S    0.619291
    16  C   -0.458054
    17  C    0.246476
 Electronic spatial extent (au):  <R**2>=           4363.4909
 Charge=             -0.0000 electrons
 Dipole moment (field-independent basis, Debye):
    X=              0.3370    Y=              1.0279    Z=              0.5179  Tot=              1.1994
 Quadrupole moment (field-independent basis, Debye-Ang):
   XX=            -87.6586   YY=           -100.7769   ZZ=           -109.4323
   XY=              5.7822   XZ=             -1.3362   YZ=             -1.2650
 Traceless Quadrupole moment (field-independent basis, Debye-Ang):
   XX=             11.6306   YY=             -1.4877   ZZ=            -10.1430
   XY=              5.7822   XZ=             -1.3362   YZ=             -1.2650
 Octapole moment (field-independent basis, Debye-Ang**2):
  XXX=              1.4603  YYY=              4.4343  ZZZ=              2.0018  XYY=              5.0661
  XXY=            -16.1912  XXZ=              8.1475  XZZ=              0.8097  YZZ=              1.7321
  YYZ=              2.6638  XYZ=             16.7513
 Hexadecapole moment (field-independent basis, Debye-Ang**3):
 XXXX=          -4155.5793 YYYY=           -989.0641 ZZZZ=           -360.0275 XXXY=             24.0505
 XXXZ=            -45.4737 YYYX=             28.6610 YYYZ=            -15.5290 ZZZX=              6.6548
 ZZZY=              0.8721 XXYY=           -940.0174 XXZZ=           -931.3229 YYZZ=           -216.4358
 XXYZ=             10.4854 YYXZ=             -8.6790 ZZXY=              6.1844
 N-N= 1.117595304571D+03 E-N=-6.054507433765D+03  KE= 1.612915542156D+03
 Unable to Open any file for archive entry.
 1\1\GINC-CX3-11-8\FOpt\RMP2-FC\Aug-CC-pVDZ\C11H8S3\NS5018\27-Oct-2021\
 0\\# opt=modredundant mp2/aug-cc-pvdz\\pBTTT_-125.pdb\\0,1\C,3.9764567
 676,0.7308813733,0.1757382018\C,2.5936125325,1.0366073792,0.3488782533
 \C,1.7716462176,-0.0021025538,-0.1172908741\C,2.0696586098,2.306423293
 6,0.9713584351\C,4.201111572,-0.5194653327,-0.3931989675\H,4.789799811
 1,1.39767786,0.4747606594\S,2.7147172423,-1.3327253722,-0.7406070783\H
 ,5.1535254296,-0.9985228126,-0.6227238282\C,0.3161842086,-0.0663788327
 ,-0.0847920116\S,-0.4964153695,-1.4369504269,0.6779862952\C,-2.0616522
 296,-0.741510823,0.3619010384\C,-1.9317257154,0.5130670319,-0.28611292
 6\C,-0.5866774881,0.8953711867,-0.5441985669\H,-0.2615651305,1.8019718
 842,-1.0587102717\S,-3.4977714136,1.2067360307,-0.6046851584\C,-4.2959
 274518,-0.1696184769,0.1224237838\C,-3.4130876891,-1.133306969,0.59385
 06644\H,-5.385958431,-0.1897856226,0.1643409631\H,-3.7367943404,-2.057
 291608,1.0761676846\H,2.7215311673,2.6273116393,1.7989230873\H,1.05134
 61706,2.1552891694,1.3622838535\H,2.0319855302,3.1283219821,0.23670676
 26\\Version=ES64L-G16RevC.01\State=1-A\HF=-1613.8035784\MP2=-1615.7522
 563\RMSD=8.781e-09\RMSF=2.750e-04\Dipole=0.0560566,0.2879186,0.1521796
 \PG=C01 [X(C11H8S3)]\\@
 The archive entry for this job was punched.


 HE WHO LAUGHS LAST PROBABLY DIDN'T GET THE JOKE.
 Job cpu time:       0 days 14 hours 56 minutes 56.0 seconds.
 Elapsed time:       0 days  1 hours  4 minutes 19.7 seconds.
 File lengths (MBytes):  RWF=  36425 Int=      0 D2E=      0 Chk=     18 Scr=      1
 Normal termination of Gaussian 16 at Wed Oct 27 00:25:20 2021.
