 Entering Gaussian System, Link 0=g16
 Input=pBTTT_160.gjf
 Output=pBTTT_160.log
 Initial command:
 /apps/gaussian/g16-c01-avx/g16/l1.exe "/tmp/pbs.4766302[335].pbs/Gau-3575802.inp" -scrdir="/tmp/pbs.4766302[335].pbs/"
 Entering Link 1 = /apps/gaussian/g16-c01-avx/g16/l1.exe PID=   3575803.
  
 Copyright (c) 1988-2019, Gaussian, Inc.  All Rights Reserved.
  
 This is part of the Gaussian(R) 16 program.  It is based on
 the Gaussian(R) 09 system (copyright 2009, Gaussian, Inc.),
 the Gaussian(R) 03 system (copyright 2003, Gaussian, Inc.),
 the Gaussian(R) 98 system (copyright 1998, Gaussian, Inc.),
 the Gaussian(R) 94 system (copyright 1995, Gaussian, Inc.),
 the Gaussian 92(TM) system (copyright 1992, Gaussian, Inc.),
 the Gaussian 90(TM) system (copyright 1990, Gaussian, Inc.),
 the Gaussian 88(TM) system (copyright 1988, Gaussian, Inc.),
 the Gaussian 86(TM) system (copyright 1986, Carnegie Mellon
 University), and the Gaussian 82(TM) system (copyright 1983,
 Carnegie Mellon University). Gaussian is a federally registered
 trademark of Gaussian, Inc.
  
 This software contains proprietary and confidential information,
 including trade secrets, belonging to Gaussian, Inc.
  
 This software is provided under written license and may be
 used, copied, transmitted, or stored only in accord with that
 written license.
  
 The following legend is applicable only to US Government
 contracts under FAR:
  
                    RESTRICTED RIGHTS LEGEND
  
 Use, reproduction and disclosure by the US Government is
 subject to restrictions as set forth in subparagraphs (a)
 and (c) of the Commercial Computer Software - Restricted
 Rights clause in FAR 52.227-19.
  
 Gaussian, Inc.
 340 Quinnipiac St., Bldg. 40, Wallingford CT 06492
  
  
 ---------------------------------------------------------------
 Warning -- This program may not be used in any manner that
 competes with the business of Gaussian, Inc. or will provide
 assistance to any competitor of Gaussian, Inc.  The licensee
 of this program is prohibited from giving any competitor of
 Gaussian, Inc. access to this program.  By using this program,
 the user acknowledges that Gaussian, Inc. is engaged in the
 business of creating and licensing software in the field of
 computational chemistry and represents and warrants to the
 licensee that it is not a competitor of Gaussian, Inc. and that
 it will not use this program in any manner prohibited above.
 ---------------------------------------------------------------
  

 Cite this work as:
 Gaussian 16, Revision C.01,
 M. J. Frisch, G. W. Trucks, H. B. Schlegel, G. E. Scuseria, 
 M. A. Robb, J. R. Cheeseman, G. Scalmani, V. Barone, 
 G. A. Petersson, H. Nakatsuji, X. Li, M. Caricato, A. V. Marenich, 
 J. Bloino, B. G. Janesko, R. Gomperts, B. Mennucci, H. P. Hratchian, 
 J. V. Ortiz, A. F. Izmaylov, J. L. Sonnenberg, D. Williams-Young, 
 F. Ding, F. Lipparini, F. Egidi, J. Goings, B. Peng, A. Petrone, 
 T. Henderson, D. Ranasinghe, V. G. Zakrzewski, J. Gao, N. Rega, 
 G. Zheng, W. Liang, M. Hada, M. Ehara, K. Toyota, R. Fukuda, 
 J. Hasegawa, M. Ishida, T. Nakajima, Y. Honda, O. Kitao, H. Nakai, 
 T. Vreven, K. Throssell, J. A. Montgomery, Jr., J. E. Peralta, 
 F. Ogliaro, M. J. Bearpark, J. J. Heyd, E. N. Brothers, K. N. Kudin, 
 V. N. Staroverov, T. A. Keith, R. Kobayashi, J. Normand, 
 K. Raghavachari, A. P. Rendell, J. C. Burant, S. S. Iyengar, 
 J. Tomasi, M. Cossi, J. M. Millam, M. Klene, C. Adamo, R. Cammi, 
 J. W. Ochterski, R. L. Martin, K. Morokuma, O. Farkas, 
 J. B. Foresman, and D. J. Fox, Gaussian, Inc., Wallingford CT, 2019.
 
 ******************************************
 Gaussian 16:  ES64L-G16RevC.01  3-Jul-2019
                27-Oct-2021 
 ******************************************
 %mem=100GB
 %nprocshared=16
 Will use up to   16 processors via shared memory.
 ----------------------------------
 # opt=modredundant mp2/aug-cc-pvdz
 ----------------------------------
 1/18=120,19=15,38=1/1,3;
 2/9=110,12=2,17=6,18=5,40=1/2;
 3/5=16,7=10,11=9,25=1,30=1,71=1/1,2,3;
 4//1;
 5/5=2,38=5/2;
 8/6=4,10=1/1;
 9/15=2,16=-3/6;
 10/5=1/2;
 6/7=2,8=2,9=2,10=2/1;
 7/12=2/1,2,3,16;
 1/18=20,19=15/3(2);
 2/9=110/2;
 99//99;
 2/9=110/2;
 3/5=16,7=10,11=9,25=1,30=1,71=1/1,2,3;
 4/5=5,16=3,69=1/1;
 5/5=2,38=5/2;
 8/6=4,10=1/1;
 9/15=2,16=-3/6;
 10/5=1/2;
 7/12=2/1,2,3,16;
 1/18=20,19=15/3(-8);
 2/9=110/2;
 6/7=2,8=2,9=2,10=2/1;
 99/9=10/99;
 -------------
 pBTTT_160.pdb
 -------------
 Symbolic Z-matrix:
 Charge =  0 Multiplicity = 1
 C                    -3.961     0.769    -0.004 
 C                    -2.576     1.121     0.166 
 C                    -1.756     0.041     0.027 
 C                    -2.157     2.531     0.495 
 C                    -4.161    -0.538    -0.267 
 H                    -4.763     1.486     0.084 
 S                    -2.674    -1.404    -0.334 
 H                    -5.097    -1.047    -0.422 
 C                    -0.289    -0.017     0.059 
 S                     0.526    -1.548     0.381 
 C                     2.081    -0.806     0.169 
 C                     1.953     0.519    -0.124 
 C                     0.599     0.976    -0.2 
 H                     0.317     1.979    -0.466 
 S                     3.508     1.265    -0.334 
 C                     4.301    -0.256    -0.015 
 C                     3.438    -1.264     0.235 
 H                     5.376    -0.309    -0.033 
 H                     3.742    -2.275     0.452 
 H                    -2.981     3.063     0.967 
 H                    -1.881     3.086    -0.404 
 H                    -1.31      2.546     1.177 
 
 The following ModRedundant input section has been read:
 D       2       3       9      10 F                                           
 

 GradGradGradGradGradGradGradGradGradGradGradGradGradGradGradGradGradGrad
 Berny optimization.
 Initialization pass.
                           ----------------------------
                           !    Initial Parameters    !
                           ! (Angstroms and Degrees)  !
 --------------------------                            --------------------------
 ! Name  Definition              Value          Derivative Info.                !
 --------------------------------------------------------------------------------
 ! R1    R(1,2)                  1.4391         estimate D2E/DX2                !
 ! R2    R(1,5)                  1.3481         estimate D2E/DX2                !
 ! R3    R(1,6)                  1.0794         estimate D2E/DX2                !
 ! R4    R(2,3)                  1.3631         estimate D2E/DX2                !
 ! R5    R(2,4)                  1.5073         estimate D2E/DX2                !
 ! R6    R(3,7)                  1.7496         estimate D2E/DX2                !
 ! R7    R(3,9)                  1.4685         estimate D2E/DX2                !
 ! R8    R(4,20)                 1.0885         estimate D2E/DX2                !
 ! R9    R(4,21)                 1.092          estimate D2E/DX2                !
 ! R10   R(4,22)                 1.0875         estimate D2E/DX2                !
 ! R11   R(5,7)                  1.7221         estimate D2E/DX2                !
 ! R12   R(5,8)                  1.0767         estimate D2E/DX2                !
 ! R13   R(9,10)                 1.764          estimate D2E/DX2                !
 ! R14   R(9,13)                 1.3571         estimate D2E/DX2                !
 ! R15   R(10,11)                1.736          estimate D2E/DX2                !
 ! R16   R(11,12)                1.363          estimate D2E/DX2                !
 ! R17   R(11,17)                1.4337         estimate D2E/DX2                !
 ! R18   R(12,13)                1.4311         estimate D2E/DX2                !
 ! R19   R(12,15)                1.7374         estimate D2E/DX2                !
 ! R20   R(13,14)                1.0753         estimate D2E/DX2                !
 ! R21   R(15,16)                1.7447         estimate D2E/DX2                !
 ! R22   R(16,17)                1.3503         estimate D2E/DX2                !
 ! R23   R(16,18)                1.0765         estimate D2E/DX2                !
 ! R24   R(17,19)                1.0778         estimate D2E/DX2                !
 ! A1    A(2,1,5)              113.7633         estimate D2E/DX2                !
 ! A2    A(2,1,6)              122.8867         estimate D2E/DX2                !
 ! A3    A(5,1,6)              123.3458         estimate D2E/DX2                !
 ! A4    A(1,2,3)              111.9071         estimate D2E/DX2                !
 ! A5    A(1,2,4)              121.475          estimate D2E/DX2                !
 ! A6    A(3,2,4)              126.5977         estimate D2E/DX2                !
 ! A7    A(2,3,7)              111.086          estimate D2E/DX2                !
 ! A8    A(2,3,9)              129.0513         estimate D2E/DX2                !
 ! A9    A(7,3,9)              119.7381         estimate D2E/DX2                !
 ! A10   A(2,4,20)             109.9635         estimate D2E/DX2                !
 ! A11   A(2,4,21)             111.4699         estimate D2E/DX2                !
 ! A12   A(2,4,22)             111.4864         estimate D2E/DX2                !
 ! A13   A(20,4,21)            107.4534         estimate D2E/DX2                !
 ! A14   A(20,4,22)            108.114          estimate D2E/DX2                !
 ! A15   A(21,4,22)            108.2051         estimate D2E/DX2                !
 ! A16   A(1,5,7)              111.5323         estimate D2E/DX2                !
 ! A17   A(1,5,8)              127.9808         estimate D2E/DX2                !
 ! A18   A(7,5,8)              120.4863         estimate D2E/DX2                !
 ! A19   A(3,7,5)               91.7024         estimate D2E/DX2                !
 ! A20   A(3,9,10)             119.9862         estimate D2E/DX2                !
 ! A21   A(3,9,13)             128.3614         estimate D2E/DX2                !
 ! A22   A(10,9,13)            111.5662         estimate D2E/DX2                !
 ! A23   A(9,10,11)             91.1799         estimate D2E/DX2                !
 ! A24   A(10,11,12)           110.9551         estimate D2E/DX2                !
 ! A25   A(10,11,17)           134.883          estimate D2E/DX2                !
 ! A26   A(12,11,17)           114.1616         estimate D2E/DX2                !
 ! A27   A(11,12,13)           114.2488         estimate D2E/DX2                !
 ! A28   A(11,12,15)           111.0587         estimate D2E/DX2                !
 ! A29   A(13,12,15)           134.6901         estimate D2E/DX2                !
 ! A30   A(9,13,12)            112.0431         estimate D2E/DX2                !
 ! A31   A(9,13,14)            123.926          estimate D2E/DX2                !
 ! A32   A(12,13,14)           123.9959         estimate D2E/DX2                !
 ! A33   A(12,15,16)            90.5946         estimate D2E/DX2                !
 ! A34   A(15,16,17)           113.2124         estimate D2E/DX2                !
 ! A35   A(15,16,18)           119.5883         estimate D2E/DX2                !
 ! A36   A(17,16,18)           127.1994         estimate D2E/DX2                !
 ! A37   A(11,17,16)           110.9726         estimate D2E/DX2                !
 ! A38   A(11,17,19)           125.1617         estimate D2E/DX2                !
 ! A39   A(16,17,19)           123.8656         estimate D2E/DX2                !
 ! D1    D(5,1,2,3)             -0.2184         estimate D2E/DX2                !
 ! D2    D(5,1,2,4)           -178.6839         estimate D2E/DX2                !
 ! D3    D(6,1,2,3)            179.0603         estimate D2E/DX2                !
 ! D4    D(6,1,2,4)              0.5948         estimate D2E/DX2                !
 ! D5    D(2,1,5,7)             -0.4694         estimate D2E/DX2                !
 ! D6    D(2,1,5,8)            179.249          estimate D2E/DX2                !
 ! D7    D(6,1,5,7)           -179.7443         estimate D2E/DX2                !
 ! D8    D(6,1,5,8)             -0.0259         estimate D2E/DX2                !
 ! D9    D(1,2,3,7)              0.7895         estimate D2E/DX2                !
 ! D10   D(1,2,3,9)            176.6521         estimate D2E/DX2                !
 ! D11   D(4,2,3,7)            179.1593         estimate D2E/DX2                !
 ! D12   D(4,2,3,9)             -4.978          estimate D2E/DX2                !
 ! D13   D(1,2,4,20)            23.3349         estimate D2E/DX2                !
 ! D14   D(1,2,4,21)           -95.7277         estimate D2E/DX2                !
 ! D15   D(1,2,4,22)           143.2343         estimate D2E/DX2                !
 ! D16   D(3,2,4,20)          -154.8917         estimate D2E/DX2                !
 ! D17   D(3,2,4,21)            86.0457         estimate D2E/DX2                !
 ! D18   D(3,2,4,22)           -34.9923         estimate D2E/DX2                !
 ! D19   D(2,3,7,5)             -0.8981         estimate D2E/DX2                !
 ! D20   D(9,3,7,5)           -177.1984         estimate D2E/DX2                !
 ! D21   D(2,3,9,10)           159.9971         Frozen                          !
 ! D22   D(2,3,9,13)           -23.6822         estimate D2E/DX2                !
 ! D23   D(7,3,9,10)           -24.4493         estimate D2E/DX2                !
 ! D24   D(7,3,9,13)           151.8714         estimate D2E/DX2                !
 ! D25   D(1,5,7,3)              0.7732         estimate D2E/DX2                !
 ! D26   D(8,5,7,3)           -178.9692         estimate D2E/DX2                !
 ! D27   D(3,9,10,11)          177.3195         estimate D2E/DX2                !
 ! D28   D(13,9,10,11)           0.4211         estimate D2E/DX2                !
 ! D29   D(3,9,13,12)         -177.3818         estimate D2E/DX2                !
 ! D30   D(3,9,13,14)            0.5395         estimate D2E/DX2                !
 ! D31   D(10,9,13,12)          -0.8082         estimate D2E/DX2                !
 ! D32   D(10,9,13,14)         177.1131         estimate D2E/DX2                !
 ! D33   D(9,10,11,12)           0.0982         estimate D2E/DX2                !
 ! D34   D(9,10,11,17)         179.9115         estimate D2E/DX2                !
 ! D35   D(10,11,12,13)         -0.5795         estimate D2E/DX2                !
 ! D36   D(10,11,12,15)        179.9002         estimate D2E/DX2                !
 ! D37   D(17,11,12,13)        179.5655         estimate D2E/DX2                !
 ! D38   D(17,11,12,15)          0.0452         estimate D2E/DX2                !
 ! D39   D(10,11,17,16)       -179.8661         estimate D2E/DX2                !
 ! D40   D(10,11,17,19)          0.2558         estimate D2E/DX2                !
 ! D41   D(12,11,17,16)         -0.0572         estimate D2E/DX2                !
 ! D42   D(12,11,17,19)       -179.9353         estimate D2E/DX2                !
 ! D43   D(11,12,13,9)           0.9154         estimate D2E/DX2                !
 ! D44   D(11,12,13,14)       -177.0042         estimate D2E/DX2                !
 ! D45   D(15,12,13,9)        -179.7143         estimate D2E/DX2                !
 ! D46   D(15,12,13,14)          2.3661         estimate D2E/DX2                !
 ! D47   D(11,12,15,16)         -0.0173         estimate D2E/DX2                !
 ! D48   D(13,12,15,16)       -179.4021         estimate D2E/DX2                !
 ! D49   D(12,15,16,17)         -0.0157         estimate D2E/DX2                !
 ! D50   D(12,15,16,18)        179.984          estimate D2E/DX2                !
 ! D51   D(15,16,17,11)          0.0427         estimate D2E/DX2                !
 ! D52   D(15,16,17,19)        179.9227         estimate D2E/DX2                !
 ! D53   D(18,16,17,11)       -179.9569         estimate D2E/DX2                !
 ! D54   D(18,16,17,19)         -0.0769         estimate D2E/DX2                !
 --------------------------------------------------------------------------------
 Trust Radius=3.00D-01 FncErr=1.00D-07 GrdErr=1.00D-07 EigMax=2.50D+02 EigMin=1.00D-04
 Number of steps in this run=    127 maximum allowed number of steps=    132.
 GradGradGradGradGradGradGradGradGradGradGradGradGradGradGradGradGradGrad

                          Input orientation:                          
 ---------------------------------------------------------------------
 Center     Atomic      Atomic             Coordinates (Angstroms)
 Number     Number       Type             X           Y           Z
 ---------------------------------------------------------------------
      1          6           0       -3.961000    0.769000   -0.004000
      2          6           0       -2.576000    1.121000    0.166000
      3          6           0       -1.756000    0.041000    0.027000
      4          6           0       -2.157000    2.531000    0.495000
      5          6           0       -4.161000   -0.538000   -0.267000
      6          1           0       -4.763000    1.486000    0.084000
      7         16           0       -2.674000   -1.404000   -0.334000
      8          1           0       -5.097000   -1.047000   -0.422000
      9          6           0       -0.289000   -0.017000    0.059000
     10         16           0        0.526000   -1.548000    0.381000
     11          6           0        2.081000   -0.806000    0.169000
     12          6           0        1.953000    0.519000   -0.124000
     13          6           0        0.599000    0.976000   -0.200000
     14          1           0        0.317000    1.979000   -0.466000
     15         16           0        3.508000    1.265000   -0.334000
     16          6           0        4.301000   -0.256000   -0.015000
     17          6           0        3.438000   -1.264000    0.235000
     18          1           0        5.376000   -0.309000   -0.033000
     19          1           0        3.742000   -2.275000    0.452000
     20          1           0       -2.981000    3.063000    0.967000
     21          1           0       -1.881000    3.086000   -0.404000
     22          1           0       -1.310000    2.546000    1.177000
 ---------------------------------------------------------------------
                    Distance matrix (angstroms):
                    1          2          3          4          5
     1  C    0.000000
     2  C    1.439107   0.000000
     3  C    2.322277   1.363129   0.000000
     4  C    2.570615   1.507283   2.565136   0.000000
     5  C    1.348116   2.334951   2.491125   3.743718   0.000000
     6  H    1.079369   2.218765   3.336663   2.837637   2.140603
     7  S    2.546998   2.575894   1.749591   4.054473   1.722096
     8  H    2.182447   3.376597   3.542263   4.720866   1.076662
     9  C    3.755709   2.556729   1.468495   3.189330   3.920472
    10  S    5.064571   4.097827   2.803170   4.883618   4.838179
    11  C    6.246304   5.039939   3.931939   5.403933   6.262945
    12  C    5.920498   4.578029   3.742722   4.617727   6.206343
    13  C    4.568902   3.199313   2.543969   3.239844   4.995426
    14  H    4.469768   3.083024   2.880316   2.710886   5.140756
    15  S    7.492722   6.106209   5.416474   5.863636   7.878379
    16  C    8.325346   7.015841   6.064423   7.052179   8.470447
    17  C    7.676940   6.470022   5.359471   6.765623   7.650090
    18  H    9.399069   8.082005   7.140835   8.067867   9.542618
    19  H    8.295184   7.178561   5.981010   7.609053   8.123518
    20  H    2.676878   2.139390   3.393628   1.088478   3.985267
    21  H    3.139250   2.160822   3.077891   1.091972   4.283754
    22  H    3.402983   2.157661   2.792211   1.087547   4.441215
                    6          7          8          9         10
     6  H    0.000000
     7  S    3.590368   0.000000
     8  H    2.604550   2.450739   0.000000
     9  C    4.719779   2.786834   4.940559   0.000000
    10  S    6.104661   3.282067   5.702100   1.764049   0.000000
    11  C    7.218090   4.818780   7.206320   2.500304   1.735953
    12  C    6.788447   5.015093   7.227978   2.312434   2.562000
    13  C    5.393681   4.049060   6.048655   1.357083   2.591036
    14  H    5.133415   4.517543   6.202420   2.151018   3.633293
    15  S    8.284504   6.733549   8.910618   4.026808   4.161312
    16  C    9.230410   7.076036   9.440007   4.596814   4.009577
    17  C    8.651110   6.140025   8.563000   3.934020   2.929457
    18  H   10.297331   8.129706  10.506174   5.673267   5.022849
    19  H    9.306749   6.522384   8.966592   4.637022   3.297912
    20  H    2.538138   4.662718   4.826891   4.190194   5.822694
    21  H    3.332277   4.560027   5.236857   3.518159   5.280514
    22  H    3.773786   4.443660   5.459654   2.976799   4.556901
                   11         12         13         14         15
    11  C    0.000000
    12  C    1.363033   0.000000
    13  C    2.346915   1.431063   0.000000
    14  H    3.357253   2.219248   1.075309   0.000000
    15  S    2.564835   1.737424   2.926390   3.272568   0.000000
    16  C    2.294506   2.474997   3.906002   4.590303   1.744721
    17  C    1.433726   2.348019   3.642354   4.555117   2.593164
    18  H    3.338389   3.522896   4.949631   5.569193   2.461199
    19  H    2.235391   3.367304   4.568649   5.538038   3.633752
    20  H    6.421044   5.657435   4.305097   3.755709   6.858026
    21  H    5.583318   4.622493   3.262532   2.461808   5.688784
    22  H    4.873484   4.055675   2.829366   2.380770   5.209338
                   16         17         18         19         20
    16  C    0.000000
    17  C    1.350308   0.000000
    18  H    1.076456   2.177084   0.000000
    19  H    2.146376   1.077788   2.601987   0.000000
    20  H    8.062730   7.775752   9.066964   8.599895   0.000000
    21  H    7.038282   6.900912   8.020456   7.816085   1.757888
    22  H    6.383995   6.160111   7.370056   7.020710   1.761712
                   21         22
    21  H    0.000000
    22  H    1.765560   0.000000
 Stoichiometry    C11H8S3
 Framework group  C1[X(C11H8S3)]
 Deg. of freedom    60
 Full point group                 C1      NOp   1
 Largest Abelian subgroup         C1      NOp   1
 Largest concise Abelian subgroup C1      NOp   1
                         Standard orientation:                         
 ---------------------------------------------------------------------
 Center     Atomic      Atomic             Coordinates (Angstroms)
 Number     Number       Type             X           Y           Z
 ---------------------------------------------------------------------
      1          6           0       -3.960959    0.769058   -0.004074
      2          6           0       -2.575959    1.121057    0.165926
      3          6           0       -1.755959    0.041057    0.026926
      4          6           0       -2.156959    2.531057    0.494926
      5          6           0       -4.160959   -0.537942   -0.267074
      6          1           0       -4.762959    1.486058    0.083926
      7         16           0       -2.673959   -1.403943   -0.334074
      8          1           0       -5.096959   -1.046942   -0.422074
      9          6           0       -0.288959   -0.016943    0.058926
     10         16           0        0.526041   -1.547943    0.380926
     11          6           0        2.081041   -0.805943    0.168926
     12          6           0        1.953041    0.519057   -0.124074
     13          6           0        0.599041    0.976057   -0.200074
     14          1           0        0.317041    1.979057   -0.466074
     15         16           0        3.508041    1.265057   -0.334074
     16          6           0        4.301041   -0.255943   -0.015074
     17          6           0        3.438041   -1.263943    0.234926
     18          1           0        5.376041   -0.308943   -0.033074
     19          1           0        3.742041   -2.274943    0.451926
     20          1           0       -2.980959    3.063057    0.966926
     21          1           0       -1.880959    3.086057   -0.404074
     22          1           0       -1.309959    2.546057    1.176926
 ---------------------------------------------------------------------
 Rotational constants (GHZ):           1.2834867           0.2816970           0.2354535
 Standard basis: Aug-CC-pVDZ (5D, 7F)
 There are   434 symmetry adapted cartesian basis functions of A   symmetry.
 There are   406 symmetry adapted basis functions of A   symmetry.
   406 basis functions,   804 primitive gaussians,   434 cartesian basis functions
    61 alpha electrons       61 beta electrons
       nuclear repulsion energy      1125.6402102286 Hartrees.
 NAtoms=   22 NActive=   22 NUniq=   22 SFac= 1.00D+00 NAtFMM=   60 NAOKFM=F Big=F
 Integral buffers will be    131072 words long.
 Raffenetti 1 integral format.
 Two-electron integral symmetry is turned on.
 One-electron integrals computed using PRISM.
 NBasis=   406 RedAO= T EigKep=  2.84D-06  NBF=   406
 NBsUse=   406 1.00D-06 EigRej= -1.00D+00 NBFU=   406
 ExpMin= 2.97D-02 ExpMax= 1.11D+05 ExpMxC= 1.07D+03 IAcc=3 IRadAn=         5 AccDes= 0.00D+00
 Harris functional with IExCor=  205 and IRadAn=       5 diagonalized for initial guess.
 HarFok:  IExCor=  205 AccDes= 0.00D+00 IRadAn=         5 IDoV= 1 UseB2=F ITyADJ=14
 ICtDFT=  3500011 ScaDFX=  1.000000  1.000000  1.000000  1.000000
 FoFCou: FMM=F IPFlag=           0 FMFlag=      100000 FMFlg1=           0
         NFxFlg=           0 DoJE=T BraDBF=F KetDBF=T FulRan=T
         wScrn=  0.000000 ICntrl=       500 IOpCl=  0 I1Cent=   200000004 NGrid=           0
         NMat0=    1 NMatS0=      1 NMatT0=    0 NMatD0=    1 NMtDS0=    0 NMtDT0=    0
 Petite list used in FoFCou.
 Requested convergence on RMS density matrix=1.00D-08 within 128 cycles.
 Requested convergence on MAX density matrix=1.00D-06.
 Requested convergence on             energy=1.00D-06.
 No special actions if energy rises.
 SCF Done:  E(RHF) =  -1613.81212429     A.U. after   16 cycles
            NFock= 16  Conv=0.98D-08     -V/T= 2.0000
 ExpMin= 2.97D-02 ExpMax= 1.11D+05 ExpMxC= 1.07D+03 IAcc=3 IRadAn=         5 AccDes= 0.00D+00
 HarFok:  IExCor=  205 AccDes= 0.00D+00 IRadAn=         5 IDoV=-2 UseB2=F ITyADJ=14
 ICtDFT= 12500011 ScaDFX=  1.000000  1.000000  1.000000  1.000000
 GSVD:  LWork=        -884 too small for GESVD, short by        3770 words or        3770 for optimal perf.
 Range of M.O.s used for correlation:    27   406
 NBasis=   406 NAE=    61 NBE=    61 NFC=    26 NFV=     0
 NROrb=    380 NOA=    35 NOB=    35 NVA=   345 NVB=   345

 **** Warning!!: The largest alpha MO coefficient is  0.88017124D+02

 Disk-based method using ON**2 memory for 35 occupieds at a time.
 Estimated scratch disk usage=  5834739708 words.
 Actual    scratch disk usage=  4758572028 words.
 JobTyp=1 Pass  1:  I=  27 to  61 NPSUse= 16 ParTrn=T ParDer=T DoDerP=T.
 (rs|ai) integrals will be sorted in core.
 Spin components of T(2) and E(2):
     alpha-alpha T2 =       0.1139472962D+00 E2=     -0.2650904656D+00
     alpha-beta  T2 =       0.5611227281D+00 E2=     -0.1399893025D+01
     beta-beta   T2 =       0.1139472962D+00 E2=     -0.2650904656D+00
 ANorm=    0.1337541521D+01
 E2 =    -0.1930073956D+01 EUMP2 =    -0.16157421982473D+04
          IDoAtm=1111111111111111111111
          Differentiating once with respect to electric field.
                with respect to dipole field.
          Differentiating once with respect to nuclear coordinates.
 Keep R1 ints in memory in canonical form, NReq=3454318301.
          There are     1 degrees of freedom in the 1st order CPHF.  IDoFFX=0 NUNeed=     1.
 LinEq1:  Iter=  0 NonCon=     1 RMS=2.71D-03 Max=6.66D-02 NDo=     1
 AX will form     1 AO Fock derivatives at one time.
 LinEq1:  Iter=  1 NonCon=     1 RMS=5.93D-04 Max=1.31D-02 NDo=     1
 LinEq1:  Iter=  2 NonCon=     1 RMS=3.34D-04 Max=1.50D-02 NDo=     1
 LinEq1:  Iter=  3 NonCon=     1 RMS=9.48D-05 Max=2.33D-03 NDo=     1
 LinEq1:  Iter=  4 NonCon=     1 RMS=3.81D-05 Max=9.08D-04 NDo=     1
 LinEq1:  Iter=  5 NonCon=     1 RMS=1.37D-05 Max=4.94D-04 NDo=     1
 LinEq1:  Iter=  6 NonCon=     1 RMS=4.64D-06 Max=2.49D-04 NDo=     1
 LinEq1:  Iter=  7 NonCon=     1 RMS=2.35D-06 Max=7.18D-05 NDo=     1
 LinEq1:  Iter=  8 NonCon=     1 RMS=8.85D-07 Max=3.59D-05 NDo=     1
 LinEq1:  Iter=  9 NonCon=     1 RMS=3.83D-07 Max=1.39D-05 NDo=     1
 LinEq1:  Iter= 10 NonCon=     1 RMS=1.68D-07 Max=6.98D-06 NDo=     1
 LinEq1:  Iter= 11 NonCon=     1 RMS=8.14D-08 Max=2.63D-06 NDo=     1
 LinEq1:  Iter= 12 NonCon=     1 RMS=2.71D-08 Max=4.68D-07 NDo=     1
 LinEq1:  Iter= 13 NonCon=     1 RMS=9.05D-09 Max=1.74D-07 NDo=     1
 LinEq1:  Iter= 14 NonCon=     1 RMS=2.88D-09 Max=6.21D-08 NDo=     1
 LinEq1:  Iter= 15 NonCon=     1 RMS=1.06D-09 Max=2.48D-08 NDo=     1
 LinEq1:  Iter= 16 NonCon=     1 RMS=4.22D-10 Max=1.39D-08 NDo=     1
 LinEq1:  Iter= 17 NonCon=     1 RMS=1.81D-10 Max=4.94D-09 NDo=     1
 LinEq1:  Iter= 18 NonCon=     1 RMS=6.40D-11 Max=1.89D-09 NDo=     1
 LinEq1:  Iter= 19 NonCon=     0 RMS=2.32D-11 Max=3.84D-10 NDo=     1
 Linear equations converged to 1.000D-10 1.000D-09 after    19 iterations.
 End of Minotr F.D. properties file   721 does not exist.
 End of Minotr F.D. properties file   722 does not exist.
 End of Minotr F.D. properties file   788 does not exist.

 **********************************************************************

            Population analysis using the SCF Density.

 **********************************************************************

 Orbital symmetries:
       Occupied  (A) (A) (A) (A) (A) (A) (A) (A) (A) (A) (A) (A)
                 (A) (A) (A) (A) (A) (A) (A) (A) (A) (A) (A) (A)
                 (A) (A) (A) (A) (A) (A) (A) (A) (A) (A) (A) (A)
                 (A) (A) (A) (A) (A) (A) (A) (A) (A) (A) (A) (A)
                 (A) (A) (A) (A) (A) (A) (A) (A) (A) (A) (A) (A)
                 (A)
       Virtual   (A) (A) (A) (A) (A) (A) (A) (A) (A) (A) (A) (A)
                 (A) (A) (A) (A) (A) (A) (A) (A) (A) (A) (A) (A)
                 (A) (A) (A) (A) (A) (A) (A) (A) (A) (A) (A) (A)
                 (A) (A) (A) (A) (A) (A) (A) (A) (A) (A) (A) (A)
                 (A) (A) (A) (A) (A) (A) (A) (A) (A) (A) (A) (A)
                 (A) (A) (A) (A) (A) (A) (A) (A) (A) (A) (A) (A)
                 (A) (A) (A) (A) (A) (A) (A) (A) (A) (A) (A) (A)
                 (A) (A) (A) (A) (A) (A) (A) (A) (A) (A) (A) (A)
                 (A) (A) (A) (A) (A) (A) (A) (A) (A) (A) (A) (A)
                 (A) (A) (A) (A) (A) (A) (A) (A) (A) (A) (A) (A)
                 (A) (A) (A) (A) (A) (A) (A) (A) (A) (A) (A) (A)
                 (A) (A) (A) (A) (A) (A) (A) (A) (A) (A) (A) (A)
                 (A) (A) (A) (A) (A) (A) (A) (A) (A) (A) (A) (A)
                 (A) (A) (A) (A) (A) (A) (A) (A) (A) (A) (A) (A)
                 (A) (A) (A) (A) (A) (A) (A) (A) (A) (A) (A) (A)
                 (A) (A) (A) (A) (A) (A) (A) (A) (A) (A) (A) (A)
                 (A) (A) (A) (A) (A) (A) (A) (A) (A) (A) (A) (A)
                 (A) (A) (A) (A) (A) (A) (A) (A) (A) (A) (A) (A)
                 (A) (A) (A) (A) (A) (A) (A) (A) (A) (A) (A) (A)
                 (A) (A) (A) (A) (A) (A) (A) (A) (A) (A) (A) (A)
                 (A) (A) (A) (A) (A) (A) (A) (A) (A) (A) (A) (A)
                 (A) (A) (A) (A) (A) (A) (A) (A) (A) (A) (A) (A)
                 (A) (A) (A) (A) (A) (A) (A) (A) (A) (A) (A) (A)
                 (A) (A) (A) (A) (A) (A) (A) (A) (A) (A) (A) (A)
                 (A) (A) (A) (A) (A) (A) (A) (A) (A) (A) (A) (A)
                 (A) (A) (A) (A) (A) (A) (A) (A) (A) (A) (A) (A)
                 (A) (A) (A) (A) (A) (A) (A) (A) (A) (A) (A) (A)
                 (A) (A) (A) (A) (A) (A) (A) (A) (A) (A) (A) (A)
                 (A) (A) (A) (A) (A) (A) (A) (A) (A)
 The electronic state is 1-A.
 Alpha  occ. eigenvalues --  -91.99066 -91.98943 -91.98532 -11.29264 -11.27983
 Alpha  occ. eigenvalues --  -11.27772 -11.27312 -11.27164 -11.27156 -11.25834
 Alpha  occ. eigenvalues --  -11.25687 -11.25637 -11.24470 -11.24102  -8.99248
 Alpha  occ. eigenvalues --   -8.99135  -8.98784  -6.67415  -6.67337  -6.67302
 Alpha  occ. eigenvalues --   -6.67221  -6.67131  -6.67009  -6.66952  -6.66859
 Alpha  occ. eigenvalues --   -6.66666  -1.21822  -1.18757  -1.12887  -1.04323
 Alpha  occ. eigenvalues --   -1.02446  -1.01963  -0.95913  -0.94537  -0.92260
 Alpha  occ. eigenvalues --   -0.82351  -0.77391  -0.76960  -0.72736  -0.70207
 Alpha  occ. eigenvalues --   -0.67494  -0.66911  -0.60688  -0.59366  -0.59081
 Alpha  occ. eigenvalues --   -0.56717  -0.56363  -0.54845  -0.54231  -0.52490
 Alpha  occ. eigenvalues --   -0.52129  -0.51354  -0.49413  -0.47423  -0.46903
 Alpha  occ. eigenvalues --   -0.45793  -0.39254  -0.35495  -0.34344  -0.32281
 Alpha  occ. eigenvalues --   -0.28021
 Alpha virt. eigenvalues --    0.03353   0.03530   0.03992   0.04927   0.05013
 Alpha virt. eigenvalues --    0.05496   0.06611   0.06791   0.07972   0.08291
 Alpha virt. eigenvalues --    0.08860   0.09876   0.10196   0.10760   0.10883
 Alpha virt. eigenvalues --    0.11807   0.12090   0.12455   0.12628   0.13137
 Alpha virt. eigenvalues --    0.13335   0.13787   0.14266   0.14507   0.14594
 Alpha virt. eigenvalues --    0.15067   0.15360   0.15589   0.15994   0.16366
 Alpha virt. eigenvalues --    0.16950   0.17421   0.17524   0.18299   0.18689
 Alpha virt. eigenvalues --    0.18716   0.19082   0.19403   0.20105   0.20629
 Alpha virt. eigenvalues --    0.20900   0.21133   0.21367   0.21916   0.22132
 Alpha virt. eigenvalues --    0.23119   0.23284   0.23389   0.24159   0.24567
 Alpha virt. eigenvalues --    0.24938   0.25705   0.25843   0.26371   0.26529
 Alpha virt. eigenvalues --    0.27101   0.27351   0.27791   0.28244   0.29073
 Alpha virt. eigenvalues --    0.29237   0.29842   0.30743   0.30802   0.31685
 Alpha virt. eigenvalues --    0.32114   0.32674   0.33288   0.33562   0.34159
 Alpha virt. eigenvalues --    0.34544   0.35021   0.35356   0.35576   0.36668
 Alpha virt. eigenvalues --    0.37191   0.38099   0.38151   0.39165   0.39977
 Alpha virt. eigenvalues --    0.40463   0.40737   0.40940   0.41478   0.43606
 Alpha virt. eigenvalues --    0.44001   0.44220   0.44675   0.45177   0.45444
 Alpha virt. eigenvalues --    0.46066   0.46328   0.46872   0.47210   0.47752
 Alpha virt. eigenvalues --    0.48171   0.48994   0.49313   0.49495   0.51782
 Alpha virt. eigenvalues --    0.52678   0.52791   0.53492   0.54717   0.55308
 Alpha virt. eigenvalues --    0.55914   0.56466   0.57148   0.58271   0.58854
 Alpha virt. eigenvalues --    0.59125   0.60330   0.60597   0.61751   0.61836
 Alpha virt. eigenvalues --    0.62042   0.62601   0.63571   0.64013   0.64164
 Alpha virt. eigenvalues --    0.65368   0.65904   0.66275   0.66668   0.66971
 Alpha virt. eigenvalues --    0.67622   0.67811   0.68163   0.68858   0.69320
 Alpha virt. eigenvalues --    0.69346   0.70447   0.70977   0.71338   0.71439
 Alpha virt. eigenvalues --    0.72327   0.72676   0.73694   0.74150   0.74622
 Alpha virt. eigenvalues --    0.74642   0.75125   0.76179   0.76469   0.77347
 Alpha virt. eigenvalues --    0.78000   0.78567   0.79824   0.80249   0.81075
 Alpha virt. eigenvalues --    0.81694   0.82048   0.82501   0.83727   0.84555
 Alpha virt. eigenvalues --    0.84835   0.85324   0.86626   0.87263   0.87885
 Alpha virt. eigenvalues --    0.88705   0.89402   0.89516   0.90104   0.90757
 Alpha virt. eigenvalues --    0.91894   0.92216   0.92976   0.93575   0.93848
 Alpha virt. eigenvalues --    0.95377   0.95762   0.95944   0.97343   0.97755
 Alpha virt. eigenvalues --    0.97893   0.99050   0.99918   1.00474   1.00627
 Alpha virt. eigenvalues --    1.01870   1.03021   1.04072   1.04440   1.05649
 Alpha virt. eigenvalues --    1.06037   1.07305   1.08807   1.10512   1.11207
 Alpha virt. eigenvalues --    1.11273   1.12649   1.13596   1.15335   1.15498
 Alpha virt. eigenvalues --    1.16763   1.17686   1.19247   1.21172   1.21770
 Alpha virt. eigenvalues --    1.22544   1.23372   1.24039   1.24394   1.25354
 Alpha virt. eigenvalues --    1.26397   1.27563   1.28157   1.29000   1.29478
 Alpha virt. eigenvalues --    1.31490   1.32162   1.32549   1.33904   1.34332
 Alpha virt. eigenvalues --    1.34631   1.36539   1.37598   1.38314   1.39439
 Alpha virt. eigenvalues --    1.39852   1.42391   1.44219   1.44882   1.46556
 Alpha virt. eigenvalues --    1.47334   1.49489   1.49900   1.51989   1.53804
 Alpha virt. eigenvalues --    1.55887   1.56484   1.57374   1.58531   1.58927
 Alpha virt. eigenvalues --    1.61638   1.62240   1.63828   1.64631   1.66324
 Alpha virt. eigenvalues --    1.66807   1.67025   1.68422   1.69221   1.70647
 Alpha virt. eigenvalues --    1.71476   1.71855   1.72154   1.73716   1.74074
 Alpha virt. eigenvalues --    1.74343   1.74983   1.76863   1.79016   1.80123
 Alpha virt. eigenvalues --    1.80856   1.81781   1.82095   1.84161   1.84397
 Alpha virt. eigenvalues --    1.86609   1.86801   1.87502   1.89439   1.90573
 Alpha virt. eigenvalues --    1.91663   1.92198   1.93915   1.94843   1.96489
 Alpha virt. eigenvalues --    1.97275   1.98988   1.99576   1.99969   2.01892
 Alpha virt. eigenvalues --    2.04425   2.05990   2.08137   2.08626   2.10461
 Alpha virt. eigenvalues --    2.11029   2.11265   2.12399   2.12866   2.14933
 Alpha virt. eigenvalues --    2.16116   2.18083   2.19625   2.21082   2.21726
 Alpha virt. eigenvalues --    2.22333   2.23676   2.25625   2.27256   2.28467
 Alpha virt. eigenvalues --    2.30145   2.30722   2.32307   2.33562   2.34536
 Alpha virt. eigenvalues --    2.36496   2.37047   2.38656   2.39299   2.41156
 Alpha virt. eigenvalues --    2.42413   2.46071   2.46803   2.47252   2.47887
 Alpha virt. eigenvalues --    2.50675   2.51495   2.52613   2.54214   2.54532
 Alpha virt. eigenvalues --    2.58911   2.60161   2.62624   2.67095   2.72816
 Alpha virt. eigenvalues --    2.74243   2.77317   2.79541   2.84765   2.85709
 Alpha virt. eigenvalues --    2.87334   2.89634   2.92199   2.99481   3.00855
 Alpha virt. eigenvalues --    3.02238   3.06238   3.08853   3.12882   3.19272
 Alpha virt. eigenvalues --    3.26657   3.30614   3.37949   3.44269   3.57573
 Alpha virt. eigenvalues --    3.67221   3.75311   3.81206   4.11271   4.24368
          Condensed to atoms (all electrons):
               1          2          3          4          5          6
     1  C   10.675069  -2.490853  -0.908834  -1.063638  -0.073369  -0.471111
     2  C   -2.490853  12.181009  -2.696890   0.523598   0.048108   0.262226
     3  C   -0.908834  -2.696890  14.393054  -0.806312  -1.052131   0.164786
     4  C   -1.063638   0.523598  -0.806312   6.120655   0.021207   0.042247
     5  C   -0.073369   0.048108  -1.052131   0.021207   7.037727  -0.064743
     6  H   -0.471111   0.262226   0.164786   0.042247  -0.064743   1.725785
     7  S   -0.457783  -0.094293  -0.329714   0.132473   0.182408  -0.030232
     8  H    0.041511   0.146581  -0.088202   0.033720   0.111039  -0.067555
     9  C    0.468502  -0.858328  -2.174520   0.151401   0.059181  -0.067284
    10  S    0.004859   0.027649  -0.437968   0.019536  -0.028881  -0.005586
    11  C    0.070655   0.075517  -0.241048  -0.118151  -0.018012  -0.000351
    12  C   -0.117246  -0.112533   0.679522   0.300113   0.002564  -0.002502
    13  C   -0.250774  -0.588833  -0.418608  -0.538076   0.046094   0.036553
    14  H    0.044269  -0.052479   0.045232   0.113509  -0.007765   0.002563
    15  S   -0.001169   0.010769  -0.071045  -0.010016   0.000661  -0.000070
    16  C    0.001653  -0.000778  -0.007158  -0.001616  -0.000250   0.000022
    17  C    0.007516  -0.011323  -0.300028  -0.021798  -0.001075   0.000358
    18  H    0.000121   0.000530  -0.001244  -0.000439  -0.000029   0.000005
    19  H   -0.000194   0.001940  -0.005689   0.000436   0.000104  -0.000035
    20  H    0.076426   0.020070  -0.005131   0.026691   0.027175  -0.017745
    21  H   -0.000576   0.016306  -0.028256   0.312355   0.011517  -0.002773
    22  H   -0.050430   0.027428   0.007427   0.251744  -0.020821   0.003395
               7          8          9         10         11         12
     1  C   -0.457783   0.041511   0.468502   0.004859   0.070655  -0.117246
     2  C   -0.094293   0.146581  -0.858328   0.027649   0.075517  -0.112533
     3  C   -0.329714  -0.088202  -2.174520  -0.437968  -0.241048   0.679522
     4  C    0.132473   0.033720   0.151401   0.019536  -0.118151   0.300113
     5  C    0.182408   0.111039   0.059181  -0.028881  -0.018012   0.002564
     6  H   -0.030232  -0.067555  -0.067284  -0.005586  -0.000351  -0.002502
     7  S   16.372265  -0.099500  -0.072253   0.118780  -0.007578   0.002713
     8  H   -0.099500   1.288281   0.005227   0.008469   0.003147  -0.000862
     9  C   -0.072253   0.005227  13.083898   0.186990  -0.677422   0.265904
    10  S    0.118780   0.008469   0.186990  16.819217   0.149167  -0.561182
    11  C   -0.007578   0.003147  -0.677422   0.149167  11.497262  -1.668951
    12  C    0.002713  -0.000862   0.265904  -0.561182  -1.668951  14.662599
    13  C   -0.231238  -0.009911  -4.203984  -0.698781  -0.272919  -4.999395
    14  H   -0.005739  -0.000757   0.512979   0.010736  -0.113693   0.620057
    15  S    0.000587   0.000005  -0.429828   0.145781   0.157044  -0.786307
    16  C   -0.004100   0.000017   0.077984  -0.125310  -0.094327  -1.177751
    17  C    0.019190  -0.000264  -0.398642  -0.161244  -2.850564  -0.704905
    18  H   -0.000182  -0.000001   0.005140   0.014534   0.117068  -0.084540
    19  H    0.001068   0.000025   0.093078   0.037753   0.620475   0.035127
    20  H   -0.005538   0.001076   0.067835   0.004707  -0.000892   0.019761
    21  H    0.009246   0.001805  -0.023873   0.000802  -0.004516  -0.009993
    22  H    0.005675   0.000587  -0.002493  -0.001689  -0.003171  -0.022046
              13         14         15         16         17         18
     1  C   -0.250774   0.044269  -0.001169   0.001653   0.007516   0.000121
     2  C   -0.588833  -0.052479   0.010769  -0.000778  -0.011323   0.000530
     3  C   -0.418608   0.045232  -0.071045  -0.007158  -0.300028  -0.001244
     4  C   -0.538076   0.113509  -0.010016  -0.001616  -0.021798  -0.000439
     5  C    0.046094  -0.007765   0.000661  -0.000250  -0.001075  -0.000029
     6  H    0.036553   0.002563  -0.000070   0.000022   0.000358   0.000005
     7  S   -0.231238  -0.005739   0.000587  -0.004100   0.019190  -0.000182
     8  H   -0.009911  -0.000757   0.000005   0.000017  -0.000264  -0.000001
     9  C   -4.203984   0.512979  -0.429828   0.077984  -0.398642   0.005140
    10  S   -0.698781   0.010736   0.145781  -0.125310  -0.161244   0.014534
    11  C   -0.272919  -0.113693   0.157044  -0.094327  -2.850564   0.117068
    12  C   -4.999395   0.620057  -0.786307  -1.177751  -0.704905  -0.084540
    13  C   18.788632  -1.553717   0.347811  -0.005508  -0.087070   0.026467
    14  H   -1.553717   2.093139  -0.036670   0.018037  -0.048723   0.002635
    15  S    0.347811  -0.036670  16.134240   0.225977  -0.084725  -0.146596
    16  C   -0.005508   0.018037   0.225977   6.981986   0.159905   0.178803
    17  C   -0.087070  -0.048723  -0.084725   0.159905  10.598605   0.028189
    18  H    0.026467   0.002635  -0.146596   0.178803   0.028189   1.316661
    19  H   -0.060071  -0.000901  -0.001305  -0.113292  -0.632325  -0.070397
    20  H   -0.078785   0.024965  -0.000077   0.000378  -0.000218   0.000004
    21  H    0.039787  -0.057677  -0.002811  -0.000971  -0.000441  -0.000072
    22  H    0.078258  -0.026749   0.000841  -0.001220  -0.003882   0.000013
              19         20         21         22
     1  C   -0.000194   0.076426  -0.000576  -0.050430
     2  C    0.001940   0.020070   0.016306   0.027428
     3  C   -0.005689  -0.005131  -0.028256   0.007427
     4  C    0.000436   0.026691   0.312355   0.251744
     5  C    0.000104   0.027175   0.011517  -0.020821
     6  H   -0.000035  -0.017745  -0.002773   0.003395
     7  S    0.001068  -0.005538   0.009246   0.005675
     8  H    0.000025   0.001076   0.001805   0.000587
     9  C    0.093078   0.067835  -0.023873  -0.002493
    10  S    0.037753   0.004707   0.000802  -0.001689
    11  C    0.620475  -0.000892  -0.004516  -0.003171
    12  C    0.035127   0.019761  -0.009993  -0.022046
    13  C   -0.060071  -0.078785   0.039787   0.078258
    14  H   -0.000901   0.024965  -0.057677  -0.026749
    15  S   -0.001305  -0.000077  -0.002811   0.000841
    16  C   -0.113292   0.000378  -0.000971  -0.001220
    17  C   -0.632325  -0.000218  -0.000441  -0.003882
    18  H   -0.070397   0.000004  -0.000072   0.000013
    19  H    1.424733   0.000084   0.000068   0.000088
    20  H    0.000084   1.465031  -0.179755  -0.213588
    21  H    0.000068  -0.179755   0.817228  -0.095442
    22  H    0.000088  -0.213588  -0.095442   0.919921
 Mulliken charges:
               1
     1  C    0.495396
     2  C   -0.435422
     3  C    0.282757
     4  C    0.510360
     5  C   -0.280711
     6  H   -0.507951
     7  S    0.493744
     8  H   -0.374440
     9  C   -0.069493
    10  S    0.471660
    11  C   -0.618737
    12  C   -0.340149
    13  C    0.634070
    14  H   -0.583250
    15  S    0.546906
    16  C   -0.112482
    17  C    0.493465
    18  H   -0.386671
    19  H   -0.330771
    20  H   -0.232476
    21  H    0.198040
    22  H    0.146155
 Sum of Mulliken charges =  -0.00000
 Mulliken charges with hydrogens summed into heavy atoms:
               1
     1  C   -0.012554
     2  C   -0.435422
     3  C    0.282757
     4  C    0.622079
     5  C   -0.655151
     7  S    0.493744
     9  C   -0.069493
    10  S    0.471660
    11  C   -0.618737
    12  C   -0.340149
    13  C    0.050820
    15  S    0.546906
    16  C   -0.499153
    17  C    0.162694
 Electronic spatial extent (au):  <R**2>=           4352.0365
 Charge=             -0.0000 electrons
 Dipole moment (field-independent basis, Debye):
    X=             -0.4563    Y=              1.1378    Z=              0.1205  Tot=              1.2318
 Quadrupole moment (field-independent basis, Debye-Ang):
   XX=            -86.5720   YY=            -98.7726   ZZ=           -111.0937
   XY=             -7.0717   XZ=              0.8469   YZ=             -0.3550
 Traceless Quadrupole moment (field-independent basis, Debye-Ang):
   XX=             12.2408   YY=              0.0402   ZZ=            -12.2809
   XY=             -7.0717   XZ=              0.8469   YZ=             -0.3550
 Octapole moment (field-independent basis, Debye-Ang**2):
  XXX=             -3.0456  YYY=              4.8051  ZZZ=              0.9380  XYY=             -5.6136
  XXY=            -18.2527  XXZ=             -1.0672  XZZ=             -1.5027  YZZ=              2.2245
  YYZ=              1.0047  XYZ=             -8.4532
 Hexadecapole moment (field-independent basis, Debye-Ang**3):
 XXXX=          -4133.2367 YYYY=          -1107.2704 ZZZZ=           -202.3657 XXXY=            -42.9159
 XXXZ=             27.3039 YYYX=            -42.5263 YYYZ=             -7.6119 ZZZX=             -3.4890
 ZZZY=              2.7446 XXYY=           -933.9481 XXZZ=           -921.4778 YYZZ=           -227.7072
 XXYZ=             10.0764 YYXZ=              4.8862 ZZXY=             -0.5374
 N-N= 1.125640210229D+03 E-N=-6.071349452766D+03  KE= 1.613747431780D+03
 Calling FoFJK, ICntrl=  10002127 FMM=F ISym2X=0 I1Cent= 0 IOpClX= 0 NMat=1 NMatS=1 NMatT=0.
 ***** Axes restored to original set *****
 -------------------------------------------------------------------
 Center     Atomic                   Forces (Hartrees/Bohr)
 Number     Number              X              Y              Z
 -------------------------------------------------------------------
      1        6           0.015633736    0.032184767    0.007231009
      2        6          -0.026834678    0.028412794    0.005988244
      3        6           0.027199053   -0.025942783   -0.005935405
      4        6          -0.000736969   -0.006205274   -0.002712501
      5        6          -0.002118377   -0.029218454   -0.005788837
      6        1          -0.007442772    0.006846573    0.000872538
      7       16           0.004941514   -0.007980746   -0.001206264
      8        1          -0.008106818   -0.006113418   -0.001559557
      9        6          -0.028976125   -0.024507616    0.004530340
     10       16          -0.004180189   -0.008295483    0.003959332
     11        6           0.007381632   -0.041000702    0.008508251
     12        6          -0.008938928    0.040743298   -0.008626964
     13        6           0.028379222    0.021021045   -0.004631954
     14        1          -0.003761605    0.010345634   -0.002782120
     15       16           0.003029554    0.007884538   -0.001783687
     16        6           0.013739321    0.023303491   -0.005640509
     17        6          -0.026997350   -0.019924405    0.005269299
     18        1           0.010674288    0.000653842   -0.000483411
     19        1           0.002920838   -0.009349340    0.002057015
     20        1          -0.006446211    0.003773250    0.003463568
     21        1           0.002609778    0.003728437   -0.006397423
     22        1           0.008031086   -0.000359451    0.005669036
 -------------------------------------------------------------------
 Cartesian Forces:  Max     0.041000702 RMS     0.014870901

 GradGradGradGradGradGradGradGradGradGradGradGradGradGradGradGradGradGrad
 Berny optimization.
 FormGI is forming the generalized inverse of G from B-inverse, IUseBI=4.
 Internal  Forces:  Max     0.043314068 RMS     0.008755062
 Search for a local minimum.
 Step number   1 out of a maximum of  127
 All quantities printed in internal units (Hartrees-Bohrs-Radians)
 Mixed Optimization -- RFO/linear search
 Second derivative matrix not updated -- first step.
 ITU=  0
     Eigenvalues ---    0.00670   0.01373   0.01470   0.01573   0.01631
     Eigenvalues ---    0.01689   0.01764   0.01870   0.01981   0.02050
     Eigenvalues ---    0.02063   0.02128   0.02242   0.02263   0.02368
     Eigenvalues ---    0.02427   0.07078   0.07291   0.15986   0.15998
     Eigenvalues ---    0.16000   0.16000   0.16000   0.16000   0.16000
     Eigenvalues ---    0.16000   0.22519   0.22568   0.23641   0.24746
     Eigenvalues ---    0.24783   0.24935   0.24956   0.24988   0.24997
     Eigenvalues ---    0.28733   0.29906   0.30313   0.31019   0.31223
     Eigenvalues ---    0.31625   0.32563   0.34586   0.34989   0.35098
     Eigenvalues ---    0.35921   0.36071   0.36263   0.36401   0.36426
     Eigenvalues ---    0.36567   0.38707   0.39339   0.39674   0.45935
     Eigenvalues ---    0.49404   0.51732   0.53393   0.538171000.00000
     Eigenvalues --- 1000.000001000.000001000.000001000.000001000.00000
     Eigenvalues --- 1000.000001000.000001000.000001000.000001000.00000
     Eigenvalues --- 1000.000001000.000001000.000001000.000001000.00000
     Eigenvalues --- 1000.000001000.000001000.000001000.000001000.00000
     Eigenvalues --- 1000.000001000.000001000.000001000.000001000.00000
     Eigenvalues --- 1000.000001000.000001000.000001000.000001000.00000
     Eigenvalues --- 1000.000001000.000001000.000001000.000001000.00000
     Eigenvalues --- 1000.000001000.000001000.000001000.000001000.00000
     Eigenvalues --- 1000.000001000.000001000.000001000.000001000.00000
     Eigenvalues --- 1000.000001000.000001000.000001000.000001000.00000
     Eigenvalues --- 1000.000001000.000001000.000001000.000001000.00000
     Eigenvalues --- 1000.000001000.00000
 RFO step:  Lambda=-1.75237416D-02 EMin= 6.69607583D-03
 Linear search not attempted -- first point.
 Iteration  1 RMS(Cart)=  0.02433997 RMS(Int)=  0.00017318
 Iteration  2 RMS(Cart)=  0.00038076 RMS(Int)=  0.00004372
 Iteration  3 RMS(Cart)=  0.00000006 RMS(Int)=  0.00004372
 Iteration  1 RMS(Cart)=  0.00000672 RMS(Int)=  0.00000251
 Iteration  2 RMS(Cart)=  0.00000370 RMS(Int)=  0.00000281
 Iteration  3 RMS(Cart)=  0.00000203 RMS(Int)=  0.00000317
 Iteration  4 RMS(Cart)=  0.00000112 RMS(Int)=  0.00000342
 Iteration  5 RMS(Cart)=  0.00000062 RMS(Int)=  0.00000356
 Variable       Old X    -DE/DX   Delta X   Delta X   Delta X     New X
                                 (Linear)    (Quad)   (Total)
    R1        2.71952  -0.00392   0.00000  -0.00727  -0.00721   2.71231
    R2        2.54757   0.04045   0.00000   0.07194   0.07197   2.61954
    R3        2.03971   0.01015   0.00000   0.02683   0.02683   2.06655
    R4        2.57594   0.03505   0.00000   0.06485   0.06488   2.64082
    R5        2.84835   0.00184   0.00000   0.00552   0.00552   2.85387
    R6        3.30625   0.00393   0.00000   0.00939   0.00935   3.31560
    R7        2.77505  -0.00675   0.00000  -0.01791  -0.01791   2.75714
    R8        2.05693   0.00823   0.00000   0.02239   0.02239   2.07931
    R9        2.06353   0.00782   0.00000   0.02152   0.02152   2.08505
   R10        2.05517   0.00980   0.00000   0.02661   0.02661   2.08177
   R11        3.25429   0.00748   0.00000   0.02021   0.02017   3.27446
   R12        2.03460   0.01016   0.00000   0.02664   0.02664   2.06123
   R13        3.33357   0.00623   0.00000   0.01690   0.01684   3.35041
   R14        2.56452   0.03814   0.00000   0.06909   0.06911   2.63363
   R15        3.28048   0.00585   0.00000   0.01592   0.01587   3.29635
   R16        2.57576   0.04331   0.00000   0.08291   0.08298   2.65874
   R17        2.70935  -0.00206   0.00000  -0.00244  -0.00238   2.70697
   R18        2.70432  -0.00327   0.00000  -0.00520  -0.00512   2.69920
   R19        3.28325   0.00549   0.00000   0.01503   0.01499   3.29824
   R20        2.03204   0.01132   0.00000   0.02955   0.02955   2.06159
   R21        3.29704   0.00664   0.00000   0.01718   0.01713   3.31417
   R22        2.55171   0.03806   0.00000   0.06713   0.06714   2.61886
   R23        2.03421   0.01064   0.00000   0.02786   0.02786   2.06207
   R24        2.03672   0.01001   0.00000   0.02633   0.02633   2.06305
    A1        1.98554  -0.00331   0.00000  -0.00724  -0.00716   1.97839
    A2        2.14478   0.00150   0.00000   0.00275   0.00271   2.14749
    A3        2.15279   0.00181   0.00000   0.00448   0.00444   2.15723
    A4        1.95315  -0.00277   0.00000  -0.00675  -0.00667   1.94648
    A5        2.12014   0.00618   0.00000   0.02135   0.02131   2.14144
    A6        2.20955  -0.00341   0.00000  -0.01456  -0.01460   2.19494
    A7        1.93882   0.00384   0.00000   0.01160   0.01159   1.95041
    A8        2.25237  -0.00315   0.00000  -0.01042  -0.01042   2.24195
    A9        2.08982  -0.00063   0.00000  -0.00092  -0.00091   2.08891
   A10        1.91923  -0.00013   0.00000   0.00060   0.00060   1.91983
   A11        1.94552   0.00002   0.00000  -0.00037  -0.00038   1.94513
   A12        1.94580  -0.00075   0.00000  -0.00507  -0.00507   1.94073
   A13        1.87541   0.00041   0.00000   0.00387   0.00387   1.87928
   A14        1.88694   0.00066   0.00000   0.00465   0.00465   1.89160
   A15        1.88854  -0.00015   0.00000  -0.00325  -0.00327   1.88527
   A16        1.94661   0.00100   0.00000   0.00600   0.00599   1.95260
   A17        2.23369   0.00102   0.00000   0.00558   0.00558   2.23927
   A18        2.10288  -0.00202   0.00000  -0.01158  -0.01158   2.09130
   A19        1.60051   0.00126   0.00000  -0.00366  -0.00381   1.59670
   A20        2.09415  -0.00274   0.00000  -0.00932  -0.00932   2.08483
   A21        2.24033  -0.00201   0.00000  -0.00666  -0.00666   2.23367
   A22        1.94720   0.00481   0.00000   0.01645   0.01642   1.96361
   A23        1.59139   0.00087   0.00000  -0.00485  -0.00504   1.58635
   A24        1.93653   0.00200   0.00000   0.00639   0.00634   1.94288
   A25        2.35415   0.00153   0.00000   0.00049   0.00043   2.35458
   A26        1.99250  -0.00353   0.00000  -0.00689  -0.00679   1.98571
   A27        1.99402  -0.00301   0.00000  -0.00458  -0.00445   1.98956
   A28        1.93834   0.00143   0.00000   0.00396   0.00392   1.94226
   A29        2.35079   0.00158   0.00000   0.00061   0.00053   2.35131
   A30        1.95552  -0.00467   0.00000  -0.01336  -0.01324   1.94228
   A31        2.16292   0.00149   0.00000   0.00193   0.00188   2.16479
   A32        2.16414   0.00317   0.00000   0.01133   0.01127   2.17541
   A33        1.58117   0.00233   0.00000   0.00032   0.00018   1.58136
   A34        1.97593   0.00269   0.00000   0.00915   0.00914   1.98507
   A35        2.08721  -0.00258   0.00000  -0.01155  -0.01154   2.07567
   A36        2.22005  -0.00011   0.00000   0.00240   0.00240   2.22245
   A37        1.93684  -0.00292   0.00000  -0.00655  -0.00645   1.93038
   A38        2.18448   0.00156   0.00000   0.00385   0.00380   2.18829
   A39        2.16186   0.00136   0.00000   0.00270   0.00265   2.16451
    D1       -0.00381   0.00017   0.00000  -0.00047  -0.00046  -0.00427
    D2       -3.11862   0.00018   0.00000  -0.00151  -0.00152  -3.12014
    D3        3.12519   0.00005   0.00000  -0.00102  -0.00100   3.12419
    D4        0.01038   0.00006   0.00000  -0.00206  -0.00206   0.00832
    D5       -0.00819   0.00005   0.00000  -0.00113  -0.00112  -0.00931
    D6        3.12849  -0.00013   0.00000  -0.00142  -0.00142   3.12706
    D7       -3.13713   0.00017   0.00000  -0.00057  -0.00056  -3.13769
    D8       -0.00045  -0.00001   0.00000  -0.00086  -0.00086  -0.00131
    D9        0.01378  -0.00024   0.00000   0.00198   0.00197   0.01575
   D10        3.08316   0.00074   0.00000   0.00646   0.00647   3.08963
   D11        3.12692  -0.00007   0.00000   0.00376   0.00375   3.13067
   D12       -0.08688   0.00091   0.00000   0.00825   0.00824  -0.07864
   D13        0.40727   0.00003   0.00000  -0.00053  -0.00052   0.40675
   D14       -1.67076  -0.00041   0.00000  -0.00551  -0.00550  -1.67627
   D15        2.49991   0.00029   0.00000   0.00244   0.00243   2.50234
   D16       -2.70337  -0.00000   0.00000  -0.00198  -0.00198  -2.70535
   D17        1.50178  -0.00045   0.00000  -0.00697  -0.00696   1.49482
   D18       -0.61073   0.00026   0.00000   0.00098   0.00097  -0.60976
   D19       -0.01567   0.00021   0.00000  -0.00223  -0.00222  -0.01790
   D20       -3.09270  -0.00053   0.00000  -0.00573  -0.00577  -3.09846
   D21        2.79248  -0.00219   0.00000   0.00000   0.00000   2.79248
   D22       -0.41333  -0.00081   0.00000   0.01054   0.01050  -0.40283
   D23       -0.42672  -0.00099   0.00000   0.00521   0.00521  -0.42151
   D24        2.65066   0.00038   0.00000   0.01575   0.01571   2.66636
   D25        0.01349  -0.00013   0.00000   0.00192   0.00191   0.01540
   D26       -3.12360   0.00003   0.00000   0.00213   0.00213  -3.12148
   D27        3.09481   0.00044   0.00000   0.00158   0.00160   3.09641
   D28        0.00735  -0.00052   0.00000  -0.00666  -0.00671   0.00064
   D29       -3.09590  -0.00059   0.00000  -0.00324  -0.00328  -3.09918
   D30        0.00942  -0.00075   0.00000  -0.00576  -0.00578   0.00364
   D31       -0.01411   0.00048   0.00000   0.00586   0.00590  -0.00821
   D32        3.09121   0.00032   0.00000   0.00335   0.00340   3.09461
   D33        0.00171   0.00032   0.00000   0.00551   0.00551   0.00722
   D34        3.14005   0.00008   0.00000   0.00162   0.00162  -3.14152
   D35       -0.01011  -0.00017   0.00000  -0.00341  -0.00339  -0.01351
   D36        3.13985  -0.00022   0.00000  -0.00265  -0.00263   3.13722
   D37        3.13401   0.00001   0.00000  -0.00040  -0.00039   3.13362
   D38        0.00079  -0.00004   0.00000   0.00037   0.00038   0.00117
   D39       -3.13926   0.00021   0.00000   0.00260   0.00259  -3.13667
   D40        0.00446   0.00017   0.00000   0.00244   0.00243   0.00690
   D41       -0.00100  -0.00003   0.00000  -0.00137  -0.00136  -0.00235
   D42       -3.14046  -0.00007   0.00000  -0.00152  -0.00151   3.14121
   D43        0.01598  -0.00036   0.00000  -0.00198  -0.00196   0.01402
   D44       -3.08931  -0.00016   0.00000   0.00077   0.00079  -3.08852
   D45       -3.13661  -0.00030   0.00000  -0.00297  -0.00296  -3.13956
   D46        0.04130  -0.00010   0.00000  -0.00022  -0.00021   0.04109
   D47       -0.00030   0.00008   0.00000   0.00053   0.00053   0.00022
   D48       -3.13116   0.00004   0.00000   0.00154   0.00154  -3.12962
   D49       -0.00027  -0.00009   0.00000  -0.00135  -0.00134  -0.00162
   D50        3.14131  -0.00001   0.00000  -0.00024  -0.00024   3.14107
   D51        0.00074   0.00009   0.00000   0.00177   0.00177   0.00252
   D52        3.14024   0.00014   0.00000   0.00192   0.00193  -3.14102
   D53       -3.14084   0.00000   0.00000   0.00056   0.00056  -3.14028
   D54       -0.00134   0.00005   0.00000   0.00071   0.00071  -0.00063
         Item               Value     Threshold  Converged?
 Maximum Force            0.043305     0.000450     NO 
 RMS     Force            0.008788     0.000300     NO 
 Maximum Displacement     0.086489     0.001800     NO 
 RMS     Displacement     0.024413     0.001200     NO 
 Predicted change in Energy=-9.077339D-03
 GradGradGradGradGradGradGradGradGradGradGradGradGradGradGradGradGradGrad

                          Input orientation:                          
 ---------------------------------------------------------------------
 Center     Atomic      Atomic             Coordinates (Angstroms)
 Number     Number       Type             X           Y           Z
 ---------------------------------------------------------------------
      1          6           0       -3.973587    0.782085    0.002469
      2          6           0       -2.591814    1.134577    0.165299
      3          6           0       -1.758322    0.022398    0.019546
      4          6           0       -2.140886    2.539021    0.489210
      5          6           0       -4.169492   -0.563917   -0.264830
      6          1           0       -4.788364    1.505691    0.094252
      7         16           0       -2.671725   -1.432049   -0.339189
      8          1           0       -5.111172   -1.092768   -0.417501
      9          6           0       -0.300612   -0.029598    0.052781
     10         16           0        0.509508   -1.573367    0.375061
     11          6           0        2.072715   -0.827115    0.169503
     12          6           0        1.950657    0.543835   -0.122208
     13          6           0        0.600396    1.003054   -0.200380
     14          1           0        0.305474    2.020161   -0.462450
     15         16           0        3.515426    1.291062   -0.320751
     16          6           0        4.307752   -0.242520   -0.010736
     17          6           0        3.428458   -1.284747    0.236562
     18          1           0        5.397924   -0.286435   -0.028353
     19          1           0        3.740004   -2.309110    0.449795
     20          1           0       -2.958546    3.094792    0.972187
     21          1           0       -1.853356    3.090701   -0.422044
     22          1           0       -1.275437    2.532251    1.170777
 ---------------------------------------------------------------------
                    Distance matrix (angstroms):
                    1          2          3          4          5
     1  C    0.000000
     2  C    1.435291   0.000000
     3  C    2.341968   1.397460   0.000000
     4  C    2.585060   1.510204   2.588500   0.000000
     5  C    1.386200   2.357746   2.497675   3.783126   0.000000
     6  H    1.093569   2.228813   3.374447   2.869303   2.189799
     7  S    2.591131   2.616957   1.754540   4.091140   1.732769
     8  H    2.232834   3.412900   3.560367   4.778558   1.090758
     9  C    3.761928   2.572464   1.459015   3.189810   3.918496
    10  S    5.077905   4.122519   2.795695   4.893808   4.829234
    11  C    6.259009   5.060246   3.926959   5.402548   6.262833
    12  C    5.930343   4.589736   3.748135   4.592965   6.221229
    13  C    4.583807   3.215777   2.563903   3.217042   5.021094
    14  H    4.478765   3.093962   2.912495   2.675733   5.171251
    15  S    7.513244   6.128548   5.434861   5.848701   7.905823
    16  C    8.344493   7.037854   6.071931   7.040728   8.487139
    17  C    7.688748   6.488596   5.353354   6.760372   7.648518
    18  H    9.432279   8.117431   7.163066   8.067511   9.574360
    19  H    8.321963   7.213309   5.987706   7.621732   8.131206
    20  H    2.705416   2.151280   3.433318   1.100326   4.047562
    21  H    3.163115   2.171799   3.101373   1.103362   4.329600
    22  H    3.421700   2.167331   2.803189   1.101627   4.474682
                    6          7          8          9         10
     6  H    0.000000
     7  S    3.646689   0.000000
     8  H    2.667974   2.464172   0.000000
     9  C    4.743285   2.782568   4.949038   0.000000
    10  S    6.134077   3.263491   5.696593   1.772958   0.000000
    11  C    7.247210   4.809826   7.212724   2.506460   1.744351
    12  C    6.810758   5.031661   7.255005   2.329734   2.608970
    13  C    5.420164   4.081148   6.087825   1.393656   2.641465
    14  H    5.149930   4.560335   6.247591   2.198708   3.695470
    15  S    8.316923   6.759919   8.950430   4.055344   4.210064
    16  C    9.263185   7.087733   9.465966   4.613717   4.043098
    17  C    8.678880   6.129064   8.566792   3.938926   2.936452
    18  H   10.343462   8.156487  10.547165   5.704898   5.071049
    19  H    9.349448   6.519356   8.976358   4.656219   3.314062
    20  H    2.577644   4.721680   4.909246   4.203777   5.845996
    21  H    3.375365   4.596940   5.302339   3.517491   5.288859
    22  H    3.814890   4.466014   5.511465   2.960282   4.547009
                   11         12         13         14         15
    11  C    0.000000
    12  C    1.406945   0.000000
    13  C    2.377826   1.428356   0.000000
    14  H    3.410204   2.236500   1.090948   0.000000
    15  S    2.609297   1.745356   2.931695   3.294762   0.000000
    16  C    2.317245   2.487303   3.915598   4.619741   1.753786
    17  C    1.432467   2.378302   3.663726   4.600442   2.636845
    18  H    3.374684   3.547084   4.970780   5.607306   2.473417
    19  H    2.248271   3.415881   4.609805   5.600962   3.688552
    20  H    6.429561   5.639624   4.291428   3.723821   6.843789
    21  H    5.577925   4.587695   3.229288   2.410028   5.663284
    22  H    4.847475   4.004159   2.781593   2.330009   5.168904
                   16         17         18         19         20
    16  C    0.000000
    17  C    1.385839   0.000000
    18  H    1.091198   2.223871   0.000000
    19  H    2.192081   1.091719   2.658672   0.000000
    20  H    8.056233   7.779160   9.069971   8.622391   0.000000
    21  H    7.017036   6.890273   8.008814   7.823282   1.779141
    22  H    6.345654   6.129343   7.342795   7.008084   1.785706
                   21         22
    21  H    0.000000
    22  H    1.784078   0.000000
 Stoichiometry    C11H8S3
 Framework group  C1[X(C11H8S3)]
 Deg. of freedom    60
 Full point group                 C1      NOp   1
 Largest Abelian subgroup         C1      NOp   1
 Largest concise Abelian subgroup C1      NOp   1
                         Standard orientation:                         
 ---------------------------------------------------------------------
 Center     Atomic      Atomic             Coordinates (Angstroms)
 Number     Number       Type             X           Y           Z
 ---------------------------------------------------------------------
      1          6           0       -3.966731    0.805718    0.005454
      2          6           0       -2.583011    1.151339    0.166469
      3          6           0       -1.755355    0.034756    0.021132
      4          6           0       -2.124591    2.553830    0.488318
      5          6           0       -4.169777   -0.539569   -0.260110
      6          1           0       -4.777711    1.533577    0.097245
      7         16           0       -2.676536   -1.415416   -0.335011
      8          1           0       -5.114299   -1.063780   -0.411215
      9          6           0       -0.297896   -0.024642    0.052936
     10         16           0        0.504668   -1.572158    0.376147
     11          6           0        2.071450   -0.834127    0.168140
     12          6           0        1.956088    0.537095   -0.125008
     13          6           0        0.608108    1.003111   -0.202323
     14          1           0        0.318110    2.021412   -0.465250
     15         16           0        3.524444    1.276101   -0.326002
     16          6           0        4.309253   -0.261152   -0.015050
     17          6           0        3.424908   -1.298596    0.234335
     18          1           0        5.399168   -0.310650   -0.033731
     19          1           0        3.731442   -2.324294    0.448416
     20          1           0       -2.938907    3.114314    0.971497
     21          1           0       -1.835187    3.103001   -0.423857
     22          1           0       -1.258487    2.543416    1.169007
 ---------------------------------------------------------------------
 Rotational constants (GHZ):           1.2505094           0.2812599           0.2339326
 Standard basis: Aug-CC-pVDZ (5D, 7F)
 There are   434 symmetry adapted cartesian basis functions of A   symmetry.
 There are   406 symmetry adapted basis functions of A   symmetry.
   406 basis functions,   804 primitive gaussians,   434 cartesian basis functions
    61 alpha electrons       61 beta electrons
       nuclear repulsion energy      1118.2609433409 Hartrees.
 NAtoms=   22 NActive=   22 NUniq=   22 SFac= 1.00D+00 NAtFMM=   60 NAOKFM=F Big=F
 Integral buffers will be    131072 words long.
 Raffenetti 1 integral format.
 Two-electron integral symmetry is turned on.
 One-electron integrals computed using PRISM.
 NBasis=   406 RedAO= T EigKep=  3.16D-06  NBF=   406
 NBsUse=   406 1.00D-06 EigRej= -1.00D+00 NBFU=   406
 Initial guess from the checkpoint file:  "/tmp/pbs.4766302[335].pbs/Gau-3575803.chk"
 B after Tr=    -0.000000   -0.000000   -0.000000
         Rot=    0.999998   -0.000756    0.000064    0.001732 Ang=  -0.22 deg.
 ExpMin= 2.97D-02 ExpMax= 1.11D+05 ExpMxC= 1.07D+03 IAcc=3 IRadAn=         5 AccDes= 0.00D+00
 Harris functional with IExCor=  205 and IRadAn=       5 diagonalized for initial guess.
 HarFok:  IExCor=  205 AccDes= 0.00D+00 IRadAn=         5 IDoV= 1 UseB2=F ITyADJ=14
 ICtDFT=  3500011 ScaDFX=  1.000000  1.000000  1.000000  1.000000
 FoFCou: FMM=F IPFlag=           0 FMFlag=      100000 FMFlg1=           0
         NFxFlg=           0 DoJE=T BraDBF=F KetDBF=T FulRan=T
         wScrn=  0.000000 ICntrl=       500 IOpCl=  0 I1Cent=   200000004 NGrid=           0
         NMat0=    1 NMatS0=      1 NMatT0=    0 NMatD0=    1 NMtDS0=    0 NMtDT0=    0
 Petite list used in FoFCou.
 Requested convergence on RMS density matrix=1.00D-08 within 128 cycles.
 Requested convergence on MAX density matrix=1.00D-06.
 Requested convergence on             energy=1.00D-06.
 No special actions if energy rises.
 SCF Done:  E(RHF) =  -1613.80348935     A.U. after   15 cycles
            NFock= 15  Conv=0.86D-08     -V/T= 2.0005
 ExpMin= 2.97D-02 ExpMax= 1.11D+05 ExpMxC= 1.07D+03 IAcc=3 IRadAn=         5 AccDes= 0.00D+00
 HarFok:  IExCor=  205 AccDes= 0.00D+00 IRadAn=         5 IDoV=-2 UseB2=F ITyADJ=14
 ICtDFT= 12500011 ScaDFX=  1.000000  1.000000  1.000000  1.000000
 GSVD:  LWork=        -884 too small for GESVD, short by        3770 words or        3770 for optimal perf.
 Range of M.O.s used for correlation:    27   406
 NBasis=   406 NAE=    61 NBE=    61 NFC=    26 NFV=     0
 NROrb=    380 NOA=    35 NOB=    35 NVA=   345 NVB=   345

 **** Warning!!: The largest alpha MO coefficient is  0.81643824D+02

 Disk-based method using ON**2 memory for 35 occupieds at a time.
 Estimated scratch disk usage=  5831819038 words.
 Actual    scratch disk usage=  4756194078 words.
 JobTyp=1 Pass  1:  I=  27 to  61 NPSUse= 16 ParTrn=T ParDer=T DoDerP=T.
 (rs|ai) integrals will be sorted in core.
 Spin components of T(2) and E(2):
     alpha-alpha T2 =       0.1171527143D+00 E2=     -0.2677188945D+00
     alpha-beta  T2 =       0.5759223522D+00 E2=     -0.1412377178D+01
     beta-beta   T2 =       0.1171527143D+00 E2=     -0.2677188945D+00
 ANorm=    0.1345447056D+01
 E2 =    -0.1947814967D+01 EUMP2 =    -0.16157513043122D+04
          IDoAtm=1111111111111111111111
          Differentiating once with respect to electric field.
                with respect to dipole field.
          Differentiating once with respect to nuclear coordinates.
 Keep R1 ints in memory in canonical form, NReq=3454318301.
          There are     1 degrees of freedom in the 1st order CPHF.  IDoFFX=0 NUNeed=     1.
 LinEq1:  Iter=  0 NonCon=     1 RMS=2.73D-03 Max=6.26D-02 NDo=     1
 AX will form     1 AO Fock derivatives at one time.
 LinEq1:  Iter=  1 NonCon=     1 RMS=6.26D-04 Max=1.43D-02 NDo=     1
 LinEq1:  Iter=  2 NonCon=     1 RMS=3.54D-04 Max=1.35D-02 NDo=     1
 LinEq1:  Iter=  3 NonCon=     1 RMS=1.06D-04 Max=2.87D-03 NDo=     1
 LinEq1:  Iter=  4 NonCon=     1 RMS=4.47D-05 Max=1.30D-03 NDo=     1
 LinEq1:  Iter=  5 NonCon=     1 RMS=1.68D-05 Max=6.19D-04 NDo=     1
 LinEq1:  Iter=  6 NonCon=     1 RMS=6.38D-06 Max=3.33D-04 NDo=     1
 LinEq1:  Iter=  7 NonCon=     1 RMS=3.38D-06 Max=1.02D-04 NDo=     1
 LinEq1:  Iter=  8 NonCon=     1 RMS=1.31D-06 Max=4.31D-05 NDo=     1
 LinEq1:  Iter=  9 NonCon=     1 RMS=6.15D-07 Max=1.92D-05 NDo=     1
 LinEq1:  Iter= 10 NonCon=     1 RMS=2.69D-07 Max=8.15D-06 NDo=     1
 LinEq1:  Iter= 11 NonCon=     1 RMS=1.20D-07 Max=3.51D-06 NDo=     1
 LinEq1:  Iter= 12 NonCon=     1 RMS=3.88D-08 Max=6.92D-07 NDo=     1
 LinEq1:  Iter= 13 NonCon=     1 RMS=1.31D-08 Max=2.05D-07 NDo=     1
 LinEq1:  Iter= 14 NonCon=     1 RMS=4.26D-09 Max=9.19D-08 NDo=     1
 LinEq1:  Iter= 15 NonCon=     1 RMS=1.70D-09 Max=4.00D-08 NDo=     1
 LinEq1:  Iter= 16 NonCon=     1 RMS=7.42D-10 Max=1.92D-08 NDo=     1
 LinEq1:  Iter= 17 NonCon=     1 RMS=3.02D-10 Max=6.99D-09 NDo=     1
 LinEq1:  Iter= 18 NonCon=     1 RMS=1.04D-10 Max=2.15D-09 NDo=     1
 LinEq1:  Iter= 19 NonCon=     0 RMS=3.86D-11 Max=5.73D-10 NDo=     1
 Linear equations converged to 1.000D-10 1.000D-09 after    19 iterations.
 End of Minotr F.D. properties file   721 does not exist.
 End of Minotr F.D. properties file   722 does not exist.
 End of Minotr F.D. properties file   788 does not exist.
 Calling FoFJK, ICntrl=  10002127 FMM=F ISym2X=0 I1Cent= 0 IOpClX= 0 NMat=1 NMatS=1 NMatT=0.
 ***** Axes restored to original set *****
 -------------------------------------------------------------------
 Center     Atomic                   Forces (Hartrees/Bohr)
 Number     Number              X              Y              Z
 -------------------------------------------------------------------
      1        6           0.007167131    0.003375195    0.001248845
      2        6          -0.010651947    0.003838968    0.002288941
      3        6           0.008602590   -0.005219049   -0.003554707
      4        6           0.000829953   -0.001761266   -0.000265581
      5        6          -0.002850601   -0.003959025   -0.000953997
      6        1          -0.000540201   -0.000990155   -0.000203953
      7       16          -0.000926329    0.004716325    0.001029659
      8        1           0.000156878   -0.000131662    0.000054562
      9        6          -0.008041162   -0.003440274   -0.000399664
     10       16           0.001324299    0.004091769    0.000618010
     11        6           0.006235853   -0.008043689    0.001419027
     12        6          -0.005517116    0.007884230   -0.001430320
     13        6           0.008438992    0.001761527   -0.000091801
     14        1          -0.000929800   -0.001083482   -0.000031092
     15       16          -0.000991052   -0.004102775    0.000879674
     16        6           0.003404204    0.002445866   -0.000531703
     17        6          -0.006903916   -0.000016102    0.000171091
     18        1           0.000003901    0.000108406   -0.000049116
     19        1           0.000855230    0.000558612   -0.000147710
     20        1          -0.000218172    0.000069387   -0.000067118
     21        1           0.000377985    0.000082283   -0.000126416
     22        1           0.000173278   -0.000185089    0.000143369
 -------------------------------------------------------------------
 Cartesian Forces:  Max     0.010651947 RMS     0.003532106

 GradGradGradGradGradGradGradGradGradGradGradGradGradGradGradGradGradGrad
 Berny optimization.
 Using GEDIIS/GDIIS optimizer.
 FormGI is forming the generalized inverse of G from B-inverse, IUseBI=4.
 Internal  Forces:  Max     0.005418077 RMS     0.001444564
 Search for a local minimum.
 Step number   2 out of a maximum of  127
 All quantities printed in internal units (Hartrees-Bohrs-Radians)
 Mixed Optimization -- RFO/linear search
 Update second derivatives using D2CorX and points    1    2
 DE= -9.11D-03 DEPred=-9.08D-03 R= 1.00D+00
 TightC=F SS=  1.41D+00  RLast= 1.91D-01 DXNew= 5.0454D-01 5.7190D-01
 Trust test= 1.00D+00 RLast= 1.91D-01 DXMaxT set to 5.05D-01
 ITU=  1  0
 Use linear search instead of GDIIS.
     Eigenvalues ---    0.00669   0.01367   0.01472   0.01572   0.01629
     Eigenvalues ---    0.01691   0.01764   0.01866   0.01981   0.02057
     Eigenvalues ---    0.02069   0.02136   0.02247   0.02262   0.02370
     Eigenvalues ---    0.02432   0.07122   0.07285   0.15914   0.15990
     Eigenvalues ---    0.15999   0.16000   0.16000   0.16000   0.16000
     Eigenvalues ---    0.16027   0.22540   0.22601   0.23724   0.24423
     Eigenvalues ---    0.24762   0.24912   0.24951   0.24970   0.25266
     Eigenvalues ---    0.28780   0.29917   0.30326   0.31060   0.31352
     Eigenvalues ---    0.31631   0.32670   0.34608   0.35010   0.35139
     Eigenvalues ---    0.35721   0.36114   0.36303   0.36412   0.36476
     Eigenvalues ---    0.36989   0.38694   0.39438   0.39728   0.45421
     Eigenvalues ---    0.48278   0.51073   0.53210   0.537131000.00000
     Eigenvalues --- 1000.000001000.000001000.000001000.000001000.00000
     Eigenvalues --- 1000.000001000.000001000.000001000.000001000.00000
     Eigenvalues --- 1000.000001000.000001000.000001000.000001000.00000
     Eigenvalues --- 1000.000001000.000001000.000001000.000001000.00000
     Eigenvalues --- 1000.000001000.000001000.000001000.000001000.00000
     Eigenvalues --- 1000.000001000.000001000.000001000.000001000.00000
     Eigenvalues --- 1000.000001000.000001000.000001000.000001000.00000
     Eigenvalues --- 1000.000001000.000001000.000001000.000001000.00000
     Eigenvalues --- 1000.000001000.000001000.000001000.000001000.00000
     Eigenvalues --- 1000.000001000.000001000.000001000.000001000.00000
     Eigenvalues --- 1000.000001000.000001000.000001000.000001000.00000
     Eigenvalues --- 1000.000001000.00000
 RFO step:  Lambda=-7.65991799D-04 EMin= 6.69487174D-03
 Quartic linear search produced a step of  0.08265.
 Iteration  1 RMS(Cart)=  0.01074263 RMS(Int)=  0.00008017
 Iteration  2 RMS(Cart)=  0.00009659 RMS(Int)=  0.00001014
 Iteration  3 RMS(Cart)=  0.00000001 RMS(Int)=  0.00001014
 Iteration  1 RMS(Cart)=  0.00000461 RMS(Int)=  0.00000172
 Iteration  2 RMS(Cart)=  0.00000253 RMS(Int)=  0.00000192
 Iteration  3 RMS(Cart)=  0.00000139 RMS(Int)=  0.00000217
 Iteration  4 RMS(Cart)=  0.00000076 RMS(Int)=  0.00000234
 Variable       Old X    -DE/DX   Delta X   Delta X   Delta X     New X
                                 (Linear)    (Quad)   (Total)
    R1        2.71231  -0.00389  -0.00060  -0.01030  -0.01090   2.70141
    R2        2.61954   0.00255   0.00595   0.00234   0.00828   2.62782
    R3        2.06655  -0.00027   0.00222  -0.00169   0.00053   2.06708
    R4        2.64082   0.00542   0.00536   0.00910   0.01446   2.65528
    R5        2.85387  -0.00139   0.00046  -0.00492  -0.00446   2.84941
    R6        3.31560  -0.00194   0.00077  -0.00703  -0.00625   3.30935
[...]
     22          1           0       -1.281606    2.537652    1.178461
 ---------------------------------------------------------------------
 Rotational constants (GHZ):           1.2610662           0.2808984           0.2334671

 **********************************************************************

            Population analysis using the SCF Density.

 **********************************************************************

 Orbital symmetries:
       Occupied  (A) (A) (A) (A) (A) (A) (A) (A) (A) (A) (A) (A)
                 (A) (A) (A) (A) (A) (A) (A) (A) (A) (A) (A) (A)
                 (A) (A) (A) (A) (A) (A) (A) (A) (A) (A) (A) (A)
                 (A) (A) (A) (A) (A) (A) (A) (A) (A) (A) (A) (A)
                 (A) (A) (A) (A) (A) (A) (A) (A) (A) (A) (A) (A)
                 (A)
       Virtual   (A) (A) (A) (A) (A) (A) (A) (A) (A) (A) (A) (A)
                 (A) (A) (A) (A) (A) (A) (A) (A) (A) (A) (A) (A)
                 (A) (A) (A) (A) (A) (A) (A) (A) (A) (A) (A) (A)
                 (A) (A) (A) (A) (A) (A) (A) (A) (A) (A) (A) (A)
                 (A) (A) (A) (A) (A) (A) (A) (A) (A) (A) (A) (A)
                 (A) (A) (A) (A) (A) (A) (A) (A) (A) (A) (A) (A)
                 (A) (A) (A) (A) (A) (A) (A) (A) (A) (A) (A) (A)
                 (A) (A) (A) (A) (A) (A) (A) (A) (A) (A) (A) (A)
                 (A) (A) (A) (A) (A) (A) (A) (A) (A) (A) (A) (A)
                 (A) (A) (A) (A) (A) (A) (A) (A) (A) (A) (A) (A)
                 (A) (A) (A) (A) (A) (A) (A) (A) (A) (A) (A) (A)
                 (A) (A) (A) (A) (A) (A) (A) (A) (A) (A) (A) (A)
                 (A) (A) (A) (A) (A) (A) (A) (A) (A) (A) (A) (A)
                 (A) (A) (A) (A) (A) (A) (A) (A) (A) (A) (A) (A)
                 (A) (A) (A) (A) (A) (A) (A) (A) (A) (A) (A) (A)
                 (A) (A) (A) (A) (A) (A) (A) (A) (A) (A) (A) (A)
                 (A) (A) (A) (A) (A) (A) (A) (A) (A) (A) (A) (A)
                 (A) (A) (A) (A) (A) (A) (A) (A) (A) (A) (A) (A)
                 (A) (A) (A) (A) (A) (A) (A) (A) (A) (A) (A) (A)
                 (A) (A) (A) (A) (A) (A) (A) (A) (A) (A) (A) (A)
                 (A) (A) (A) (A) (A) (A) (A) (A) (A) (A) (A) (A)
                 (A) (A) (A) (A) (A) (A) (A) (A) (A) (A) (A) (A)
                 (A) (A) (A) (A) (A) (A) (A) (A) (A) (A) (A) (A)
                 (A) (A) (A) (A) (A) (A) (A) (A) (A) (A) (A) (A)
                 (A) (A) (A) (A) (A) (A) (A) (A) (A) (A) (A) (A)
                 (A) (A) (A) (A) (A) (A) (A) (A) (A) (A) (A) (A)
                 (A) (A) (A) (A) (A) (A) (A) (A) (A) (A) (A) (A)
                 (A) (A) (A) (A) (A) (A) (A) (A) (A) (A) (A) (A)
                 (A) (A) (A) (A) (A) (A) (A) (A) (A)
 The electronic state is 1-A.
 Alpha  occ. eigenvalues --  -91.99505 -91.99397 -91.99114 -11.29823 -11.28446
 Alpha  occ. eigenvalues --  -11.28436 -11.28081 -11.27993 -11.27935 -11.26554
 Alpha  occ. eigenvalues --  -11.26409 -11.26266 -11.25311 -11.24632  -8.99616
 Alpha  occ. eigenvalues --   -8.99520  -8.99294  -6.67782  -6.67702  -6.67686
 Alpha  occ. eigenvalues --   -6.67601  -6.67506  -6.67459  -6.67399  -6.67366
 Alpha  occ. eigenvalues --   -6.67185  -1.20702  -1.17854  -1.11869  -1.04003
 Alpha  occ. eigenvalues --   -1.02529  -1.01523  -0.95005  -0.94393  -0.91625
 Alpha  occ. eigenvalues --   -0.82195  -0.76832  -0.76565  -0.72378  -0.69988
 Alpha  occ. eigenvalues --   -0.66825  -0.66271  -0.60255  -0.59012  -0.58858
 Alpha  occ. eigenvalues --   -0.56432  -0.55962  -0.54730  -0.53886  -0.52436
 Alpha  occ. eigenvalues --   -0.51838  -0.51106  -0.49699  -0.47556  -0.46447
 Alpha  occ. eigenvalues --   -0.45811  -0.39405  -0.34920  -0.34357  -0.32271
 Alpha  occ. eigenvalues --   -0.26501
 Alpha virt. eigenvalues --    0.03370   0.03545   0.03975   0.04904   0.04993
 Alpha virt. eigenvalues --    0.05264   0.05639   0.06745   0.07995   0.08196
 Alpha virt. eigenvalues --    0.08906   0.09809   0.10272   0.10700   0.10789
 Alpha virt. eigenvalues --    0.11575   0.12036   0.12359   0.12650   0.13041
 Alpha virt. eigenvalues --    0.13270   0.13760   0.14210   0.14400   0.14620
 Alpha virt. eigenvalues --    0.15041   0.15355   0.15511   0.16008   0.16370
 Alpha virt. eigenvalues --    0.16922   0.17399   0.17461   0.18272   0.18657
 Alpha virt. eigenvalues --    0.18745   0.18986   0.19385   0.20043   0.20430
 Alpha virt. eigenvalues --    0.20691   0.20989   0.21289   0.21711   0.22011
 Alpha virt. eigenvalues --    0.22905   0.23027   0.23297   0.24035   0.24632
 Alpha virt. eigenvalues --    0.24859   0.25607   0.25684   0.26189   0.26476
 Alpha virt. eigenvalues --    0.26988   0.27366   0.27797   0.28196   0.28926
 Alpha virt. eigenvalues --    0.29113   0.29819   0.30530   0.30642   0.31618
 Alpha virt. eigenvalues --    0.32108   0.32618   0.33138   0.33399   0.34129
 Alpha virt. eigenvalues --    0.34540   0.35045   0.35248   0.35613   0.36454
 Alpha virt. eigenvalues --    0.36905   0.37949   0.38009   0.38896   0.39302
 Alpha virt. eigenvalues --    0.40347   0.40605   0.40730   0.41123   0.43278
 Alpha virt. eigenvalues --    0.43657   0.44082   0.44241   0.44772   0.45283
 Alpha virt. eigenvalues --    0.45937   0.46304   0.46664   0.46942   0.47491
 Alpha virt. eigenvalues --    0.47890   0.48797   0.49072   0.49449   0.51693
 Alpha virt. eigenvalues --    0.52454   0.52700   0.53403   0.54689   0.55051
 Alpha virt. eigenvalues --    0.55618   0.56211   0.56796   0.57661   0.58517
 Alpha virt. eigenvalues --    0.58894   0.59851   0.60503   0.60739   0.61472
 Alpha virt. eigenvalues --    0.61724   0.62196   0.62921   0.63820   0.64057
 Alpha virt. eigenvalues --    0.65216   0.65588   0.65858   0.66521   0.66724
 Alpha virt. eigenvalues --    0.67096   0.67401   0.67669   0.68497   0.68764
 Alpha virt. eigenvalues --    0.69189   0.70227   0.70716   0.71040   0.71346
 Alpha virt. eigenvalues --    0.71970   0.72477   0.73281   0.73831   0.74025
 Alpha virt. eigenvalues --    0.74478   0.74834   0.75487   0.76265   0.76853
 Alpha virt. eigenvalues --    0.77536   0.78176   0.79422   0.79760   0.81082
 Alpha virt. eigenvalues --    0.81342   0.81763   0.82451   0.83542   0.83951
 Alpha virt. eigenvalues --    0.84624   0.85068   0.86078   0.86886   0.87625
 Alpha virt. eigenvalues --    0.88274   0.88999   0.89122   0.89756   0.90645
 Alpha virt. eigenvalues --    0.91269   0.91855   0.92871   0.93047   0.93637
 Alpha virt. eigenvalues --    0.95011   0.95258   0.95730   0.96878   0.97312
 Alpha virt. eigenvalues --    0.97608   0.98597   0.99344   0.99865   1.00501
 Alpha virt. eigenvalues --    1.01455   1.02396   1.03656   1.04370   1.05126
 Alpha virt. eigenvalues --    1.05676   1.06387   1.08508   1.09847   1.10435
 Alpha virt. eigenvalues --    1.10830   1.12192   1.13096   1.14937   1.15128
 Alpha virt. eigenvalues --    1.16325   1.17015   1.19145   1.20066   1.20589
 Alpha virt. eigenvalues --    1.21709   1.23257   1.23719   1.23830   1.24763
 Alpha virt. eigenvalues --    1.25836   1.27170   1.27731   1.28797   1.29151
 Alpha virt. eigenvalues --    1.30752   1.31639   1.32052   1.33013   1.33916
 Alpha virt. eigenvalues --    1.34519   1.36137   1.37252   1.37634   1.39035
 Alpha virt. eigenvalues --    1.39873   1.42237   1.44151   1.44608   1.45950
 Alpha virt. eigenvalues --    1.46859   1.49122   1.50210   1.51232   1.53920
 Alpha virt. eigenvalues --    1.55325   1.57097   1.57880   1.58312   1.59338
 Alpha virt. eigenvalues --    1.61523   1.62323   1.63541   1.64956   1.66157
 Alpha virt. eigenvalues --    1.66794   1.67452   1.68147   1.68876   1.70765
 Alpha virt. eigenvalues --    1.71154   1.71237   1.71499   1.73532   1.73764
 Alpha virt. eigenvalues --    1.74318   1.75625   1.77271   1.78653   1.79776
 Alpha virt. eigenvalues --    1.80664   1.81433   1.81896   1.82954   1.84113
 Alpha virt. eigenvalues --    1.86054   1.86854   1.87034   1.89014   1.90517
 Alpha virt. eigenvalues --    1.90782   1.92392   1.93574   1.94512   1.96485
 Alpha virt. eigenvalues --    1.96981   1.98065   1.98365   1.98936   2.02135
 Alpha virt. eigenvalues --    2.02889   2.05047   2.07237   2.07511   2.09185
 Alpha virt. eigenvalues --    2.09970   2.10986   2.11270   2.12516   2.13866
 Alpha virt. eigenvalues --    2.14625   2.17095   2.18168   2.18685   2.20040
 Alpha virt. eigenvalues --    2.20842   2.21704   2.24154   2.25223   2.25523
 Alpha virt. eigenvalues --    2.28458   2.28732   2.30511   2.31588   2.33060
 Alpha virt. eigenvalues --    2.34861   2.35321   2.37269   2.37596   2.39739
 Alpha virt. eigenvalues --    2.40636   2.43898   2.44522   2.45145   2.45627
 Alpha virt. eigenvalues --    2.48907   2.49407   2.50185   2.51707   2.52756
 Alpha virt. eigenvalues --    2.57206   2.58819   2.60867   2.64734   2.68366
 Alpha virt. eigenvalues --    2.71784   2.73407   2.76681   2.80291   2.81369
 Alpha virt. eigenvalues --    2.83521   2.86000   2.88169   2.95788   2.98358
 Alpha virt. eigenvalues --    3.00495   3.02888   3.04945   3.09422   3.16359
 Alpha virt. eigenvalues --    3.22950   3.29020   3.34871   3.37670   3.52196
 Alpha virt. eigenvalues --    3.60492   3.69667   3.78088   4.09914   4.21537
          Condensed to atoms (all electrons):
               1          2          3          4          5          6
     1  C   10.464167  -2.565339  -0.991605  -1.057722   0.247738  -0.388870
     2  C   -2.565339  11.603381  -1.999095   0.510025  -0.020754   0.280794
     3  C   -0.991605  -1.999095  13.875048  -0.693372  -1.012813   0.151932
     4  C   -1.057722   0.510025  -0.693372   6.003081   0.033510   0.056303
     5  C    0.247738  -0.020754  -1.012813   0.033510   6.773673  -0.103710
     6  H   -0.388870   0.280794   0.151932   0.056303  -0.103710   1.613291
     7  S   -0.361683  -0.131781  -0.319535   0.114441   0.133117  -0.025323
     8  H   -0.024256   0.110993  -0.069753   0.029093   0.202907  -0.061129
     9  C    0.461150  -0.979062  -2.423055   0.139690   0.124601  -0.069739
    10  S    0.005405   0.037669  -0.417618   0.021808  -0.031784  -0.004928
    11  C    0.064967   0.054770  -0.128486  -0.093861  -0.015936  -0.000828
    12  C   -0.112936  -0.079548   0.577189   0.252702  -0.000825  -0.001350
    13  C   -0.233146  -0.590084  -0.470097  -0.446417   0.015180   0.032381
    14  H    0.041743  -0.048999   0.061477   0.108533  -0.008468   0.002220
    15  S   -0.001358   0.008797  -0.068254  -0.008143   0.000653  -0.000083
    16  C    0.001687  -0.001064  -0.013625  -0.002000  -0.000347   0.000029
    17  C    0.007136  -0.007092  -0.285916  -0.017742  -0.000480   0.000255
    18  H    0.000120   0.000498  -0.001605  -0.000436  -0.000038   0.000005
    19  H   -0.000247   0.001592  -0.004052   0.000427   0.000172  -0.000034
    20  H    0.065640   0.013191   0.025456   0.042895   0.019193  -0.015657
    21  H   -0.012923   0.010495  -0.022711   0.326006   0.007243   0.000634
    22  H   -0.055587   0.033774  -0.047665   0.290371  -0.012515   0.002574
               7          8          9         10         11         12
     1  C   -0.361683  -0.024256   0.461150   0.005405   0.064967  -0.112936
     2  C   -0.131781   0.110993  -0.979062   0.037669   0.054770  -0.079548
     3  C   -0.319535  -0.069753  -2.423055  -0.417618  -0.128486   0.577189
     4  C    0.114441   0.029093   0.139690   0.021808  -0.093861   0.252702
     5  C    0.133117   0.202907   0.124601  -0.031784  -0.015936  -0.000825
     6  H   -0.025323  -0.061129  -0.069739  -0.004928  -0.000828  -0.001350
     7  S   16.369768  -0.086916  -0.103529   0.119789   0.000705  -0.015996
     8  H   -0.086916   1.241921   0.003365   0.008230   0.003288  -0.001271
     9  C   -0.103529   0.003365  12.530479   0.153218  -0.626217   0.054073
    10  S    0.119789   0.008230   0.153218  16.734226   0.067920  -0.418304
    11  C    0.000705   0.003288  -0.626217   0.067920  10.545178  -0.864082
    12  C   -0.015996  -0.001271   0.054073  -0.418304  -0.864082  13.296674
    13  C   -0.199448  -0.007897  -3.137797  -0.648837  -0.116528  -4.641197
    14  H   -0.002915  -0.000563   0.383134   0.002669  -0.095436   0.523300
    15  S    0.000697   0.000002  -0.387885   0.133616   0.166184  -0.725036
    16  C   -0.003552   0.000001   0.062061  -0.111539  -0.140626  -0.974131
    17  C    0.023379  -0.000190  -0.269762  -0.188473  -2.894561  -0.459667
    18  H   -0.000161  -0.000001   0.005100   0.010558   0.079712  -0.061970
    19  H    0.001174   0.000029   0.084079   0.041509   0.557216   0.011640
    20  H   -0.008086   0.000845   0.034796   0.002464  -0.000291   0.019875
    21  H    0.009013   0.001382  -0.019291   0.001706  -0.004903  -0.012312
    22  H    0.006445   0.000648   0.058665   0.003455  -0.004246  -0.029076
              13         14         15         16         17         18
     1  C   -0.233146   0.041743  -0.001358   0.001687   0.007136   0.000120
     2  C   -0.590084  -0.048999   0.008797  -0.001064  -0.007092   0.000498
     3  C   -0.470097   0.061477  -0.068254  -0.013625  -0.285916  -0.001605
     4  C   -0.446417   0.108533  -0.008143  -0.002000  -0.017742  -0.000436
     5  C    0.015180  -0.008468   0.000653  -0.000347  -0.000480  -0.000038
     6  H    0.032381   0.002220  -0.000083   0.000029   0.000255   0.000005
     7  S   -0.199448  -0.002915   0.000697  -0.003552   0.023379  -0.000161
     8  H   -0.007897  -0.000563   0.000002   0.000001  -0.000190  -0.000001
     9  C   -3.137797   0.383134  -0.387885   0.062061  -0.269762   0.005100
    10  S   -0.648837   0.002669   0.133616  -0.111539  -0.188473   0.010558
    11  C   -0.116528  -0.095436   0.166184  -0.140626  -2.894561   0.079712
    12  C   -4.641197   0.523300  -0.725036  -0.974131  -0.459667  -0.061970
    13  C   17.002332  -1.269803   0.295247   0.031633  -0.107776   0.025972
    14  H   -1.269803   2.012620  -0.031185   0.018937  -0.056554   0.002490
    15  S    0.295247  -0.031185  16.063211   0.222513  -0.073804  -0.138764
    16  C    0.031633   0.018937   0.222513   6.591949   0.335478   0.269499
    17  C   -0.107776  -0.056554  -0.073804   0.335478  10.064121  -0.032865
    18  H    0.025972   0.002490  -0.138764   0.269499  -0.032865   1.263306
    19  H   -0.058954  -0.001121  -0.000507  -0.127913  -0.484790  -0.062239
    20  H   -0.054083   0.027083  -0.000067   0.000370  -0.000160   0.000008
    21  H    0.043448  -0.072524  -0.002922  -0.001357   0.000659  -0.000097
    22  H    0.027886  -0.031419   0.000701  -0.001256  -0.002641   0.000009
              19         20         21         22
     1  C   -0.000247   0.065640  -0.012923  -0.055587
     2  C    0.001592   0.013191   0.010495   0.033774
     3  C   -0.004052   0.025456  -0.022711  -0.047665
     4  C    0.000427   0.042895   0.326006   0.290371
     5  C    0.000172   0.019193   0.007243  -0.012515
     6  H   -0.000034  -0.015657   0.000634   0.002574
     7  S    0.001174  -0.008086   0.009013   0.006445
     8  H    0.000029   0.000845   0.001382   0.000648
     9  C    0.084079   0.034796  -0.019291   0.058665
    10  S    0.041509   0.002464   0.001706   0.003455
    11  C    0.557216  -0.000291  -0.004903  -0.004246
    12  C    0.011640   0.019875  -0.012312  -0.029076
    13  C   -0.058954  -0.054083   0.043448   0.027886
    14  H   -0.001121   0.027083  -0.072524  -0.031419
    15  S   -0.000507  -0.000067  -0.002922   0.000701
    16  C   -0.127913   0.000370  -0.001357  -0.001256
    17  C   -0.484790  -0.000160   0.000659  -0.002641
    18  H   -0.062239   0.000008  -0.000097   0.000009
    19  H    1.342840   0.000065   0.000096   0.000126
    20  H    0.000065   1.433004  -0.180191  -0.187592
    21  H    0.000096  -0.180191   0.782966  -0.082668
    22  H    0.000126  -0.187592  -0.082668   0.832918
 Mulliken charges:
               1
     1  C    0.445916
     2  C   -0.243162
     3  C    0.278155
     4  C    0.390808
     5  C   -0.350317
     6  H   -0.468768
     7  S    0.480396
     8  H   -0.350725
     9  C   -0.078074
    10  S    0.477238
    11  C   -0.553940
    12  C   -0.337752
    13  C    0.507984
    14  H   -0.565217
    15  S    0.546387
    16  C   -0.156746
    17  C    0.451443
    18  H   -0.359100
    19  H   -0.301110
    20  H   -0.238758
    21  H    0.228249
    22  H    0.197093
 Sum of Mulliken charges =  -0.00000
 Mulliken charges with hydrogens summed into heavy atoms:
               1
     1  C   -0.022851
     2  C   -0.243162
     3  C    0.278155
     4  C    0.577392
     5  C   -0.701042
     7  S    0.480396
     9  C   -0.078074
    10  S    0.477238
    11  C   -0.553940
    12  C   -0.337752
    13  C   -0.057232
    15  S    0.546387
    16  C   -0.515845
    17  C    0.150333
 Electronic spatial extent (au):  <R**2>=           4381.2301
 Charge=             -0.0000 electrons
 Dipole moment (field-independent basis, Debye):
    X=             -0.4661    Y=              1.0534    Z=              0.1353  Tot=              1.1599
 Quadrupole moment (field-independent basis, Debye-Ang):
   XX=            -87.2928   YY=            -98.2064   ZZ=           -111.9314
   XY=             -6.5163   XZ=              0.6219   YZ=             -0.4608
 Traceless Quadrupole moment (field-independent basis, Debye-Ang):
   XX=             11.8507   YY=              0.9371   ZZ=            -12.7878
   XY=             -6.5163   XZ=              0.6219   YZ=             -0.4608
 Octapole moment (field-independent basis, Debye-Ang**2):
  XXX=             -3.2134  YYY=              3.9248  ZZZ=              0.7411  XYY=             -5.5815
  XXY=            -18.0414  XXZ=              0.2511  XZZ=             -1.0752  YZZ=              1.9939
  YYZ=              1.1481  XYZ=             -8.5160
 Hexadecapole moment (field-independent basis, Debye-Ang**3):
 XXXX=          -4170.5539 YYYY=          -1130.4301 ZZZZ=           -195.7573 XXXY=            -34.4014
 XXXZ=             20.4644 YYYX=            -41.1630 YYYZ=             -8.0361 ZZZX=             -3.4897
 ZZZY=              2.1729 XXYY=           -937.5247 XXZZ=           -935.5968 YYZZ=           -232.3825
 XXYZ=              8.9806 YYXZ=              4.1165 ZZXY=              1.5000
 N-N= 1.118845073874D+03 E-N=-6.056906009027D+03  KE= 1.612934038518D+03
 Unable to Open any file for archive entry.
 1\1\GINC-CX3-12-27\FOpt\RMP2-FC\Aug-CC-pVDZ\C11H8S3\NS5018\27-Oct-2021
 \0\\# opt=modredundant mp2/aug-cc-pvdz\\pBTTT_160.pdb\\0,1\C,-3.978943
 1472,0.780030947,0.0225451716\C,-2.6056123601,1.1376663354,0.155988534
 7\C,-1.7588926555,0.0242623486,-0.0061861952\C,-2.1324067272,2.5343769
 83,0.4704390041\C,-4.1825716718,-0.5712031217,-0.2388518817\H,-4.80166
 89807,1.4925864742,0.1265809077\S,-2.6812334094,-1.4237229713,-0.33931
 57507\H,-5.1235327396,-1.1054097016,-0.3727928716\C,-0.3068551673,-0.0
 251299646,0.0279577638\S,0.5078052014,-1.5687756287,0.327165993\C,2.07
 55484271,-0.8309583069,0.1525329253\C,1.9495279936,0.5546684627,-0.112
 5499641\C,0.6070148342,1.0133905516,-0.1925566368\H,0.3054429368,2.031
 1859809,-0.4386226176\S,3.5184696795,1.2944278305,-0.2773101153\C,4.31
 148326,-0.2386511093,0.0071351448\C,3.4238841907,-1.2863082076,0.22316
 20623\H,5.4015907594,-0.2820536428,-0.0013437281\H,3.7437744401,-2.311
 6302659,0.4168264728\H,-2.9574703296,3.1277881281,0.892760564\H,-1.774
 4712985,3.0552570254,-0.4342625915\H,-1.3058832359,2.5162018531,1.1996
 978085\\Version=ES64L-G16RevC.01\State=1-A\HF=-1613.8015127\MP2=-1615.
 7518955\RMSD=5.568e-09\RMSF=3.997e-04\Dipole=-0.0798307,0.3016298,0.03
 46891\PG=C01 [X(C11H8S3)]\\@
 The archive entry for this job was punched.


 THERE IS MORE TO LIFE THAN INCREASING ITS SPEED.

                                       -- GANDHI
 Job cpu time:       0 days 14 hours  5 minutes 19.8 seconds.
 Elapsed time:       0 days  1 hours  1 minutes 19.9 seconds.
 File lengths (MBytes):  RWF=  36395 Int=      0 D2E=      0 Chk=     18 Scr=      1
 Normal termination of Gaussian 16 at Wed Oct 27 07:32:53 2021.
