 Entering Gaussian System, Link 0=g16
 Input=pBTTT_-105.gjf
 Output=pBTTT_-105.log
 Initial command:
 /apps/gaussian/g16-c01-avx/g16/l1.exe "/tmp/pbs.4766302[70].pbs/Gau-1134696.inp" -scrdir="/tmp/pbs.4766302[70].pbs/"
 Entering Link 1 = /apps/gaussian/g16-c01-avx/g16/l1.exe PID=   1134697.
  
 Copyright (c) 1988-2019, Gaussian, Inc.  All Rights Reserved.
  
 This is part of the Gaussian(R) 16 program.  It is based on
 the Gaussian(R) 09 system (copyright 2009, Gaussian, Inc.),
 the Gaussian(R) 03 system (copyright 2003, Gaussian, Inc.),
 the Gaussian(R) 98 system (copyright 1998, Gaussian, Inc.),
 the Gaussian(R) 94 system (copyright 1995, Gaussian, Inc.),
 the Gaussian 92(TM) system (copyright 1992, Gaussian, Inc.),
 the Gaussian 90(TM) system (copyright 1990, Gaussian, Inc.),
 the Gaussian 88(TM) system (copyright 1988, Gaussian, Inc.),
 the Gaussian 86(TM) system (copyright 1986, Carnegie Mellon
 University), and the Gaussian 82(TM) system (copyright 1983,
 Carnegie Mellon University). Gaussian is a federally registered
 trademark of Gaussian, Inc.
  
 This software contains proprietary and confidential information,
 including trade secrets, belonging to Gaussian, Inc.
  
 This software is provided under written license and may be
 used, copied, transmitted, or stored only in accord with that
 written license.
  
 The following legend is applicable only to US Government
 contracts under FAR:
  
                    RESTRICTED RIGHTS LEGEND
  
 Use, reproduction and disclosure by the US Government is
 subject to restrictions as set forth in subparagraphs (a)
 and (c) of the Commercial Computer Software - Restricted
 Rights clause in FAR 52.227-19.
  
 Gaussian, Inc.
 340 Quinnipiac St., Bldg. 40, Wallingford CT 06492
  
  
 ---------------------------------------------------------------
 Warning -- This program may not be used in any manner that
 competes with the business of Gaussian, Inc. or will provide
 assistance to any competitor of Gaussian, Inc.  The licensee
 of this program is prohibited from giving any competitor of
 Gaussian, Inc. access to this program.  By using this program,
 the user acknowledges that Gaussian, Inc. is engaged in the
 business of creating and licensing software in the field of
 computational chemistry and represents and warrants to the
 licensee that it is not a competitor of Gaussian, Inc. and that
 it will not use this program in any manner prohibited above.
 ---------------------------------------------------------------
  

 Cite this work as:
 Gaussian 16, Revision C.01,
 M. J. Frisch, G. W. Trucks, H. B. Schlegel, G. E. Scuseria, 
 M. A. Robb, J. R. Cheeseman, G. Scalmani, V. Barone, 
 G. A. Petersson, H. Nakatsuji, X. Li, M. Caricato, A. V. Marenich, 
 J. Bloino, B. G. Janesko, R. Gomperts, B. Mennucci, H. P. Hratchian, 
 J. V. Ortiz, A. F. Izmaylov, J. L. Sonnenberg, D. Williams-Young, 
 F. Ding, F. Lipparini, F. Egidi, J. Goings, B. Peng, A. Petrone, 
 T. Henderson, D. Ranasinghe, V. G. Zakrzewski, J. Gao, N. Rega, 
 G. Zheng, W. Liang, M. Hada, M. Ehara, K. Toyota, R. Fukuda, 
 J. Hasegawa, M. Ishida, T. Nakajima, Y. Honda, O. Kitao, H. Nakai, 
 T. Vreven, K. Throssell, J. A. Montgomery, Jr., J. E. Peralta, 
 F. Ogliaro, M. J. Bearpark, J. J. Heyd, E. N. Brothers, K. N. Kudin, 
 V. N. Staroverov, T. A. Keith, R. Kobayashi, J. Normand, 
 K. Raghavachari, A. P. Rendell, J. C. Burant, S. S. Iyengar, 
 J. Tomasi, M. Cossi, J. M. Millam, M. Klene, C. Adamo, R. Cammi, 
 J. W. Ochterski, R. L. Martin, K. Morokuma, O. Farkas, 
 J. B. Foresman, and D. J. Fox, Gaussian, Inc., Wallingford CT, 2019.
 
 ******************************************
 Gaussian 16:  ES64L-G16RevC.01  3-Jul-2019
                26-Oct-2021 
 ******************************************
 %mem=100GB
 %nprocshared=16
 Will use up to   16 processors via shared memory.
 ----------------------------------
 # opt=modredundant mp2/aug-cc-pvdz
 ----------------------------------
 1/18=120,19=15,38=1/1,3;
 2/9=110,12=2,17=6,18=5,40=1/2;
 3/5=16,7=10,11=9,25=1,30=1,71=1/1,2,3;
 4//1;
 5/5=2,38=5/2;
 8/6=4,10=1/1;
 9/15=2,16=-3/6;
 10/5=1/2;
 6/7=2,8=2,9=2,10=2/1;
 7/12=2/1,2,3,16;
 1/18=20,19=15/3(2);
 2/9=110/2;
 99//99;
 2/9=110/2;
 3/5=16,7=10,11=9,25=1,30=1,71=1/1,2,3;
 4/5=5,16=3,69=1/1;
 5/5=2,38=5/2;
 8/6=4,10=1/1;
 9/15=2,16=-3/6;
 10/5=1/2;
 7/12=2/1,2,3,16;
 1/18=20,19=15/3(-8);
 2/9=110/2;
 6/7=2,8=2,9=2,10=2/1;
 99/9=10/99;
 --------------
 pBTTT_-105.pdb
 --------------
 Symbolic Z-matrix:
 Charge =  0 Multiplicity = 1
 C                     3.97      0.672     0.161 
 C                     2.581     0.962     0.429 
 C                     1.759     0.015    -0.089 
 C                     2.15      2.176     1.206 
 C                     4.155    -0.47     -0.529 
 H                     4.779     1.306     0.49 
 S                     2.658    -1.247    -0.897 
 H                     5.089    -0.904    -0.847 
 C                     0.286    -0.041    -0.032 
 S                    -0.524    -1.164     1.054 
 C                    -2.078    -0.602     0.52 
 C                    -1.949     0.378    -0.421 
 C                    -0.59      0.7      -0.746 
 H                    -0.283     1.435    -1.472 
 S                    -3.502     0.941    -0.958 
 C                    -4.298    -0.178     0.118 
 C                    -3.439    -0.929     0.837 
 H                    -5.374    -0.209     0.151 
 H                    -3.746    -1.675     1.553 
 H                     2.664     2.212     2.168 
 H                     1.08      2.173     1.389 
 H                     2.403     3.089     0.664 
 
 The following ModRedundant input section has been read:
 D       2       3       9      10 F                                           
 

 GradGradGradGradGradGradGradGradGradGradGradGradGradGradGradGradGradGrad
 Berny optimization.
 Initialization pass.
                           ----------------------------
                           !    Initial Parameters    !
                           ! (Angstroms and Degrees)  !
 --------------------------                            --------------------------
 ! Name  Definition              Value          Derivative Info.                !
 --------------------------------------------------------------------------------
 ! R1    R(1,2)                  1.444          estimate D2E/DX2                !
 ! R2    R(1,5)                  1.347          estimate D2E/DX2                !
 ! R3    R(1,6)                  1.0792         estimate D2E/DX2                !
 ! R4    R(2,3)                  1.3568         estimate D2E/DX2                !
 ! R5    R(2,4)                  1.5044         estimate D2E/DX2                !
 ! R6    R(3,7)                  1.7475         estimate D2E/DX2                !
 ! R7    R(3,9)                  1.4752         estimate D2E/DX2                !
 ! R8    R(4,20)                 1.0913         estimate D2E/DX2                !
 ! R9    R(4,21)                 1.0855         estimate D2E/DX2                !
 ! R10   R(4,22)                 1.0915         estimate D2E/DX2                !
 ! R11   R(5,7)                  1.7263         estimate D2E/DX2                !
 ! R12   R(5,8)                  1.0779         estimate D2E/DX2                !
 ! R13   R(9,10)                 1.7597         estimate D2E/DX2                !
 ! R14   R(9,13)                 1.3514         estimate D2E/DX2                !
 ! R15   R(10,11)                1.7366         estimate D2E/DX2                !
 ! R16   R(11,12)                1.3647         estimate D2E/DX2                !
 ! R17   R(11,17)                1.4352         estimate D2E/DX2                !
 ! R18   R(12,13)                1.4339         estimate D2E/DX2                !
 ! R19   R(12,15)                1.737          estimate D2E/DX2                !
 ! R20   R(13,14)                1.0778         estimate D2E/DX2                !
 ! R21   R(15,16)                1.7446         estimate D2E/DX2                !
 ! R22   R(16,17)                1.3486         estimate D2E/DX2                !
 ! R23   R(16,18)                1.077          estimate D2E/DX2                !
 ! R24   R(17,19)                1.0786         estimate D2E/DX2                !
 ! A1    A(2,1,5)              113.4176         estimate D2E/DX2                !
 ! A2    A(2,1,6)              123.1272         estimate D2E/DX2                !
 ! A3    A(5,1,6)              123.4533         estimate D2E/DX2                !
 ! A4    A(1,2,3)              111.8224         estimate D2E/DX2                !
 ! A5    A(1,2,4)              122.2409         estimate D2E/DX2                !
 ! A6    A(3,2,4)              125.9342         estimate D2E/DX2                !
 ! A7    A(2,3,7)              111.6489         estimate D2E/DX2                !
 ! A8    A(2,3,9)              128.0761         estimate D2E/DX2                !
 ! A9    A(7,3,9)              120.2749         estimate D2E/DX2                !
 ! A10   A(2,4,20)             110.302          estimate D2E/DX2                !
 ! A11   A(2,4,21)             111.5446         estimate D2E/DX2                !
 ! A12   A(2,4,22)             110.6172         estimate D2E/DX2                !
 ! A13   A(20,4,21)            108.4055         estimate D2E/DX2                !
 ! A14   A(20,4,22)            107.5157         estimate D2E/DX2                !
 ! A15   A(21,4,22)            108.3306         estimate D2E/DX2                !
 ! A16   A(1,5,7)              111.8194         estimate D2E/DX2                !
 ! A17   A(1,5,8)              127.6968         estimate D2E/DX2                !
 ! A18   A(7,5,8)              120.4837         estimate D2E/DX2                !
 ! A19   A(3,7,5)               91.2894         estimate D2E/DX2                !
 ! A20   A(3,9,10)             120.5105         estimate D2E/DX2                !
 ! A21   A(3,9,13)             127.3037         estimate D2E/DX2                !
 ! A22   A(10,9,13)            112.1858         estimate D2E/DX2                !
 ! A23   A(9,10,11)             90.8942         estimate D2E/DX2                !
 ! A24   A(10,11,12)           111.0889         estimate D2E/DX2                !
 ! A25   A(10,11,17)           134.9856         estimate D2E/DX2                !
 ! A26   A(12,11,17)           113.9255         estimate D2E/DX2                !
 ! A27   A(11,12,13)           114.0233         estimate D2E/DX2                !
 ! A28   A(11,12,15)           111.1863         estimate D2E/DX2                !
 ! A29   A(13,12,15)           134.7886         estimate D2E/DX2                !
 ! A30   A(9,13,12)            111.8061         estimate D2E/DX2                !
 ! A31   A(9,13,14)            123.0385         estimate D2E/DX2                !
 ! A32   A(12,13,14)           125.1544         estimate D2E/DX2                !
 ! A33   A(12,15,16)            90.5366         estimate D2E/DX2                !
 ! A34   A(15,16,17)           113.2895         estimate D2E/DX2                !
 ! A35   A(15,16,18)           119.5531         estimate D2E/DX2                !
 ! A36   A(17,16,18)           127.1574         estimate D2E/DX2                !
 ! A37   A(11,17,16)           111.0622         estimate D2E/DX2                !
 ! A38   A(11,17,19)           125.0378         estimate D2E/DX2                !
 ! A39   A(16,17,19)           123.9            estimate D2E/DX2                !
 ! D1    D(5,1,2,3)             -0.5177         estimate D2E/DX2                !
 ! D2    D(5,1,2,4)            178.9446         estimate D2E/DX2                !
 ! D3    D(6,1,2,3)            179.9703         estimate D2E/DX2                !
 ! D4    D(6,1,2,4)             -0.5673         estimate D2E/DX2                !
 ! D5    D(2,1,5,7)              0.3294         estimate D2E/DX2                !
 ! D6    D(2,1,5,8)           -179.773          estimate D2E/DX2                !
 ! D7    D(6,1,5,7)            179.8395         estimate D2E/DX2                !
 ! D8    D(6,1,5,8)             -0.2629         estimate D2E/DX2                !
 ! D9    D(1,2,3,7)              0.4597         estimate D2E/DX2                !
 ! D10   D(1,2,3,9)           -179.6914         estimate D2E/DX2                !
 ! D11   D(4,2,3,7)           -178.9787         estimate D2E/DX2                !
 ! D12   D(4,2,3,9)              0.8702         estimate D2E/DX2                !
 ! D13   D(1,2,4,20)           -53.8526         estimate D2E/DX2                !
 ! D14   D(1,2,4,21)          -174.3835         estimate D2E/DX2                !
 ! D15   D(1,2,4,22)            64.9664         estimate D2E/DX2                !
 ! D16   D(3,2,4,20)           125.5309         estimate D2E/DX2                !
 ! D17   D(3,2,4,21)             5.0001         estimate D2E/DX2                !
 ! D18   D(3,2,4,22)          -115.6501         estimate D2E/DX2                !
 ! D19   D(2,3,7,5)             -0.241          estimate D2E/DX2                !
 ! D20   D(9,3,7,5)            179.8967         estimate D2E/DX2                !
 ! D21   D(2,3,9,10)          -105.0049         Frozen                          !
 ! D22   D(2,3,9,13)            75.0034         estimate D2E/DX2                !
 ! D23   D(7,3,9,10)            74.8325         estimate D2E/DX2                !
 ! D24   D(7,3,9,13)          -105.1592         estimate D2E/DX2                !
 ! D25   D(1,5,7,3)             -0.0583         estimate D2E/DX2                !
 ! D26   D(8,5,7,3)           -179.9643         estimate D2E/DX2                !
 ! D27   D(3,9,10,11)          179.8673         estimate D2E/DX2                !
 ! D28   D(13,9,10,11)          -0.1398         estimate D2E/DX2                !
 ! D29   D(3,9,13,12)         -179.6503         estimate D2E/DX2                !
 ! D30   D(3,9,13,14)            0.7051         estimate D2E/DX2                !
 ! D31   D(10,9,13,12)           0.3573         estimate D2E/DX2                !
 ! D32   D(10,9,13,14)        -179.2872         estimate D2E/DX2                !
 ! D33   D(9,10,11,12)          -0.1268         estimate D2E/DX2                !
 ! D34   D(9,10,11,17)         179.8101         estimate D2E/DX2                !
 ! D35   D(10,11,12,13)          0.3553         estimate D2E/DX2                !
 ! D36   D(10,11,12,15)        179.948          estimate D2E/DX2                !
 ! D37   D(17,11,12,13)       -179.5959         estimate D2E/DX2                !
 ! D38   D(17,11,12,15)         -0.0032         estimate D2E/DX2                !
 ! D39   D(10,11,17,16)       -179.9331         estimate D2E/DX2                !
 ! D40   D(10,11,17,19)          0.0274         estimate D2E/DX2                !
 ! D41   D(12,11,17,16)          0.0025         estimate D2E/DX2                !
 ! D42   D(12,11,17,19)        179.963          estimate D2E/DX2                !
 ! D43   D(11,12,13,9)          -0.4675         estimate D2E/DX2                !
 ! D44   D(11,12,13,14)        179.168          estimate D2E/DX2                !
 ! D45   D(15,12,13,9)        -179.9324         estimate D2E/DX2                !
 ! D46   D(15,12,13,14)         -0.2969         estimate D2E/DX2                !
 ! D47   D(11,12,15,16)          0.0023         estimate D2E/DX2                !
 ! D48   D(13,12,15,16)        179.4782         estimate D2E/DX2                !
 ! D49   D(12,15,16,17)         -0.0009         estimate D2E/DX2                !
 ! D50   D(12,15,16,18)        179.9631         estimate D2E/DX2                !
 ! D51   D(15,16,17,11)         -0.0007         estimate D2E/DX2                !
 ! D52   D(15,16,17,19)       -179.9617         estimate D2E/DX2                !
 ! D53   D(18,16,17,11)       -179.9614         estimate D2E/DX2                !
 ! D54   D(18,16,17,19)          0.0775         estimate D2E/DX2                !
 --------------------------------------------------------------------------------
 Trust Radius=3.00D-01 FncErr=1.00D-07 GrdErr=1.00D-07 EigMax=2.50D+02 EigMin=1.00D-04
 Number of steps in this run=    127 maximum allowed number of steps=    132.
 GradGradGradGradGradGradGradGradGradGradGradGradGradGradGradGradGradGrad

                          Input orientation:                          
 ---------------------------------------------------------------------
 Center     Atomic      Atomic             Coordinates (Angstroms)
 Number     Number       Type             X           Y           Z
 ---------------------------------------------------------------------
      1          6           0        3.970000    0.672000    0.161000
      2          6           0        2.581000    0.962000    0.429000
      3          6           0        1.759000    0.015000   -0.089000
      4          6           0        2.150000    2.176000    1.206000
      5          6           0        4.155000   -0.470000   -0.529000
      6          1           0        4.779000    1.306000    0.490000
      7         16           0        2.658000   -1.247000   -0.897000
      8          1           0        5.089000   -0.904000   -0.847000
      9          6           0        0.286000   -0.041000   -0.032000
     10         16           0       -0.524000   -1.164000    1.054000
     11          6           0       -2.078000   -0.602000    0.520000
     12          6           0       -1.949000    0.378000   -0.421000
     13          6           0       -0.590000    0.700000   -0.746000
     14          1           0       -0.283000    1.435000   -1.472000
     15         16           0       -3.502000    0.941000   -0.958000
     16          6           0       -4.298000   -0.178000    0.118000
     17          6           0       -3.439000   -0.929000    0.837000
     18          1           0       -5.374000   -0.209000    0.151000
     19          1           0       -3.746000   -1.675000    1.553000
     20          1           0        2.664000    2.212000    2.168000
     21          1           0        1.080000    2.173000    1.389000
     22          1           0        2.403000    3.089000    0.664000
 ---------------------------------------------------------------------
                    Distance matrix (angstroms):
                    1          2          3          4          5
     1  C    0.000000
     2  C    1.444038   0.000000
     3  C    2.320058   1.356767   0.000000
     4  C    2.581945   1.504422   2.549476   0.000000
     5  C    1.347030   2.333638   2.483876   3.745873   0.000000
     6  H    1.079202   2.225592   3.335015   2.860279   2.140540
     7  S    2.554069   2.577574   1.747486   4.049395   1.726315
     8  H    2.179908   3.376418   3.536669   4.726408   1.077885
     9  C    3.757323   2.546675   1.475166   3.149957   3.924310
    10  S    4.936029   3.814646   2.812220   4.281236   4.988042
    11  C    6.191144   4.915349   3.933718   5.105278   6.322034
    12  C    5.954807   4.645907   3.740489   4.762534   6.163569
    13  C    4.649412   3.391830   2.533510   3.673756   4.891934
    14  H    4.619185   3.469874   2.845848   3.693271   4.920784
    15  S    7.560113   6.239159   5.412094   6.176830   7.797731
    16  C    8.311689   6.979754   6.063608   6.949947   8.482752
    17  C    7.610089   6.323191   5.363564   6.404226   7.729520
    18  H    9.385446   8.045530   7.140551   7.963154   9.556797
    19  H    8.184298   6.946083   5.988096   7.050775   8.259089
    20  H    2.846978   2.143248   3.277176   1.091300   4.085341
    21  H    3.480386   2.154326   2.702312   1.085540   4.485510
    22  H    2.924104   2.147333   3.229740   1.091486   4.142371
                    6          7          8          9         10
     6  H    0.000000
     7  S    3.597252   0.000000
     8  H    2.601494   2.455588   0.000000
     9  C    4.719528   2.798043   4.947505   0.000000
    10  S    5.877143   3.733419   5.931877   1.759723   0.000000
    11  C    7.117571   4.985340   7.302450   2.491570   1.736639
    12  C    6.852524   4.908325   7.166481   2.306969   2.565933
    13  C    5.542661   3.789870   5.902038   1.351389   2.592075
    14  H    5.430463   4.021595   5.892362   2.139144   3.632294
    15  S    8.414564   6.537329   8.787584   4.021286   4.165051
    16  C    9.205030   7.110480   9.464358   4.588499   4.011405
    17  C    8.523565   6.346754   8.692713   3.926745   2.932497
    18  H   10.271006   8.166319  10.533442   5.665449   5.024931
    19  H    9.093512   6.870000   9.187582   4.630249   3.300213
    20  H    2.847761   4.621574   4.967928   3.945997   4.775114
    21  H    3.904163   4.405937   5.526274   2.747994   3.717608
    22  H    2.975692   4.615479   5.043983   3.842266   5.177590
                   11         12         13         14         15
    11  C    0.000000
    12  C    1.364742   0.000000
    13  C    2.347787   1.433942   0.000000
    14  H    3.367411   2.235488   1.077752   0.000000
    15  S    2.567705   1.736994   2.929636   3.296998   0.000000
    16  C    2.295600   2.473350   3.907255   4.609782   1.744578
    17  C    1.435179   2.347533   3.643670   4.569498   2.592854
    18  H    3.339794   3.521701   4.951520   5.590630   2.461050
    19  H    2.236212   3.367595   4.570160   5.551134   3.634297
    20  H    5.755090   5.598772   4.622343   4.747435   7.029002
    21  H    4.292872   3.958910   3.084940   3.253880   5.293483
    22  H    5.807201   5.240863   4.080866   3.809568   6.489516
                   16         17         18         19         20
    16  C    0.000000
    17  C    1.348645   0.000000
    18  H    1.076952   2.175597   0.000000
    19  H    2.145912   1.078620   2.600989   0.000000
    20  H    7.640945   6.991713   8.633596   7.521642   0.000000
    21  H    6.005458   5.508944   6.990042   6.174486   1.765621
    22  H    7.474945   7.092476   8.462961   7.829190   1.760473
                   21         22
    21  H    0.000000
    22  H    1.764939   0.000000
 Stoichiometry    C11H8S3
 Framework group  C1[X(C11H8S3)]
 Deg. of freedom    60
 Full point group                 C1      NOp   1
 Largest Abelian subgroup         C1      NOp   1
 Largest concise Abelian subgroup C1      NOp   1
                         Standard orientation:                         
 ---------------------------------------------------------------------
 Center     Atomic      Atomic             Coordinates (Angstroms)
 Number     Number       Type             X           Y           Z
 ---------------------------------------------------------------------
      1          6           0        3.969958    0.671845    0.161253
      2          6           0        2.580963    0.961736    0.429395
      3          6           0        1.758950    0.014983   -0.089037
      4          6           0        2.149980    2.175381    1.206957
      5          6           0        4.154943   -0.469838   -0.529275
      6          1           0        4.778967    1.305686    0.490540
      7         16           0        2.657933   -1.246654   -0.897624
      8          1           0        5.088937   -0.903701   -0.847480
      9          6           0        0.285950   -0.041029   -0.032053
     10         16           0       -0.524054   -1.164522    1.053434
     11          6           0       -2.078052   -0.602260    0.519702
     12          6           0       -1.949048    0.378172   -0.420847
     13          6           0       -0.590047    0.700309   -0.745706
     14          1           0       -0.283044    1.435640   -1.471369
     15         16           0       -3.502046    0.941435   -0.957578
     16          6           0       -4.298050   -0.178053    0.117911
     17          6           0       -3.439053   -0.929393    0.836560
     18          1           0       -5.374050   -0.209057    0.150903
     19          1           0       -3.746056   -1.675720    1.552217
     20          1           0        2.663986    2.210933    2.168971
     21          1           0        1.079981    2.172308    1.389962
     22          1           0        2.402985    3.088629    0.665377
 ---------------------------------------------------------------------
 Rotational constants (GHZ):           1.2841930           0.2638480           0.2507801
 Standard basis: Aug-CC-pVDZ (5D, 7F)
 There are   434 symmetry adapted cartesian basis functions of A   symmetry.
 There are   406 symmetry adapted basis functions of A   symmetry.
   406 basis functions,   804 primitive gaussians,   434 cartesian basis functions
    61 alpha electrons       61 beta electrons
       nuclear repulsion energy      1122.7949362200 Hartrees.
 NAtoms=   22 NActive=   22 NUniq=   22 SFac= 1.00D+00 NAtFMM=   60 NAOKFM=F Big=F
 Integral buffers will be    131072 words long.
 Raffenetti 1 integral format.
 Two-electron integral symmetry is turned on.
 One-electron integrals computed using PRISM.
 NBasis=   406 RedAO= T EigKep=  3.61D-06  NBF=   406
 NBsUse=   406 1.00D-06 EigRej= -1.00D+00 NBFU=   406
 ExpMin= 2.97D-02 ExpMax= 1.11D+05 ExpMxC= 1.07D+03 IAcc=3 IRadAn=         5 AccDes= 0.00D+00
 Harris functional with IExCor=  205 and IRadAn=       5 diagonalized for initial guess.
 HarFok:  IExCor=  205 AccDes= 0.00D+00 IRadAn=         5 IDoV= 1 UseB2=F ITyADJ=14
 ICtDFT=  3500011 ScaDFX=  1.000000  1.000000  1.000000  1.000000
 FoFCou: FMM=F IPFlag=           0 FMFlag=      100000 FMFlg1=           0
         NFxFlg=           0 DoJE=T BraDBF=F KetDBF=T FulRan=T
         wScrn=  0.000000 ICntrl=       500 IOpCl=  0 I1Cent=   200000004 NGrid=           0
         NMat0=    1 NMatS0=      1 NMatT0=    0 NMatD0=    1 NMtDS0=    0 NMtDT0=    0
 Petite list used in FoFCou.
 Requested convergence on RMS density matrix=1.00D-08 within 128 cycles.
 Requested convergence on MAX density matrix=1.00D-06.
 Requested convergence on             energy=1.00D-06.
 No special actions if energy rises.
 SCF Done:  E(RHF) =  -1613.81467421     A.U. after   17 cycles
            NFock= 17  Conv=0.48D-08     -V/T= 2.0001
 ExpMin= 2.97D-02 ExpMax= 1.11D+05 ExpMxC= 1.07D+03 IAcc=3 IRadAn=         5 AccDes= 0.00D+00
 HarFok:  IExCor=  205 AccDes= 0.00D+00 IRadAn=         5 IDoV=-2 UseB2=F ITyADJ=14
 ICtDFT= 12500011 ScaDFX=  1.000000  1.000000  1.000000  1.000000
 GSVD:  LWork=        -884 too small for GESVD, short by        3770 words or        3770 for optimal perf.
 Range of M.O.s used for correlation:    27   406
 NBasis=   406 NAE=    61 NBE=    61 NFC=    26 NFV=     0
 NROrb=    380 NOA=    35 NOB=    35 NVA=   345 NVB=   345

 **** Warning!!: The largest alpha MO coefficient is  0.96830008D+02

 Disk-based method using ON**2 memory for 35 occupieds at a time.
 Estimated scratch disk usage=  5842296162 words.
 Actual    scratch disk usage=  4764966754 words.
 JobTyp=1 Pass  1:  I=  27 to  61 NPSUse= 16 ParTrn=T ParDer=T DoDerP=T.
 (rs|ai) integrals will be sorted in core.
 Spin components of T(2) and E(2):
     alpha-alpha T2 =       0.1131725442D+00 E2=     -0.2641522897D+00
     alpha-beta  T2 =       0.5597752185D+00 E2=     -0.1398440306D+01
     beta-beta   T2 =       0.1131725442D+00 E2=     -0.2641522897D+00
 ANorm=    0.1336458120D+01
 E2 =    -0.1926744885D+01 EUMP2 =    -0.16157414190933D+04
          IDoAtm=1111111111111111111111
          Differentiating once with respect to electric field.
                with respect to dipole field.
          Differentiating once with respect to nuclear coordinates.
 Keep R1 ints in memory in canonical form, NReq=3454318301.
          There are     1 degrees of freedom in the 1st order CPHF.  IDoFFX=0 NUNeed=     1.
 LinEq1:  Iter=  0 NonCon=     1 RMS=2.70D-03 Max=7.14D-02 NDo=     1
 AX will form     1 AO Fock derivatives at one time.
 LinEq1:  Iter=  1 NonCon=     1 RMS=5.89D-04 Max=9.04D-03 NDo=     1
 LinEq1:  Iter=  2 NonCon=     1 RMS=3.28D-04 Max=1.10D-02 NDo=     1
 LinEq1:  Iter=  3 NonCon=     1 RMS=8.99D-05 Max=1.92D-03 NDo=     1
 LinEq1:  Iter=  4 NonCon=     1 RMS=3.49D-05 Max=5.51D-04 NDo=     1
 LinEq1:  Iter=  5 NonCon=     1 RMS=1.21D-05 Max=3.10D-04 NDo=     1
 LinEq1:  Iter=  6 NonCon=     1 RMS=3.84D-06 Max=1.40D-04 NDo=     1
 LinEq1:  Iter=  7 NonCon=     1 RMS=1.83D-06 Max=6.47D-05 NDo=     1
 LinEq1:  Iter=  8 NonCon=     1 RMS=7.42D-07 Max=2.70D-05 NDo=     1
 LinEq1:  Iter=  9 NonCon=     1 RMS=2.73D-07 Max=6.77D-06 NDo=     1
 LinEq1:  Iter= 10 NonCon=     1 RMS=1.13D-07 Max=2.62D-06 NDo=     1
 LinEq1:  Iter= 11 NonCon=     1 RMS=5.39D-08 Max=1.91D-06 NDo=     1
 LinEq1:  Iter= 12 NonCon=     1 RMS=2.12D-08 Max=4.32D-07 NDo=     1
 LinEq1:  Iter= 13 NonCon=     1 RMS=7.52D-09 Max=1.22D-07 NDo=     1
 LinEq1:  Iter= 14 NonCon=     1 RMS=2.54D-09 Max=4.03D-08 NDo=     1
 LinEq1:  Iter= 15 NonCon=     1 RMS=8.40D-10 Max=1.44D-08 NDo=     1
 LinEq1:  Iter= 16 NonCon=     1 RMS=3.41D-10 Max=6.56D-09 NDo=     1
 LinEq1:  Iter= 17 NonCon=     1 RMS=1.28D-10 Max=4.30D-09 NDo=     1
 LinEq1:  Iter= 18 NonCon=     1 RMS=4.58D-11 Max=1.18D-09 NDo=     1
 LinEq1:  Iter= 19 NonCon=     0 RMS=1.96D-11 Max=8.16D-10 NDo=     1
 Linear equations converged to 1.000D-10 1.000D-09 after    19 iterations.
 End of Minotr F.D. properties file   721 does not exist.
 End of Minotr F.D. properties file   722 does not exist.
 End of Minotr F.D. properties file   788 does not exist.

 **********************************************************************

            Population analysis using the SCF Density.

 **********************************************************************

 Orbital symmetries:
       Occupied  (A) (A) (A) (A) (A) (A) (A) (A) (A) (A) (A) (A)
                 (A) (A) (A) (A) (A) (A) (A) (A) (A) (A) (A) (A)
                 (A) (A) (A) (A) (A) (A) (A) (A) (A) (A) (A) (A)
                 (A) (A) (A) (A) (A) (A) (A) (A) (A) (A) (A) (A)
                 (A) (A) (A) (A) (A) (A) (A) (A) (A) (A) (A) (A)
                 (A)
       Virtual   (A) (A) (A) (A) (A) (A) (A) (A) (A) (A) (A) (A)
                 (A) (A) (A) (A) (A) (A) (A) (A) (A) (A) (A) (A)
                 (A) (A) (A) (A) (A) (A) (A) (A) (A) (A) (A) (A)
                 (A) (A) (A) (A) (A) (A) (A) (A) (A) (A) (A) (A)
                 (A) (A) (A) (A) (A) (A) (A) (A) (A) (A) (A) (A)
                 (A) (A) (A) (A) (A) (A) (A) (A) (A) (A) (A) (A)
                 (A) (A) (A) (A) (A) (A) (A) (A) (A) (A) (A) (A)
                 (A) (A) (A) (A) (A) (A) (A) (A) (A) (A) (A) (A)
                 (A) (A) (A) (A) (A) (A) (A) (A) (A) (A) (A) (A)
                 (A) (A) (A) (A) (A) (A) (A) (A) (A) (A) (A) (A)
                 (A) (A) (A) (A) (A) (A) (A) (A) (A) (A) (A) (A)
                 (A) (A) (A) (A) (A) (A) (A) (A) (A) (A) (A) (A)
                 (A) (A) (A) (A) (A) (A) (A) (A) (A) (A) (A) (A)
                 (A) (A) (A) (A) (A) (A) (A) (A) (A) (A) (A) (A)
                 (A) (A) (A) (A) (A) (A) (A) (A) (A) (A) (A) (A)
                 (A) (A) (A) (A) (A) (A) (A) (A) (A) (A) (A) (A)
                 (A) (A) (A) (A) (A) (A) (A) (A) (A) (A) (A) (A)
                 (A) (A) (A) (A) (A) (A) (A) (A) (A) (A) (A) (A)
                 (A) (A) (A) (A) (A) (A) (A) (A) (A) (A) (A) (A)
                 (A) (A) (A) (A) (A) (A) (A) (A) (A) (A) (A) (A)
                 (A) (A) (A) (A) (A) (A) (A) (A) (A) (A) (A) (A)
                 (A) (A) (A) (A) (A) (A) (A) (A) (A) (A) (A) (A)
                 (A) (A) (A) (A) (A) (A) (A) (A) (A) (A) (A) (A)
                 (A) (A) (A) (A) (A) (A) (A) (A) (A) (A) (A) (A)
                 (A) (A) (A) (A) (A) (A) (A) (A) (A) (A) (A) (A)
                 (A) (A) (A) (A) (A) (A) (A) (A) (A) (A) (A) (A)
                 (A) (A) (A) (A) (A) (A) (A) (A) (A) (A) (A) (A)
                 (A) (A) (A) (A) (A) (A) (A) (A) (A) (A) (A) (A)
                 (A) (A) (A) (A) (A) (A) (A) (A) (A)
 The electronic state is 1-A.
 Alpha  occ. eigenvalues --  -91.99066 -91.98949 -91.98326 -11.28781 -11.27802
 Alpha  occ. eigenvalues --  -11.27472 -11.27310 -11.27160 -11.27150 -11.25812
 Alpha  occ. eigenvalues --  -11.25805 -11.25556 -11.24285 -11.23615  -8.99247
 Alpha  occ. eigenvalues --   -8.99102  -8.98547  -6.67414  -6.67336  -6.67265
 Alpha  occ. eigenvalues --   -6.67183  -6.67129  -6.66977  -6.66711  -6.66619
 Alpha  occ. eigenvalues --   -6.66428  -1.21732  -1.18546  -1.12855  -1.03945
 Alpha  occ. eigenvalues --   -1.02473  -1.01619  -0.95835  -0.94607  -0.91814
 Alpha  occ. eigenvalues --   -0.82098  -0.77355  -0.76432  -0.72701  -0.69970
 Alpha  occ. eigenvalues --   -0.67353  -0.66858  -0.60725  -0.59050  -0.58818
 Alpha  occ. eigenvalues --   -0.56692  -0.56335  -0.54670  -0.53816  -0.52526
 Alpha  occ. eigenvalues --   -0.51738  -0.50955  -0.49474  -0.47378  -0.46248
 Alpha  occ. eigenvalues --   -0.46097  -0.38837  -0.34224  -0.33358  -0.32152
 Alpha  occ. eigenvalues --   -0.30299
 Alpha virt. eigenvalues --    0.03394   0.03501   0.04132   0.04689   0.04921
 Alpha virt. eigenvalues --    0.05576   0.06382   0.07341   0.08444   0.08520
 Alpha virt. eigenvalues --    0.08818   0.09014   0.10233   0.10446   0.10799
 Alpha virt. eigenvalues --    0.11284   0.11768   0.12377   0.12633   0.13007
 Alpha virt. eigenvalues --    0.13152   0.13871   0.14064   0.14077   0.14725
 Alpha virt. eigenvalues --    0.14806   0.15159   0.15604   0.15766   0.16051
 Alpha virt. eigenvalues --    0.16545   0.16728   0.17220   0.18044   0.18254
 Alpha virt. eigenvalues --    0.18758   0.18942   0.19094   0.20091   0.20138
 Alpha virt. eigenvalues --    0.20452   0.20864   0.21286   0.21709   0.21800
 Alpha virt. eigenvalues --    0.22612   0.22932   0.23268   0.23450   0.24072
 Alpha virt. eigenvalues --    0.24610   0.25014   0.25071   0.25581   0.26463
 Alpha virt. eigenvalues --    0.26571   0.27092   0.27774   0.29012   0.29073
 Alpha virt. eigenvalues --    0.29379   0.29972   0.30774   0.31707   0.32052
 Alpha virt. eigenvalues --    0.32292   0.32759   0.33057   0.33515   0.34020
 Alpha virt. eigenvalues --    0.34648   0.34881   0.35560   0.35973   0.36588
 Alpha virt. eigenvalues --    0.37026   0.37360   0.38606   0.39828   0.40221
 Alpha virt. eigenvalues --    0.40442   0.41159   0.41331   0.41879   0.42436
 Alpha virt. eigenvalues --    0.43408   0.43922   0.44694   0.44900   0.45292
 Alpha virt. eigenvalues --    0.45715   0.46147   0.46776   0.47431   0.48330
 Alpha virt. eigenvalues --    0.49014   0.49172   0.49928   0.50134   0.51149
 Alpha virt. eigenvalues --    0.52090   0.52604   0.53417   0.54077   0.54387
 Alpha virt. eigenvalues --    0.55360   0.56921   0.57293   0.58144   0.58368
 Alpha virt. eigenvalues --    0.58789   0.59197   0.59720   0.60383   0.61242
 Alpha virt. eigenvalues --    0.61708   0.62717   0.62899   0.63180   0.63243
 Alpha virt. eigenvalues --    0.64063   0.64960   0.65873   0.66611   0.66906
 Alpha virt. eigenvalues --    0.67501   0.68277   0.68720   0.68903   0.69373
 Alpha virt. eigenvalues --    0.69773   0.70112   0.70168   0.71400   0.71927
 Alpha virt. eigenvalues --    0.72485   0.73196   0.73691   0.74003   0.74473
 Alpha virt. eigenvalues --    0.75317   0.75669   0.76251   0.76470   0.76972
 Alpha virt. eigenvalues --    0.77373   0.77828   0.78471   0.79384   0.79794
 Alpha virt. eigenvalues --    0.80256   0.80992   0.81805   0.82934   0.83255
 Alpha virt. eigenvalues --    0.83893   0.84050   0.85267   0.85892   0.87037
 Alpha virt. eigenvalues --    0.87488   0.88313   0.89671   0.90033   0.90392
 Alpha virt. eigenvalues --    0.91558   0.92082   0.92362   0.93159   0.94041
 Alpha virt. eigenvalues --    0.95173   0.96044   0.96119   0.96612   0.97328
 Alpha virt. eigenvalues --    0.97775   0.98245   0.99012   0.99573   1.00674
 Alpha virt. eigenvalues --    1.01590   1.02797   1.03795   1.04436   1.05558
 Alpha virt. eigenvalues --    1.06731   1.06947   1.09173   1.09718   1.09979
 Alpha virt. eigenvalues --    1.11391   1.12041   1.12646   1.13296   1.14934
 Alpha virt. eigenvalues --    1.16451   1.17469   1.17638   1.19388   1.20196
 Alpha virt. eigenvalues --    1.21631   1.21921   1.23042   1.24555   1.24766
 Alpha virt. eigenvalues --    1.25180   1.26198   1.26720   1.28067   1.28142
 Alpha virt. eigenvalues --    1.29329   1.31243   1.31916   1.32502   1.32957
 Alpha virt. eigenvalues --    1.34155   1.35907   1.37427   1.37737   1.37894
 Alpha virt. eigenvalues --    1.38380   1.41069   1.42424   1.44301   1.46971
 Alpha virt. eigenvalues --    1.47745   1.49183   1.50824   1.51026   1.53408
 Alpha virt. eigenvalues --    1.54243   1.54943   1.57413   1.57967   1.58929
 Alpha virt. eigenvalues --    1.59561   1.60109   1.61860   1.62417   1.63956
 Alpha virt. eigenvalues --    1.64871   1.65234   1.66991   1.67604   1.68813
 Alpha virt. eigenvalues --    1.69084   1.70048   1.70721   1.71811   1.72792
 Alpha virt. eigenvalues --    1.74473   1.74811   1.75276   1.77091   1.78757
 Alpha virt. eigenvalues --    1.80728   1.81317   1.82071   1.82555   1.84635
 Alpha virt. eigenvalues --    1.85269   1.85839   1.88349   1.89272   1.90407
 Alpha virt. eigenvalues --    1.91852   1.93290   1.94992   1.95393   1.96749
 Alpha virt. eigenvalues --    1.97506   1.97805   1.99787   2.01271   2.02589
 Alpha virt. eigenvalues --    2.04965   2.06358   2.06746   2.07714   2.09243
 Alpha virt. eigenvalues --    2.10402   2.10701   2.11322   2.13453   2.14296
 Alpha virt. eigenvalues --    2.15258   2.15609   2.17075   2.20489   2.21477
 Alpha virt. eigenvalues --    2.22340   2.24339   2.24790   2.27230   2.27848
 Alpha virt. eigenvalues --    2.29086   2.29643   2.30331   2.32161   2.33025
 Alpha virt. eigenvalues --    2.35191   2.36118   2.37304   2.39168   2.40426
 Alpha virt. eigenvalues --    2.42970   2.43885   2.45081   2.47053   2.48044
 Alpha virt. eigenvalues --    2.49762   2.50688   2.51444   2.53816   2.55752
 Alpha virt. eigenvalues --    2.57928   2.59183   2.62875   2.63604   2.70566
 Alpha virt. eigenvalues --    2.73507   2.75710   2.79470   2.83698   2.85094
 Alpha virt. eigenvalues --    2.87379   2.88513   2.91906   2.95069   2.99462
 Alpha virt. eigenvalues --    3.00637   3.02288   3.03053   3.05901   3.22882
 Alpha virt. eigenvalues --    3.24852   3.30728   3.34344   3.44881   3.54268
 Alpha virt. eigenvalues --    3.60822   3.75189   3.81818   4.12385   4.25011
          Condensed to atoms (all electrons):
               1          2          3          4          5          6
     1  C   10.198427  -2.178246  -1.022244  -0.822601  -0.314806  -0.351969
     2  C   -2.178246  10.650869  -2.201955   0.527593   0.328233   0.280977
     3  C   -1.022244  -2.201955  14.320499  -0.948871  -1.701305  -0.112098
     4  C   -0.822601   0.527593  -0.948871   6.026214   0.174844   0.025251
     5  C   -0.314806   0.328233  -1.701305   0.174844   7.181940   0.022309
     6  H   -0.351969   0.280977  -0.112098   0.025251   0.022309   1.648981
     7  S   -0.589962   0.101367  -0.412107   0.117664   0.456107  -0.005044
     8  H    0.068764   0.100669  -0.021041   0.032125   0.156471  -0.067066
     9  C    0.561062  -1.078783  -1.726448  -0.068028   0.103525   0.068997
    10  S    0.017906   0.010350  -0.546755  -0.069120   0.020201   0.001038
    11  C    0.030817  -0.013799  -0.418440  -0.048836   0.020660   0.003256
    12  C   -0.034052   0.058547   0.652080   0.130489  -0.000847  -0.003472
    13  C   -0.224253   0.317566  -0.472581  -0.169587  -0.119053  -0.015673
    14  H    0.020541   0.010360   0.104997   0.041671  -0.003125   0.000204
    15  S   -0.002080   0.004485  -0.076919  -0.004326  -0.000874  -0.000055
    16  C   -0.000372  -0.005619   0.032285  -0.002485   0.000444  -0.000025
    17  C    0.002560   0.006678  -0.422075  -0.020203  -0.001980  -0.000038
    18  H   -0.000058   0.000080  -0.000237  -0.000023   0.000023  -0.000006
    19  H   -0.000095  -0.000156  -0.013281  -0.000606  -0.000045   0.000001
    20  H   -0.037462   0.051543  -0.022822   0.325869   0.015224  -0.007160
    21  H   -0.048715   0.195847   0.109221  -0.019594  -0.045889   0.002016
    22  H   -0.024089   0.067339  -0.032315   0.282371   0.031434  -0.006541
               7          8          9         10         11         12
     1  C   -0.589962   0.068764   0.561062   0.017906   0.030817  -0.034052
     2  C    0.101367   0.100669  -1.078783   0.010350  -0.013799   0.058547
     3  C   -0.412107  -0.021041  -1.726448  -0.546755  -0.418440   0.652080
     4  C    0.117664   0.032125  -0.068028  -0.069120  -0.048836   0.130489
     5  C    0.456107   0.156471   0.103525   0.020201   0.020660  -0.000847
     6  H   -0.005044  -0.067066   0.068997   0.001038   0.003256  -0.003472
     7  S   16.307519  -0.158878  -0.437283   0.152272   0.016581   0.019606
     8  H   -0.158878   1.256075  -0.013377   0.000468  -0.000598   0.001496
     9  C   -0.437283  -0.013377  13.295051   0.300145   0.135946  -0.956844
    10  S    0.152272   0.000468   0.300145  16.514213   0.365678  -0.489500
    11  C    0.016581  -0.000598   0.135946   0.365678  11.258879  -0.644454
    12  C    0.019606   0.001496  -0.956844  -0.489500  -0.644454  11.953919
    13  C    0.065972   0.000052  -3.652824  -0.498539  -1.770095  -2.791571
    14  H    0.011149   0.000011   0.003861   0.030724  -0.044749   0.709903
    15  S    0.003054  -0.000074  -0.263023   0.086860  -0.110201  -0.268827
    16  C    0.003674   0.000053   0.060572  -0.088540  -0.101471  -0.910133
    17  C    0.011043  -0.000110  -0.774094  -0.211528  -2.576328  -1.102565
    18  H    0.000217   0.000003   0.005387   0.006766   0.051769  -0.029813
    19  H    0.001907  -0.000010   0.128297   0.013783   0.632168   0.044131
    20  H    0.005570   0.001574  -0.001607  -0.003413  -0.001792   0.003258
    21  H    0.006898  -0.000487  -0.128158   0.007687  -0.006286   0.038907
    22  H    0.003169   0.001491   0.007523   0.001790  -0.001575   0.000342
              13         14         15         16         17         18
     1  C   -0.224253   0.020541  -0.002080  -0.000372   0.002560  -0.000058
     2  C    0.317566   0.010360   0.004485  -0.005619   0.006678   0.000080
     3  C   -0.472581   0.104997  -0.076919   0.032285  -0.422075  -0.000237
     4  C   -0.169587   0.041671  -0.004326  -0.002485  -0.020203  -0.000023
     5  C   -0.119053  -0.003125  -0.000874   0.000444  -0.001980   0.000023
     6  H   -0.015673   0.000204  -0.000055  -0.000025  -0.000038  -0.000006
     7  S    0.065972   0.011149   0.003054   0.003674   0.011043   0.000217
     8  H    0.000052   0.000011  -0.000074   0.000053  -0.000110   0.000003
     9  C   -3.652824   0.003861  -0.263023   0.060572  -0.774094   0.005387
    10  S   -0.498539   0.030724   0.086860  -0.088540  -0.211528   0.006766
    11  C   -1.770095  -0.044749  -0.110201  -0.101471  -2.576328   0.051769
    12  C   -2.791571   0.709903  -0.268827  -0.910133  -1.102565  -0.029813
    13  C   15.613082  -1.088930   0.056228  -0.175838   0.741397   0.033054
    14  H   -1.088930   1.739615  -0.039363   0.019975  -0.044325   0.001725
    15  S    0.056228  -0.039363  15.964161   0.175647   0.011284  -0.160775
    16  C   -0.175838   0.019975   0.175647   6.862354   0.112906   0.177945
    17  C    0.741397  -0.044325   0.011284   0.112906  10.191172   0.068934
    18  H    0.033054   0.001725  -0.160775   0.177945   0.068934   1.293096
    19  H   -0.075473  -0.002436  -0.005965  -0.114139  -0.650313  -0.068228
    20  H   -0.022399   0.000078  -0.000036  -0.000278   0.000203   0.000021
    21  H    0.086388   0.004214   0.001051   0.001263  -0.012937  -0.000169
    22  H   -0.018837   0.002315  -0.000573   0.000097  -0.000801   0.000025
              19         20         21         22
     1  C   -0.000095  -0.037462  -0.048715  -0.024089
     2  C   -0.000156   0.051543   0.195847   0.067339
     3  C   -0.013281  -0.022822   0.109221  -0.032315
     4  C   -0.000606   0.325869  -0.019594   0.282371
     5  C   -0.000045   0.015224  -0.045889   0.031434
     6  H    0.000001  -0.007160   0.002016  -0.006541
     7  S    0.001907   0.005570   0.006898   0.003169
     8  H   -0.000010   0.001574  -0.000487   0.001491
     9  C    0.128297  -0.001607  -0.128158   0.007523
    10  S    0.013783  -0.003413   0.007687   0.001790
    11  C    0.632168  -0.001792  -0.006286  -0.001575
    12  C    0.044131   0.003258   0.038907   0.000342
    13  C   -0.075473  -0.022399   0.086388  -0.018837
    14  H   -0.002436   0.000078   0.004214   0.002315
    15  S   -0.005965  -0.000036   0.001051  -0.000573
    16  C   -0.114139  -0.000278   0.001263   0.000097
    17  C   -0.650313   0.000203  -0.012937  -0.000801
    18  H   -0.068228   0.000021  -0.000169   0.000025
    19  H    1.438377  -0.000021   0.000158  -0.000033
    20  H   -0.000021   0.900611  -0.133885  -0.108904
    21  H    0.000158  -0.133885   1.182399  -0.123040
    22  H   -0.000033  -0.108904  -0.123040   0.830635
 Mulliken charges:
               1
     1  C    0.750927
     2  C   -1.233944
     3  C    0.932414
     4  C    0.490192
     5  C   -0.323492
     6  H   -0.483881
     7  S    0.319505
     8  H   -0.357610
     9  C    0.430104
    10  S    0.377513
    11  C   -0.777128
    12  C   -0.380598
    13  C    0.181916
    14  H   -0.478413
    15  S    0.630324
    16  C   -0.048313
    17  C    0.671123
    18  H   -0.379734
    19  H   -0.328021
    20  H    0.035829
    21  H   -0.116887
    22  H    0.088175
 Sum of Mulliken charges =  -0.00000
 Mulliken charges with hydrogens summed into heavy atoms:
               1
     1  C    0.267046
     2  C   -1.233944
     3  C    0.932414
     4  C    0.497309
     5  C   -0.681102
     7  S    0.319505
     9  C    0.430104
    10  S    0.377513
    11  C   -0.777128
    12  C   -0.380598
    13  C   -0.296497
    15  S    0.630324
    16  C   -0.428048
    17  C    0.343102
 Electronic spatial extent (au):  <R**2>=           4340.1997
 Charge=              0.0000 electrons
 Dipole moment (field-independent basis, Debye):
    X=              0.3656    Y=              1.0952    Z=              0.6376  Tot=              1.3190
 Quadrupole moment (field-independent basis, Debye-Ang):
   XX=            -86.8876   YY=           -103.4702   ZZ=           -106.5030
   XY=              5.6014   XZ=             -2.3109   YZ=             -1.2699
 Traceless Quadrupole moment (field-independent basis, Debye-Ang):
   XX=             12.0660   YY=             -4.5166   ZZ=             -7.5494
   XY=              5.6014   XZ=             -2.3109   YZ=             -1.2699
 Octapole moment (field-independent basis, Debye-Ang**2):
  XXX=              0.4105  YYY=              5.9124  ZZZ=              3.3360  XYY=              7.8811
  XXY=            -12.3538  XXZ=             10.0310  XZZ=             -0.5024  YZZ=              0.8303
  YYZ=              2.3111  XYZ=             18.0456
 Hexadecapole moment (field-independent basis, Debye-Ang**3):
 XXXX=          -4132.6325 YYYY=           -806.7998 ZZZZ=           -536.8829 XXXY=             28.0364
 XXXZ=            -74.2068 YYYX=             21.7494 YYYZ=             -7.2391 ZZZX=              2.8365
 ZZZY=             -7.1323 XXYY=           -928.6317 XXZZ=           -923.8070 YYZZ=           -208.8982
 XXYZ=             11.1236 YYXZ=             -9.7422 ZZXY=              9.6798
 N-N= 1.122794936220D+03 E-N=-6.065809831420D+03  KE= 1.613723158992D+03
 Calling FoFJK, ICntrl=  10002127 FMM=F ISym2X=0 I1Cent= 0 IOpClX= 0 NMat=1 NMatS=1 NMatT=0.
 ***** Axes restored to original set *****
 -------------------------------------------------------------------
 Center     Atomic                   Forces (Hartrees/Bohr)
 Number     Number              X              Y              Z
 -------------------------------------------------------------------
      1        6          -0.017387814    0.029023286    0.018314091
      2        6           0.029442223    0.025146255    0.012981788
      3        6          -0.027494382   -0.024695360   -0.011575335
      4        6           0.002283066   -0.004222344   -0.002884994
      5        6           0.001674101   -0.027233520   -0.016362040
      6        1           0.007721855    0.006050923    0.003128814
      7       16          -0.003449929   -0.005926647   -0.003025905
      8        1           0.007481681   -0.004991274   -0.003440724
      9        6           0.029954391   -0.018749920    0.017154634
     10       16           0.003723278   -0.005734638    0.005434137
     11        6          -0.008005019   -0.029722758    0.028569404
     12        6           0.010092193    0.029989202   -0.028497994
     13        6          -0.030577170    0.017002388   -0.015007681
     14        1           0.003589563    0.006923703   -0.007088693
     15       16          -0.002937417    0.005619493   -0.005394989
     16        6          -0.015035548    0.018022253   -0.017202358
     17        6           0.027620420   -0.016221123    0.015468722
     18        1          -0.010314406    0.000584476   -0.000548575
     19        1          -0.002836320   -0.006454541    0.006209025
     20        1           0.003273169    0.000129292    0.006456301
     21        1          -0.010230429   -0.000793344    0.001084482
     22        1           0.001412492    0.006254197   -0.003772112
 -------------------------------------------------------------------
 Cartesian Forces:  Max     0.030577170 RMS     0.015222485

 GradGradGradGradGradGradGradGradGradGradGradGradGradGradGradGradGradGrad
 Berny optimization.
 FormGI is forming the generalized inverse of G from B-inverse, IUseBI=4.
 Internal  Forces:  Max     0.042699610 RMS     0.008850054
 Search for a local minimum.
 Step number   1 out of a maximum of  127
 All quantities printed in internal units (Hartrees-Bohrs-Radians)
 Mixed Optimization -- RFO/linear search
 Second derivative matrix not updated -- first step.
 ITU=  0
     Eigenvalues ---    0.00707   0.01390   0.01420   0.01575   0.01627
     Eigenvalues ---    0.01666   0.01748   0.01866   0.01981   0.02029
     Eigenvalues ---    0.02064   0.02132   0.02264   0.02283   0.02381
     Eigenvalues ---    0.02421   0.07146   0.07327   0.15999   0.16000
     Eigenvalues ---    0.16000   0.16000   0.16000   0.16000   0.16000
     Eigenvalues ---    0.16000   0.22518   0.22566   0.23649   0.24767
     Eigenvalues ---    0.24784   0.24998   0.24999   0.25000   0.25000
     Eigenvalues ---    0.29081   0.30091   0.30332   0.31047   0.31171
     Eigenvalues ---    0.31918   0.32152   0.34641   0.34663   0.35129
     Eigenvalues ---    0.35333   0.36091   0.36162   0.36251   0.36267
     Eigenvalues ---    0.36365   0.38087   0.39151   0.39307   0.45799
     Eigenvalues ---    0.50316   0.52630   0.53759   0.542961000.00000
     Eigenvalues --- 1000.000001000.000001000.000001000.000001000.00000
     Eigenvalues --- 1000.000001000.000001000.000001000.000001000.00000
     Eigenvalues --- 1000.000001000.000001000.000001000.000001000.00000
     Eigenvalues --- 1000.000001000.000001000.000001000.000001000.00000
     Eigenvalues --- 1000.000001000.000001000.000001000.000001000.00000
     Eigenvalues --- 1000.000001000.000001000.000001000.000001000.00000
     Eigenvalues --- 1000.000001000.000001000.000001000.000001000.00000
     Eigenvalues --- 1000.000001000.000001000.000001000.000001000.00000
     Eigenvalues --- 1000.000001000.000001000.000001000.000001000.00000
     Eigenvalues --- 1000.000001000.000001000.000001000.000001000.00000
     Eigenvalues --- 1000.000001000.000001000.000001000.000001000.00000
     Eigenvalues --- 1000.000001000.00000
 RFO step:  Lambda=-1.76381766D-02 EMin= 7.07450983D-03
 Linear search not attempted -- first point.
 Iteration  1 RMS(Cart)=  0.02770361 RMS(Int)=  0.00022544
 Iteration  2 RMS(Cart)=  0.00043927 RMS(Int)=  0.00003907
 Iteration  3 RMS(Cart)=  0.00000009 RMS(Int)=  0.00003907
 Iteration  1 RMS(Cart)=  0.00000830 RMS(Int)=  0.00000312
 Iteration  2 RMS(Cart)=  0.00000457 RMS(Int)=  0.00000349
 Iteration  3 RMS(Cart)=  0.00000252 RMS(Int)=  0.00000395
 Iteration  4 RMS(Cart)=  0.00000138 RMS(Int)=  0.00000425
 Iteration  5 RMS(Cart)=  0.00000076 RMS(Int)=  0.00000443
 Variable       Old X    -DE/DX   Delta X   Delta X   Delta X     New X
                                 (Linear)    (Quad)   (Total)
    R1        2.72884  -0.00546   0.00000  -0.01116  -0.01111   2.71773
    R2        2.54552   0.04121   0.00000   0.07286   0.07288   2.61840
    R3        2.03940   0.01030   0.00000   0.02720   0.02720   2.06660
    R4        2.56392   0.03628   0.00000   0.06565   0.06566   2.62958
    R5        2.84295   0.00249   0.00000   0.00741   0.00741   2.85035
    R6        3.30227   0.00379   0.00000   0.00901   0.00897   3.31124
    R7        2.78766  -0.00535   0.00000  -0.01450  -0.01450   2.77316
    R8        2.06226   0.00724   0.00000   0.01987   0.01987   2.08213
    R9        2.05137   0.01027   0.00000   0.02768   0.02768   2.07906
   R10        2.06261   0.00743   0.00000   0.02041   0.02041   2.08302
   R11        3.26226   0.00607   0.00000   0.01626   0.01622   3.27848
   R12        2.03691   0.00951   0.00000   0.02501   0.02501   2.06192
   R13        3.32539   0.00592   0.00000   0.01612   0.01606   3.34146
   R14        2.55376   0.03997   0.00000   0.07111   0.07112   2.62488
   R15        3.28177   0.00564   0.00000   0.01503   0.01499   3.29676
   R16        2.57899   0.04270   0.00000   0.08172   0.08179   2.66078
   R17        2.71210  -0.00194   0.00000  -0.00221  -0.00215   2.70995
   R18        2.70976  -0.00374   0.00000  -0.00643  -0.00636   2.70340
   R19        3.28244   0.00558   0.00000   0.01504   0.01501   3.29745
   R20        2.03666   0.01052   0.00000   0.02766   0.02766   2.06432
   R21        3.29677   0.00656   0.00000   0.01725   0.01720   3.31398
   R22        2.54857   0.03911   0.00000   0.06875   0.06876   2.61733
   R23        2.03514   0.01027   0.00000   0.02694   0.02694   2.06208
   R24        2.03830   0.00939   0.00000   0.02477   0.02477   2.06306
    A1        1.97951  -0.00311   0.00000  -0.00650  -0.00642   1.97309
    A2        2.14897   0.00156   0.00000   0.00328   0.00324   2.15222
    A3        2.15467   0.00155   0.00000   0.00322   0.00318   2.15785
    A4        1.95167  -0.00244   0.00000  -0.00526  -0.00519   1.94648
    A5        2.13351   0.00620   0.00000   0.02123   0.02119   2.15470
    A6        2.19797  -0.00376   0.00000  -0.01596  -0.01600   2.18197
    A7        1.94864   0.00295   0.00000   0.00875   0.00875   1.95739
    A8        2.23535  -0.00298   0.00000  -0.01001  -0.01000   2.22535
    A9        2.09919   0.00003   0.00000   0.00125   0.00125   2.10045
   A10        1.92513   0.00033   0.00000   0.00264   0.00263   1.92776
   A11        1.94682  -0.00162   0.00000  -0.01027  -0.01027   1.93655
   A12        1.93063   0.00041   0.00000   0.00265   0.00263   1.93327
   A13        1.89203   0.00050   0.00000   0.00209   0.00209   1.89413
   A14        1.87650   0.00016   0.00000   0.00321   0.00320   1.87970
   A15        1.89073   0.00029   0.00000   0.00011   0.00011   1.89083
   A16        1.95162   0.00074   0.00000   0.00456   0.00456   1.95617
   A17        2.22873   0.00118   0.00000   0.00647   0.00647   2.23520
   A18        2.10284  -0.00193   0.00000  -0.01103  -0.01103   2.09181
   A19        1.59330   0.00185   0.00000  -0.00157  -0.00170   1.59161
   A20        2.10330  -0.00290   0.00000  -0.01047  -0.01049   2.09281
   A21        2.22187  -0.00044   0.00000  -0.00129  -0.00132   2.22055
   A22        1.95801   0.00334   0.00000   0.01176   0.01172   1.96973
   A23        1.58640   0.00186   0.00000  -0.00126  -0.00140   1.58500
   A24        1.93887   0.00155   0.00000   0.00386   0.00382   1.94269
   A25        2.35594   0.00144   0.00000   0.00108   0.00102   2.35696
   A26        1.98837  -0.00299   0.00000  -0.00493  -0.00484   1.98354
   A27        1.99008  -0.00262   0.00000  -0.00355  -0.00344   1.98665
   A28        1.94057   0.00116   0.00000   0.00248   0.00245   1.94301
   A29        2.35251   0.00146   0.00000   0.00107   0.00099   2.35350
   A30        1.95138  -0.00412   0.00000  -0.01080  -0.01070   1.94069
   A31        2.14743   0.00143   0.00000   0.00184   0.00179   2.14922
   A32        2.18436   0.00269   0.00000   0.00896   0.00891   2.19327
   A33        1.58016   0.00270   0.00000   0.00162   0.00149   1.58166
   A34        1.97727   0.00227   0.00000   0.00809   0.00808   1.98535
   A35        2.08659  -0.00239   0.00000  -0.01111  -0.01111   2.07549
   A36        2.21932   0.00012   0.00000   0.00302   0.00303   2.22235
   A37        1.93840  -0.00315   0.00000  -0.00726  -0.00718   1.93122
   A38        2.18232   0.00175   0.00000   0.00461   0.00456   2.18689
   A39        2.16246   0.00140   0.00000   0.00266   0.00261   2.16508
    D1       -0.00904   0.00006   0.00000   0.00013   0.00013  -0.00891
    D2        3.12317   0.00006   0.00000   0.00105   0.00106   3.12423
    D3        3.14108   0.00003   0.00000  -0.00043  -0.00044   3.14064
    D4       -0.00990   0.00003   0.00000   0.00048   0.00049  -0.00941
    D5        0.00575  -0.00000   0.00000  -0.00080  -0.00080   0.00495
    D6       -3.13763   0.00000   0.00000  -0.00004  -0.00004  -3.13767
    D7        3.13879   0.00003   0.00000  -0.00024  -0.00024   3.13856
    D8       -0.00459   0.00003   0.00000   0.00053   0.00053  -0.00406
    D9        0.00802   0.00002   0.00000   0.00082   0.00083   0.00885
   D10       -3.13621   0.00005   0.00000  -0.00084  -0.00086  -3.13706
   D11       -3.12377  -0.00005   0.00000  -0.00038  -0.00036  -3.12413
   D12        0.01519  -0.00002   0.00000  -0.00205  -0.00205   0.01314
   D13       -0.93991  -0.00033   0.00000  -0.00467  -0.00468  -0.94458
   D14       -3.04357  -0.00011   0.00000  -0.00230  -0.00230  -3.04587
   D15        1.13388   0.00034   0.00000   0.00264   0.00264   1.13652
   D16        2.19093  -0.00030   0.00000  -0.00352  -0.00352   2.18741
   D17        0.08727  -0.00009   0.00000  -0.00114  -0.00114   0.08613
   D18       -2.01847   0.00036   0.00000   0.00380   0.00380  -2.01467
   D19       -0.00421   0.00001   0.00000  -0.00102  -0.00103  -0.00524
   D20        3.13979  -0.00001   0.00000   0.00051   0.00054   3.14033
   D21       -1.83268  -0.00017   0.00000   0.00000  -0.00000  -1.83268
   D22        1.30906  -0.00063   0.00000  -0.01617  -0.01610   1.29295
   D23        1.30607  -0.00014   0.00000  -0.00178  -0.00180   1.30427
   D24       -1.83538  -0.00059   0.00000  -0.01795  -0.01790  -1.85328
   D25       -0.00102   0.00003   0.00000   0.00110   0.00111   0.00009
   D26       -3.14097   0.00003   0.00000   0.00038   0.00039  -3.14058
   D27        3.13928  -0.00035   0.00000  -0.01175  -0.01174   3.12754
   D28       -0.00244   0.00004   0.00000   0.00214   0.00217  -0.00027
   D29       -3.13549   0.00042   0.00000   0.01301   0.01308  -3.12241
   D30        0.01231   0.00041   0.00000   0.01213   0.01219   0.02450
   D31        0.00624   0.00000   0.00000  -0.00203  -0.00206   0.00418
   D32       -3.12915  -0.00001   0.00000  -0.00291  -0.00295  -3.13210
   D33       -0.00221  -0.00001   0.00000  -0.00155  -0.00157  -0.00378
   D34        3.13828   0.00003   0.00000  -0.00040  -0.00041   3.13787
   D35        0.00620   0.00004   0.00000   0.00079   0.00078   0.00698
   D36        3.14069   0.00005   0.00000   0.00110   0.00111  -3.14139
   D37       -3.13454   0.00001   0.00000  -0.00011  -0.00011  -3.13465
   D38       -0.00006   0.00002   0.00000   0.00021   0.00021   0.00015
   D39       -3.14043  -0.00006   0.00000  -0.00142  -0.00142   3.14134
   D40        0.00048  -0.00003   0.00000  -0.00090  -0.00090  -0.00042
   D41        0.00004  -0.00002   0.00000  -0.00024  -0.00023  -0.00019
   D42        3.14095   0.00001   0.00000   0.00028   0.00028   3.14123
   D43       -0.00816   0.00004   0.00000   0.00096   0.00097  -0.00719
   D44        3.12707   0.00005   0.00000   0.00183   0.00185   3.12892
   D45       -3.14041   0.00004   0.00000   0.00055   0.00054  -3.13987
   D46       -0.00518   0.00005   0.00000   0.00142   0.00143  -0.00375
   D47        0.00004  -0.00001   0.00000  -0.00010  -0.00010  -0.00006
   D48        3.13248  -0.00003   0.00000   0.00028   0.00029   3.13278
   D49       -0.00002  -0.00000   0.00000  -0.00004  -0.00004  -0.00005
   D50        3.14095   0.00000   0.00000   0.00008   0.00008   3.14103
   D51       -0.00001   0.00001   0.00000   0.00016   0.00016   0.00014
   D52       -3.14092  -0.00002   0.00000  -0.00036  -0.00035  -3.14128
   D53       -3.14092   0.00000   0.00000   0.00004   0.00004  -3.14088
   D54        0.00135  -0.00002   0.00000  -0.00048  -0.00047   0.00088
         Item               Value     Threshold  Converged?
 Maximum Force            0.042700     0.000450     NO 
 RMS     Force            0.008888     0.000300     NO 
 Maximum Displacement     0.074705     0.001800     NO 
 RMS     Displacement     0.027822     0.001200     NO 
 Predicted change in Energy=-9.135242D-03
 GradGradGradGradGradGradGradGradGradGradGradGradGradGradGradGradGradGrad

                          Input orientation:                          
 ---------------------------------------------------------------------
 Center     Atomic      Atomic             Coordinates (Angstroms)
 Number     Number       Type             X           Y           Z
 ---------------------------------------------------------------------
      1          6           0        3.983259    0.684644    0.177360
      2          6           0        2.597854    0.971300    0.435793
      3          6           0        1.765410   -0.005440   -0.102103
      4          6           0        2.128509    2.180004    1.206406
      5          6           0        4.170989   -0.491578   -0.530555
      6          1           0        4.802269    1.326811    0.513214
      7         16           0        2.668564   -1.273590   -0.906115
      8          1           0        5.112102   -0.940205   -0.852397
      9          6           0        0.299802   -0.058077   -0.049580
     10         16           0       -0.503094   -1.190289    1.045896
     11          6           0       -2.068366   -0.618837    0.529281
     12          6           0       -1.948387    0.398307   -0.436922
     13          6           0       -0.595476    0.718110   -0.774425
     14          1           0       -0.281303    1.465953   -1.506095
     15         16           0       -3.513734    0.970465   -0.953760
     16          6           0       -4.305389   -0.158768    0.129529
     17          6           0       -3.426132   -0.942602    0.858103
     18          1           0       -5.395796   -0.178264    0.166519
     19          1           0       -3.736904   -1.699827    1.580528
     20          1           0        2.625176    2.226983    2.188806
     21          1           0        1.040468    2.146780    1.366023
     22          1           0        2.371178    3.108120    0.663494
 ---------------------------------------------------------------------
                    Distance matrix (angstroms):
                    1          2          3          4          5
     1  C    0.000000
     2  C    1.438161   0.000000
     3  C    2.339481   1.391515   0.000000
     4  C    2.595214   1.508341   2.572975   0.000000
     5  C    1.385598   2.355545   2.491327   3.784984   0.000000
     6  H    1.093597   2.234240   3.372836   2.890925   2.189636
     7  S    2.595577   2.616343   1.752235   4.084326   1.734897
     8  H    2.230430   3.410972   3.554866   4.782907   1.091120
     9  C    3.764438   2.564419   1.467493   3.151298   3.924964
    10  S    4.939342   3.828913   2.804974   4.279016   4.982012
    11  C    6.200410   4.930607   3.933541   5.089772   6.330008
    12  C    5.970240   4.664575   3.750655   4.743001   6.184450
    13  C    4.676733   3.424338   2.559166   3.671638   4.923617
    14  H    4.650909   3.507870   2.885347   3.697936   4.960494
    15  S    7.587228   6.267565   5.435722   6.161511   7.834005
    16  C    8.331586   7.001830   6.077152   6.929976   8.508552
    17  C    7.616457   6.334806   5.362124   6.381694   7.736151
    18  H    9.418673   8.080374   7.168326   7.953488   9.597262
    19  H    8.200945   6.969540   5.998137   7.042452   8.273530
    20  H    2.875607   2.156511   3.312276   1.101814   4.144277
    21  H    3.494393   2.161604   2.704253   1.100189   4.511995
    22  H    2.950995   2.160840   3.263027   1.102289   4.197963
                    6          7          8          9         10
     6  H    0.000000
     7  S    3.650929   0.000000
     8  H    2.664630   2.466760   0.000000
     9  C    4.744140   2.796812   4.957912   0.000000
    10  S    5.896306   3.725144   5.932662   1.768223   0.000000
    11  C    7.140829   4.992752   7.319251   2.501550   1.744571
    12  C    6.880134   4.932710   7.198246   2.326516   2.609839
    13  C    5.582490   3.825987   5.944118   1.389025   2.638956
    14  H    5.471716   4.070232   5.941862   2.186730   3.690186
    15  S    8.451917   6.577147   8.835495   4.051975   4.210871
    16  C    9.235995   7.138026   9.500735   4.609773   4.044900
    17  C    8.542586   6.353529   8.707884   3.935588   2.939518
    18  H   10.314358   8.208787  10.584642   5.700963   5.073069
    19  H    9.122345   6.884409   9.208748   4.652697   3.317075
    20  H    2.890960   4.672733   5.046265   3.954648   4.771800
    21  H    3.943448   4.417266   5.570374   2.722851   3.690678
    22  H    3.017590   4.663850   5.118547   3.850179   5.184977
                   11         12         13         14         15
    11  C    0.000000
    12  C    1.408022   0.000000
    13  C    2.378336   1.430577   0.000000
    14  H    3.417996   2.249926   1.092389   0.000000
    15  S    2.610437   1.744934   2.934633   3.316503   0.000000
    16  C    2.318564   2.487299   3.917844   4.637699   1.753682
    17  C    1.434041   2.378835   3.665477   4.613081   2.636352
    18  H    3.376016   3.546999   4.973121   5.626644   2.473209
    19  H    2.248928   3.416293   4.610942   5.611647   3.688208
    20  H    5.734288   5.581755   4.629259   4.762256   7.010049
    21  H    4.244247   3.903976   3.049415   3.234141   5.244604
    22  H    5.798084   5.216574   4.071952   3.799932   6.466627
                   16         17         18         19         20
    16  C    0.000000
    17  C    1.385031   0.000000
    18  H    1.091208   2.223079   0.000000
    19  H    2.191675   1.091726   2.658289   0.000000
    20  H    7.613486   6.959553   8.614572   7.501060   0.000000
    21  H    5.951694   5.454611   6.947671   6.137237   1.787374
    22  H    7.452129   7.074957   8.448265   7.827258   1.779745
                   21         22
    21  H    0.000000
    22  H    1.785639   0.000000
 Stoichiometry    C11H8S3
 Framework group  C1[X(C11H8S3)]
 Deg. of freedom    60
 Full point group                 C1      NOp   1
 Largest Abelian subgroup         C1      NOp   1
 Largest concise Abelian subgroup C1      NOp   1
                         Standard orientation:                         
 ---------------------------------------------------------------------
 Center     Atomic      Atomic             Coordinates (Angstroms)
 Number     Number       Type             X           Y           Z
 ---------------------------------------------------------------------
      1          6           0        3.974334    0.709081    0.188912
      2          6           0        2.587082    0.985437    0.448657
      3          6           0        1.760743    0.008694   -0.098565
      4          6           0        2.110123    2.184557    1.229500
      5          6           0        4.169444   -0.459739   -0.529193
      6          1           0        4.789341    1.352976    0.531136
      7         16           0        2.671876   -1.247069   -0.912951
      8          1           0        5.113400   -0.900063   -0.854162
      9          6           0        0.295421   -0.052869   -0.047787
     10         16           0       -0.501813   -1.199330    1.036951
     11          6           0       -2.069939   -0.632387    0.524035
     12          6           0       -1.955051    0.393926   -0.433047
     13          6           0       -0.603735    0.724506   -0.766534
     14          1           0       -0.293291    1.480584   -1.491300
     15         16           0       -3.523255    0.961576   -0.946180
     16          6           0       -4.309256   -0.181733    0.126408
     17          6           0       -3.426079   -0.966880    0.848802
     18          1           0       -5.399562   -0.207853    0.162273
     19          1           0       -3.733060   -1.732238    1.564243
     20          1           0        2.605703    2.225726    2.212708
     21          1           0        1.022161    2.143642    1.387868
     22          1           0        2.347866    3.118818    0.695013
 ---------------------------------------------------------------------
 Rotational constants (GHZ):           1.2548614           0.2627363           0.2489713
 Standard basis: Aug-CC-pVDZ (5D, 7F)
 There are   434 symmetry adapted cartesian basis functions of A   symmetry.
 There are   406 symmetry adapted basis functions of A   symmetry.
   406 basis functions,   804 primitive gaussians,   434 cartesian basis functions
    61 alpha electrons       61 beta electrons
       nuclear repulsion energy      1115.0966982706 Hartrees.
 NAtoms=   22 NActive=   22 NUniq=   22 SFac= 1.00D+00 NAtFMM=   60 NAOKFM=F Big=F
 Integral buffers will be    131072 words long.
 Raffenetti 1 integral format.
 Two-electron integral symmetry is turned on.
 One-electron integrals computed using PRISM.
 NBasis=   406 RedAO= T EigKep=  4.08D-06  NBF=   406
 NBsUse=   406 1.00D-06 EigRej= -1.00D+00 NBFU=   406
 Initial guess from the checkpoint file:  "/tmp/pbs.4766302[70].pbs/Gau-1134697.chk"
 B after Tr=    -0.000000   -0.000000   -0.000000
         Rot=    0.999980   -0.005918   -0.000102   -0.002006 Ang=  -0.72 deg.
 ExpMin= 2.97D-02 ExpMax= 1.11D+05 ExpMxC= 1.07D+03 IAcc=3 IRadAn=         5 AccDes= 0.00D+00
 Harris functional with IExCor=  205 and IRadAn=       5 diagonalized for initial guess.
 HarFok:  IExCor=  205 AccDes= 0.00D+00 IRadAn=         5 IDoV= 1 UseB2=F ITyADJ=14
 ICtDFT=  3500011 ScaDFX=  1.000000  1.000000  1.000000  1.000000
 FoFCou: FMM=F IPFlag=           0 FMFlag=      100000 FMFlg1=           0
         NFxFlg=           0 DoJE=T BraDBF=F KetDBF=T FulRan=T
         wScrn=  0.000000 ICntrl=       500 IOpCl=  0 I1Cent=   200000004 NGrid=           0
         NMat0=    1 NMatS0=      1 NMatT0=    0 NMatD0=    1 NMtDS0=    0 NMtDT0=    0
 Petite list used in FoFCou.
 Requested convergence on RMS density matrix=1.00D-08 within 128 cycles.
 Requested convergence on MAX density matrix=1.00D-06.
 Requested convergence on             energy=1.00D-06.
 No special actions if energy rises.
 SCF Done:  E(RHF) =  -1613.80607175     A.U. after   14 cycles
            NFock= 14  Conv=0.81D-08     -V/T= 2.0006
 ExpMin= 2.97D-02 ExpMax= 1.11D+05 ExpMxC= 1.07D+03 IAcc=3 IRadAn=         5 AccDes= 0.00D+00
 HarFok:  IExCor=  205 AccDes= 0.00D+00 IRadAn=         5 IDoV=-2 UseB2=F ITyADJ=14
 ICtDFT= 12500011 ScaDFX=  1.000000  1.000000  1.000000  1.000000
 GSVD:  LWork=        -884 too small for GESVD, short by        3770 words or        3770 for optimal perf.
 Range of M.O.s used for correlation:    27   406
 NBasis=   406 NAE=    61 NBE=    61 NFC=    26 NFV=     0
 NROrb=    380 NOA=    35 NOB=    35 NVA=   345 NVB=   345

 **** Warning!!: The largest alpha MO coefficient is  0.10016022D+03

 Disk-based method using ON**2 memory for 35 occupieds at a time.
 Estimated scratch disk usage=  5835069422 words.
 Actual    scratch disk usage=  4759153646 words.
 JobTyp=1 Pass  1:  I=  27 to  61 NPSUse= 16 ParTrn=T ParDer=T DoDerP=T.
 (rs|ai) integrals will be sorted in core.
 Spin components of T(2) and E(2):
     alpha-alpha T2 =       0.1163502512D+00 E2=     -0.2667870279D+00
     alpha-beta  T2 =       0.5746005557D+00 E2=     -0.1411036748D+01
     beta-beta   T2 =       0.1163502512D+00 E2=     -0.2667870279D+00
 ANorm=    0.1344358977D+01
 E2 =    -0.1944610804D+01 EUMP2 =    -0.16157506825541D+04
          IDoAtm=1111111111111111111111
          Differentiating once with respect to electric field.
                with respect to dipole field.
          Differentiating once with respect to nuclear coordinates.
 Keep R1 ints in memory in canonical form, NReq=3454318301.
          There are     1 degrees of freedom in the 1st order CPHF.  IDoFFX=0 NUNeed=     1.
 LinEq1:  Iter=  0 NonCon=     1 RMS=2.73D-03 Max=8.80D-02 NDo=     1
 AX will form     1 AO Fock derivatives at one time.
 LinEq1:  Iter=  1 NonCon=     1 RMS=6.22D-04 Max=9.40D-03 NDo=     1
 LinEq1:  Iter=  2 NonCon=     1 RMS=3.48D-04 Max=1.69D-02 NDo=     1
 LinEq1:  Iter=  3 NonCon=     1 RMS=9.97D-05 Max=2.14D-03 NDo=     1
 LinEq1:  Iter=  4 NonCon=     1 RMS=3.99D-05 Max=9.36D-04 NDo=     1
 LinEq1:  Iter=  5 NonCon=     1 RMS=1.44D-05 Max=4.63D-04 NDo=     1
 LinEq1:  Iter=  6 NonCon=     1 RMS=4.62D-06 Max=1.84D-04 NDo=     1
 LinEq1:  Iter=  7 NonCon=     1 RMS=2.24D-06 Max=9.17D-05 NDo=     1
 LinEq1:  Iter=  8 NonCon=     1 RMS=8.87D-07 Max=3.84D-05 NDo=     1
 LinEq1:  Iter=  9 NonCon=     1 RMS=3.30D-07 Max=7.03D-06 NDo=     1
 LinEq1:  Iter= 10 NonCon=     1 RMS=1.17D-07 Max=3.45D-06 NDo=     1
 LinEq1:  Iter= 11 NonCon=     1 RMS=5.92D-08 Max=2.56D-06 NDo=     1
 LinEq1:  Iter= 12 NonCon=     1 RMS=2.69D-08 Max=8.01D-07 NDo=     1
 LinEq1:  Iter= 13 NonCon=     1 RMS=1.04D-08 Max=2.10D-07 NDo=     1
 LinEq1:  Iter= 14 NonCon=     1 RMS=3.67D-09 Max=7.23D-08 NDo=     1
 LinEq1:  Iter= 15 NonCon=     1 RMS=1.28D-09 Max=2.08D-08 NDo=     1
 LinEq1:  Iter= 16 NonCon=     1 RMS=5.39D-10 Max=1.29D-08 NDo=     1
 LinEq1:  Iter= 17 NonCon=     1 RMS=1.99D-10 Max=8.83D-09 NDo=     1
 LinEq1:  Iter= 18 NonCon=     1 RMS=7.49D-11 Max=2.22D-09 NDo=     1
 LinEq1:  Iter= 19 NonCon=     1 RMS=3.34D-11 Max=1.80D-09 NDo=     1
 LinEq1:  Iter= 20 NonCon=     0 RMS=1.08D-11 Max=2.53D-10 NDo=     1
 Linear equations converged to 1.000D-10 1.000D-09 after    20 iterations.
 End of Minotr F.D. properties file   721 does not exist.
 End of Minotr F.D. properties file   722 does not exist.
 End of Minotr F.D. properties file   788 does not exist.
 Calling FoFJK, ICntrl=  10002127 FMM=F ISym2X=0 I1Cent= 0 IOpClX= 0 NMat=1 NMatS=1 NMatT=0.
 ***** Axes restored to original set *****
 -------------------------------------------------------------------
 Center     Atomic                   Forces (Hartrees/Bohr)
 Number     Number              X              Y              Z
 -------------------------------------------------------------------
      1        6          -0.007690090    0.003418091    0.002445208
      2        6           0.011445213    0.003527299    0.000863341
      3        6          -0.007618875   -0.005779738   -0.002317572
      4        6          -0.001279136   -0.001134000   -0.000617368
      5        6           0.002183677   -0.004395475   -0.002660078
      6        1           0.000602492   -0.000932446   -0.000571371
      7       16           0.001403380    0.004824930    0.002961226
      8        1          -0.000149198   -0.000083735    0.000000792
      9        6           0.006873824   -0.002227381    0.001767302
     10       16          -0.001282298    0.002923839   -0.002989733
     11        6          -0.006042350   -0.006179552    0.006024905
     12        6           0.005979773    0.006177153   -0.005670683
     13        6          -0.008691689    0.001449136   -0.000100533
     14        1           0.001223208   -0.000674870    0.000399231
     15       16           0.000873090   -0.003000581    0.002790267
     16        6          -0.003284909    0.001909154   -0.001717055
     17        6           0.006925984   -0.000247855   -0.000014809
     18        1           0.000008971    0.000103131   -0.000077231
     19        1          -0.000872046    0.000440173   -0.000404227
     20        1          -0.000094250    0.000001129    0.000136151
     21        1          -0.000287937   -0.000259244   -0.000203159
     22        1          -0.000226834    0.000140844   -0.000044606
 -------------------------------------------------------------------
 Cartesian Forces:  Max     0.011445213 RMS     0.003575105

 GradGradGradGradGradGradGradGradGradGradGradGradGradGradGradGradGradGrad
 Berny optimization.
 Using GEDIIS/GDIIS optimizer.
 FormGI is forming the generalized inverse of G from B-inverse, IUseBI=4.
 Internal  Forces:  Max     0.005125848 RMS     0.001479146
 Search for a local minimum.
 Step number   2 out of a maximum of  127
 All quantities printed in internal units (Hartrees-Bohrs-Radians)
 Mixed Optimization -- RFO/linear search
 Update second derivatives using D2CorX and points    1    2
 DE= -9.26D-03 DEPred=-9.14D-03 R= 1.01D+00
 TightC=F SS=  1.41D+00  RLast= 1.90D-01 DXNew= 5.0454D-01 5.7041D-01
 Trust test= 1.01D+00 RLast= 1.90D-01 DXMaxT set to 5.05D-01
 ITU=  1  0
 Use linear search instead of GDIIS.
     Eigenvalues ---    0.00707   0.01383   0.01421   0.01573   0.01625
     Eigenvalues ---    0.01669   0.01747   0.01862   0.01980   0.02036
     Eigenvalues ---    0.02069   0.02140   0.02268   0.02282   0.02384
     Eigenvalues ---    0.02426   0.07214   0.07297   0.15900   0.16000
     Eigenvalues ---    0.16000   0.16000   0.16000   0.16000   0.16000
     Eigenvalues ---    0.16032   0.22528   0.22601   0.23704   0.24152
     Eigenvalues ---    0.24772   0.24898   0.24998   0.25000   0.25150
     Eigenvalues ---    0.29129   0.30092   0.30349   0.31072   0.31310
     Eigenvalues ---    0.31932   0.32241   0.34651   0.34715   0.35006
     Eigenvalues ---    0.35380   0.36114   0.36192   0.36256   0.36335
     Eigenvalues ---    0.36676   0.38019   0.39249   0.39324   0.45216
     Eigenvalues ---    0.49828   0.52207   0.53511   0.541171000.00000
     Eigenvalues --- 1000.000001000.000001000.000001000.000001000.00000
     Eigenvalues --- 1000.000001000.000001000.000001000.000001000.00000
     Eigenvalues --- 1000.000001000.000001000.000001000.000001000.00000
     Eigenvalues --- 1000.000001000.000001000.000001000.000001000.00000
     Eigenvalues --- 1000.000001000.000001000.000001000.000001000.00000
     Eigenvalues --- 1000.000001000.000001000.000001000.000001000.00000
     Eigenvalues --- 1000.000001000.000001000.000001000.000001000.00000
     Eigenvalues --- 1000.000001000.000001000.000001000.000001000.00000
     Eigenvalues --- 1000.000001000.000001000.000001000.000001000.00000
     Eigenvalues --- 1000.000001000.000001000.000001000.000001000.00000
     Eigenvalues --- 1000.000001000.000001000.000001000.000001000.00000
     Eigenvalues --- 1000.000001000.00000
 RFO step:  Lambda=-8.89520924D-04 EMin= 7.07458356D-03
 Quartic linear search produced a step of  0.09823.
 Iteration  1 RMS(Cart)=  0.02852151 RMS(Int)=  0.00025490
 Iteration  2 RMS(Cart)=  0.00038955 RMS(Int)=  0.00003071
 Iteration  3 RMS(Cart)=  0.00000006 RMS(Int)=  0.00003071
 Iteration  1 RMS(Cart)=  0.00001342 RMS(Int)=  0.00000503
 Iteration  2 RMS(Cart)=  0.00000736 RMS(Int)=  0.00000562
 Iteration  3 RMS(Cart)=  0.00000404 RMS(Int)=  0.00000635
 Iteration  4 RMS(Cart)=  0.00000222 RMS(Int)=  0.00000683
 Iteration  5 RMS(Cart)=  0.00000122 RMS(Int)=  0.00000712
 Iteration  6 RMS(Cart)=  0.00000067 RMS(Int)=  0.00000728
 Variable       Old X    -DE/DX   Delta X   Delta X   Delta X     New X
                                 (Linear)    (Quad)   (Total)
    R1        2.71773  -0.00433  -0.00109  -0.01160  -0.01270   2.70503
    R2        2.61840   0.00321   0.00716   0.00300   0.01016   2.62856
    R3        2.06660  -0.00027   0.00267  -0.00198   0.00070   2.06730
    R4        2.62958   0.00489   0.00645   0.00712   0.01357   2.64315
[...]
 ---------------------------------------------------------------------
 Rotational constants (GHZ):           1.2701382           0.2640906           0.2480295

 **********************************************************************

            Population analysis using the SCF Density.

 **********************************************************************

 Orbital symmetries:
       Occupied  (A) (A) (A) (A) (A) (A) (A) (A) (A) (A) (A) (A)
                 (A) (A) (A) (A) (A) (A) (A) (A) (A) (A) (A) (A)
                 (A) (A) (A) (A) (A) (A) (A) (A) (A) (A) (A) (A)
                 (A) (A) (A) (A) (A) (A) (A) (A) (A) (A) (A) (A)
                 (A) (A) (A) (A) (A) (A) (A) (A) (A) (A) (A) (A)
                 (A)
       Virtual   (A) (A) (A) (A) (A) (A) (A) (A) (A) (A) (A) (A)
                 (A) (A) (A) (A) (A) (A) (A) (A) (A) (A) (A) (A)
                 (A) (A) (A) (A) (A) (A) (A) (A) (A) (A) (A) (A)
                 (A) (A) (A) (A) (A) (A) (A) (A) (A) (A) (A) (A)
                 (A) (A) (A) (A) (A) (A) (A) (A) (A) (A) (A) (A)
                 (A) (A) (A) (A) (A) (A) (A) (A) (A) (A) (A) (A)
                 (A) (A) (A) (A) (A) (A) (A) (A) (A) (A) (A) (A)
                 (A) (A) (A) (A) (A) (A) (A) (A) (A) (A) (A) (A)
                 (A) (A) (A) (A) (A) (A) (A) (A) (A) (A) (A) (A)
                 (A) (A) (A) (A) (A) (A) (A) (A) (A) (A) (A) (A)
                 (A) (A) (A) (A) (A) (A) (A) (A) (A) (A) (A) (A)
                 (A) (A) (A) (A) (A) (A) (A) (A) (A) (A) (A) (A)
                 (A) (A) (A) (A) (A) (A) (A) (A) (A) (A) (A) (A)
                 (A) (A) (A) (A) (A) (A) (A) (A) (A) (A) (A) (A)
                 (A) (A) (A) (A) (A) (A) (A) (A) (A) (A) (A) (A)
                 (A) (A) (A) (A) (A) (A) (A) (A) (A) (A) (A) (A)
                 (A) (A) (A) (A) (A) (A) (A) (A) (A) (A) (A) (A)
                 (A) (A) (A) (A) (A) (A) (A) (A) (A) (A) (A) (A)
                 (A) (A) (A) (A) (A) (A) (A) (A) (A) (A) (A) (A)
                 (A) (A) (A) (A) (A) (A) (A) (A) (A) (A) (A) (A)
                 (A) (A) (A) (A) (A) (A) (A) (A) (A) (A) (A) (A)
                 (A) (A) (A) (A) (A) (A) (A) (A) (A) (A) (A) (A)
                 (A) (A) (A) (A) (A) (A) (A) (A) (A) (A) (A) (A)
                 (A) (A) (A) (A) (A) (A) (A) (A) (A) (A) (A) (A)
                 (A) (A) (A) (A) (A) (A) (A) (A) (A) (A) (A) (A)
                 (A) (A) (A) (A) (A) (A) (A) (A) (A) (A) (A) (A)
                 (A) (A) (A) (A) (A) (A) (A) (A) (A) (A) (A) (A)
                 (A) (A) (A) (A) (A) (A) (A) (A) (A) (A) (A) (A)
                 (A) (A) (A) (A) (A) (A) (A) (A) (A)
 The electronic state is 1-A.
 Alpha  occ. eigenvalues --  -91.99532 -91.99405 -91.98920 -11.29267 -11.28548
 Alpha  occ. eigenvalues --  -11.28093 -11.27969 -11.27965 -11.27842 -11.26568
 Alpha  occ. eigenvalues --  -11.26566 -11.26141 -11.25060 -11.24002  -8.99642
 Alpha  occ. eigenvalues --   -8.99487  -8.99073  -6.67808  -6.67727  -6.67649
 Alpha  occ. eigenvalues --   -6.67563  -6.67531  -6.67368  -6.67233  -6.67142
 Alpha  occ. eigenvalues --   -6.66964  -1.20615  -1.17664  -1.11839  -1.03477
 Alpha  occ. eigenvalues --   -1.02633  -1.01113  -0.94958  -0.94430  -0.91165
 Alpha  occ. eigenvalues --   -0.81931  -0.76808  -0.75946  -0.72500  -0.69650
 Alpha  occ. eigenvalues --   -0.66688  -0.66211  -0.60265  -0.58741  -0.58539
 Alpha  occ. eigenvalues --   -0.56770  -0.55676  -0.54116  -0.53545  -0.52414
 Alpha  occ. eigenvalues --   -0.51734  -0.50797  -0.49432  -0.47544  -0.46289
 Alpha  occ. eigenvalues --   -0.45728  -0.38975  -0.34293  -0.32667  -0.31963
 Alpha  occ. eigenvalues --   -0.28857
 Alpha virt. eigenvalues --    0.03428   0.03509   0.04139   0.04679   0.04903
 Alpha virt. eigenvalues --    0.05576   0.06428   0.07276   0.07471   0.08424
 Alpha virt. eigenvalues --    0.08776   0.08937   0.09618   0.10338   0.10698
 Alpha virt. eigenvalues --    0.11230   0.11807   0.12389   0.12654   0.12923
 Alpha virt. eigenvalues --    0.13114   0.13844   0.13985   0.14082   0.14616
 Alpha virt. eigenvalues --    0.14813   0.15164   0.15528   0.15650   0.15991
 Alpha virt. eigenvalues --    0.16654   0.16768   0.17334   0.17980   0.18214
 Alpha virt. eigenvalues --    0.18680   0.18985   0.19071   0.19890   0.20166
 Alpha virt. eigenvalues --    0.20377   0.20802   0.21168   0.21586   0.21608
 Alpha virt. eigenvalues --    0.22629   0.22789   0.22922   0.23173   0.23871
 Alpha virt. eigenvalues --    0.24575   0.24763   0.25079   0.25504   0.26344
 Alpha virt. eigenvalues --    0.26769   0.26933   0.27757   0.28915   0.28948
 Alpha virt. eigenvalues --    0.29364   0.29904   0.30455   0.31592   0.31972
 Alpha virt. eigenvalues --    0.32220   0.32673   0.32973   0.33338   0.33846
 Alpha virt. eigenvalues --    0.34278   0.34590   0.35357   0.35819   0.36422
 Alpha virt. eigenvalues --    0.36788   0.37183   0.38636   0.39728   0.39824
 Alpha virt. eigenvalues --    0.40149   0.40956   0.41196   0.41642   0.42429
 Alpha virt. eigenvalues --    0.43389   0.43681   0.44448   0.44607   0.45090
 Alpha virt. eigenvalues --    0.45607   0.46116   0.46244   0.47157   0.48227
 Alpha virt. eigenvalues --    0.48568   0.48930   0.49683   0.49793   0.50847
 Alpha virt. eigenvalues --    0.51759   0.52487   0.53284   0.53816   0.54309
 Alpha virt. eigenvalues --    0.55067   0.56612   0.57198   0.57497   0.58003
 Alpha virt. eigenvalues --    0.58555   0.58670   0.59533   0.60088   0.60836
 Alpha virt. eigenvalues --    0.61349   0.62335   0.62651   0.62870   0.63139
 Alpha virt. eigenvalues --    0.64061   0.64505   0.65599   0.65850   0.66617
 Alpha virt. eigenvalues --    0.66900   0.67983   0.68264   0.68364   0.68839
 Alpha virt. eigenvalues --    0.69385   0.69654   0.70168   0.70978   0.71485
 Alpha virt. eigenvalues --    0.71998   0.72360   0.73033   0.73288   0.74210
 Alpha virt. eigenvalues --    0.75229   0.75397   0.75417   0.76053   0.76601
 Alpha virt. eigenvalues --    0.76794   0.77194   0.77415   0.78533   0.79205
 Alpha virt. eigenvalues --    0.79780   0.80559   0.81679   0.82419   0.82819
 Alpha virt. eigenvalues --    0.83737   0.83893   0.85302   0.85544   0.86982
 Alpha virt. eigenvalues --    0.87485   0.88216   0.89317   0.89608   0.90148
 Alpha virt. eigenvalues --    0.91239   0.91570   0.92042   0.92828   0.93368
 Alpha virt. eigenvalues --    0.94730   0.94840   0.95509   0.95987   0.97005
 Alpha virt. eigenvalues --    0.97745   0.98242   0.98883   0.99591   1.00384
 Alpha virt. eigenvalues --    1.00931   1.02216   1.03397   1.04525   1.05643
 Alpha virt. eigenvalues --    1.05816   1.06823   1.07989   1.08490   1.10055
 Alpha virt. eigenvalues --    1.10909   1.11693   1.12002   1.13636   1.14706
 Alpha virt. eigenvalues --    1.15358   1.16983   1.17602   1.18639   1.19052
 Alpha virt. eigenvalues --    1.20561   1.21646   1.22372   1.24307   1.24633
 Alpha virt. eigenvalues --    1.24958   1.26005   1.26131   1.27398   1.28145
 Alpha virt. eigenvalues --    1.29123   1.30348   1.31335   1.32177   1.33028
 Alpha virt. eigenvalues --    1.33261   1.35443   1.36787   1.37058   1.37291
 Alpha virt. eigenvalues --    1.38170   1.40364   1.41927   1.44299   1.46256
 Alpha virt. eigenvalues --    1.47814   1.49225   1.49736   1.51012   1.52411
 Alpha virt. eigenvalues --    1.54391   1.54984   1.57078   1.58099   1.58610
 Alpha virt. eigenvalues --    1.59767   1.60396   1.61514   1.61782   1.64371
 Alpha virt. eigenvalues --    1.64542   1.65376   1.67365   1.67764   1.68366
 Alpha virt. eigenvalues --    1.68971   1.70015   1.70934   1.71891   1.72426
 Alpha virt. eigenvalues --    1.73830   1.74603   1.75648   1.76557   1.77938
 Alpha virt. eigenvalues --    1.79085   1.80423   1.81226   1.82261   1.83365
 Alpha virt. eigenvalues --    1.84499   1.85085   1.88135   1.89108   1.90012
 Alpha virt. eigenvalues --    1.90865   1.92514   1.94681   1.95615   1.96252
 Alpha virt. eigenvalues --    1.97057   1.97799   1.98908   1.99359   2.02398
 Alpha virt. eigenvalues --    2.04146   2.05715   2.05922   2.06320   2.08581
 Alpha virt. eigenvalues --    2.09373   2.09894   2.10685   2.12461   2.13221
 Alpha virt. eigenvalues --    2.14255   2.14597   2.15444   2.19155   2.19930
 Alpha virt. eigenvalues --    2.20422   2.22689   2.24023   2.24904   2.25646
 Alpha virt. eigenvalues --    2.27080   2.28110   2.29383   2.30892   2.31059
 Alpha virt. eigenvalues --    2.33396   2.34731   2.35831   2.37819   2.39122
 Alpha virt. eigenvalues --    2.41334   2.41930   2.42966   2.45033   2.45556
 Alpha virt. eigenvalues --    2.47151   2.49229   2.50902   2.51280   2.54000
 Alpha virt. eigenvalues --    2.54970   2.56790   2.59541   2.62850   2.68030
 Alpha virt. eigenvalues --    2.70283   2.71621   2.76429   2.79241   2.80683
 Alpha virt. eigenvalues --    2.83091   2.84177   2.88086   2.91419   2.93665
 Alpha virt. eigenvalues --    2.96789   2.98571   3.02306   3.03819   3.19453
 Alpha virt. eigenvalues --    3.20664   3.28525   3.29790   3.36866   3.47312
 Alpha virt. eigenvalues --    3.53491   3.69004   3.78109   4.11245   4.21335
          Condensed to atoms (all electrons):
               1          2          3          4          5          6
     1  C    9.895776  -2.168012  -1.021267  -0.860736   0.113993  -0.172142
     2  C   -2.168012   9.799632  -1.183813   0.392116   0.047330   0.186313
     3  C   -1.021267  -1.183813  12.948186  -0.713643  -1.532123  -0.065124
     4  C   -0.860736   0.392116  -0.713643   6.053010   0.176900   0.027103
     5  C    0.113993   0.047330  -1.532123   0.176900   6.816987  -0.031633
     6  H   -0.172142   0.186313  -0.065124   0.027103  -0.031633   1.510162
     7  S   -0.528550   0.096164  -0.456571   0.123932   0.435829  -0.003960
     8  H   -0.036809   0.106629  -0.033675   0.032678   0.268110  -0.060968
     9  C    0.410281  -0.890609  -1.665889  -0.114060   0.171515   0.056999
    10  S    0.006965   0.014823  -0.502868  -0.077021   0.019188   0.000983
    11  C    0.022042  -0.019381  -0.248456  -0.051636   0.021843   0.002472
    12  C   -0.031419   0.043440   0.473830   0.131569  -0.007142  -0.002837
    13  C   -0.141103   0.244937  -0.532336  -0.159107  -0.106326  -0.012183
    14  H    0.018185  -0.005356   0.112032   0.041713  -0.001548   0.000320
    15  S   -0.002168   0.003392  -0.072663  -0.008106  -0.000783  -0.000023
    16  C   -0.000534  -0.006569   0.033348  -0.001847   0.000503  -0.000028
    17  C    0.000222   0.001986  -0.382608  -0.022586  -0.001425  -0.000121
    18  H   -0.000071  -0.000021  -0.000090   0.000011   0.000026  -0.000006
    19  H   -0.000242  -0.000560  -0.009605  -0.000917  -0.000040  -0.000007
    20  H   -0.037653   0.033455   0.002429   0.306100   0.002250  -0.002343
    21  H   -0.066057   0.173576   0.014662   0.082306  -0.028724   0.002215
    22  H   -0.031930   0.075169   0.008872   0.269475   0.018317  -0.002334
               7          8          9         10         11         12
     1  C   -0.528550  -0.036809   0.410281   0.006965   0.022042  -0.031419
     2  C    0.096164   0.106629  -0.890609   0.014823  -0.019381   0.043440
     3  C   -0.456571  -0.033675  -1.665889  -0.502868  -0.248456   0.473830
     4  C    0.123932   0.032678  -0.114060  -0.077021  -0.051636   0.131569
     5  C    0.435829   0.268110   0.171515   0.019188   0.021843  -0.007142
     6  H   -0.003960  -0.060968   0.056999   0.000983   0.002472  -0.002837
     7  S   16.259576  -0.142677  -0.372330   0.179825   0.019989   0.009836
     8  H   -0.142677   1.212784  -0.017036   0.001057  -0.000204   0.000917
     9  C   -0.372330  -0.017036  11.856429   0.234940  -0.092003  -0.654070
    10  S    0.179825   0.001057   0.234940  16.392467   0.343151  -0.394690
    11  C    0.019989  -0.000204  -0.092003   0.343151  10.042628   0.065760
    12  C    0.009836   0.000917  -0.654070  -0.394690   0.065760  10.521478
    13  C   -0.020019  -0.000334  -2.630229  -0.397856  -1.211231  -2.653976
    14  H    0.008505  -0.000053   0.046454   0.027978  -0.049619   0.543365
    15  S    0.004142  -0.000076  -0.232983   0.078333  -0.082292  -0.211452
    16  C    0.003755   0.000048   0.046280  -0.083894  -0.180045  -0.688738
    17  C    0.019435  -0.000077  -0.544496  -0.264313  -2.431516  -0.890495
    18  H    0.000267   0.000003   0.005387   0.004537   0.026543  -0.017723
    19  H    0.002098  -0.000006   0.109831   0.013205   0.554026   0.036837
    20  H    0.003956   0.001218  -0.001908  -0.003137  -0.001587   0.002529
    21  H    0.006733  -0.000080  -0.091866   0.006105   0.005883   0.043336
    22  H    0.003955   0.001243   0.002834   0.002028  -0.002324  -0.003618
              13         14         15         16         17         18
     1  C   -0.141103   0.018185  -0.002168  -0.000534   0.000222  -0.000071
     2  C    0.244937  -0.005356   0.003392  -0.006569   0.001986  -0.000021
     3  C   -0.532336   0.112032  -0.072663   0.033348  -0.382608  -0.000090
     4  C   -0.159107   0.041713  -0.008106  -0.001847  -0.022586   0.000011
     5  C   -0.106326  -0.001548  -0.000783   0.000503  -0.001425   0.000026
     6  H   -0.012183   0.000320  -0.000023  -0.000028  -0.000121  -0.000006
     7  S   -0.020019   0.008505   0.004142   0.003755   0.019435   0.000267
     8  H   -0.000334  -0.000053  -0.000076   0.000048  -0.000077   0.000003
     9  C   -2.630229   0.046454  -0.232983   0.046280  -0.544496   0.005387
    10  S   -0.397856   0.027978   0.078333  -0.083894  -0.264313   0.004537
    11  C   -1.211231  -0.049619  -0.082292  -0.180045  -2.431516   0.026543
    12  C   -2.653976   0.543365  -0.211452  -0.688738  -0.890495  -0.017723
    13  C   13.944045  -0.862512  -0.014947  -0.131697   0.621183   0.029734
    14  H   -0.862512   1.611764  -0.034130   0.016889  -0.039828   0.001449
    15  S   -0.014947  -0.034130  15.888484   0.173547   0.031218  -0.153534
    16  C   -0.131697   0.016889   0.173547   6.466878   0.303890   0.270004
    17  C    0.621183  -0.039828   0.031218   0.303890   9.495142   0.004165
    18  H    0.029734   0.001449  -0.153534   0.270004   0.004165   1.241489
    19  H   -0.070052  -0.002514  -0.003704  -0.134278  -0.488973  -0.060058
    20  H   -0.015917   0.000838  -0.000170  -0.000118   0.000692   0.000033
    21  H    0.044470   0.005917   0.001941   0.001866  -0.017979  -0.000181
    22  H   -0.010629  -0.000092  -0.000807  -0.000051  -0.000647   0.000020
              19         20         21         22
     1  C   -0.000242  -0.037653  -0.066057  -0.031930
     2  C   -0.000560   0.033455   0.173576   0.075169
     3  C   -0.009605   0.002429   0.014662   0.008872
     4  C   -0.000917   0.306100   0.082306   0.269475
     5  C   -0.000040   0.002250  -0.028724   0.018317
     6  H   -0.000007  -0.002343   0.002215  -0.002334
     7  S    0.002098   0.003956   0.006733   0.003955
     8  H   -0.000006   0.001218  -0.000080   0.001243
     9  C    0.109831  -0.001908  -0.091866   0.002834
    10  S    0.013205  -0.003137   0.006105   0.002028
    11  C    0.554026  -0.001587   0.005883  -0.002324
    12  C    0.036837   0.002529   0.043336  -0.003618
    13  C   -0.070052  -0.015917   0.044470  -0.010629
    14  H   -0.002514   0.000838   0.005917  -0.000092
    15  S   -0.003704  -0.000170   0.001941  -0.000807
    16  C   -0.134278  -0.000118   0.001866  -0.000051
    17  C   -0.488973   0.000692  -0.017979  -0.000647
    18  H   -0.060058   0.000033  -0.000181   0.000020
    19  H    1.351822  -0.000011   0.000182  -0.000022
    20  H   -0.000011   0.911932  -0.110613  -0.113264
    21  H    0.000182  -0.110613   1.102340  -0.097319
    22  H   -0.000022  -0.113264  -0.097319   0.773887
 Mulliken charges:
               1
     1  C    0.631229
     2  C   -0.944642
     3  C    0.827373
     4  C    0.372745
     5  C   -0.383046
     6  H   -0.432859
     7  S    0.346109
     8  H   -0.332694
     9  C    0.366529
    10  S    0.398195
    11  C   -0.734045
    12  C   -0.316739
    13  C    0.086083
    14  H   -0.439756
    15  S    0.636780
    16  C   -0.089210
    17  C    0.607130
    18  H   -0.351983
    19  H   -0.297012
    20  H    0.021289
    21  H   -0.078713
    22  H    0.107235
 Sum of Mulliken charges =  -0.00000
 Mulliken charges with hydrogens summed into heavy atoms:
               1
     1  C    0.198370
     2  C   -0.944642
     3  C    0.827373
     4  C    0.422556
     5  C   -0.715739
     7  S    0.346109
     9  C    0.366529
    10  S    0.398195
    11  C   -0.734045
    12  C   -0.316739
    13  C   -0.353673
    15  S    0.636780
    16  C   -0.441193
    17  C    0.310118
 Electronic spatial extent (au):  <R**2>=           4361.6053
 Charge=              0.0000 electrons
 Dipole moment (field-independent basis, Debye):
    X=              0.2808    Y=              1.0213    Z=              0.6446  Tot=              1.2400
 Quadrupole moment (field-independent basis, Debye-Ang):
   XX=            -87.6874   YY=           -103.1280   ZZ=           -107.1106
   XY=              5.1530   XZ=             -2.0434   YZ=             -1.4797
 Traceless Quadrupole moment (field-independent basis, Debye-Ang):
   XX=             11.6213   YY=             -3.8193   ZZ=             -7.8019
   XY=              5.1530   XZ=             -2.0434   YZ=             -1.4797
 Octapole moment (field-independent basis, Debye-Ang**2):
  XXX=              0.0834  YYY=              5.2325  ZZZ=              2.9545  XYY=              6.6210
  XXY=            -12.8269  XXZ=             10.3605  XZZ=             -0.5319  YZZ=              0.9408
  YYZ=              2.7587  XYZ=             19.4206
 Hexadecapole moment (field-independent basis, Debye-Ang**3):
 XXXX=          -4158.1219 YYYY=           -842.6951 ZZZZ=           -513.6541 XXXY=             18.8308
 XXXZ=            -68.8138 YYYX=             20.0695 YYYZ=            -10.7536 ZZZX=              4.6528
 ZZZY=             -6.2256 XXYY=           -938.6049 XXZZ=           -932.8836 YYZZ=           -210.5100
 XXYZ=             10.4327 YYXZ=             -9.0278 ZZXY=              9.7382
 N-N= 1.116559362259D+03 E-N=-6.052493897728D+03  KE= 1.612908757082D+03
 Unable to Open any file for archive entry.
 1\1\GINC-CX3-11-0\FOpt\RMP2-FC\Aug-CC-pVDZ\C11H8S3\NS5018\27-Oct-2021\
 0\\# opt=modredundant mp2/aug-cc-pvdz\\pBTTT_-105.pdb\\0,1\C,3.9831377
 368,0.6848154005,0.2001273696\C,2.600596396,0.9630312606,0.4195750928\
 C,1.7777542115,-0.0252214296,-0.1396758328\C,2.0700715955,2.1602530852
 ,1.1667969012\C,4.2036302275,-0.4995245784,-0.497056323\H,4.7981000452
 ,1.3242082349,0.5500947203\S,2.7160574065,-1.2831693322,-0.9022448952\
 H,5.1545614999,-0.9451979954,-0.7912878851\C,0.3173924404,-0.087761091
 5,-0.0958477876\S,-0.4896401677,-1.2313462001,0.9792505698\C,-2.056863
 9574,-0.6268801636,0.5203709208\C,-1.9310253114,0.4293814749,-0.417881
 3998\C,-0.5869901574,0.7345657756,-0.7693313995\H,-0.2598279909,1.4986
 831515,-1.4775851796\S,-3.4985939497,1.032103303,-0.8807041582\C,-4.29
 2184633,-0.1191338781,0.1702354058\C,-3.4070807316,-0.9423361027,0.854
 9112359\H,-5.3817353084,-0.1222830638,0.2263596028\H,-3.7278209435,-1.
 7177642376,1.5527014919\H,2.5826103133,2.2730432257,2.1355468248\H,0.9
 905021478,2.0520955061,1.3516339895\H,2.2283491307,3.088437655,0.59301
 07355\\Version=ES64L-G16RevC.01\State=1-A\HF=-1613.8035982\MP2=-1615.7
 513813\RMSD=5.329e-09\RMSF=2.713e-04\Dipole=0.0459307,0.2887611,0.1827
 63\PG=C01 [X(C11H8S3)]\\@
 The archive entry for this job was punched.


 ALTHOUGH J.J. COULD DIAGNOSE THE FAULTS OF AN
 APPARATUS WITH UNCANNY ACCURACY, IT WAS JUST AS
 WELL NOT TO LET HIM HANDLE IT.
   -- GEORGE THOMPSON, ABOUT HIS FATHER
 Job cpu time:       0 days 21 hours 41 minutes 26.1 seconds.
 Elapsed time:       0 days  1 hours 35 minutes 26.9 seconds.
 File lengths (MBytes):  RWF=  36444 Int=      0 D2E=      0 Chk=     18 Scr=      1
 Normal termination of Gaussian 16 at Wed Oct 27 01:13:42 2021.
