 Entering Gaussian System, Link 0=g16
 Input=NDI_-160.gjf
 Output=NDI_-160.log
 Initial command:
 /apps/gaussian/g16-c01-avx/g16/l1.exe "/rds/general/ephemeral/tmpdir/pbs.2671500[4].pbs/Gau-1285561.inp" -scrdir="/rds/general/ephemeral/tmpdir/pbs.2671500[4].pbs/"
 Entering Link 1 = /apps/gaussian/g16-c01-avx/g16/l1.exe PID=   1285562.
  
 Copyright (c) 1988-2019, Gaussian, Inc.  All Rights Reserved.
  
 This is part of the Gaussian(R) 16 program.  It is based on
 the Gaussian(R) 09 system (copyright 2009, Gaussian, Inc.),
 the Gaussian(R) 03 system (copyright 2003, Gaussian, Inc.),
 the Gaussian(R) 98 system (copyright 1998, Gaussian, Inc.),
 the Gaussian(R) 94 system (copyright 1995, Gaussian, Inc.),
 the Gaussian 92(TM) system (copyright 1992, Gaussian, Inc.),
 the Gaussian 90(TM) system (copyright 1990, Gaussian, Inc.),
 the Gaussian 88(TM) system (copyright 1988, Gaussian, Inc.),
 the Gaussian 86(TM) system (copyright 1986, Carnegie Mellon
 University), and the Gaussian 82(TM) system (copyright 1983,
 Carnegie Mellon University). Gaussian is a federally registered
 trademark of Gaussian, Inc.
  
 This software contains proprietary and confidential information,
 including trade secrets, belonging to Gaussian, Inc.
  
 This software is provided under written license and may be
 used, copied, transmitted, or stored only in accord with that
 written license.
  
 The following legend is applicable only to US Government
 contracts under FAR:
  
                    RESTRICTED RIGHTS LEGEND
  
 Use, reproduction and disclosure by the US Government is
 subject to restrictions as set forth in subparagraphs (a)
 and (c) of the Commercial Computer Software - Restricted
 Rights clause in FAR 52.227-19.
  
 Gaussian, Inc.
 340 Quinnipiac St., Bldg. 40, Wallingford CT 06492
  
  
 ---------------------------------------------------------------
 Warning -- This program may not be used in any manner that
 competes with the business of Gaussian, Inc. or will provide
 assistance to any competitor of Gaussian, Inc.  The licensee
 of this program is prohibited from giving any competitor of
 Gaussian, Inc. access to this program.  By using this program,
 the user acknowledges that Gaussian, Inc. is engaged in the
 business of creating and licensing software in the field of
 computational chemistry and represents and warrants to the
 licensee that it is not a competitor of Gaussian, Inc. and that
 it will not use this program in any manner prohibited above.
 ---------------------------------------------------------------
  

 Cite this work as:
 Gaussian 16, Revision C.01,
 M. J. Frisch, G. W. Trucks, H. B. Schlegel, G. E. Scuseria, 
 M. A. Robb, J. R. Cheeseman, G. Scalmani, V. Barone, 
 G. A. Petersson, H. Nakatsuji, X. Li, M. Caricato, A. V. Marenich, 
 J. Bloino, B. G. Janesko, R. Gomperts, B. Mennucci, H. P. Hratchian, 
 J. V. Ortiz, A. F. Izmaylov, J. L. Sonnenberg, D. Williams-Young, 
 F. Ding, F. Lipparini, F. Egidi, J. Goings, B. Peng, A. Petrone, 
 T. Henderson, D. Ranasinghe, V. G. Zakrzewski, J. Gao, N. Rega, 
 G. Zheng, W. Liang, M. Hada, M. Ehara, K. Toyota, R. Fukuda, 
 J. Hasegawa, M. Ishida, T. Nakajima, Y. Honda, O. Kitao, H. Nakai, 
 T. Vreven, K. Throssell, J. A. Montgomery, Jr., J. E. Peralta, 
 F. Ogliaro, M. J. Bearpark, J. J. Heyd, E. N. Brothers, K. N. Kudin, 
 V. N. Staroverov, T. A. Keith, R. Kobayashi, J. Normand, 
 K. Raghavachari, A. P. Rendell, J. C. Burant, S. S. Iyengar, 
 J. Tomasi, M. Cossi, J. M. Millam, M. Klene, C. Adamo, R. Cammi, 
 J. W. Ochterski, R. L. Martin, K. Morokuma, O. Farkas, 
 J. B. Foresman, and D. J. Fox, Gaussian, Inc., Wallingford CT, 2019.
 
 ******************************************
 Gaussian 16:  ES64L-G16RevC.01  3-Jul-2019
                 9-Dec-2020 
 ******************************************
 %mem=480GB
 %nprocshared=40
 Will use up to   40 processors via shared memory.
 -------------------------------
 # mp2/aug-cc-pvdz MaxDisk=400GB
 -------------------------------
 1/38=1,172=1/1;
 2/12=2,17=6,18=5,40=1/2;
 3/5=16,7=10,11=9,25=1,30=1/1,2,3;
 4//1;
 5/5=2,38=5/2;
 8/10=1/1;
 9/16=-3/6;
 6/7=2,8=2,9=2,10=2/1;
 99/5=1,9=1/99;
 ------------------
 NDI_-160_b3lyp.pdb
 ------------------
 Symbolic Z-matrix:
 Charge =  0 Multiplicity = 1
 C                    -3.424    -2.695     0.363 
 C                    -2.739    -1.392     0.154 
 C                    -3.485    -0.193     0.083 
 C                    -4.889    -0.216     0.185 
 C                    -5.607    -1.502     0.386 
 C                    -1.378    -1.364     0.039 
 C                    -2.779     1.027    -0.086 
 C                    -1.349     1.049    -0.165 
 C                    -0.609    -0.167    -0.151 
 C                    -0.71      2.372    -0.289 
 C                    -2.911     3.524    -0.414 
 C                    -3.553     2.212    -0.187 
 C                    -4.938     2.17     -0.097 
 C                    -5.613     0.964     0.097 
 H                    -6.692     0.928     0.175 
 H                    -5.481     3.103    -0.186 
 H                    -0.872    -2.31      0.147 
 N                    -1.518     3.504    -0.484 
 N                    -4.817    -2.663     0.467 
 O                    -2.823    -3.753     0.437 
 O                    -6.819    -1.559     0.479 
 O                    -3.545     4.559    -0.532 
 O                     0.499     2.54     -0.231 
 C                    -0.812     4.779    -0.668 
 H                    -0.284     5.054     0.246 
 H                    -0.082     4.677    -1.47 
 H                    -1.553     5.534    -0.913 
 C                    -5.487    -3.956     0.67 
 H                    -5.262    -4.622    -0.164 
 H                    -5.123    -4.418     1.588 
 H                    -6.554    -3.773     0.733 
 C                     0.829    -0.42     -0.289 
 C                     1.327    -1.674    -0.654 
 S                     2.173     0.626     0.153 
 C                     2.717    -1.792    -0.571 
 H                     0.7      -2.475    -1.013 
 C                     3.351    -0.638    -0.103 
 O                     3.464    -2.88     -0.899 
 C                     4.759    -0.446     0.104 
 C                     2.783    -4.061    -1.311 
 C                     5.403     0.699     0.566 
 S                     5.957    -1.7      -0.206 
 H                     3.557    -4.803    -1.496 
 H                     2.111    -4.423    -0.526 
 H                     2.216    -3.888    -2.232 
 C                     6.815     0.573     0.667 
 O                     4.669     1.796     0.874 
 C                     7.246    -0.667     0.284 
 H                     7.478     1.356     1.006 
 C                     5.351     2.969     1.307 
 H                     8.261    -1.033     0.263 
 H                     6.041     3.329     0.537 
 H                     4.577     3.715     1.479 
 H                     5.896     2.787     2.238 
 
 Stoichiometry    C26H18N2O6S2
 Framework group  C1[X(C26H18N2O6S2)]
 Deg. of freedom   156
 Full point group                 C1      NOp   1
 Largest Abelian subgroup         C1      NOp   1
 Largest concise Abelian subgroup C1      NOp   1
                         Standard orientation:                         
 ---------------------------------------------------------------------
 Center     Atomic      Atomic             Coordinates (Angstroms)
 Number     Number       Type             X           Y           Z
 ---------------------------------------------------------------------
      1          6           0       -3.423957   -2.695116    0.363041
      2          6           0       -2.739009   -1.392089    0.154041
      3          6           0       -3.485056   -0.193119    0.083041
      4          6           0       -4.889055   -0.216174    0.185041
      5          6           0       -5.607004   -1.502202    0.386041
      6          6           0       -1.378010   -1.364036    0.039041
      7          6           0       -2.779104    1.026909   -0.085959
      8          6           0       -1.349105    1.048965   -0.164959
      9          6           0       -0.609057   -0.167005   -0.150959
     10          6           0       -0.710157    2.371991   -0.288959
     11          6           0       -2.911202    3.523904   -0.413959
     12          6           0       -3.553151    2.211879   -0.186959
     13          6           0       -4.938149    2.169824   -0.096959
     14          6           0       -5.613101    0.963797    0.097041
     15          1           0       -6.692100    0.927755    0.175041
     16          1           0       -5.481186    3.102803   -0.185959
     17          1           0       -0.871972   -2.310016    0.147041
     18          7           0       -1.518202    3.503959   -0.483959
     19          7           0       -4.816958   -2.663171    0.467041
     20          8           0       -2.822916   -3.753093    0.437041
     21          8           0       -6.819002   -1.559250    0.479041
     22          8           0       -3.545243    4.558879   -0.531959
     23          8           0        0.498836    2.540038   -0.230959
     24          6           0       -0.812252    4.778987   -0.667959
     25          1           0       -0.284263    5.054007    0.246041
     26          1           0       -0.082248    4.677015   -1.469959
     27          1           0       -1.553281    5.533957   -0.912959
     28          6           0       -5.486908   -3.956198    0.670041
     29          1           0       -5.261881   -4.622189   -0.163959
     30          1           0       -5.122889   -4.418183    1.588041
     31          1           0       -6.553915   -3.773240    0.733041
     32          6           0        0.828953   -0.419949   -0.288959
     33          6           0        1.327003   -1.673929   -0.653959
     34         16           0        2.172912    0.626104    0.153041
     35          6           0        2.717007   -1.791874   -0.570959
     36          1           0        0.700034   -2.474954   -1.012959
     37          6           0        3.350962   -0.637849   -0.102959
     38          8           0        3.464050   -2.879845   -0.898959
     39          6           0        4.758954   -0.445794    0.104041
     40          6           0        2.783097   -4.060872   -1.310959
     41          6           0        5.402909    0.699232    0.566041
     42         16           0        5.957004   -1.699747   -0.205959
     43          1           0        3.557126   -4.802841   -1.495959
     44          1           0        2.111111   -4.422898   -0.525959
     45          1           0        2.216090   -3.887894   -2.231959
     46          6           0        6.814914    0.573287    0.667041
     47          8           0        4.668866    1.796203    0.874041
     48          6           0        7.245963   -0.666696    0.284041
     49          1           0        7.477883    1.356313    1.006041
     50          6           0        5.350820    2.969230    1.307041
     51          1           0        8.260977   -1.032656    0.263041
     52          1           0        6.040805    3.329257    0.537041
     53          1           0        4.576790    3.715199    1.479041
     54          1           0        5.895827    2.787251    2.238041
 ---------------------------------------------------------------------
 Rotational constants (GHZ):           0.1655777           0.0573829           0.0437202
 Standard basis: Aug-CC-pVDZ (5D, 7F)
 There are  1070 symmetry adapted cartesian basis functions of A   symmetry.
 There are   998 symmetry adapted basis functions of A   symmetry.
   998 basis functions,  1822 primitive gaussians,  1070 cartesian basis functions
   134 alpha electrons      134 beta electrons
       nuclear repulsion energy      4092.3066975175 Hartrees.
 NAtoms=   54 NActive=   54 NUniq=   54 SFac= 1.00D+00 NAtFMM=   60 NAOKFM=F Big=F
 Integral buffers will be    131072 words long.
 Raffenetti 1 integral format.
 Two-electron integral symmetry is turned on.
 One-electron integrals computed using PRISM.
 NBasis=   998 RedAO= T EigKep=  1.07D-06  NBF=   998
 NBsUse=   988 1.00D-06 EigRej=  8.53D-07 NBFU=   988
 ExpMin= 2.97D-02 ExpMax= 1.11D+05 ExpMxC= 1.07D+03 IAcc=3 IRadAn=         5 AccDes= 0.00D+00
 Harris functional with IExCor=  205 and IRadAn=       5 diagonalized for initial guess.
 HarFok:  IExCor=  205 AccDes= 0.00D+00 IRadAn=         5 IDoV= 1 UseB2=F ITyADJ=14
 ICtDFT=  3500011 ScaDFX=  1.000000  1.000000  1.000000  1.000000
 FoFCou: FMM=F IPFlag=           0 FMFlag=      100000 FMFlg1=           0
         NFxFlg=           0 DoJE=T BraDBF=F KetDBF=T FulRan=T
         wScrn=  0.000000 ICntrl=       500 IOpCl=  0 I1Cent=   200000004 NGrid=           0
         NMat0=    1 NMatS0=      1 NMatT0=    0 NMatD0=    1 NMtDS0=    0 NMtDT0=    0
 Petite list used in FoFCou.
 Requested convergence on RMS density matrix=1.00D-08 within 128 cycles.
 Requested convergence on MAX density matrix=1.00D-06.
 Requested convergence on             energy=1.00D-06.
 No special actions if energy rises.
 SCF Done:  E(RHF) =  -2348.39711647     A.U. after   19 cycles
            NFock= 19  Conv=0.92D-08     -V/T= 2.0008
 ExpMin= 2.97D-02 ExpMax= 1.11D+05 ExpMxC= 1.07D+03 IAcc=3 IRadAn=         5 AccDes= 0.00D+00
 HarFok:  IExCor=  205 AccDes= 0.00D+00 IRadAn=         5 IDoV=-2 UseB2=F ITyADJ=14
 ICtDFT= 12500011 ScaDFX=  1.000000  1.000000  1.000000  1.000000
 GSVD:  LWork=       -2288 too small for GESVD, short by       10340 words or       10340 for optimal perf.
 Range of M.O.s used for correlation:    45   988
 NBasis=   998 NAE=   134 NBE=   134 NFC=    44 NFV=     0
 NROrb=    944 NOA=    90 NOB=    90 NVA=   854 NVB=   854

 **** Warning!!: The largest alpha MO coefficient is  0.18172305D+03

 Disk-based method using OVN memory for 30 occupieds at a time.
 Estimated scratch disk usage= 45876994836 words.
 Actual    scratch disk usage= 33627194132 words.
 JobTyp=1 Pass  1:  I=   1 to  30 NPSUse= 40 ParTrn=T ParDer=T DoDerP=F.
 (rs|ai) integrals will be sorted in core.
 JobTyp=1 Pass  2:  I=  31 to  60 NPSUse= 40 ParTrn=T ParDer=T DoDerP=F.
 (rs|ai) integrals will be sorted in core.
 JobTyp=1 Pass  3:  I=  61 to  90 NPSUse= 40 ParTrn=T ParDer=T DoDerP=F.
 (rs|ai) integrals will be sorted in core.
 Spin components of T(2) and E(2):
     alpha-alpha T2 =       0.2778904781D+00 E2=     -0.7401533733D+00
     alpha-beta  T2 =       0.1356044880D+01 E2=     -0.3849315677D+01
     beta-beta   T2 =       0.2778904781D+00 E2=     -0.7401533733D+00
 ANorm=    0.1706407289D+01
 E2 =    -0.5329622424D+01 EUMP2 =    -0.23537267388902D+04

 **********************************************************************

            Population analysis using the SCF Density.

 **********************************************************************

 Orbital symmetries:
       Occupied  (A) (A) (A) (A) (A) (A) (A) (A) (A) (A) (A) (A)
                 (A) (A) (A) (A) (A) (A) (A) (A) (A) (A) (A) (A)
                 (A) (A) (A) (A) (A) (A) (A) (A) (A) (A) (A) (A)
                 (A) (A) (A) (A) (A) (A) (A) (A) (A) (A) (A) (A)
                 (A) (A) (A) (A) (A) (A) (A) (A) (A) (A) (A) (A)
                 (A) (A) (A) (A) (A) (A) (A) (A) (A) (A) (A) (A)
                 (A) (A) (A) (A) (A) (A) (A) (A) (A) (A) (A) (A)
                 (A) (A) (A) (A) (A) (A) (A) (A) (A) (A) (A) (A)
                 (A) (A) (A) (A) (A) (A) (A) (A) (A) (A) (A) (A)
                 (A) (A) (A) (A) (A) (A) (A) (A) (A) (A) (A) (A)
                 (A) (A) (A) (A) (A) (A) (A) (A) (A) (A) (A) (A)
                 (A) (A)
       Virtual   (A) (A) (A) (A) (A) (A) (A) (A) (A) (A) (A) (A)
                 (A) (A) (A) (A) (A) (A) (A) (A) (A) (A) (A) (A)
                 (A) (A) (A) (A) (A) (A) (A) (A) (A) (A) (A) (A)
                 (A) (A) (A) (A) (A) (A) (A) (A) (A) (A) (A) (A)
                 (A) (A) (A) (A) (A) (A) (A) (A) (A) (A) (A) (A)
                 (A) (A) (A) (A) (A) (A) (A) (A) (A) (A) (A) (A)
                 (A) (A) (A) (A) (A) (A) (A) (A) (A) (A) (A) (A)
                 (A) (A) (A) (A) (A) (A) (A) (A) (A) (A) (A) (A)
                 (A) (A) (A) (A) (A) (A) (A) (A) (A) (A) (A) (A)
                 (A) (A) (A) (A) (A) (A) (A) (A) (A) (A) (A) (A)
                 (A) (A) (A) (A) (A) (A) (A) (A) (A) (A) (A) (A)
                 (A) (A) (A) (A) (A) (A) (A) (A) (A) (A) (A) (A)
                 (A) (A) (A) (A) (A) (A) (A) (A) (A) (A) (A) (A)
                 (A) (A) (A) (A) (A) (A) (A) (A) (A) (A) (A) (A)
                 (A) (A) (A) (A) (A) (A) (A) (A) (A) (A) (A) (A)
                 (A) (A) (A) (A) (A) (A) (A) (A) (A) (A) (A) (A)
                 (A) (A) (A) (A) (A) (A) (A) (A) (A) (A) (A) (A)
                 (A) (A) (A) (A) (A) (A) (A) (A) (A) (A) (A) (A)
                 (A) (A) (A) (A) (A) (A) (A) (A) (A) (A) (A) (A)
                 (A) (A) (A) (A) (A) (A) (A) (A) (A) (A) (A) (A)
                 (A) (A) (A) (A) (A) (A) (A) (A) (A) (A) (A) (A)
                 (A) (A) (A) (A) (A) (A) (A) (A) (A) (A) (A) (A)
                 (A) (A) (A) (A) (A) (A) (A) (A) (A) (A) (A) (A)
                 (A) (A) (A) (A) (A) (A) (A) (A) (A) (A) (A) (A)
                 (A) (A) (A) (A) (A) (A) (A) (A) (A) (A) (A) (A)
                 (A) (A) (A) (A) (A) (A) (A) (A) (A) (A) (A) (A)
                 (A) (A) (A) (A) (A) (A) (A) (A) (A) (A) (A) (A)
                 (A) (A) (A) (A) (A) (A) (A) (A) (A) (A) (A) (A)
                 (A) (A) (A) (A) (A) (A) (A) (A) (A) (A) (A) (A)
                 (A) (A) (A) (A) (A) (A) (A) (A) (A) (A) (A) (A)
                 (A) (A) (A) (A) (A) (A) (A) (A) (A) (A) (A) (A)
                 (A) (A) (A) (A) (A) (A) (A) (A) (A) (A) (A) (A)
                 (A) (A) (A) (A) (A) (A) (A) (A) (A) (A) (A) (A)
                 (A) (A) (A) (A) (A) (A) (A) (A) (A) (A) (A) (A)
                 (A) (A) (A) (A) (A) (A) (A) (A) (A) (A) (A) (A)
                 (A) (A) (A) (A) (A) (A) (A) (A) (A) (A) (A) (A)
                 (A) (A) (A) (A) (A) (A) (A) (A) (A) (A) (A) (A)
                 (A) (A) (A) (A) (A) (A) (A) (A) (A) (A) (A) (A)
                 (A) (A) (A) (A) (A) (A) (A) (A) (A) (A) (A) (A)
                 (A) (A) (A) (A) (A) (A) (A) (A) (A) (A) (A) (A)
                 (A) (A) (A) (A) (A) (A) (A) (A) (A) (A) (A) (A)
                 (A) (A) (A) (A) (A) (A) (A) (A) (A) (A) (A) (A)
                 (A) (A) (A) (A) (A) (A) (A) (A) (A) (A) (A) (A)
                 (A) (A) (A) (A) (A) (A) (A) (A) (A) (A) (A) (A)
                 (A) (A) (A) (A) (A) (A) (A) (A) (A) (A) (A) (A)
                 (A) (A) (A) (A) (A) (A) (A) (A) (A) (A) (A) (A)
                 (A) (A) (A) (A) (A) (A) (A) (A) (A) (A) (A) (A)
                 (A) (A) (A) (A) (A) (A) (A) (A) (A) (A) (A) (A)
                 (A) (A) (A) (A) (A) (A) (A) (A) (A) (A) (A) (A)
                 (A) (A) (A) (A) (A) (A) (A) (A) (A) (A) (A) (A)
                 (A) (A) (A) (A) (A) (A) (A) (A) (A) (A) (A) (A)
                 (A) (A) (A) (A) (A) (A) (A) (A) (A) (A) (A) (A)
                 (A) (A) (A) (A) (A) (A) (A) (A) (A) (A) (A) (A)
                 (A) (A) (A) (A) (A) (A) (A) (A) (A) (A) (A) (A)
                 (A) (A) (A) (A) (A) (A) (A) (A) (A) (A) (A) (A)
                 (A) (A) (A) (A) (A) (A) (A) (A) (A) (A) (A) (A)
                 (A) (A) (A) (A) (A) (A) (A) (A) (A) (A) (A) (A)
                 (A) (A) (A) (A) (A) (A) (A) (A) (A) (A) (A) (A)
                 (A) (A) (A) (A) (A) (A) (A) (A) (A) (A) (A) (A)
                 (A) (A) (A) (A) (A) (A) (A) (A) (A) (A) (A) (A)
                 (A) (A) (A) (A) (A) (A) (A) (A) (A) (A) (A) (A)
                 (A) (A) (A) (A) (A) (A) (A) (A) (A) (A) (A) (A)
                 (A) (A) (A) (A) (A) (A) (A) (A) (A) (A) (A) (A)
                 (A) (A) (A) (A) (A) (A) (A) (A) (A) (A) (A) (A)
                 (A) (A) (A) (A) (A) (A) (A) (A) (A) (A) (A) (A)
                 (A) (A) (A) (A) (A) (A) (A) (A) (A) (A) (A) (A)
                 (A) (A) (A) (A) (A) (A) (A) (A) (A) (A) (A) (A)
                 (A) (A) (A) (A) (A) (A) (A) (A) (A) (A) (A) (A)
                 (A) (A) (A) (A) (A) (A) (A) (A) (A) (A) (A) (A)
                 (A) (A) (A) (A) (A) (A) (A) (A) (A) (A) (A) (A)
                 (A) (A) (A) (A) (A) (A) (A) (A) (A) (A) (A) (A)
                 (A) (A)
 The electronic state is 1-A.
 Alpha  occ. eigenvalues --  -91.98744 -91.98734 -20.60393 -20.60098 -20.56932
 Alpha  occ. eigenvalues --  -20.56892 -20.56196 -20.56018 -15.64022 -15.63395
 Alpha  occ. eigenvalues --  -11.40020 -11.39866 -11.39328 -11.39155 -11.31913
 Alpha  occ. eigenvalues --  -11.31572 -11.30530 -11.30037 -11.29999 -11.29986
 Alpha  occ. eigenvalues --  -11.29295 -11.29251 -11.29108 -11.29041 -11.28691
 Alpha  occ. eigenvalues --  -11.28688 -11.28412 -11.28171 -11.28120 -11.28006
 Alpha  occ. eigenvalues --  -11.27921 -11.27445 -11.27209 -11.26947 -11.25858
 Alpha  occ. eigenvalues --  -11.25039  -8.98819  -8.98670  -6.66975  -6.66879
 Alpha  occ. eigenvalues --   -6.66779  -6.66692  -6.66685  -6.66496  -1.43495
 Alpha  occ. eigenvalues --   -1.43007  -1.42431  -1.42051  -1.41528  -1.40889
 Alpha  occ. eigenvalues --   -1.27602  -1.26982  -1.22917  -1.19047  -1.17329
 Alpha  occ. eigenvalues --   -1.15307  -1.12589  -1.07848  -1.05724  -1.03732
 Alpha  occ. eigenvalues --   -1.00904  -1.00134  -0.99555  -0.97801  -0.96953
 Alpha  occ. eigenvalues --   -0.96056  -0.94024  -0.92352  -0.89786  -0.88785
 Alpha  occ. eigenvalues --   -0.88246  -0.86852  -0.81512  -0.79917  -0.78883
 Alpha  occ. eigenvalues --   -0.77948  -0.76460  -0.74665  -0.73727  -0.73236
 Alpha  occ. eigenvalues --   -0.72140  -0.70445  -0.69553  -0.67932  -0.67240
 Alpha  occ. eigenvalues --   -0.66710  -0.66574  -0.66499  -0.66165  -0.65909
 Alpha  occ. eigenvalues --   -0.65352  -0.64946  -0.64322  -0.63806  -0.63518
 Alpha  occ. eigenvalues --   -0.62651  -0.61616  -0.60944  -0.59925  -0.59322
 Alpha  occ. eigenvalues --   -0.59077  -0.57302  -0.57095  -0.56663  -0.56646
 Alpha  occ. eigenvalues --   -0.56508  -0.56370  -0.56208  -0.55738  -0.55455
 Alpha  occ. eigenvalues --   -0.53636  -0.53122  -0.52723  -0.52227  -0.51352
 Alpha  occ. eigenvalues --   -0.50994  -0.49412  -0.48266  -0.48233  -0.46931
 Alpha  occ. eigenvalues --   -0.46600  -0.46290  -0.45985  -0.45567  -0.43396
 Alpha  occ. eigenvalues --   -0.42868  -0.41885  -0.41239  -0.39076  -0.34985
 Alpha  occ. eigenvalues --   -0.33904  -0.33394  -0.33023  -0.25069
 Alpha virt. eigenvalues --   -0.01750   0.02951   0.03329   0.03550   0.04013
 Alpha virt. eigenvalues --    0.04242   0.04279   0.04858   0.05147   0.05431
 Alpha virt. eigenvalues --    0.05631   0.05870   0.06172   0.06265   0.06751
 Alpha virt. eigenvalues --    0.06842   0.06892   0.07357   0.07727   0.07954
 Alpha virt. eigenvalues --    0.08577   0.09048   0.09077   0.09318   0.09534
 Alpha virt. eigenvalues --    0.09938   0.10196   0.10707   0.10822   0.11260
 Alpha virt. eigenvalues --    0.11687   0.11925   0.12195   0.12432   0.12771
 Alpha virt. eigenvalues --    0.13107   0.13363   0.13482   0.13709   0.14018
 Alpha virt. eigenvalues --    0.14135   0.14305   0.14631   0.14794   0.14957
 Alpha virt. eigenvalues --    0.15036   0.15199   0.15605   0.15814   0.16001
 Alpha virt. eigenvalues --    0.16148   0.16363   0.16577   0.16718   0.16778
 Alpha virt. eigenvalues --    0.16933   0.17254   0.17292   0.17568   0.17885
 Alpha virt. eigenvalues --    0.18109   0.18318   0.18523   0.18653   0.18875
 Alpha virt. eigenvalues --    0.19254   0.19556   0.19726   0.19970   0.20093
 Alpha virt. eigenvalues --    0.20199   0.20249   0.20570   0.20785   0.21072
 Alpha virt. eigenvalues --    0.21256   0.21421   0.21567   0.21588   0.21767
 Alpha virt. eigenvalues --    0.22390   0.22591   0.22853   0.23082   0.23416
 Alpha virt. eigenvalues --    0.23649   0.23829   0.23948   0.24214   0.24277
 Alpha virt. eigenvalues --    0.24455   0.24655   0.24717   0.25113   0.25190
 Alpha virt. eigenvalues --    0.25661   0.26133   0.26303   0.26562   0.26780
 Alpha virt. eigenvalues --    0.27008   0.27775   0.27964   0.28027   0.28389
 Alpha virt. eigenvalues --    0.28698   0.28817   0.28927   0.29384   0.29587
 Alpha virt. eigenvalues --    0.29790   0.29866   0.30431   0.30803   0.30908
 Alpha virt. eigenvalues --    0.31034   0.31122   0.31457   0.31613   0.31782
 Alpha virt. eigenvalues --    0.31944   0.32091   0.32353   0.32397   0.32685
 Alpha virt. eigenvalues --    0.32928   0.33102   0.33367   0.33456   0.33772
 Alpha virt. eigenvalues --    0.33857   0.33887   0.34426   0.34455   0.34605
 Alpha virt. eigenvalues --    0.35020   0.35081   0.35391   0.35411   0.35849
 Alpha virt. eigenvalues --    0.36051   0.36227   0.36353   0.36627   0.36848
 Alpha virt. eigenvalues --    0.37034   0.37234   0.37413   0.37696   0.37832
 Alpha virt. eigenvalues --    0.38038   0.38134   0.38222   0.38387   0.38494
 Alpha virt. eigenvalues --    0.38903   0.39219   0.39350   0.39458   0.39742
 Alpha virt. eigenvalues --    0.39952   0.40135   0.40373   0.40559   0.40790
 Alpha virt. eigenvalues --    0.40901   0.40956   0.41291   0.41623   0.41925
 Alpha virt. eigenvalues --    0.41993   0.42428   0.42520   0.42796   0.42938
 Alpha virt. eigenvalues --    0.43250   0.43503   0.43574   0.43679   0.43822
 Alpha virt. eigenvalues --    0.44000   0.44349   0.44645   0.44742   0.44962
 Alpha virt. eigenvalues --    0.45178   0.45395   0.45508   0.45660   0.45886
 Alpha virt. eigenvalues --    0.46159   0.46356   0.46694   0.46854   0.46963
 Alpha virt. eigenvalues --    0.47340   0.47790   0.48108   0.48266   0.48588
 Alpha virt. eigenvalues --    0.48858   0.49104   0.49492   0.49769   0.50028
 Alpha virt. eigenvalues --    0.50205   0.50783   0.50982   0.51232   0.51960
 Alpha virt. eigenvalues --    0.52225   0.52412   0.52565   0.52925   0.53171
 Alpha virt. eigenvalues --    0.53501   0.53749   0.53945   0.54241   0.54582
 Alpha virt. eigenvalues --    0.54938   0.55605   0.55803   0.55937   0.56115
 Alpha virt. eigenvalues --    0.56331   0.56656   0.56789   0.56942   0.57201
 Alpha virt. eigenvalues --    0.57310   0.57434   0.57852   0.58042   0.58493
 Alpha virt. eigenvalues --    0.59032   0.59374   0.59545   0.59814   0.59978
 Alpha virt. eigenvalues --    0.60178   0.60503   0.60659   0.60777   0.61107
 Alpha virt. eigenvalues --    0.61368   0.61557   0.61888   0.62108   0.62653
 Alpha virt. eigenvalues --    0.62806   0.63133   0.63292   0.63521   0.63724
 Alpha virt. eigenvalues --    0.63995   0.64362   0.64457   0.64895   0.65035
 Alpha virt. eigenvalues --    0.65311   0.65535   0.65719   0.66223   0.66531
 Alpha virt. eigenvalues --    0.66615   0.66813   0.67172   0.67279   0.67660
 Alpha virt. eigenvalues --    0.67902   0.68011   0.68237   0.68431   0.68655
 Alpha virt. eigenvalues --    0.68928   0.69233   0.69242   0.69939   0.70172
 Alpha virt. eigenvalues --    0.70331   0.70540   0.70702   0.70994   0.71447
 Alpha virt. eigenvalues --    0.71819   0.72130   0.72212   0.72511   0.72631
 Alpha virt. eigenvalues --    0.73393   0.73474   0.73622   0.74123   0.74227
 Alpha virt. eigenvalues --    0.74852   0.75030   0.75085   0.75328   0.75456
 Alpha virt. eigenvalues --    0.75832   0.76162   0.76343   0.76573   0.76696
 Alpha virt. eigenvalues --    0.76931   0.77311   0.77505   0.77573   0.77870
 Alpha virt. eigenvalues --    0.77898   0.78281   0.78395   0.79129   0.79368
 Alpha virt. eigenvalues --    0.79745   0.79999   0.80272   0.80553   0.80683
 Alpha virt. eigenvalues --    0.81219   0.81465   0.81632   0.82113   0.82281
 Alpha virt. eigenvalues --    0.82768   0.82975   0.83123   0.83537   0.83702
 Alpha virt. eigenvalues --    0.83866   0.84319   0.84686   0.84943   0.85408
 Alpha virt. eigenvalues --    0.85573   0.85645   0.85770   0.86049   0.86433
 Alpha virt. eigenvalues --    0.86709   0.86832   0.87135   0.87591   0.87758
 Alpha virt. eigenvalues --    0.88392   0.88799   0.89075   0.89456   0.89744
 Alpha virt. eigenvalues --    0.90049   0.90117   0.90658   0.90730   0.91028
 Alpha virt. eigenvalues --    0.91453   0.91812   0.92130   0.92539   0.92689
 Alpha virt. eigenvalues --    0.93153   0.93210   0.93434   0.93971   0.94066
 Alpha virt. eigenvalues --    0.94411   0.94980   0.95312   0.95471   0.95880
 Alpha virt. eigenvalues --    0.96248   0.96452   0.96803   0.97050   0.97458
 Alpha virt. eigenvalues --    0.97652   0.97793   0.98527   0.98893   0.99210
 Alpha virt. eigenvalues --    0.99319   0.99479   0.99870   1.00112   1.00606
 Alpha virt. eigenvalues --    1.00748   1.01110   1.01483   1.01808   1.02332
 Alpha virt. eigenvalues --    1.02456   1.02744   1.02944   1.03589   1.04009
 Alpha virt. eigenvalues --    1.04396   1.04680   1.04907   1.05464   1.06007
 Alpha virt. eigenvalues --    1.06082   1.06813   1.07252   1.07572   1.07728
 Alpha virt. eigenvalues --    1.08026   1.08535   1.08734   1.09484   1.09929
 Alpha virt. eigenvalues --    1.10140   1.10440   1.10913   1.11299   1.11449
 Alpha virt. eigenvalues --    1.11835   1.12144   1.12442   1.13045   1.13582
 Alpha virt. eigenvalues --    1.14334   1.14730   1.15504   1.15764   1.15931
 Alpha virt. eigenvalues --    1.16516   1.16622   1.17557   1.18090   1.18490
 Alpha virt. eigenvalues --    1.18753   1.19010   1.19786   1.20183   1.20547
 Alpha virt. eigenvalues --    1.21023   1.21800   1.22085   1.22543   1.22932
 Alpha virt. eigenvalues --    1.23845   1.24149   1.24475   1.24927   1.25241
 Alpha virt. eigenvalues --    1.25709   1.26288   1.26707   1.27151   1.27616
 Alpha virt. eigenvalues --    1.27782   1.28461   1.28581   1.29339   1.29735
 Alpha virt. eigenvalues --    1.30262   1.30373   1.30812   1.31316   1.31461
 Alpha virt. eigenvalues --    1.32223   1.32650   1.32910   1.33369   1.33653
 Alpha virt. eigenvalues --    1.33786   1.34513   1.35062   1.35427   1.36197
 Alpha virt. eigenvalues --    1.36618   1.37164   1.37418   1.37925   1.38414
 Alpha virt. eigenvalues --    1.38617   1.39176   1.40134   1.40626   1.40986
 Alpha virt. eigenvalues --    1.41834   1.42292   1.43145   1.43214   1.43978
 Alpha virt. eigenvalues --    1.44214   1.45038   1.45683   1.45922   1.46295
 Alpha virt. eigenvalues --    1.46756   1.47005   1.47647   1.47940   1.48226
 Alpha virt. eigenvalues --    1.49168   1.49348   1.49880   1.50505   1.51446
 Alpha virt. eigenvalues --    1.51948   1.52358   1.53033   1.53531   1.53826
 Alpha virt. eigenvalues --    1.54032   1.54362   1.54841   1.55488   1.56405
 Alpha virt. eigenvalues --    1.56897   1.57268   1.57669   1.58162   1.58237
 Alpha virt. eigenvalues --    1.58927   1.59318   1.59674   1.60972   1.61253
 Alpha virt. eigenvalues --    1.61673   1.62541   1.62904   1.63265   1.63896
 Alpha virt. eigenvalues --    1.63998   1.64423   1.64766   1.65221   1.65591
 Alpha virt. eigenvalues --    1.66388   1.66794   1.67035   1.67352   1.67862
 Alpha virt. eigenvalues --    1.68364   1.68555   1.69379   1.70397   1.70746
 Alpha virt. eigenvalues --    1.71344   1.71995   1.72453   1.72688   1.73306
 Alpha virt. eigenvalues --    1.73669   1.74350   1.74692   1.74896   1.75377
 Alpha virt. eigenvalues --    1.75828   1.76358   1.76807   1.77002   1.77574
 Alpha virt. eigenvalues --    1.77904   1.78560   1.78870   1.79325   1.79836
 Alpha virt. eigenvalues --    1.79928   1.80221   1.80324   1.80880   1.81308
 Alpha virt. eigenvalues --    1.81612   1.81837   1.81975   1.82313   1.82745
 Alpha virt. eigenvalues --    1.83067   1.83163   1.83635   1.84150   1.84479
 Alpha virt. eigenvalues --    1.84911   1.85198   1.85890   1.86589   1.86992
 Alpha virt. eigenvalues --    1.87059   1.87688   1.88122   1.88528   1.88740
 Alpha virt. eigenvalues --    1.88947   1.89392   1.89757   1.90037   1.90574
 Alpha virt. eigenvalues --    1.90746   1.91308   1.91428   1.91989   1.92081
 Alpha virt. eigenvalues --    1.92730   1.92830   1.93157   1.93726   1.93912
 Alpha virt. eigenvalues --    1.94227   1.95145   1.95191   1.95524   1.96308
 Alpha virt. eigenvalues --    1.96978   1.97132   1.97656   1.98234   1.98453
 Alpha virt. eigenvalues --    1.99386   1.99778   2.00925   2.01005   2.01448
 Alpha virt. eigenvalues --    2.01615   2.02064   2.02467   2.03814   2.04428
 Alpha virt. eigenvalues --    2.04728   2.05591   2.05856   2.05997   2.06840
 Alpha virt. eigenvalues --    2.07709   2.07747   2.08444   2.08630   2.09179
 Alpha virt. eigenvalues --    2.10062   2.10768   2.10940   2.11875   2.12541
 Alpha virt. eigenvalues --    2.12883   2.13150   2.13873   2.14671   2.14844
 Alpha virt. eigenvalues --    2.14972   2.15525   2.16330   2.17310   2.17659
 Alpha virt. eigenvalues --    2.17938   2.18981   2.19257   2.19695   2.20719
 Alpha virt. eigenvalues --    2.21478   2.21919   2.22057   2.22626   2.23119
 Alpha virt. eigenvalues --    2.23588   2.24060   2.24311   2.24720   2.25231
 Alpha virt. eigenvalues --    2.25482   2.25718   2.26431   2.27172   2.27833
 Alpha virt. eigenvalues --    2.28001   2.28461   2.28560   2.29133   2.29888
 Alpha virt. eigenvalues --    2.30155   2.30542   2.31096   2.31616   2.31811
 Alpha virt. eigenvalues --    2.32258   2.32640   2.33040   2.33605   2.34200
 Alpha virt. eigenvalues --    2.35079   2.35424   2.35901   2.36416   2.36939
 Alpha virt. eigenvalues --    2.37751   2.38478   2.38719   2.38938   2.40293
 Alpha virt. eigenvalues --    2.40406   2.40902   2.41239   2.41600   2.42093
 Alpha virt. eigenvalues --    2.42714   2.43252   2.43332   2.43828   2.44536
 Alpha virt. eigenvalues --    2.44963   2.45505   2.46202   2.46456   2.47227
 Alpha virt. eigenvalues --    2.47375   2.47896   2.48203   2.49000   2.49305
 Alpha virt. eigenvalues --    2.49671   2.50175   2.51264   2.52053   2.53065
 Alpha virt. eigenvalues --    2.53168   2.54236   2.55044   2.55982   2.56592
 Alpha virt. eigenvalues --    2.57263   2.57373   2.58046   2.58553   2.59935
 Alpha virt. eigenvalues --    2.60704   2.60931   2.61706   2.62423   2.63690
 Alpha virt. eigenvalues --    2.64588   2.65393   2.66268   2.66528   2.68488
 Alpha virt. eigenvalues --    2.68809   2.69241   2.69764   2.70126   2.71298
 Alpha virt. eigenvalues --    2.71774   2.72460   2.73526   2.75008   2.76171
 Alpha virt. eigenvalues --    2.76842   2.78076   2.78643   2.79448   2.79795
 Alpha virt. eigenvalues --    2.80148   2.81774   2.82265   2.84010   2.85597
 Alpha virt. eigenvalues --    2.86547   2.86991   2.87843   2.88606   2.89319
 Alpha virt. eigenvalues --    2.90282   2.90909   2.92219   2.93723   2.94251
 Alpha virt. eigenvalues --    2.95371   2.96192   2.96572   2.97118   2.97668
 Alpha virt. eigenvalues --    2.98603   2.99884   3.00697   3.02019   3.02780
 Alpha virt. eigenvalues --    3.04715   3.06856   3.08556   3.09439   3.11862
 Alpha virt. eigenvalues --    3.13376   3.14897   3.15368   3.17711   3.19104
 Alpha virt. eigenvalues --    3.21117   3.21838   3.23235   3.25439   3.26346
 Alpha virt. eigenvalues --    3.28012   3.30039   3.31523   3.32344   3.38330
 Alpha virt. eigenvalues --    3.38676   3.42892   3.43771   3.47343   3.49276
 Alpha virt. eigenvalues --    3.50805   3.53102   3.55587   3.57645   3.58450
 Alpha virt. eigenvalues --    3.60260   3.62492   3.64098   3.66142   3.68020
 Alpha virt. eigenvalues --    3.73970   3.77824   3.78636   3.79822   3.80865
 Alpha virt. eigenvalues --    3.81149   3.81400   3.82315   3.82493   3.83059
 Alpha virt. eigenvalues --    3.83742   3.84305   3.86634   3.87306   3.89843
 Alpha virt. eigenvalues --    3.91043   3.92864   3.94901   3.96560   3.99435
 Alpha virt. eigenvalues --    4.00893   4.01867   4.05206   4.05886   4.06789
 Alpha virt. eigenvalues --    4.09542   4.11518   4.12318   4.13341   4.15394
 Alpha virt. eigenvalues --    4.17572   4.19048   4.19574   4.20132   4.22325
 Alpha virt. eigenvalues --    4.29371   4.30273   4.37496   4.41556   4.45634
 Alpha virt. eigenvalues --    4.58393   4.70849   4.73478   5.26283
          Condensed to atoms (all electrons):
 Mulliken charges:
               1
     1  C    0.051618
     2  C    0.696337
     3  C   -0.548301
     4  C    1.598181
     5  C   -0.007702
     6  C    0.764234
     7  C    0.046833
     8  C    1.379443
     9  C    0.919405
    10  C   -0.157995
    11  C   -0.163405
    12  C    1.490444
    13  C    0.219224
    14  C    0.289178
    15  H   -0.646373
    16  H   -0.701219
    17  H   -0.721882
    18  N   -0.998990
    19  N   -0.963905
    20  O   -0.857573
    21  O   -0.889427
    22  O   -0.901447
    23  O   -0.724145
    24  C    0.690476
    25  H   -0.021676
    26  H   -0.040638
    27  H   -0.212424
    28  C    0.660238
    29  H   -0.010791
    30  H   -0.018886
    31  H   -0.232318
    32  C    0.726803
    33  C    0.170373
    34  S    0.603073
    35  C   -0.130368
    36  H   -0.739952
    37  C   -0.321672
    38  O   -1.101335
    39  C    1.149452
    40  C    0.952813
    41  C   -0.219095
    42  S    0.372608
    43  H   -0.358713
    44  H   -0.035888
    45  H   -0.065854
    46  C    0.993399
    47  O   -1.132635
    48  C   -0.240376
    49  H   -0.635506
    50  C    0.912322
    51  H   -0.428008
    52  H   -0.050081
    53  H   -0.338403
    54  H   -0.069469
 Sum of Mulliken charges =  -0.00000
 Mulliken charges with hydrogens summed into heavy atoms:
               1
     1  C    0.051618
     2  C    0.696337
     3  C   -0.548301
     4  C    1.598181
     5  C   -0.007702
     6  C    0.042352
     7  C    0.046833
     8  C    1.379443
     9  C    0.919405
    10  C   -0.157995
    11  C   -0.163405
    12  C    1.490444
    13  C   -0.481995
    14  C   -0.357195
    18  N   -0.998990
    19  N   -0.963905
    20  O   -0.857573
    21  O   -0.889427
    22  O   -0.901447
    23  O   -0.724145
    24  C    0.415738
    28  C    0.398243
    32  C    0.726803
    33  C   -0.569580
    34  S    0.603073
    35  C   -0.130368
    37  C   -0.321672
    38  O   -1.101335
    39  C    1.149452
    40  C    0.492359
    41  C   -0.219095
    42  S    0.372608
    46  C    0.357893
    47  O   -1.132635
    48  C   -0.668384
    50  C    0.454369
 Electronic spatial extent (au):  <R**2>=          22612.0613
 Charge=             -0.0000 electrons
 Dipole moment (field-independent basis, Debye):
    X=              3.2692    Y=             -0.3334    Z=              0.0164  Tot=              3.2862
 Quadrupole moment (field-independent basis, Debye-Ang):
   XX=           -213.0482   YY=           -218.1308   ZZ=           -223.0137
   XY=             12.9180   XZ=              5.4742   YZ=              9.6790
 Traceless Quadrupole moment (field-independent basis, Debye-Ang):
   XX=              5.0161   YY=             -0.0666   ZZ=             -4.9495
   XY=             12.9180   XZ=              5.4742   YZ=              9.6790
 Octapole moment (field-independent basis, Debye-Ang**2):
  XXX=            394.0761  YYY=            -49.0950  ZZZ=              1.2133  XYY=            112.6866
  XXY=             50.7450  XXZ=             44.3252  XZZ=             -3.6327  YZZ=              0.0450
  YYZ=             -6.3773  XYZ=             25.6092
 Hexadecapole moment (field-independent basis, Debye-Ang**3):
 XXXX=         -21587.1411 YYYY=          -7631.7082 ZZZZ=           -645.2159 XXXY=            269.6649
 XXXZ=            397.3061 YYYX=            505.5999 YYYZ=            153.1218 ZZZX=            -14.0056
 ZZZY=             10.6692 XXYY=          -4810.1097 XXZZ=          -3946.5712 YYZZ=          -1316.6000
 XXYZ=            187.0393 YYXZ=            -56.2362 ZZXY=             81.2942
 N-N= 4.092306697518D+03 E-N=-1.371299818202D+04  KE= 2.346632778104D+03
 Unable to Open any file for archive entry.
 1\1\GINC-AX4\SP\RMP2-FC\Aug-CC-pVDZ\C26H18N2O6S2\NS5018\09-Dec-2020\0\
 \# mp2/aug-cc-pvdz MaxDisk=400GB\\NDI_-160_b3lyp.pdb\\0,1\C,0,-3.424,-
 2.695,0.363\C,0,-2.739,-1.392,0.154\C,0,-3.485,-0.193,0.083\C,0,-4.889
 ,-0.216,0.185\C,0,-5.607,-1.502,0.386\C,0,-1.378,-1.364,0.039\C,0,-2.7
 79,1.027,-0.086\C,0,-1.349,1.049,-0.165\C,0,-0.609,-0.167,-0.151\C,0,-
 0.71,2.372,-0.289\C,0,-2.911,3.524,-0.414\C,0,-3.553,2.212,-0.187\C,0,
 -4.938,2.17,-0.097\C,0,-5.613,0.964,0.097\H,0,-6.692,0.928,0.175\H,0,-
 5.481,3.103,-0.186\H,0,-0.872,-2.31,0.147\N,0,-1.518,3.504,-0.484\N,0,
 -4.817,-2.663,0.467\O,0,-2.823,-3.753,0.437\O,0,-6.819,-1.559,0.479\O,
 0,-3.545,4.559,-0.532\O,0,0.499,2.54,-0.231\C,0,-0.812,4.779,-0.668\H,
 0,-0.284,5.054,0.246\H,0,-0.082,4.677,-1.47\H,0,-1.553,5.534,-0.913\C,
 0,-5.487,-3.956,0.67\H,0,-5.262,-4.622,-0.164\H,0,-5.123,-4.418,1.588\
 H,0,-6.554,-3.773,0.733\C,0,0.829,-0.42,-0.289\C,0,1.327,-1.674,-0.654
 \S,0,2.173,0.626,0.153\C,0,2.717,-1.792,-0.571\H,0,0.7,-2.475,-1.013\C
 ,0,3.351,-0.638,-0.103\O,0,3.464,-2.88,-0.899\C,0,4.759,-0.446,0.104\C
 ,0,2.783,-4.061,-1.311\C,0,5.403,0.699,0.566\S,0,5.957,-1.7,-0.206\H,0
 ,3.557,-4.803,-1.496\H,0,2.111,-4.423,-0.526\H,0,2.216,-3.888,-2.232\C
 ,0,6.815,0.573,0.667\O,0,4.669,1.796,0.874\C,0,7.246,-0.667,0.284\H,0,
 7.478,1.356,1.006\C,0,5.351,2.969,1.307\H,0,8.261,-1.033,0.263\H,0,6.0
 41,3.329,0.537\H,0,4.577,3.715,1.479\H,0,5.896,2.787,2.238\\Version=ES
 64L-G16RevC.01\State=1-A\HF=-2348.3971165\MP2=-2353.7267389\RMSD=9.166
 e-09\PG=C01 [X(C26H18N2O6S2)]\\@
 The archive entry for this job was punched.


 IF IT'S NOT TRUE, IT'S WELL INVENTED -- DANTE
 Job cpu time:      12 days  7 hours 36 minutes 17.9 seconds.
 Elapsed time:       0 days  7 hours 29 minutes 31.2 seconds.
 File lengths (MBytes):  RWF= 257065 Int=      0 D2E=      0 Chk=     65 Scr=      1
 Normal termination of Gaussian 16 at Wed Dec  9 19:50:21 2020.
