 Entering Gaussian System, Link 0=g16
 Input=NDI_-45.gjf
 Output=NDI_-45.log
 Initial command:
 /apps/gaussian/g16-c01-avx/g16/l1.exe "/rds/general/ephemeral/tmpdir/pbs.2671500[27].pbs/Gau-2086086.inp" -scrdir="/rds/general/ephemeral/tmpdir/pbs.2671500[27].pbs/"
 Entering Link 1 = /apps/gaussian/g16-c01-avx/g16/l1.exe PID=   2086126.
  
 Copyright (c) 1988-2019, Gaussian, Inc.  All Rights Reserved.
  
 This is part of the Gaussian(R) 16 program.  It is based on
 the Gaussian(R) 09 system (copyright 2009, Gaussian, Inc.),
 the Gaussian(R) 03 system (copyright 2003, Gaussian, Inc.),
 the Gaussian(R) 98 system (copyright 1998, Gaussian, Inc.),
 the Gaussian(R) 94 system (copyright 1995, Gaussian, Inc.),
 the Gaussian 92(TM) system (copyright 1992, Gaussian, Inc.),
 the Gaussian 90(TM) system (copyright 1990, Gaussian, Inc.),
 the Gaussian 88(TM) system (copyright 1988, Gaussian, Inc.),
 the Gaussian 86(TM) system (copyright 1986, Carnegie Mellon
 University), and the Gaussian 82(TM) system (copyright 1983,
 Carnegie Mellon University). Gaussian is a federally registered
 trademark of Gaussian, Inc.
  
 This software contains proprietary and confidential information,
 including trade secrets, belonging to Gaussian, Inc.
  
 This software is provided under written license and may be
 used, copied, transmitted, or stored only in accord with that
 written license.
  
 The following legend is applicable only to US Government
 contracts under FAR:
  
                    RESTRICTED RIGHTS LEGEND
  
 Use, reproduction and disclosure by the US Government is
 subject to restrictions as set forth in subparagraphs (a)
 and (c) of the Commercial Computer Software - Restricted
 Rights clause in FAR 52.227-19.
  
 Gaussian, Inc.
 340 Quinnipiac St., Bldg. 40, Wallingford CT 06492
  
  
 ---------------------------------------------------------------
 Warning -- This program may not be used in any manner that
 competes with the business of Gaussian, Inc. or will provide
 assistance to any competitor of Gaussian, Inc.  The licensee
 of this program is prohibited from giving any competitor of
 Gaussian, Inc. access to this program.  By using this program,
 the user acknowledges that Gaussian, Inc. is engaged in the
 business of creating and licensing software in the field of
 computational chemistry and represents and warrants to the
 licensee that it is not a competitor of Gaussian, Inc. and that
 it will not use this program in any manner prohibited above.
 ---------------------------------------------------------------
  

 Cite this work as:
 Gaussian 16, Revision C.01,
 M. J. Frisch, G. W. Trucks, H. B. Schlegel, G. E. Scuseria, 
 M. A. Robb, J. R. Cheeseman, G. Scalmani, V. Barone, 
 G. A. Petersson, H. Nakatsuji, X. Li, M. Caricato, A. V. Marenich, 
 J. Bloino, B. G. Janesko, R. Gomperts, B. Mennucci, H. P. Hratchian, 
 J. V. Ortiz, A. F. Izmaylov, J. L. Sonnenberg, D. Williams-Young, 
 F. Ding, F. Lipparini, F. Egidi, J. Goings, B. Peng, A. Petrone, 
 T. Henderson, D. Ranasinghe, V. G. Zakrzewski, J. Gao, N. Rega, 
 G. Zheng, W. Liang, M. Hada, M. Ehara, K. Toyota, R. Fukuda, 
 J. Hasegawa, M. Ishida, T. Nakajima, Y. Honda, O. Kitao, H. Nakai, 
 T. Vreven, K. Throssell, J. A. Montgomery, Jr., J. E. Peralta, 
 F. Ogliaro, M. J. Bearpark, J. J. Heyd, E. N. Brothers, K. N. Kudin, 
 V. N. Staroverov, T. A. Keith, R. Kobayashi, J. Normand, 
 K. Raghavachari, A. P. Rendell, J. C. Burant, S. S. Iyengar, 
 J. Tomasi, M. Cossi, J. M. Millam, M. Klene, C. Adamo, R. Cammi, 
 J. W. Ochterski, R. L. Martin, K. Morokuma, O. Farkas, 
 J. B. Foresman, and D. J. Fox, Gaussian, Inc., Wallingford CT, 2019.
 
 ******************************************
 Gaussian 16:  ES64L-G16RevC.01  3-Jul-2019
                10-Dec-2020 
 ******************************************
 %mem=480GB
 %nprocshared=40
 Will use up to   40 processors via shared memory.
 -------------------------------
 # mp2/aug-cc-pvdz MaxDisk=400GB
 -------------------------------
 1/38=1,172=1/1;
 2/12=2,17=6,18=5,40=1/2;
 3/5=16,7=10,11=9,25=1,30=1/1,2,3;
 4//1;
 5/5=2,38=5/2;
 8/10=1/1;
 9/16=-3/6;
 6/7=2,8=2,9=2,10=2/1;
 99/5=1,9=1/99;
 -----------------
 NDI_-45_b3lyp.pdb
 -----------------
 Symbolic Z-matrix:
 Charge =  0 Multiplicity = 1
 C                     2.644    -2.971     0.47 
 C                     2.297    -1.54      0.261 
 C                     3.314    -0.574     0.088 
 C                     4.672    -0.952     0.112 
 C                     5.056    -2.373     0.333 
 C                     0.98     -1.16      0.26 
 C                     2.941     0.782    -0.126 
 C                     1.566     1.168    -0.138 
 C                     0.565     0.195     0.101 
 C                     1.246     2.577    -0.495 
 C                     3.676     3.144    -0.605 
 C                     3.982     1.722    -0.332 
 C                     5.312     1.331    -0.299 
 C                     5.665    -0.003    -0.074 
 H                     6.701    -0.314    -0.05 
 H                     6.071     2.087    -0.458 
 H                     0.235    -1.925     0.434 
 N                     2.321     3.463    -0.703 
 N                     4.006    -3.293     0.494 
 O                     1.804    -3.839     0.616 
 O                     6.218    -2.73      0.371 
 O                     4.546     3.985    -0.754 
 O                     0.116     3.009    -0.635 
 C                     1.955     4.845    -1.046 
 H                     1.348     4.85     -1.951 
 H                     1.371     5.287    -0.238 
 H                     2.874     5.403    -1.197 
 C                     4.337    -4.709     0.706 
 H                     3.928    -5.043     1.66 
 H                     3.898    -5.313    -0.088 
 H                     5.419    -4.803     0.702 
 C                    -0.872     0.432     0.223 
 C                    -1.554     1.404     0.922 
 S                    -1.992    -0.749    -0.434 
 C                    -2.949     1.217     0.922 
 H                    -1.06      2.227     1.411 
 C                    -3.38      0.094     0.214 
 O                    -3.872     2.01      1.527 
 C                    -4.731    -0.337    -0.015 
 C                    -3.42      3.227     2.118 
 C                    -5.156    -1.473    -0.696 
 S                    -6.134     0.559     0.557 
 H                    -4.314     3.734     2.475 
 H                    -2.753     3.029     2.964 
 H                    -2.908     3.854     1.382 
 C                    -6.569    -1.62     -0.757 
 O                    -4.233    -2.314    -1.228 
 C                    -7.217    -0.596    -0.123 
 H                    -7.08     -2.439    -1.243 
 C                    -4.693    -3.484    -1.898 
 H                    -8.282    -0.459    -0.014 
 H                    -5.306    -3.225    -2.766 
 H                    -3.799    -4.009    -2.229 
 H                    -5.262    -4.127    -1.22 
 
 Stoichiometry    C26H18N2O6S2
 Framework group  C1[X(C26H18N2O6S2)]
 Deg. of freedom   156
 Full point group                 C1      NOp   1
 Largest Abelian subgroup         C1      NOp   1
 Largest concise Abelian subgroup C1      NOp   1
                         Standard orientation:                         
 ---------------------------------------------------------------------
 Center     Atomic      Atomic             Coordinates (Angstroms)
 Number     Number       Type             X           Y           Z
 ---------------------------------------------------------------------
      1          6           0        2.644087   -2.970992    0.469959
      2          6           0        2.297067   -1.539997    0.260959
      3          6           0        3.314053   -0.573982    0.087959
      4          6           0        4.672058   -0.951963    0.111959
      5          6           0        5.056079   -2.372958    0.332959
      6          6           0        0.980061   -1.160016    0.259959
      7          6           0        2.941034    0.782012   -0.126041
      8          6           0        1.566028    1.167993   -0.138041
      9          6           0        0.565042    0.194978    0.100959
     10          6           0        1.246008    2.576988   -0.495041
     11          6           0        3.676000    3.144023   -0.605041
     12          6           0        3.982020    1.722027   -0.332041
     13          6           0        5.312026    1.331046   -0.299041
     14          6           0        5.665045   -0.002949   -0.074041
     15          1           0        6.701049   -0.313934   -0.050041
     16          1           0        6.071015    2.087057   -0.458041
     17          1           0        0.235072   -1.925026    0.433959
     18          7           0        2.320995    3.463003   -0.703041
     19          7           0        4.006092   -3.292973    0.493959
     20          8           0        1.804100   -3.839004    0.615959
     21          8           0        6.218084   -2.729941    0.370959
     22          8           0        4.545988    3.985035   -0.754041
     23          8           0        0.116002    3.008972   -0.635041
     24          6           0        1.954976    4.844998   -1.046041
     25          1           0        1.347975    4.849989   -1.951041
     26          1           0        1.370969    5.286990   -0.238041
     27          1           0        2.873968    5.403011   -1.197041
     28          6           0        4.337112   -4.708968    0.705959
     29          1           0        3.928117   -5.042974    1.659959
     30          1           0        3.898121   -5.312974   -0.088041
     31          1           0        5.419113   -4.802952    0.701959
     32          6           0       -0.871961    0.431958    0.222959
     33          6           0       -1.553975    1.403948    0.921959
     34         16           0       -1.991945   -0.749058   -0.434041
     35          6           0       -2.948973    1.216928    0.921959
     36          1           0       -1.059987    2.226955    1.410959
     37          6           0       -3.379957    0.093922    0.213959
     38          8           0       -3.871984    2.009915    1.526959
     39          6           0       -4.730950   -0.337097   -0.015041
     40          6           0       -3.420001    3.226921    2.117959
     41          6           0       -5.155934   -1.473104   -0.696041
     42         16           0       -6.133963    0.558883    0.556959
     43          1           0       -4.314009    3.733909    2.474959
     44          1           0       -2.752999    3.028931    2.963959
     45          1           0       -2.908010    3.853929    1.381959
     46          6           0       -6.568932   -1.620124   -0.757041
     47          8           0       -4.232922   -2.314090   -1.228041
     48          6           0       -7.216947   -0.596133   -0.123041
     49          1           0       -7.079920   -2.439131   -1.243041
     50          6           0       -4.692905   -3.484097   -1.898041
     51          1           0       -8.281949   -0.459148   -0.014041
     52          1           0       -5.305909   -3.225106   -2.766041
     53          1           0       -3.798898   -4.009084   -2.229041
     54          1           0       -5.261896   -4.127105   -1.220041
 ---------------------------------------------------------------------
 Rotational constants (GHZ):           0.1544800           0.0585057           0.0448590
 Standard basis: Aug-CC-pVDZ (5D, 7F)
 There are  1070 symmetry adapted cartesian basis functions of A   symmetry.
 There are   998 symmetry adapted basis functions of A   symmetry.
   998 basis functions,  1822 primitive gaussians,  1070 cartesian basis functions
   134 alpha electrons      134 beta electrons
       nuclear repulsion energy      4087.6317278096 Hartrees.
 NAtoms=   54 NActive=   54 NUniq=   54 SFac= 1.00D+00 NAtFMM=   60 NAOKFM=F Big=F
 Integral buffers will be    131072 words long.
 Raffenetti 1 integral format.
 Two-electron integral symmetry is turned on.
 One-electron integrals computed using PRISM.
 NBasis=   998 RedAO= T EigKep=  1.15D-06  NBF=   998
 NBsUse=   988 1.00D-06 EigRej=  8.89D-07 NBFU=   988
 ExpMin= 2.97D-02 ExpMax= 1.11D+05 ExpMxC= 1.07D+03 IAcc=3 IRadAn=         5 AccDes= 0.00D+00
 Harris functional with IExCor=  205 and IRadAn=       5 diagonalized for initial guess.
 HarFok:  IExCor=  205 AccDes= 0.00D+00 IRadAn=         5 IDoV= 1 UseB2=F ITyADJ=14
 ICtDFT=  3500011 ScaDFX=  1.000000  1.000000  1.000000  1.000000
 FoFCou: FMM=F IPFlag=           0 FMFlag=      100000 FMFlg1=           0
         NFxFlg=           0 DoJE=T BraDBF=F KetDBF=T FulRan=T
         wScrn=  0.000000 ICntrl=       500 IOpCl=  0 I1Cent=   200000004 NGrid=           0
         NMat0=    1 NMatS0=      1 NMatT0=    0 NMatD0=    1 NMtDS0=    0 NMtDT0=    0
 Petite list used in FoFCou.
 Requested convergence on RMS density matrix=1.00D-08 within 128 cycles.
 Requested convergence on MAX density matrix=1.00D-06.
 Requested convergence on             energy=1.00D-06.
 No special actions if energy rises.
 Restarting incremental Fock formation.
 SCF Done:  E(RHF) =  -2348.40540466     A.U. after   22 cycles
            NFock= 22  Conv=0.87D-08     -V/T= 2.0007
 ExpMin= 2.97D-02 ExpMax= 1.11D+05 ExpMxC= 1.07D+03 IAcc=3 IRadAn=         5 AccDes= 0.00D+00
 HarFok:  IExCor=  205 AccDes= 0.00D+00 IRadAn=         5 IDoV=-2 UseB2=F ITyADJ=14
 ICtDFT= 12500011 ScaDFX=  1.000000  1.000000  1.000000  1.000000
 GSVD:  LWork=       -2288 too small for GESVD, short by       10340 words or       10340 for optimal perf.
 Range of M.O.s used for correlation:    45   988
 NBasis=   998 NAE=   134 NBE=   134 NFC=    44 NFV=     0
 NROrb=    944 NOA=    90 NOB=    90 NVA=   854 NVB=   854

 **** Warning!!: The largest alpha MO coefficient is  0.19387359D+03

 Disk-based method using OVN memory for 30 occupieds at a time.
 Estimated scratch disk usage= 45744811152 words.
 Actual    scratch disk usage= 33530260624 words.
 JobTyp=1 Pass  1:  I=   1 to  30 NPSUse= 40 ParTrn=T ParDer=T DoDerP=F.
 (rs|ai) integrals will be sorted in core.
 JobTyp=1 Pass  2:  I=  31 to  60 NPSUse= 40 ParTrn=T ParDer=T DoDerP=F.
 (rs|ai) integrals will be sorted in core.
 JobTyp=1 Pass  3:  I=  61 to  90 NPSUse= 40 ParTrn=T ParDer=T DoDerP=F.
 (rs|ai) integrals will be sorted in core.
 Spin components of T(2) and E(2):
     alpha-alpha T2 =       0.2767316716D+00 E2=     -0.7386426396D+00
     alpha-beta  T2 =       0.1353467173D+01 E2=     -0.3846475182D+01
     beta-beta   T2 =       0.2767316716D+00 E2=     -0.7386426396D+00
 ANorm=    0.1704972292D+01
 E2 =    -0.5323760461D+01 EUMP2 =    -0.23537291651252D+04

 **********************************************************************

            Population analysis using the SCF Density.

 **********************************************************************

 Orbital symmetries:
       Occupied  (A) (A) (A) (A) (A) (A) (A) (A) (A) (A) (A) (A)
                 (A) (A) (A) (A) (A) (A) (A) (A) (A) (A) (A) (A)
                 (A) (A) (A) (A) (A) (A) (A) (A) (A) (A) (A) (A)
                 (A) (A) (A) (A) (A) (A) (A) (A) (A) (A) (A) (A)
                 (A) (A) (A) (A) (A) (A) (A) (A) (A) (A) (A) (A)
                 (A) (A) (A) (A) (A) (A) (A) (A) (A) (A) (A) (A)
                 (A) (A) (A) (A) (A) (A) (A) (A) (A) (A) (A) (A)
                 (A) (A) (A) (A) (A) (A) (A) (A) (A) (A) (A) (A)
                 (A) (A) (A) (A) (A) (A) (A) (A) (A) (A) (A) (A)
                 (A) (A) (A) (A) (A) (A) (A) (A) (A) (A) (A) (A)
                 (A) (A) (A) (A) (A) (A) (A) (A) (A) (A) (A) (A)
                 (A) (A)
       Virtual   (A) (A) (A) (A) (A) (A) (A) (A) (A) (A) (A) (A)
                 (A) (A) (A) (A) (A) (A) (A) (A) (A) (A) (A) (A)
                 (A) (A) (A) (A) (A) (A) (A) (A) (A) (A) (A) (A)
                 (A) (A) (A) (A) (A) (A) (A) (A) (A) (A) (A) (A)
                 (A) (A) (A) (A) (A) (A) (A) (A) (A) (A) (A) (A)
                 (A) (A) (A) (A) (A) (A) (A) (A) (A) (A) (A) (A)
                 (A) (A) (A) (A) (A) (A) (A) (A) (A) (A) (A) (A)
                 (A) (A) (A) (A) (A) (A) (A) (A) (A) (A) (A) (A)
                 (A) (A) (A) (A) (A) (A) (A) (A) (A) (A) (A) (A)
                 (A) (A) (A) (A) (A) (A) (A) (A) (A) (A) (A) (A)
                 (A) (A) (A) (A) (A) (A) (A) (A) (A) (A) (A) (A)
                 (A) (A) (A) (A) (A) (A) (A) (A) (A) (A) (A) (A)
                 (A) (A) (A) (A) (A) (A) (A) (A) (A) (A) (A) (A)
                 (A) (A) (A) (A) (A) (A) (A) (A) (A) (A) (A) (A)
                 (A) (A) (A) (A) (A) (A) (A) (A) (A) (A) (A) (A)
                 (A) (A) (A) (A) (A) (A) (A) (A) (A) (A) (A) (A)
                 (A) (A) (A) (A) (A) (A) (A) (A) (A) (A) (A) (A)
                 (A) (A) (A) (A) (A) (A) (A) (A) (A) (A) (A) (A)
                 (A) (A) (A) (A) (A) (A) (A) (A) (A) (A) (A) (A)
                 (A) (A) (A) (A) (A) (A) (A) (A) (A) (A) (A) (A)
                 (A) (A) (A) (A) (A) (A) (A) (A) (A) (A) (A) (A)
                 (A) (A) (A) (A) (A) (A) (A) (A) (A) (A) (A) (A)
                 (A) (A) (A) (A) (A) (A) (A) (A) (A) (A) (A) (A)
                 (A) (A) (A) (A) (A) (A) (A) (A) (A) (A) (A) (A)
                 (A) (A) (A) (A) (A) (A) (A) (A) (A) (A) (A) (A)
                 (A) (A) (A) (A) (A) (A) (A) (A) (A) (A) (A) (A)
                 (A) (A) (A) (A) (A) (A) (A) (A) (A) (A) (A) (A)
                 (A) (A) (A) (A) (A) (A) (A) (A) (A) (A) (A) (A)
                 (A) (A) (A) (A) (A) (A) (A) (A) (A) (A) (A) (A)
                 (A) (A) (A) (A) (A) (A) (A) (A) (A) (A) (A) (A)
                 (A) (A) (A) (A) (A) (A) (A) (A) (A) (A) (A) (A)
                 (A) (A) (A) (A) (A) (A) (A) (A) (A) (A) (A) (A)
                 (A) (A) (A) (A) (A) (A) (A) (A) (A) (A) (A) (A)
                 (A) (A) (A) (A) (A) (A) (A) (A) (A) (A) (A) (A)
                 (A) (A) (A) (A) (A) (A) (A) (A) (A) (A) (A) (A)
                 (A) (A) (A) (A) (A) (A) (A) (A) (A) (A) (A) (A)
                 (A) (A) (A) (A) (A) (A) (A) (A) (A) (A) (A) (A)
                 (A) (A) (A) (A) (A) (A) (A) (A) (A) (A) (A) (A)
                 (A) (A) (A) (A) (A) (A) (A) (A) (A) (A) (A) (A)
                 (A) (A) (A) (A) (A) (A) (A) (A) (A) (A) (A) (A)
                 (A) (A) (A) (A) (A) (A) (A) (A) (A) (A) (A) (A)
                 (A) (A) (A) (A) (A) (A) (A) (A) (A) (A) (A) (A)
                 (A) (A) (A) (A) (A) (A) (A) (A) (A) (A) (A) (A)
                 (A) (A) (A) (A) (A) (A) (A) (A) (A) (A) (A) (A)
                 (A) (A) (A) (A) (A) (A) (A) (A) (A) (A) (A) (A)
                 (A) (A) (A) (A) (A) (A) (A) (A) (A) (A) (A) (A)
                 (A) (A) (A) (A) (A) (A) (A) (A) (A) (A) (A) (A)
                 (A) (A) (A) (A) (A) (A) (A) (A) (A) (A) (A) (A)
                 (A) (A) (A) (A) (A) (A) (A) (A) (A) (A) (A) (A)
                 (A) (A) (A) (A) (A) (A) (A) (A) (A) (A) (A) (A)
                 (A) (A) (A) (A) (A) (A) (A) (A) (A) (A) (A) (A)
                 (A) (A) (A) (A) (A) (A) (A) (A) (A) (A) (A) (A)
                 (A) (A) (A) (A) (A) (A) (A) (A) (A) (A) (A) (A)
                 (A) (A) (A) (A) (A) (A) (A) (A) (A) (A) (A) (A)
                 (A) (A) (A) (A) (A) (A) (A) (A) (A) (A) (A) (A)
                 (A) (A) (A) (A) (A) (A) (A) (A) (A) (A) (A) (A)
                 (A) (A) (A) (A) (A) (A) (A) (A) (A) (A) (A) (A)
                 (A) (A) (A) (A) (A) (A) (A) (A) (A) (A) (A) (A)
                 (A) (A) (A) (A) (A) (A) (A) (A) (A) (A) (A) (A)
                 (A) (A) (A) (A) (A) (A) (A) (A) (A) (A) (A) (A)
                 (A) (A) (A) (A) (A) (A) (A) (A) (A) (A) (A) (A)
                 (A) (A) (A) (A) (A) (A) (A) (A) (A) (A) (A) (A)
                 (A) (A) (A) (A) (A) (A) (A) (A) (A) (A) (A) (A)
                 (A) (A) (A) (A) (A) (A) (A) (A) (A) (A) (A) (A)
                 (A) (A) (A) (A) (A) (A) (A) (A) (A) (A) (A) (A)
                 (A) (A) (A) (A) (A) (A) (A) (A) (A) (A) (A) (A)
                 (A) (A) (A) (A) (A) (A) (A) (A) (A) (A) (A) (A)
                 (A) (A) (A) (A) (A) (A) (A) (A) (A) (A) (A) (A)
                 (A) (A) (A) (A) (A) (A) (A) (A) (A) (A) (A) (A)
                 (A) (A) (A) (A) (A) (A) (A) (A) (A) (A) (A) (A)
                 (A) (A) (A) (A) (A) (A) (A) (A) (A) (A) (A) (A)
                 (A) (A)
 The electronic state is 1-A.
 Alpha  occ. eigenvalues --  -91.98881 -91.98623 -20.60407 -20.60020 -20.56893
 Alpha  occ. eigenvalues --  -20.56881 -20.56310 -20.56287 -15.63958 -15.63590
 Alpha  occ. eigenvalues --  -11.40038 -11.39786 -11.39733 -11.39437 -11.31419
 Alpha  occ. eigenvalues --  -11.31300 -11.30771 -11.30160 -11.30077 -11.29775
 Alpha  occ. eigenvalues --  -11.29657 -11.29558 -11.29296 -11.29266 -11.28943
 Alpha  occ. eigenvalues --  -11.28455 -11.28421 -11.28297 -11.28233 -11.28157
 Alpha  occ. eigenvalues --  -11.27670 -11.27390 -11.27230 -11.27138 -11.25435
 Alpha  occ. eigenvalues --  -11.24953  -8.98963  -8.98711  -6.67117  -6.67025
 Alpha  occ. eigenvalues --   -6.66868  -6.66832  -6.66772  -6.66584  -1.43528
 Alpha  occ. eigenvalues --   -1.43177  -1.42374  -1.41939  -1.41582  -1.41123
 Alpha  occ. eigenvalues --   -1.27581  -1.27065  -1.23111  -1.19177  -1.17327
 Alpha  occ. eigenvalues --   -1.15421  -1.12757  -1.07802  -1.05859  -1.03872
 Alpha  occ. eigenvalues --   -1.00832  -1.00156  -0.99535  -0.97513  -0.96904
 Alpha  occ. eigenvalues --   -0.96487  -0.93826  -0.92375  -0.89932  -0.88831
 Alpha  occ. eigenvalues --   -0.88409  -0.86627  -0.81750  -0.79798  -0.78803
 Alpha  occ. eigenvalues --   -0.77933  -0.76279  -0.74768  -0.74533  -0.72716
 Alpha  occ. eigenvalues --   -0.72138  -0.70556  -0.69332  -0.67971  -0.67341
 Alpha  occ. eigenvalues --   -0.66922  -0.66493  -0.66467  -0.66027  -0.65890
 Alpha  occ. eigenvalues --   -0.65266  -0.64883  -0.64372  -0.63899  -0.63694
 Alpha  occ. eigenvalues --   -0.62563  -0.61693  -0.61174  -0.60046  -0.59313
 Alpha  occ. eigenvalues --   -0.59211  -0.57384  -0.56877  -0.56841  -0.56763
 Alpha  occ. eigenvalues --   -0.56490  -0.56451  -0.56005  -0.55763  -0.55591
 Alpha  occ. eigenvalues --   -0.53832  -0.53314  -0.53065  -0.51922  -0.51447
 Alpha  occ. eigenvalues --   -0.50968  -0.49197  -0.48259  -0.48142  -0.47155
 Alpha  occ. eigenvalues --   -0.46559  -0.46383  -0.45957  -0.45666  -0.44998
 Alpha  occ. eigenvalues --   -0.42965  -0.41881  -0.41309  -0.38658  -0.35152
 Alpha  occ. eigenvalues --   -0.33885  -0.33661  -0.33063  -0.25244
 Alpha virt. eigenvalues --   -0.01918   0.02981   0.03206   0.03520   0.04095
 Alpha virt. eigenvalues --    0.04158   0.04525   0.04842   0.05299   0.05316
 Alpha virt. eigenvalues --    0.05649   0.05733   0.06067   0.06262   0.06589
 Alpha virt. eigenvalues --    0.06742   0.07050   0.07219   0.07603   0.08186
 Alpha virt. eigenvalues --    0.08596   0.08735   0.08859   0.09559   0.09602
 Alpha virt. eigenvalues --    0.09721   0.10280   0.10528   0.10580   0.10710
 Alpha virt. eigenvalues --    0.11494   0.11723   0.12137   0.12605   0.12646
 Alpha virt. eigenvalues --    0.12999   0.13489   0.13705   0.13752   0.14014
 Alpha virt. eigenvalues --    0.14220   0.14357   0.14547   0.14726   0.15034
 Alpha virt. eigenvalues --    0.15182   0.15286   0.15405   0.15474   0.15694
 Alpha virt. eigenvalues --    0.15885   0.16217   0.16368   0.16532   0.16784
 Alpha virt. eigenvalues --    0.17111   0.17165   0.17393   0.17498   0.17765
 Alpha virt. eigenvalues --    0.18043   0.18261   0.18325   0.18486   0.18640
 Alpha virt. eigenvalues --    0.18937   0.19140   0.19373   0.19529   0.19612
 Alpha virt. eigenvalues --    0.19898   0.20097   0.20269   0.20482   0.20710
 Alpha virt. eigenvalues --    0.21061   0.21308   0.21591   0.21722   0.21764
 Alpha virt. eigenvalues --    0.22191   0.22415   0.22571   0.22866   0.22989
 Alpha virt. eigenvalues --    0.23354   0.23664   0.23851   0.23972   0.24349
 Alpha virt. eigenvalues --    0.24488   0.24523   0.24862   0.25002   0.25552
 Alpha virt. eigenvalues --    0.25751   0.26098   0.26304   0.26575   0.26739
 Alpha virt. eigenvalues --    0.27020   0.27497   0.27769   0.27811   0.28134
 Alpha virt. eigenvalues --    0.28305   0.28783   0.29135   0.29217   0.29721
 Alpha virt. eigenvalues --    0.29869   0.29995   0.30078   0.30446   0.30640
 Alpha virt. eigenvalues --    0.30977   0.31142   0.31161   0.31668   0.31749
 Alpha virt. eigenvalues --    0.31927   0.32080   0.32389   0.32642   0.32666
 Alpha virt. eigenvalues --    0.32865   0.33077   0.33263   0.33425   0.33583
 Alpha virt. eigenvalues --    0.33928   0.34139   0.34237   0.34339   0.34643
 Alpha virt. eigenvalues --    0.35028   0.35204   0.35303   0.35652   0.35801
 Alpha virt. eigenvalues --    0.35993   0.36234   0.36473   0.36673   0.36812
 Alpha virt. eigenvalues --    0.36991   0.37197   0.37494   0.37543   0.37844
 Alpha virt. eigenvalues --    0.38066   0.38149   0.38334   0.38451   0.38675
 Alpha virt. eigenvalues --    0.38769   0.38931   0.39062   0.39598   0.39758
 Alpha virt. eigenvalues --    0.39863   0.40058   0.40336   0.40510   0.40760
 Alpha virt. eigenvalues --    0.40986   0.41084   0.41220   0.41579   0.41773
 Alpha virt. eigenvalues --    0.42111   0.42331   0.42609   0.42666   0.42915
 Alpha virt. eigenvalues --    0.43019   0.43110   0.43262   0.43419   0.43859
 Alpha virt. eigenvalues --    0.44273   0.44315   0.44471   0.44559   0.44945
 Alpha virt. eigenvalues --    0.45248   0.45378   0.45509   0.45779   0.45856
 Alpha virt. eigenvalues --    0.46040   0.46142   0.46315   0.46525   0.46948
 Alpha virt. eigenvalues --    0.47237   0.47624   0.47782   0.48187   0.48614
 Alpha virt. eigenvalues --    0.48741   0.49134   0.49256   0.49445   0.50208
 Alpha virt. eigenvalues --    0.50463   0.50712   0.51235   0.51447   0.51580
 Alpha virt. eigenvalues --    0.51747   0.51935   0.52309   0.52887   0.52930
 Alpha virt. eigenvalues --    0.53578   0.53763   0.54144   0.54394   0.54808
 Alpha virt. eigenvalues --    0.54997   0.55516   0.55636   0.55843   0.56211
 Alpha virt. eigenvalues --    0.56539   0.56573   0.56881   0.57059   0.57095
 Alpha virt. eigenvalues --    0.57214   0.57495   0.58038   0.58142   0.58333
 Alpha virt. eigenvalues --    0.58450   0.58662   0.59037   0.59493   0.59727
 Alpha virt. eigenvalues --    0.59958   0.60242   0.60383   0.60574   0.60855
 Alpha virt. eigenvalues --    0.61292   0.61686   0.61872   0.62041   0.62317
 Alpha virt. eigenvalues --    0.62607   0.62976   0.63301   0.63512   0.63590
 Alpha virt. eigenvalues --    0.63940   0.64252   0.64552   0.64738   0.64928
 Alpha virt. eigenvalues --    0.65247   0.65406   0.65539   0.65895   0.66283
 Alpha virt. eigenvalues --    0.66580   0.66781   0.67207   0.67514   0.67825
 Alpha virt. eigenvalues --    0.67912   0.68255   0.68303   0.68511   0.68671
 Alpha virt. eigenvalues --    0.68834   0.69158   0.69267   0.69651   0.69956
 Alpha virt. eigenvalues --    0.69982   0.70542   0.70658   0.71278   0.71535
 Alpha virt. eigenvalues --    0.71643   0.72003   0.72185   0.72527   0.73041
 Alpha virt. eigenvalues --    0.73345   0.73571   0.73935   0.74114   0.74445
 Alpha virt. eigenvalues --    0.74855   0.74918   0.75120   0.75284   0.75500
 Alpha virt. eigenvalues --    0.75681   0.75929   0.76272   0.76444   0.76611
 Alpha virt. eigenvalues --    0.76861   0.77045   0.77665   0.77800   0.78087
 Alpha virt. eigenvalues --    0.78252   0.78383   0.78942   0.79003   0.79352
 Alpha virt. eigenvalues --    0.79457   0.79636   0.79753   0.80083   0.80480
 Alpha virt. eigenvalues --    0.80686   0.81240   0.81376   0.81553   0.82455
 Alpha virt. eigenvalues --    0.82634   0.82744   0.83061   0.83345   0.83490
 Alpha virt. eigenvalues --    0.83892   0.84186   0.84512   0.84786   0.84953
 Alpha virt. eigenvalues --    0.85076   0.85475   0.85761   0.86033   0.86253
 Alpha virt. eigenvalues --    0.86708   0.86796   0.87048   0.87354   0.87593
 Alpha virt. eigenvalues --    0.87667   0.88387   0.88735   0.89151   0.89336
 Alpha virt. eigenvalues --    0.89511   0.89987   0.90291   0.90741   0.90834
 Alpha virt. eigenvalues --    0.91242   0.91489   0.91859   0.92113   0.92551
 Alpha virt. eigenvalues --    0.92697   0.92828   0.93109   0.93528   0.93778
 Alpha virt. eigenvalues --    0.94191   0.94603   0.94735   0.95148   0.95644
 Alpha virt. eigenvalues --    0.95963   0.96060   0.96346   0.96718   0.97305
 Alpha virt. eigenvalues --    0.97412   0.97818   0.98068   0.98430   0.98676
 Alpha virt. eigenvalues --    0.98990   0.99335   0.99371   1.00187   1.00499
 Alpha virt. eigenvalues --    1.01050   1.01168   1.01310   1.01542   1.01834
 Alpha virt. eigenvalues --    1.02233   1.02610   1.02730   1.02944   1.03330
 Alpha virt. eigenvalues --    1.03604   1.04068   1.04435   1.05209   1.05595
 Alpha virt. eigenvalues --    1.05899   1.06250   1.06827   1.07052   1.07415
 Alpha virt. eigenvalues --    1.08097   1.08240   1.08918   1.09033   1.09394
 Alpha virt. eigenvalues --    1.09520   1.10160   1.10464   1.10801   1.11100
 Alpha virt. eigenvalues --    1.11797   1.12308   1.12807   1.13108   1.13237
 Alpha virt. eigenvalues --    1.13547   1.14099   1.14820   1.15448   1.15691
 Alpha virt. eigenvalues --    1.16067   1.16457   1.16596   1.17539   1.18157
 Alpha virt. eigenvalues --    1.18646   1.19087   1.19214   1.19667   1.20585
 Alpha virt. eigenvalues --    1.20909   1.21122   1.21436   1.21932   1.22344
 Alpha virt. eigenvalues --    1.22990   1.23767   1.24132   1.24542   1.25776
 Alpha virt. eigenvalues --    1.26097   1.26413   1.26963   1.27220   1.27495
 Alpha virt. eigenvalues --    1.27931   1.28058   1.28908   1.29233   1.29455
 Alpha virt. eigenvalues --    1.29766   1.30136   1.30372   1.30771   1.31205
 Alpha virt. eigenvalues --    1.31820   1.31902   1.32195   1.32866   1.33363
 Alpha virt. eigenvalues --    1.33573   1.34105   1.34794   1.35014   1.35288
 Alpha virt. eigenvalues --    1.35971   1.36437   1.36800   1.37217   1.37461
 Alpha virt. eigenvalues --    1.38159   1.39154   1.39526   1.40139   1.40881
 Alpha virt. eigenvalues --    1.41165   1.41609   1.42233   1.42971   1.43636
 Alpha virt. eigenvalues --    1.44048   1.44253   1.44495   1.45067   1.45391
 Alpha virt. eigenvalues --    1.46315   1.46674   1.46865   1.47598   1.47861
 Alpha virt. eigenvalues --    1.48284   1.49080   1.49498   1.50204   1.50765
 Alpha virt. eigenvalues --    1.51564   1.51867   1.52446   1.53065   1.53277
 Alpha virt. eigenvalues --    1.53738   1.54377   1.54803   1.55030   1.55345
 Alpha virt. eigenvalues --    1.56149   1.56819   1.57349   1.57503   1.58284
 Alpha virt. eigenvalues --    1.58649   1.59378   1.60133   1.60844   1.61130
 Alpha virt. eigenvalues --    1.61275   1.61706   1.62132   1.62547   1.63182
 Alpha virt. eigenvalues --    1.63645   1.64068   1.64316   1.64487   1.64989
 Alpha virt. eigenvalues --    1.65498   1.65955   1.66376   1.66723   1.67895
 Alpha virt. eigenvalues --    1.68163   1.68375   1.68752   1.69062   1.69687
 Alpha virt. eigenvalues --    1.71230   1.71498   1.71990   1.72265   1.72778
 Alpha virt. eigenvalues --    1.73222   1.73752   1.74076   1.74578   1.75279
 Alpha virt. eigenvalues --    1.75669   1.76170   1.76339   1.76589   1.76689
 Alpha virt. eigenvalues --    1.77471   1.77704   1.78188   1.78318   1.78690
 Alpha virt. eigenvalues --    1.79213   1.79710   1.80312   1.80568   1.80870
 Alpha virt. eigenvalues --    1.81154   1.81614   1.81888   1.82415   1.82470
 Alpha virt. eigenvalues --    1.82769   1.82971   1.83815   1.84113   1.84311
 Alpha virt. eigenvalues --    1.84416   1.85243   1.85564   1.85766   1.86564
 Alpha virt. eigenvalues --    1.86892   1.87413   1.87670   1.88301   1.88655
 Alpha virt. eigenvalues --    1.89089   1.89142   1.89582   1.90185   1.90258
 Alpha virt. eigenvalues --    1.90527   1.90987   1.91294   1.91631   1.91996
 Alpha virt. eigenvalues --    1.92985   1.93031   1.93234   1.93355   1.93698
 Alpha virt. eigenvalues --    1.94151   1.94801   1.95090   1.95589   1.96299
 Alpha virt. eigenvalues --    1.96325   1.97127   1.97209   1.97841   1.98658
 Alpha virt. eigenvalues --    1.98878   1.99405   2.00154   2.00683   2.01162
 Alpha virt. eigenvalues --    2.01751   2.02403   2.03055   2.03264   2.03623
 Alpha virt. eigenvalues --    2.04277   2.04859   2.05370   2.05668   2.06688
 Alpha virt. eigenvalues --    2.07463   2.07680   2.08001   2.08290   2.08473
 Alpha virt. eigenvalues --    2.09767   2.10545   2.11037   2.12034   2.12591
 Alpha virt. eigenvalues --    2.13138   2.13347   2.14008   2.14219   2.14654
 Alpha virt. eigenvalues --    2.15531   2.15819   2.16146   2.17361   2.17677
 Alpha virt. eigenvalues --    2.17775   2.18978   2.19317   2.19990   2.20968
 Alpha virt. eigenvalues --    2.21537   2.21736   2.22253   2.22442   2.22793
 Alpha virt. eigenvalues --    2.22858   2.23484   2.23757   2.24336   2.24627
 Alpha virt. eigenvalues --    2.25175   2.26166   2.26179   2.26649   2.27287
 Alpha virt. eigenvalues --    2.27854   2.28405   2.28800   2.29690   2.29822
 Alpha virt. eigenvalues --    2.30332   2.30379   2.30586   2.31947   2.32145
 Alpha virt. eigenvalues --    2.32504   2.32741   2.33443   2.33649   2.34544
 Alpha virt. eigenvalues --    2.34945   2.35351   2.36311   2.36441   2.37014
 Alpha virt. eigenvalues --    2.37244   2.37977   2.38763   2.39184   2.39720
 Alpha virt. eigenvalues --    2.40063   2.40808   2.41235   2.41584   2.41731
 Alpha virt. eigenvalues --    2.42235   2.43439   2.43693   2.44301   2.44692
 Alpha virt. eigenvalues --    2.44797   2.45344   2.45715   2.46088   2.46591
 Alpha virt. eigenvalues --    2.46818   2.47275   2.48010   2.48524   2.49211
 Alpha virt. eigenvalues --    2.49912   2.50063   2.51247   2.52108   2.53003
 Alpha virt. eigenvalues --    2.53142   2.54210   2.54905   2.54994   2.55751
 Alpha virt. eigenvalues --    2.56940   2.57414   2.57798   2.58819   2.59830
 Alpha virt. eigenvalues --    2.60289   2.61399   2.61980   2.62969   2.63430
 Alpha virt. eigenvalues --    2.64195   2.64628   2.66252   2.67151   2.67611
 Alpha virt. eigenvalues --    2.68218   2.68807   2.69991   2.70521   2.70963
 Alpha virt. eigenvalues --    2.73008   2.73091   2.73601   2.74605   2.76045
 Alpha virt. eigenvalues --    2.77636   2.78402   2.78749   2.80020   2.80058
 Alpha virt. eigenvalues --    2.81370   2.81845   2.82865   2.83824   2.85803
 Alpha virt. eigenvalues --    2.86442   2.87030   2.87514   2.87675   2.88926
 Alpha virt. eigenvalues --    2.89906   2.90509   2.91483   2.92155   2.93169
 Alpha virt. eigenvalues --    2.94292   2.95446   2.96331   2.96893   2.97350
 Alpha virt. eigenvalues --    2.97715   2.98201   2.99659   3.00261   3.02209
 Alpha virt. eigenvalues --    3.02721   3.04459   3.05592   3.09260   3.11161
 Alpha virt. eigenvalues --    3.12599   3.13340   3.14518   3.15766   3.17149
 Alpha virt. eigenvalues --    3.18976   3.19545   3.20892   3.24033   3.24311
 Alpha virt. eigenvalues --    3.27859   3.29347   3.30038   3.31933   3.34012
 Alpha virt. eigenvalues --    3.38142   3.40595   3.43332   3.47071   3.48621
 Alpha virt. eigenvalues --    3.49976   3.53225   3.54593   3.56789   3.57651
 Alpha virt. eigenvalues --    3.60270   3.62601   3.64147   3.65943   3.68789
 Alpha virt. eigenvalues --    3.72921   3.78017   3.79365   3.80305   3.80801
 Alpha virt. eigenvalues --    3.81012   3.81471   3.82152   3.82577   3.82781
 Alpha virt. eigenvalues --    3.83863   3.84474   3.86324   3.87164   3.90493
 Alpha virt. eigenvalues --    3.91685   3.93923   3.95684   3.97223   3.99484
 Alpha virt. eigenvalues --    3.99688   4.00774   4.02649   4.04919   4.06193
 Alpha virt. eigenvalues --    4.07568   4.10973   4.13632   4.14466   4.14609
 Alpha virt. eigenvalues --    4.18187   4.18396   4.19932   4.20605   4.22315
 Alpha virt. eigenvalues --    4.29359   4.31321   4.39071   4.40196   4.45635
 Alpha virt. eigenvalues --    4.62388   4.72290   4.82759   5.32243
          Condensed to atoms (all electrons):
 Mulliken charges:
               1
     1  C    0.090707
     2  C    0.664680
     3  C   -0.441690
     4  C    1.683271
     5  C   -0.009537
     6  C    0.742447
     7  C   -0.469152
     8  C    1.226763
     9  C    1.093839
    10  C   -0.152063
    11  C   -0.074393
    12  C    1.441164
    13  C    0.338021
    14  C    0.258095
    15  H   -0.640528
    16  H   -0.680535
    17  H   -0.745611
    18  N   -0.984382
    19  N   -0.961275
    20  O   -0.858696
    21  O   -0.891857
    22  O   -0.908033
    23  O   -0.792533
    24  C    0.678240
    25  H   -0.032700
    26  H   -0.029441
    27  H   -0.234336
    28  C    0.661515
    29  H   -0.016364
    30  H   -0.018945
    31  H   -0.223116
    32  C    0.998667
    33  C    0.435852
    34  S    0.341945
    35  C   -0.345191
    36  H   -0.763673
    37  C   -0.161304
    38  O   -1.085323
    39  C    1.195758
    40  C    0.959413
    41  C   -0.249324
    42  S    0.381079
    43  H   -0.347822
    44  H   -0.093220
    45  H   -0.027380
    46  C    1.039746
    47  O   -1.130299
    48  C   -0.262324
    49  H   -0.636233
    50  C    0.916533
    51  H   -0.428058
    52  H   -0.060763
    53  H   -0.330105
    54  H   -0.061530
 Sum of Mulliken charges =  -0.00000
 Mulliken charges with hydrogens summed into heavy atoms:
               1
     1  C    0.090707
     2  C    0.664680
     3  C   -0.441690
     4  C    1.683271
     5  C   -0.009537
     6  C   -0.003164
     7  C   -0.469152
     8  C    1.226763
     9  C    1.093839
    10  C   -0.152063
    11  C   -0.074393
    12  C    1.441164
    13  C   -0.342514
    14  C   -0.382432
    18  N   -0.984382
    19  N   -0.961275
    20  O   -0.858696
    21  O   -0.891857
    22  O   -0.908033
    23  O   -0.792533
    24  C    0.381763
    28  C    0.403089
    32  C    0.998667
    33  C   -0.327820
    34  S    0.341945
    35  C   -0.345191
    37  C   -0.161304
    38  O   -1.085323
    39  C    1.195758
    40  C    0.490992
    41  C   -0.249324
    42  S    0.381079
    46  C    0.403513
    47  O   -1.130299
    48  C   -0.690382
    50  C    0.464135
 Electronic spatial extent (au):  <R**2>=          22385.8057
 Charge=              0.0000 electrons
 Dipole moment (field-independent basis, Debye):
    X=             -2.5983    Y=             -0.3852    Z=              0.1357  Tot=              2.6302
 Quadrupole moment (field-independent basis, Debye-Ang):
   XX=           -218.7620   YY=           -217.1874   ZZ=           -219.1277
   XY=              5.6699   XZ=              5.0348   YZ=             15.2552
 Traceless Quadrupole moment (field-independent basis, Debye-Ang):
   XX=             -0.4030   YY=              1.1716   ZZ=             -0.7686
   XY=              5.6699   XZ=              5.0348   YZ=             15.2552
 Octapole moment (field-independent basis, Debye-Ang**2):
  XXX=           -341.4220  YYY=            -19.8722  ZZZ=             -0.7989  XYY=           -117.6564
  XXY=            -82.8530  XXZ=            -38.0755  XZZ=             -9.9655  YZZ=              1.0879
  YYZ=             -1.3439  XYZ=            -48.7317
 Hexadecapole moment (field-independent basis, Debye-Ang**3):
 XXXX=         -20865.2923 YYYY=          -7430.1772 ZZZZ=          -1061.6965 XXXY=            644.9611
 XXXZ=            202.4776 YYYX=           -303.0322 YYYZ=            161.8631 ZZZX=             17.8685
 ZZZY=             42.5541 XXYY=          -4964.6276 XXZZ=          -3817.9882 YYZZ=          -1349.2232
 XXYZ=            316.0113 YYXZ=             95.8929 ZZXY=            -16.1363
 N-N= 4.087631727810D+03 E-N=-1.370354642481D+04  KE= 2.346654432686D+03
 Unable to Open any file for archive entry.
 1\1\GINC-AX4\SP\RMP2-FC\Aug-CC-pVDZ\C26H18N2O6S2\NS5018\10-Dec-2020\0\
 \# mp2/aug-cc-pvdz MaxDisk=400GB\\NDI_-45_b3lyp.pdb\\0,1\C,0,2.644,-2.
 971,0.47\C,0,2.297,-1.54,0.261\C,0,3.314,-0.574,0.088\C,0,4.672,-0.952
 ,0.112\C,0,5.056,-2.373,0.333\C,0,0.98,-1.16,0.26\C,0,2.941,0.782,-0.1
 26\C,0,1.566,1.168,-0.138\C,0,0.565,0.195,0.101\C,0,1.246,2.577,-0.495
 \C,0,3.676,3.144,-0.605\C,0,3.982,1.722,-0.332\C,0,5.312,1.331,-0.299\
 C,0,5.665,-0.003,-0.074\H,0,6.701,-0.314,-0.05\H,0,6.071,2.087,-0.458\
 H,0,0.235,-1.925,0.434\N,0,2.321,3.463,-0.703\N,0,4.006,-3.293,0.494\O
 ,0,1.804,-3.839,0.616\O,0,6.218,-2.73,0.371\O,0,4.546,3.985,-0.754\O,0
 ,0.116,3.009,-0.635\C,0,1.955,4.845,-1.046\H,0,1.348,4.85,-1.951\H,0,1
 .371,5.287,-0.238\H,0,2.874,5.403,-1.197\C,0,4.337,-4.709,0.706\H,0,3.
 928,-5.043,1.66\H,0,3.898,-5.313,-0.088\H,0,5.419,-4.803,0.702\C,0,-0.
 872,0.432,0.223\C,0,-1.554,1.404,0.922\S,0,-1.992,-0.749,-0.434\C,0,-2
 .949,1.217,0.922\H,0,-1.06,2.227,1.411\C,0,-3.38,0.094,0.214\O,0,-3.87
 2,2.01,1.527\C,0,-4.731,-0.337,-0.015\C,0,-3.42,3.227,2.118\C,0,-5.156
 ,-1.473,-0.696\S,0,-6.134,0.559,0.557\H,0,-4.314,3.734,2.475\H,0,-2.75
 3,3.029,2.964\H,0,-2.908,3.854,1.382\C,0,-6.569,-1.62,-0.757\O,0,-4.23
 3,-2.314,-1.228\C,0,-7.217,-0.596,-0.123\H,0,-7.08,-2.439,-1.243\C,0,-
 4.693,-3.484,-1.898\H,0,-8.282,-0.459,-0.014\H,0,-5.306,-3.225,-2.766\
 H,0,-3.799,-4.009,-2.229\H,0,-5.262,-4.127,-1.22\\Version=ES64L-G16Rev
 C.01\State=1-A\HF=-2348.4054047\MP2=-2353.7291651\RMSD=8.718e-09\PG=C0
 1 [X(C26H18N2O6S2)]\\@
 The archive entry for this job was punched.


 HIGGLEDY-PIGGLEDY
 NIC'LAUS COPERNICUS
 LOOKED AT THE UNIVERSE,
 SPOKE TO THE THRONG;
 GIVE UP YOUR PTOLOMY,
 RISE UP AND FOLLOW ME,
 HELIOCENTRICALLY
 PTOLEMY'S WRONG.
   -- NANCY L. STARK
 Job cpu time:      24 days 15 hours 32 minutes 26.7 seconds.
 Elapsed time:       0 days 15 hours 16 minutes 53.6 seconds.
 File lengths (MBytes):  RWF= 256325 Int=      0 D2E=      0 Chk=     65 Scr=      1
 Normal termination of Gaussian 16 at Thu Dec 10 17:48:34 2020.
