 Entering Gaussian System, Link 0=g16
 Input=NDI_-150.gjf
 Output=NDI_-150.log
 Initial command:
 /apps/gaussian/g16-c01-avx/g16/l1.exe "/rds/general/ephemeral/tmpdir/pbs.2671500[6].pbs/Gau-1356891.inp" -scrdir="/rds/general/ephemeral/tmpdir/pbs.2671500[6].pbs/"
 Entering Link 1 = /apps/gaussian/g16-c01-avx/g16/l1.exe PID=   1356892.
  
 Copyright (c) 1988-2019, Gaussian, Inc.  All Rights Reserved.
  
 This is part of the Gaussian(R) 16 program.  It is based on
 the Gaussian(R) 09 system (copyright 2009, Gaussian, Inc.),
 the Gaussian(R) 03 system (copyright 2003, Gaussian, Inc.),
 the Gaussian(R) 98 system (copyright 1998, Gaussian, Inc.),
 the Gaussian(R) 94 system (copyright 1995, Gaussian, Inc.),
 the Gaussian 92(TM) system (copyright 1992, Gaussian, Inc.),
 the Gaussian 90(TM) system (copyright 1990, Gaussian, Inc.),
 the Gaussian 88(TM) system (copyright 1988, Gaussian, Inc.),
 the Gaussian 86(TM) system (copyright 1986, Carnegie Mellon
 University), and the Gaussian 82(TM) system (copyright 1983,
 Carnegie Mellon University). Gaussian is a federally registered
 trademark of Gaussian, Inc.
  
 This software contains proprietary and confidential information,
 including trade secrets, belonging to Gaussian, Inc.
  
 This software is provided under written license and may be
 used, copied, transmitted, or stored only in accord with that
 written license.
  
 The following legend is applicable only to US Government
 contracts under FAR:
  
                    RESTRICTED RIGHTS LEGEND
  
 Use, reproduction and disclosure by the US Government is
 subject to restrictions as set forth in subparagraphs (a)
 and (c) of the Commercial Computer Software - Restricted
 Rights clause in FAR 52.227-19.
  
 Gaussian, Inc.
 340 Quinnipiac St., Bldg. 40, Wallingford CT 06492
  
  
 ---------------------------------------------------------------
 Warning -- This program may not be used in any manner that
 competes with the business of Gaussian, Inc. or will provide
 assistance to any competitor of Gaussian, Inc.  The licensee
 of this program is prohibited from giving any competitor of
 Gaussian, Inc. access to this program.  By using this program,
 the user acknowledges that Gaussian, Inc. is engaged in the
 business of creating and licensing software in the field of
 computational chemistry and represents and warrants to the
 licensee that it is not a competitor of Gaussian, Inc. and that
 it will not use this program in any manner prohibited above.
 ---------------------------------------------------------------
  

 Cite this work as:
 Gaussian 16, Revision C.01,
 M. J. Frisch, G. W. Trucks, H. B. Schlegel, G. E. Scuseria, 
 M. A. Robb, J. R. Cheeseman, G. Scalmani, V. Barone, 
 G. A. Petersson, H. Nakatsuji, X. Li, M. Caricato, A. V. Marenich, 
 J. Bloino, B. G. Janesko, R. Gomperts, B. Mennucci, H. P. Hratchian, 
 J. V. Ortiz, A. F. Izmaylov, J. L. Sonnenberg, D. Williams-Young, 
 F. Ding, F. Lipparini, F. Egidi, J. Goings, B. Peng, A. Petrone, 
 T. Henderson, D. Ranasinghe, V. G. Zakrzewski, J. Gao, N. Rega, 
 G. Zheng, W. Liang, M. Hada, M. Ehara, K. Toyota, R. Fukuda, 
 J. Hasegawa, M. Ishida, T. Nakajima, Y. Honda, O. Kitao, H. Nakai, 
 T. Vreven, K. Throssell, J. A. Montgomery, Jr., J. E. Peralta, 
 F. Ogliaro, M. J. Bearpark, J. J. Heyd, E. N. Brothers, K. N. Kudin, 
 V. N. Staroverov, T. A. Keith, R. Kobayashi, J. Normand, 
 K. Raghavachari, A. P. Rendell, J. C. Burant, S. S. Iyengar, 
 J. Tomasi, M. Cossi, J. M. Millam, M. Klene, C. Adamo, R. Cammi, 
 J. W. Ochterski, R. L. Martin, K. Morokuma, O. Farkas, 
 J. B. Foresman, and D. J. Fox, Gaussian, Inc., Wallingford CT, 2019.
 
 ******************************************
 Gaussian 16:  ES64L-G16RevC.01  3-Jul-2019
                 9-Dec-2020 
 ******************************************
 %mem=480GB
 %nprocshared=40
 Will use up to   40 processors via shared memory.
 -------------------------------
 # mp2/aug-cc-pvdz MaxDisk=400GB
 -------------------------------
 1/38=1,172=1/1;
 2/12=2,17=6,18=5,40=1/2;
 3/5=16,7=10,11=9,25=1,30=1/1,2,3;
 4//1;
 5/5=2,38=5/2;
 8/10=1/1;
 9/16=-3/6;
 6/7=2,8=2,9=2,10=2/1;
 99/5=1,9=1/99;
 ------------------
 NDI_-150_b3lyp.pdb
 ------------------
 Symbolic Z-matrix:
 Charge =  0 Multiplicity = 1
 C                    -3.414    -2.684     0.489 
 C                    -2.731    -1.386     0.247 
 C                    -3.482    -0.198     0.101 
 C                    -4.889    -0.227     0.154 
 C                    -5.606    -1.508     0.388 
 C                    -1.366    -1.352     0.164 
 C                    -2.782     1.022    -0.094 
 C                    -1.353     1.054    -0.122 
 C                    -0.609    -0.153    -0.05 
 C                    -0.716     2.381    -0.221 
 C                    -2.911     3.499    -0.548 
 C                    -3.558     2.195    -0.282 
 C                    -4.945     2.145    -0.244 
 C                    -5.617     0.942    -0.016 
 H                    -6.697     0.9       0.023 
 H                    -5.491     3.067    -0.401 
 H                    -0.844    -2.285     0.311 
 N                    -1.516     3.491    -0.539 
 N                    -4.812    -2.658     0.547 
 O                    -2.811    -3.734     0.625 
 O                    -6.82     -1.57      0.443 
 O                    -3.544     4.52     -0.755 
 O                     0.476     2.564    -0.034 
 C                    -0.813     4.768    -0.723 
 H                    -0.417     5.125     0.23 
 H                     0.02      4.624    -1.41 
 H                    -1.526     5.484    -1.119 
 C                    -5.478    -3.946     0.786 
 H                    -5.231    -4.643    -0.015 
 H                    -5.134    -4.369     1.729 
 H                    -6.549    -3.767     0.816 
 C                     0.828    -0.398    -0.215 
 C                     1.309    -1.609    -0.712 
 S                     2.177     0.607     0.289 
 C                     2.704    -1.73     -0.674 
 H                     0.664    -2.371    -1.122 
 C                     3.349    -0.625    -0.114 
 O                     3.443    -2.779    -1.124 
 C                     4.762    -0.45      0.081 
 C                     2.751    -3.927    -1.608 
 C                     5.415     0.646     0.637 
 S                     5.952    -1.666    -0.374 
 H                     3.52     -4.647    -1.881 
 H                     2.107    -4.355    -0.833 
 H                     2.153    -3.682    -2.492 
 C                     6.829     0.514     0.695 
 O                     4.686     1.706     1.064 
 C                     7.252    -0.682     0.186 
 H                     7.498     1.263     1.093 
 C                     5.377     2.836     1.588 
 H                     8.267    -1.042     0.108 
 H                     6.049     3.268     0.839 
 H                     4.607     3.561     1.846 
 H                     5.944     2.57      2.486 
 
 Stoichiometry    C26H18N2O6S2
 Framework group  C1[X(C26H18N2O6S2)]
 Deg. of freedom   156
 Full point group                 C1      NOp   1
 Largest Abelian subgroup         C1      NOp   1
 Largest concise Abelian subgroup C1      NOp   1
                         Standard orientation:                         
 ---------------------------------------------------------------------
 Center     Atomic      Atomic             Coordinates (Angstroms)
 Number     Number       Type             X           Y           Z
 ---------------------------------------------------------------------
      1          6           0        3.413907   -2.684065   -0.488948
      2          6           0        2.730923   -1.386056   -0.246948
      3          6           0        3.481938   -0.198066   -0.100948
      4          6           0        4.888937   -0.227083   -0.153948
      5          6           0        5.605922   -1.508092   -0.387948
      6          6           0        1.365923   -1.352039   -0.163948
      7          6           0        2.781953    1.021943    0.094052
      8          6           0        1.352953    1.053961    0.122052
      9          6           0        0.608938   -0.153030    0.050052
     10          6           0        0.715970    2.380969    0.221052
     11          6           0        2.910984    3.498941    0.548052
     12          6           0        3.557968    2.194933    0.282052
     13          6           0        4.944967    2.144916    0.244052
     14          6           0        5.616952    0.941908    0.016052
     15          1           0        6.696951    0.899894   -0.022948
     16          1           0        5.490978    3.066909    0.401052
     17          1           0        0.843912   -2.285033   -0.310948
     18          7           0        1.515984    3.490959    0.539052
     19          7           0        4.811907   -2.658082   -0.546948
     20          8           0        2.810894   -3.734057   -0.624948
     21          8           0        6.819921   -1.570107   -0.442948
     22          8           0        3.543997    4.519934    0.755052
     23          8           0       -0.476028    2.563984    0.034052
     24          6           0        0.813000    4.767967    0.723052
     25          1           0        0.417004    5.124972   -0.229948
     26          1           0       -0.020002    4.623978    1.410052
     27          1           0        1.526009    5.483959    1.119052
     28          6           0        5.477891   -3.946091   -0.785948
     29          1           0        5.230883   -4.643087    0.015052
     30          1           0        5.133886   -4.369086   -1.728948
     31          1           0        6.548893   -3.767104   -0.815948
     32          6           0       -0.828065   -0.398012    0.215052
     33          6           0       -1.309080   -1.609006    0.712052
     34         16           0       -2.177052    0.607005   -0.288948
     35          6           0       -2.704081   -1.729989    0.674052
     36          1           0       -0.664089   -2.371014    1.122052
     37          6           0       -3.349067   -0.624981    0.114052
     38          8           0       -3.443094   -2.778980    1.124052
     39          6           0       -4.762065   -0.449963   -0.080948
     40          6           0       -2.751109   -3.926988    1.608052
     41          6           0       -5.415052    0.646045   -0.636948
     42         16           0       -5.952080   -1.665948    0.374052
     43          1           0       -3.520118   -4.646979    1.881052
     44          1           0       -2.107114   -4.354996    0.833052
     45          1           0       -2.153106   -3.681996    2.492052
     46          6           0       -6.829053    0.514063   -0.694948
     47          8           0       -4.686038    1.706036   -1.063948
     48          6           0       -7.252068   -0.681932   -0.185948
     49          1           0       -7.498044    1.263071   -1.092948
     50          6           0       -5.377024    2.836045   -1.587948
     51          1           0       -8.267073   -1.041919   -0.107948
     52          1           0       -6.049019    3.268053   -0.838948
     53          1           0       -4.607015    3.561035   -1.845948
     54          1           0       -5.944028    2.570052   -2.485948
 ---------------------------------------------------------------------
 Rotational constants (GHZ):           0.1659487           0.0569649           0.0439833
 Standard basis: Aug-CC-pVDZ (5D, 7F)
 There are  1070 symmetry adapted cartesian basis functions of A   symmetry.
 There are   998 symmetry adapted basis functions of A   symmetry.
   998 basis functions,  1822 primitive gaussians,  1070 cartesian basis functions
   134 alpha electrons      134 beta electrons
       nuclear repulsion energy      4091.4095560270 Hartrees.
 NAtoms=   54 NActive=   54 NUniq=   54 SFac= 1.00D+00 NAtFMM=   60 NAOKFM=F Big=F
 Integral buffers will be    131072 words long.
 Raffenetti 1 integral format.
 Two-electron integral symmetry is turned on.
 One-electron integrals computed using PRISM.
 NBasis=   998 RedAO= T EigKep=  1.08D-06  NBF=   998
 NBsUse=   988 1.00D-06 EigRej=  9.21D-07 NBFU=   988
 ExpMin= 2.97D-02 ExpMax= 1.11D+05 ExpMxC= 1.07D+03 IAcc=3 IRadAn=         5 AccDes= 0.00D+00
 Harris functional with IExCor=  205 and IRadAn=       5 diagonalized for initial guess.
 HarFok:  IExCor=  205 AccDes= 0.00D+00 IRadAn=         5 IDoV= 1 UseB2=F ITyADJ=14
 ICtDFT=  3500011 ScaDFX=  1.000000  1.000000  1.000000  1.000000
 FoFCou: FMM=F IPFlag=           0 FMFlag=      100000 FMFlg1=           0
         NFxFlg=           0 DoJE=T BraDBF=F KetDBF=T FulRan=T
         wScrn=  0.000000 ICntrl=       500 IOpCl=  0 I1Cent=   200000004 NGrid=           0
         NMat0=    1 NMatS0=      1 NMatT0=    0 NMatD0=    1 NMtDS0=    0 NMtDT0=    0
 Petite list used in FoFCou.
 Requested convergence on RMS density matrix=1.00D-08 within 128 cycles.
 Requested convergence on MAX density matrix=1.00D-06.
 Requested convergence on             energy=1.00D-06.
 No special actions if energy rises.
 Restarting incremental Fock formation.
 SCF Done:  E(RHF) =  -2348.39872843     A.U. after   21 cycles
            NFock= 21  Conv=0.63D-08     -V/T= 2.0008
 ExpMin= 2.97D-02 ExpMax= 1.11D+05 ExpMxC= 1.07D+03 IAcc=3 IRadAn=         5 AccDes= 0.00D+00
 HarFok:  IExCor=  205 AccDes= 0.00D+00 IRadAn=         5 IDoV=-2 UseB2=F ITyADJ=14
 ICtDFT= 12500011 ScaDFX=  1.000000  1.000000  1.000000  1.000000
 GSVD:  LWork=       -2288 too small for GESVD, short by       10340 words or       10340 for optimal perf.
 Range of M.O.s used for correlation:    45   988
 NBasis=   998 NAE=   134 NBE=   134 NFC=    44 NFV=     0
 NROrb=    944 NOA=    90 NOB=    90 NVA=   854 NVB=   854

 **** Warning!!: The largest alpha MO coefficient is  0.19485214D+03

 Disk-based method using OVN memory for 30 occupieds at a time.
 Estimated scratch disk usage= 45823225560 words.
 Actual    scratch disk usage= 33587605208 words.
 JobTyp=1 Pass  1:  I=   1 to  30 NPSUse= 40 ParTrn=T ParDer=T DoDerP=F.
 (rs|ai) integrals will be sorted in core.
 JobTyp=1 Pass  2:  I=  31 to  60 NPSUse= 40 ParTrn=T ParDer=T DoDerP=F.
 (rs|ai) integrals will be sorted in core.
 JobTyp=1 Pass  3:  I=  61 to  90 NPSUse= 40 ParTrn=T ParDer=T DoDerP=F.
 (rs|ai) integrals will be sorted in core.
 Spin components of T(2) and E(2):
     alpha-alpha T2 =       0.2775888931D+00 E2=     -0.7398012043D+00
     alpha-beta  T2 =       0.1355437967D+01 E2=     -0.3848848385D+01
     beta-beta   T2 =       0.2775888931D+00 E2=     -0.7398012043D+00
 ANorm=    0.1706052682D+01
 E2 =    -0.5328450794D+01 EUMP2 =    -0.23537271792215D+04

 **********************************************************************

            Population analysis using the SCF Density.

 **********************************************************************

 Orbital symmetries:
       Occupied  (A) (A) (A) (A) (A) (A) (A) (A) (A) (A) (A) (A)
                 (A) (A) (A) (A) (A) (A) (A) (A) (A) (A) (A) (A)
                 (A) (A) (A) (A) (A) (A) (A) (A) (A) (A) (A) (A)
                 (A) (A) (A) (A) (A) (A) (A) (A) (A) (A) (A) (A)
                 (A) (A) (A) (A) (A) (A) (A) (A) (A) (A) (A) (A)
                 (A) (A) (A) (A) (A) (A) (A) (A) (A) (A) (A) (A)
                 (A) (A) (A) (A) (A) (A) (A) (A) (A) (A) (A) (A)
                 (A) (A) (A) (A) (A) (A) (A) (A) (A) (A) (A) (A)
                 (A) (A) (A) (A) (A) (A) (A) (A) (A) (A) (A) (A)
                 (A) (A) (A) (A) (A) (A) (A) (A) (A) (A) (A) (A)
                 (A) (A) (A) (A) (A) (A) (A) (A) (A) (A) (A) (A)
                 (A) (A)
       Virtual   (A) (A) (A) (A) (A) (A) (A) (A) (A) (A) (A) (A)
                 (A) (A) (A) (A) (A) (A) (A) (A) (A) (A) (A) (A)
                 (A) (A) (A) (A) (A) (A) (A) (A) (A) (A) (A) (A)
                 (A) (A) (A) (A) (A) (A) (A) (A) (A) (A) (A) (A)
                 (A) (A) (A) (A) (A) (A) (A) (A) (A) (A) (A) (A)
                 (A) (A) (A) (A) (A) (A) (A) (A) (A) (A) (A) (A)
                 (A) (A) (A) (A) (A) (A) (A) (A) (A) (A) (A) (A)
                 (A) (A) (A) (A) (A) (A) (A) (A) (A) (A) (A) (A)
                 (A) (A) (A) (A) (A) (A) (A) (A) (A) (A) (A) (A)
                 (A) (A) (A) (A) (A) (A) (A) (A) (A) (A) (A) (A)
                 (A) (A) (A) (A) (A) (A) (A) (A) (A) (A) (A) (A)
                 (A) (A) (A) (A) (A) (A) (A) (A) (A) (A) (A) (A)
                 (A) (A) (A) (A) (A) (A) (A) (A) (A) (A) (A) (A)
                 (A) (A) (A) (A) (A) (A) (A) (A) (A) (A) (A) (A)
                 (A) (A) (A) (A) (A) (A) (A) (A) (A) (A) (A) (A)
                 (A) (A) (A) (A) (A) (A) (A) (A) (A) (A) (A) (A)
                 (A) (A) (A) (A) (A) (A) (A) (A) (A) (A) (A) (A)
                 (A) (A) (A) (A) (A) (A) (A) (A) (A) (A) (A) (A)
                 (A) (A) (A) (A) (A) (A) (A) (A) (A) (A) (A) (A)
                 (A) (A) (A) (A) (A) (A) (A) (A) (A) (A) (A) (A)
                 (A) (A) (A) (A) (A) (A) (A) (A) (A) (A) (A) (A)
                 (A) (A) (A) (A) (A) (A) (A) (A) (A) (A) (A) (A)
                 (A) (A) (A) (A) (A) (A) (A) (A) (A) (A) (A) (A)
                 (A) (A) (A) (A) (A) (A) (A) (A) (A) (A) (A) (A)
                 (A) (A) (A) (A) (A) (A) (A) (A) (A) (A) (A) (A)
                 (A) (A) (A) (A) (A) (A) (A) (A) (A) (A) (A) (A)
                 (A) (A) (A) (A) (A) (A) (A) (A) (A) (A) (A) (A)
                 (A) (A) (A) (A) (A) (A) (A) (A) (A) (A) (A) (A)
                 (A) (A) (A) (A) (A) (A) (A) (A) (A) (A) (A) (A)
                 (A) (A) (A) (A) (A) (A) (A) (A) (A) (A) (A) (A)
                 (A) (A) (A) (A) (A) (A) (A) (A) (A) (A) (A) (A)
                 (A) (A) (A) (A) (A) (A) (A) (A) (A) (A) (A) (A)
                 (A) (A) (A) (A) (A) (A) (A) (A) (A) (A) (A) (A)
                 (A) (A) (A) (A) (A) (A) (A) (A) (A) (A) (A) (A)
                 (A) (A) (A) (A) (A) (A) (A) (A) (A) (A) (A) (A)
                 (A) (A) (A) (A) (A) (A) (A) (A) (A) (A) (A) (A)
                 (A) (A) (A) (A) (A) (A) (A) (A) (A) (A) (A) (A)
                 (A) (A) (A) (A) (A) (A) (A) (A) (A) (A) (A) (A)
                 (A) (A) (A) (A) (A) (A) (A) (A) (A) (A) (A) (A)
                 (A) (A) (A) (A) (A) (A) (A) (A) (A) (A) (A) (A)
                 (A) (A) (A) (A) (A) (A) (A) (A) (A) (A) (A) (A)
                 (A) (A) (A) (A) (A) (A) (A) (A) (A) (A) (A) (A)
                 (A) (A) (A) (A) (A) (A) (A) (A) (A) (A) (A) (A)
                 (A) (A) (A) (A) (A) (A) (A) (A) (A) (A) (A) (A)
                 (A) (A) (A) (A) (A) (A) (A) (A) (A) (A) (A) (A)
                 (A) (A) (A) (A) (A) (A) (A) (A) (A) (A) (A) (A)
                 (A) (A) (A) (A) (A) (A) (A) (A) (A) (A) (A) (A)
                 (A) (A) (A) (A) (A) (A) (A) (A) (A) (A) (A) (A)
                 (A) (A) (A) (A) (A) (A) (A) (A) (A) (A) (A) (A)
                 (A) (A) (A) (A) (A) (A) (A) (A) (A) (A) (A) (A)
                 (A) (A) (A) (A) (A) (A) (A) (A) (A) (A) (A) (A)
                 (A) (A) (A) (A) (A) (A) (A) (A) (A) (A) (A) (A)
                 (A) (A) (A) (A) (A) (A) (A) (A) (A) (A) (A) (A)
                 (A) (A) (A) (A) (A) (A) (A) (A) (A) (A) (A) (A)
                 (A) (A) (A) (A) (A) (A) (A) (A) (A) (A) (A) (A)
                 (A) (A) (A) (A) (A) (A) (A) (A) (A) (A) (A) (A)
                 (A) (A) (A) (A) (A) (A) (A) (A) (A) (A) (A) (A)
                 (A) (A) (A) (A) (A) (A) (A) (A) (A) (A) (A) (A)
                 (A) (A) (A) (A) (A) (A) (A) (A) (A) (A) (A) (A)
                 (A) (A) (A) (A) (A) (A) (A) (A) (A) (A) (A) (A)
                 (A) (A) (A) (A) (A) (A) (A) (A) (A) (A) (A) (A)
                 (A) (A) (A) (A) (A) (A) (A) (A) (A) (A) (A) (A)
                 (A) (A) (A) (A) (A) (A) (A) (A) (A) (A) (A) (A)
                 (A) (A) (A) (A) (A) (A) (A) (A) (A) (A) (A) (A)
                 (A) (A) (A) (A) (A) (A) (A) (A) (A) (A) (A) (A)
                 (A) (A) (A) (A) (A) (A) (A) (A) (A) (A) (A) (A)
                 (A) (A) (A) (A) (A) (A) (A) (A) (A) (A) (A) (A)
                 (A) (A) (A) (A) (A) (A) (A) (A) (A) (A) (A) (A)
                 (A) (A) (A) (A) (A) (A) (A) (A) (A) (A) (A) (A)
                 (A) (A) (A) (A) (A) (A) (A) (A) (A) (A) (A) (A)
                 (A) (A) (A) (A) (A) (A) (A) (A) (A) (A) (A) (A)
                 (A) (A)
 The electronic state is 1-A.
 Alpha  occ. eigenvalues --  -91.98696 -91.98602 -20.60274 -20.60040 -20.56981
 Alpha  occ. eigenvalues --  -20.56915 -20.56424 -20.56150 -15.64033 -15.63481
 Alpha  occ. eigenvalues --  -11.40055 -11.39904 -11.39445 -11.39286 -11.31760
 Alpha  occ. eigenvalues --  -11.31359 -11.30505 -11.30067 -11.29968 -11.29962
 Alpha  occ. eigenvalues --  -11.29455 -11.29388 -11.29208 -11.29127 -11.28862
 Alpha  occ. eigenvalues --  -11.28606 -11.28488 -11.28322 -11.28174 -11.27919
 Alpha  occ. eigenvalues --  -11.27750 -11.27447 -11.27101 -11.27072 -11.25718
 Alpha  occ. eigenvalues --  -11.24920  -8.98687  -8.98633  -6.66844  -6.66748
 Alpha  occ. eigenvalues --   -6.66745  -6.66654  -6.66560  -6.66464  -1.43529
 Alpha  occ. eigenvalues --   -1.43163  -1.42312  -1.41965  -1.41577  -1.41055
 Alpha  occ. eigenvalues --   -1.27614  -1.27108  -1.23034  -1.19005  -1.17280
 Alpha  occ. eigenvalues --   -1.15315  -1.12714  -1.07865  -1.05813  -1.03673
 Alpha  occ. eigenvalues --   -1.00815  -1.00190  -0.99444  -0.97758  -0.97009
 Alpha  occ. eigenvalues --   -0.96052  -0.93939  -0.92302  -0.89841  -0.88856
 Alpha  occ. eigenvalues --   -0.88292  -0.86873  -0.81464  -0.79833  -0.78924
 Alpha  occ. eigenvalues --   -0.78010  -0.76430  -0.74577  -0.73777  -0.73163
 Alpha  occ. eigenvalues --   -0.72142  -0.70508  -0.69607  -0.67978  -0.67288
 Alpha  occ. eigenvalues --   -0.66793  -0.66564  -0.66417  -0.66088  -0.65924
 Alpha  occ. eigenvalues --   -0.65377  -0.64848  -0.64412  -0.63870  -0.63595
 Alpha  occ. eigenvalues --   -0.62727  -0.61578  -0.60936  -0.59950  -0.59351
 Alpha  occ. eigenvalues --   -0.59175  -0.57310  -0.57123  -0.56704  -0.56660
 Alpha  occ. eigenvalues --   -0.56491  -0.56380  -0.56194  -0.55760  -0.55532
 Alpha  occ. eigenvalues --   -0.53685  -0.53057  -0.52882  -0.52106  -0.51375
 Alpha  occ. eigenvalues --   -0.50943  -0.49259  -0.48272  -0.48162  -0.46951
 Alpha  occ. eigenvalues --   -0.46578  -0.46302  -0.46047  -0.45608  -0.43657
 Alpha  occ. eigenvalues --   -0.42980  -0.41916  -0.41272  -0.38936  -0.35047
 Alpha  occ. eigenvalues --   -0.33899  -0.33295  -0.33017  -0.25103
 Alpha virt. eigenvalues --   -0.01750   0.02988   0.03290   0.03563   0.04004
 Alpha virt. eigenvalues --    0.04231   0.04408   0.04825   0.05131   0.05467
 Alpha virt. eigenvalues --    0.05667   0.05827   0.06068   0.06222   0.06726
 Alpha virt. eigenvalues --    0.06786   0.06904   0.07381   0.07755   0.07852
 Alpha virt. eigenvalues --    0.08626   0.08979   0.08996   0.09237   0.09506
 Alpha virt. eigenvalues --    0.09867   0.10119   0.10670   0.10899   0.11198
 Alpha virt. eigenvalues --    0.11602   0.11906   0.12050   0.12409   0.12800
 Alpha virt. eigenvalues --    0.13111   0.13347   0.13423   0.13675   0.14120
 Alpha virt. eigenvalues --    0.14136   0.14294   0.14642   0.14811   0.14954
 Alpha virt. eigenvalues --    0.15047   0.15186   0.15553   0.15702   0.15993
 Alpha virt. eigenvalues --    0.16229   0.16318   0.16519   0.16589   0.16691
 Alpha virt. eigenvalues --    0.16918   0.17191   0.17363   0.17465   0.17910
 Alpha virt. eigenvalues --    0.17996   0.18333   0.18439   0.18580   0.18821
 Alpha virt. eigenvalues --    0.19183   0.19502   0.19711   0.19811   0.19873
 Alpha virt. eigenvalues --    0.20020   0.20315   0.20550   0.20830   0.20982
 Alpha virt. eigenvalues --    0.21214   0.21307   0.21507   0.21608   0.21650
 Alpha virt. eigenvalues --    0.22258   0.22626   0.22829   0.23089   0.23306
 Alpha virt. eigenvalues --    0.23517   0.23752   0.23953   0.24022   0.24106
 Alpha virt. eigenvalues --    0.24448   0.24642   0.24776   0.25184   0.25286
 Alpha virt. eigenvalues --    0.25682   0.26275   0.26360   0.26550   0.26844
 Alpha virt. eigenvalues --    0.26944   0.27618   0.27790   0.27912   0.28447
 Alpha virt. eigenvalues --    0.28625   0.28840   0.28995   0.29332   0.29451
 Alpha virt. eigenvalues --    0.29606   0.29863   0.30457   0.30566   0.30727
 Alpha virt. eigenvalues --    0.31078   0.31152   0.31444   0.31566   0.31806
 Alpha virt. eigenvalues --    0.31932   0.32037   0.32274   0.32514   0.32738
 Alpha virt. eigenvalues --    0.32986   0.33049   0.33359   0.33507   0.33603
 Alpha virt. eigenvalues --    0.33727   0.33986   0.34446   0.34650   0.34697
 Alpha virt. eigenvalues --    0.35082   0.35227   0.35231   0.35370   0.35833
 Alpha virt. eigenvalues --    0.36036   0.36229   0.36364   0.36549   0.36707
 Alpha virt. eigenvalues --    0.37031   0.37241   0.37271   0.37552   0.37695
 Alpha virt. eigenvalues --    0.37935   0.38033   0.38325   0.38472   0.38518
 Alpha virt. eigenvalues --    0.38877   0.38962   0.39324   0.39443   0.39584
 Alpha virt. eigenvalues --    0.40063   0.40164   0.40331   0.40432   0.40696
 Alpha virt. eigenvalues --    0.40884   0.41096   0.41401   0.41657   0.41852
 Alpha virt. eigenvalues --    0.42083   0.42296   0.42507   0.42762   0.42912
 Alpha virt. eigenvalues --    0.43154   0.43406   0.43476   0.43611   0.43832
 Alpha virt. eigenvalues --    0.44006   0.44309   0.44654   0.44800   0.44882
 Alpha virt. eigenvalues --    0.45128   0.45292   0.45491   0.45510   0.45863
 Alpha virt. eigenvalues --    0.46100   0.46382   0.46583   0.46817   0.46993
 Alpha virt. eigenvalues --    0.47177   0.47582   0.47948   0.48136   0.48632
 Alpha virt. eigenvalues --    0.48732   0.49068   0.49173   0.49734   0.49923
 Alpha virt. eigenvalues --    0.50241   0.50680   0.50804   0.51397   0.51882
 Alpha virt. eigenvalues --    0.52131   0.52338   0.52544   0.53010   0.53084
 Alpha virt. eigenvalues --    0.53275   0.53818   0.54018   0.54109   0.54457
 Alpha virt. eigenvalues --    0.54656   0.55505   0.55761   0.55905   0.56058
 Alpha virt. eigenvalues --    0.56279   0.56618   0.56825   0.56928   0.57034
 Alpha virt. eigenvalues --    0.57380   0.57424   0.57847   0.57928   0.58545
 Alpha virt. eigenvalues --    0.58830   0.59257   0.59441   0.59644   0.59800
 Alpha virt. eigenvalues --    0.60138   0.60373   0.60698   0.60920   0.61123
 Alpha virt. eigenvalues --    0.61554   0.61798   0.61935   0.62398   0.62818
 Alpha virt. eigenvalues --    0.62946   0.63077   0.63246   0.63639   0.63834
 Alpha virt. eigenvalues --    0.63975   0.64211   0.64529   0.64729   0.64960
 Alpha virt. eigenvalues --    0.65280   0.65544   0.65856   0.66153   0.66472
 Alpha virt. eigenvalues --    0.66831   0.66902   0.67139   0.67351   0.67463
 Alpha virt. eigenvalues --    0.67751   0.68060   0.68161   0.68488   0.68651
 Alpha virt. eigenvalues --    0.68886   0.69097   0.69425   0.69611   0.70107
 Alpha virt. eigenvalues --    0.70291   0.70533   0.70738   0.71161   0.71322
 Alpha virt. eigenvalues --    0.71721   0.72132   0.72252   0.72465   0.72534
 Alpha virt. eigenvalues --    0.73287   0.73367   0.73526   0.74086   0.74232
 Alpha virt. eigenvalues --    0.74459   0.74889   0.75001   0.75222   0.75265
 Alpha virt. eigenvalues --    0.75591   0.76156   0.76236   0.76443   0.76606
 Alpha virt. eigenvalues --    0.76837   0.76961   0.77349   0.77635   0.77726
 Alpha virt. eigenvalues --    0.77846   0.78243   0.78519   0.79055   0.79341
 Alpha virt. eigenvalues --    0.79665   0.79756   0.80142   0.80507   0.80566
 Alpha virt. eigenvalues --    0.81187   0.81434   0.81732   0.82258   0.82321
 Alpha virt. eigenvalues --    0.82785   0.82967   0.83184   0.83431   0.83733
 Alpha virt. eigenvalues --    0.83823   0.84112   0.84577   0.84774   0.85276
 Alpha virt. eigenvalues --    0.85380   0.85646   0.85768   0.86031   0.86307
 Alpha virt. eigenvalues --    0.86590   0.86774   0.87081   0.87375   0.87685
 Alpha virt. eigenvalues --    0.88232   0.88557   0.89006   0.89163   0.89699
 Alpha virt. eigenvalues --    0.89780   0.90000   0.90267   0.90674   0.90800
 Alpha virt. eigenvalues --    0.91654   0.91686   0.92129   0.92179   0.92647
 Alpha virt. eigenvalues --    0.92941   0.93206   0.93346   0.93547   0.93910
 Alpha virt. eigenvalues --    0.94340   0.94738   0.95333   0.95495   0.95935
 Alpha virt. eigenvalues --    0.96048   0.96389   0.96453   0.96913   0.97265
 Alpha virt. eigenvalues --    0.97674   0.97779   0.98571   0.98732   0.99217
 Alpha virt. eigenvalues --    0.99389   0.99563   0.99896   1.00176   1.00502
 Alpha virt. eigenvalues --    1.00824   1.01117   1.01406   1.01763   1.02173
 Alpha virt. eigenvalues --    1.02523   1.02756   1.03131   1.03465   1.04137
 Alpha virt. eigenvalues --    1.04225   1.04594   1.04989   1.05538   1.05954
 Alpha virt. eigenvalues --    1.06224   1.06886   1.07203   1.07439   1.07454
 Alpha virt. eigenvalues --    1.07885   1.08314   1.08720   1.09148   1.09409
 Alpha virt. eigenvalues --    1.10284   1.10311   1.10846   1.11129   1.11472
 Alpha virt. eigenvalues --    1.11879   1.12253   1.12309   1.13031   1.13613
 Alpha virt. eigenvalues --    1.14116   1.14601   1.15379   1.15539   1.15867
 Alpha virt. eigenvalues --    1.16518   1.16672   1.17250   1.17699   1.18306
 Alpha virt. eigenvalues --    1.18576   1.19085   1.19596   1.19728   1.20232
 Alpha virt. eigenvalues --    1.20402   1.21803   1.21833   1.22291   1.23013
 Alpha virt. eigenvalues --    1.23821   1.24017   1.24475   1.24683   1.24885
 Alpha virt. eigenvalues --    1.25763   1.25918   1.26745   1.27127   1.27414
 Alpha virt. eigenvalues --    1.28048   1.28229   1.28737   1.28916   1.29495
 Alpha virt. eigenvalues --    1.29728   1.29918   1.30467   1.30821   1.31412
 Alpha virt. eigenvalues --    1.32033   1.32487   1.32893   1.33003   1.33921
 Alpha virt. eigenvalues --    1.34066   1.34325   1.34879   1.35197   1.36070
 Alpha virt. eigenvalues --    1.36250   1.36645   1.37431   1.37913   1.38408
 Alpha virt. eigenvalues --    1.38718   1.39093   1.40067   1.40669   1.41211
 Alpha virt. eigenvalues --    1.41807   1.41997   1.42913   1.43024   1.43864
 Alpha virt. eigenvalues --    1.44216   1.44555   1.45246   1.45920   1.46188
 Alpha virt. eigenvalues --    1.46736   1.46942   1.47533   1.47738   1.48047
 Alpha virt. eigenvalues --    1.49046   1.49141   1.49640   1.50493   1.51235
 Alpha virt. eigenvalues --    1.51599   1.52202   1.52831   1.53167   1.53587
 Alpha virt. eigenvalues --    1.53746   1.54010   1.54862   1.55050   1.55977
 Alpha virt. eigenvalues --    1.56266   1.57280   1.57312   1.57850   1.58032
 Alpha virt. eigenvalues --    1.58995   1.59470   1.59541   1.60702   1.61044
 Alpha virt. eigenvalues --    1.61556   1.62426   1.62506   1.62747   1.63583
 Alpha virt. eigenvalues --    1.64068   1.64487   1.64591   1.65095   1.65449
 Alpha virt. eigenvalues --    1.66192   1.66755   1.66901   1.67309   1.67771
 Alpha virt. eigenvalues --    1.68141   1.68345   1.69581   1.70475   1.70857
 Alpha virt. eigenvalues --    1.70982   1.71438   1.71962   1.72682   1.72817
 Alpha virt. eigenvalues --    1.73478   1.74056   1.74431   1.74816   1.74976
 Alpha virt. eigenvalues --    1.75574   1.76091   1.76435   1.76984   1.77339
 Alpha virt. eigenvalues --    1.77724   1.78206   1.78738   1.79274   1.79530
 Alpha virt. eigenvalues --    1.79864   1.80335   1.80656   1.80897   1.81323
 Alpha virt. eigenvalues --    1.81536   1.81980   1.82086   1.82446   1.82880
 Alpha virt. eigenvalues --    1.82948   1.83140   1.83797   1.84126   1.84733
 Alpha virt. eigenvalues --    1.84819   1.84977   1.85981   1.86349   1.86898
 Alpha virt. eigenvalues --    1.87322   1.87800   1.88413   1.88635   1.88750
 Alpha virt. eigenvalues --    1.88814   1.89276   1.89469   1.90149   1.90507
 Alpha virt. eigenvalues --    1.90643   1.91275   1.91313   1.91805   1.91994
 Alpha virt. eigenvalues --    1.92347   1.92898   1.92936   1.93758   1.94028
 Alpha virt. eigenvalues --    1.94104   1.94660   1.95137   1.95717   1.96435
 Alpha virt. eigenvalues --    1.96640   1.97091   1.97554   1.98362   1.98529
 Alpha virt. eigenvalues --    1.99076   1.99913   2.00580   2.00914   2.01322
 Alpha virt. eigenvalues --    2.02019   2.02062   2.02385   2.03458   2.04258
 Alpha virt. eigenvalues --    2.04806   2.05201   2.05556   2.05679   2.06935
 Alpha virt. eigenvalues --    2.07415   2.07950   2.08365   2.08764   2.09009
 Alpha virt. eigenvalues --    2.09421   2.10423   2.10617   2.12056   2.12469
 Alpha virt. eigenvalues --    2.12853   2.13497   2.13735   2.14407   2.14527
 Alpha virt. eigenvalues --    2.15648   2.15795   2.16275   2.17300   2.17442
 Alpha virt. eigenvalues --    2.18315   2.18958   2.19398   2.19757   2.20670
 Alpha virt. eigenvalues --    2.21556   2.21909   2.22361   2.22702   2.23032
 Alpha virt. eigenvalues --    2.23626   2.23894   2.24097   2.24869   2.25291
 Alpha virt. eigenvalues --    2.25483   2.26067   2.26313   2.27425   2.27768
 Alpha virt. eigenvalues --    2.28317   2.28482   2.28587   2.29019   2.29543
 Alpha virt. eigenvalues --    2.29873   2.30310   2.30620   2.31400   2.31741
 Alpha virt. eigenvalues --    2.32517   2.32888   2.33099   2.33810   2.34080
 Alpha virt. eigenvalues --    2.34742   2.34949   2.35981   2.36348   2.37010
 Alpha virt. eigenvalues --    2.37813   2.38453   2.38689   2.39045   2.39891
 Alpha virt. eigenvalues --    2.40234   2.40587   2.41026   2.41496   2.41726
 Alpha virt. eigenvalues --    2.42697   2.42934   2.43373   2.44030   2.44643
 Alpha virt. eigenvalues --    2.44895   2.45514   2.46075   2.46310   2.47074
 Alpha virt. eigenvalues --    2.47334   2.47733   2.48132   2.48681   2.49206
 Alpha virt. eigenvalues --    2.49328   2.50255   2.51422   2.52125   2.52976
 Alpha virt. eigenvalues --    2.53507   2.53956   2.54947   2.55768   2.56626
 Alpha virt. eigenvalues --    2.57090   2.57508   2.57761   2.58700   2.60129
 Alpha virt. eigenvalues --    2.60552   2.60691   2.61687   2.62053   2.63544
 Alpha virt. eigenvalues --    2.64298   2.65216   2.65793   2.66685   2.68346
 Alpha virt. eigenvalues --    2.69023   2.69172   2.69634   2.69963   2.70927
 Alpha virt. eigenvalues --    2.71600   2.72821   2.73347   2.74499   2.76354
 Alpha virt. eigenvalues --    2.76572   2.77901   2.78097   2.79269   2.79580
 Alpha virt. eigenvalues --    2.79899   2.81541   2.82483   2.84065   2.85213
 Alpha virt. eigenvalues --    2.86446   2.86904   2.87787   2.88644   2.89168
 Alpha virt. eigenvalues --    2.89934   2.90781   2.92604   2.93497   2.94214
 Alpha virt. eigenvalues --    2.95365   2.95832   2.96551   2.97012   2.97768
 Alpha virt. eigenvalues --    2.98899   3.00053   3.00714   3.02028   3.02385
 Alpha virt. eigenvalues --    3.04525   3.06660   3.08359   3.09201   3.11737
 Alpha virt. eigenvalues --    3.13314   3.14201   3.14978   3.17361   3.18495
 Alpha virt. eigenvalues --    3.19859   3.21539   3.23085   3.24533   3.25326
 Alpha virt. eigenvalues --    3.27880   3.29469   3.30960   3.32184   3.36412
 Alpha virt. eigenvalues --    3.38223   3.42011   3.43192   3.46743   3.49230
 Alpha virt. eigenvalues --    3.49563   3.50780   3.54424   3.57102   3.57755
 Alpha virt. eigenvalues --    3.58709   3.61527   3.62969   3.65865   3.66972
 Alpha virt. eigenvalues --    3.73625   3.76517   3.78279   3.79825   3.80726
 Alpha virt. eigenvalues --    3.80959   3.81559   3.82179   3.82547   3.82987
 Alpha virt. eigenvalues --    3.83250   3.84490   3.86803   3.87432   3.90057
 Alpha virt. eigenvalues --    3.91179   3.92932   3.92989   3.95271   3.98925
 Alpha virt. eigenvalues --    3.99701   4.01219   4.04588   4.05687   4.06628
 Alpha virt. eigenvalues --    4.08396   4.10792   4.11916   4.13314   4.14781
 Alpha virt. eigenvalues --    4.16263   4.17853   4.18789   4.18948   4.22003
 Alpha virt. eigenvalues --    4.26919   4.29923   4.36660   4.41076   4.49277
 Alpha virt. eigenvalues --    4.61496   4.70857   4.75360   5.26917
          Condensed to atoms (all electrons):
 Mulliken charges:
               1
     1  C    0.007871
     2  C    0.800286
     3  C   -0.521472
     4  C    1.517720
     5  C    0.049461
     6  C    0.598908
     7  C    0.189547
     8  C    1.233104
     9  C    1.061039
    10  C   -0.200314
    11  C   -0.129130
    12  C    1.399288
    13  C    0.248849
    14  C    0.297315
    15  H   -0.639981
    16  H   -0.691831
    17  H   -0.728423
    18  N   -0.980799
    19  N   -0.967986
    20  O   -0.856913
    21  O   -0.890936
    22  O   -0.896421
    23  O   -0.727464
    24  C    0.700706
    25  H   -0.024887
    26  H   -0.056819
    27  H   -0.197779
    28  C    0.655088
    29  H   -0.015219
    30  H   -0.024661
    31  H   -0.226404
    32  C    0.716268
    33  C    0.132486
    34  S    0.551123
    35  C   -0.108782
    36  H   -0.742419
    37  C   -0.289599
    38  O   -1.097559
    39  C    1.192968
    40  C    0.958333
    41  C   -0.198708
    42  S    0.372552
    43  H   -0.352287
    44  H   -0.040416
    45  H   -0.078343
    46  C    0.988105
    47  O   -1.126007
    48  C   -0.254973
    49  H   -0.632722
    50  C    0.910637
    51  H   -0.425942
    52  H   -0.052128
    53  H   -0.333666
    54  H   -0.070662
 Sum of Mulliken charges =  -0.00000
 Mulliken charges with hydrogens summed into heavy atoms:
               1
     1  C    0.007871
     2  C    0.800286
     3  C   -0.521472
     4  C    1.517720
     5  C    0.049461
     6  C   -0.129515
     7  C    0.189547
     8  C    1.233104
     9  C    1.061039
    10  C   -0.200314
    11  C   -0.129130
    12  C    1.399288
    13  C   -0.442983
    14  C   -0.342666
    18  N   -0.980799
    19  N   -0.967986
    20  O   -0.856913
    21  O   -0.890936
    22  O   -0.896421
    23  O   -0.727464
    24  C    0.421221
    28  C    0.388804
    32  C    0.716268
    33  C   -0.609933
    34  S    0.551123
    35  C   -0.108782
    37  C   -0.289599
    38  O   -1.097559
    39  C    1.192968
    40  C    0.487287
    41  C   -0.198708
    42  S    0.372552
    46  C    0.355384
    47  O   -1.126007
    48  C   -0.680916
    50  C    0.454181
 Electronic spatial extent (au):  <R**2>=          22601.9068
 Charge=             -0.0000 electrons
 Dipole moment (field-independent basis, Debye):
    X=             -2.9235    Y=             -0.2305    Z=              0.1131  Tot=              2.9347
 Quadrupole moment (field-independent basis, Debye-Ang):
   XX=           -213.8027   YY=           -219.2957   ZZ=           -221.9065
   XY=            -12.2723   XZ=              5.0839   YZ=            -11.5345
 Traceless Quadrupole moment (field-independent basis, Debye-Ang):
   XX=              4.5323   YY=             -0.9607   ZZ=             -3.5716
   XY=            -12.2723   XZ=              5.0839   YZ=            -11.5345
 Octapole moment (field-independent basis, Debye-Ang**2):
  XXX=           -385.2801  YYY=            -43.9310  ZZZ=             -2.9639  XYY=           -103.4577
  XXY=             50.7206  XXZ=            -51.6663  XZZ=             -2.2718  YZZ=             -1.6498
  YYZ=              6.9133  XYZ=             27.6514
 Hexadecapole moment (field-independent basis, Debye-Ang**3):
 XXXX=         -21626.8943 YYYY=          -7469.8683 ZZZZ=           -801.0955 XXXY=           -237.9547
 XXXZ=            394.1234 YYYX=           -494.7230 YYYZ=           -197.7489 ZZZX=             -6.8599
 ZZZY=            -25.2527 XXYY=          -4814.5220 XXZZ=          -3944.4406 YYZZ=          -1305.0758
 XXYZ=           -213.8633 YYXZ=            -78.5944 ZZXY=            -90.5584
 N-N= 4.091409556027D+03 E-N=-1.371119065765D+04  KE= 2.346634019407D+03
 Unable to Open any file for archive entry.
 1\1\GINC-AX4\SP\RMP2-FC\Aug-CC-pVDZ\C26H18N2O6S2\NS5018\09-Dec-2020\0\
 \# mp2/aug-cc-pvdz MaxDisk=400GB\\NDI_-150_b3lyp.pdb\\0,1\C,0,-3.414,-
 2.684,0.489\C,0,-2.731,-1.386,0.247\C,0,-3.482,-0.198,0.101\C,0,-4.889
 ,-0.227,0.154\C,0,-5.606,-1.508,0.388\C,0,-1.366,-1.352,0.164\C,0,-2.7
 82,1.022,-0.094\C,0,-1.353,1.054,-0.122\C,0,-0.609,-0.153,-0.05\C,0,-0
 .716,2.381,-0.221\C,0,-2.911,3.499,-0.548\C,0,-3.558,2.195,-0.282\C,0,
 -4.945,2.145,-0.244\C,0,-5.617,0.942,-0.016\H,0,-6.697,0.9,0.023\H,0,-
 5.491,3.067,-0.401\H,0,-0.844,-2.285,0.311\N,0,-1.516,3.491,-0.539\N,0
 ,-4.812,-2.658,0.547\O,0,-2.811,-3.734,0.625\O,0,-6.82,-1.57,0.443\O,0
 ,-3.544,4.52,-0.755\O,0,0.476,2.564,-0.034\C,0,-0.813,4.768,-0.723\H,0
 ,-0.417,5.125,0.23\H,0,0.02,4.624,-1.41\H,0,-1.526,5.484,-1.119\C,0,-5
 .478,-3.946,0.786\H,0,-5.231,-4.643,-0.015\H,0,-5.134,-4.369,1.729\H,0
 ,-6.549,-3.767,0.816\C,0,0.828,-0.398,-0.215\C,0,1.309,-1.609,-0.712\S
 ,0,2.177,0.607,0.289\C,0,2.704,-1.73,-0.674\H,0,0.664,-2.371,-1.122\C,
 0,3.349,-0.625,-0.114\O,0,3.443,-2.779,-1.124\C,0,4.762,-0.45,0.081\C,
 0,2.751,-3.927,-1.608\C,0,5.415,0.646,0.637\S,0,5.952,-1.666,-0.374\H,
 0,3.52,-4.647,-1.881\H,0,2.107,-4.355,-0.833\H,0,2.153,-3.682,-2.492\C
 ,0,6.829,0.514,0.695\O,0,4.686,1.706,1.064\C,0,7.252,-0.682,0.186\H,0,
 7.498,1.263,1.093\C,0,5.377,2.836,1.588\H,0,8.267,-1.042,0.108\H,0,6.0
 49,3.268,0.839\H,0,4.607,3.561,1.846\H,0,5.944,2.57,2.486\\Version=ES6
 4L-G16RevC.01\State=1-A\HF=-2348.3987284\MP2=-2353.7271792\RMSD=6.304e
 -09\PG=C01 [X(C26H18N2O6S2)]\\@
 The archive entry for this job was punched.


  THE LARGE PRINT GIVETH,
  AND THE SMALL PRINT TAKETH AWAY.

                     -- TOM WAITS
 Job cpu time:      12 days  2 hours 43 minutes  5.6 seconds.
 Elapsed time:       0 days  7 hours 20 minutes 57.4 seconds.
 File lengths (MBytes):  RWF= 256763 Int=      0 D2E=      0 Chk=     65 Scr=      1
 Normal termination of Gaussian 16 at Wed Dec  9 20:54:39 2020.
