 Entering Gaussian System, Link 0=g16
 Input=NDI_-5.gjf
 Output=NDI_-5.log
 Initial command:
 /apps/gaussian/g16-c01-avx/g16/l1.exe "/rds/general/ephemeral/tmpdir/pbs.2671500[35].pbs/Gau-160743.inp" -scrdir="/rds/general/ephemeral/tmpdir/pbs.2671500[35].pbs/"
 Entering Link 1 = /apps/gaussian/g16-c01-avx/g16/l1.exe PID=    160891.
  
 Copyright (c) 1988-2019, Gaussian, Inc.  All Rights Reserved.
  
 This is part of the Gaussian(R) 16 program.  It is based on
 the Gaussian(R) 09 system (copyright 2009, Gaussian, Inc.),
 the Gaussian(R) 03 system (copyright 2003, Gaussian, Inc.),
 the Gaussian(R) 98 system (copyright 1998, Gaussian, Inc.),
 the Gaussian(R) 94 system (copyright 1995, Gaussian, Inc.),
 the Gaussian 92(TM) system (copyright 1992, Gaussian, Inc.),
 the Gaussian 90(TM) system (copyright 1990, Gaussian, Inc.),
 the Gaussian 88(TM) system (copyright 1988, Gaussian, Inc.),
 the Gaussian 86(TM) system (copyright 1986, Carnegie Mellon
 University), and the Gaussian 82(TM) system (copyright 1983,
 Carnegie Mellon University). Gaussian is a federally registered
 trademark of Gaussian, Inc.
  
 This software contains proprietary and confidential information,
 including trade secrets, belonging to Gaussian, Inc.
  
 This software is provided under written license and may be
 used, copied, transmitted, or stored only in accord with that
 written license.
  
 The following legend is applicable only to US Government
 contracts under FAR:
  
                    RESTRICTED RIGHTS LEGEND
  
 Use, reproduction and disclosure by the US Government is
 subject to restrictions as set forth in subparagraphs (a)
 and (c) of the Commercial Computer Software - Restricted
 Rights clause in FAR 52.227-19.
  
 Gaussian, Inc.
 340 Quinnipiac St., Bldg. 40, Wallingford CT 06492
  
  
 ---------------------------------------------------------------
 Warning -- This program may not be used in any manner that
 competes with the business of Gaussian, Inc. or will provide
 assistance to any competitor of Gaussian, Inc.  The licensee
 of this program is prohibited from giving any competitor of
 Gaussian, Inc. access to this program.  By using this program,
 the user acknowledges that Gaussian, Inc. is engaged in the
 business of creating and licensing software in the field of
 computational chemistry and represents and warrants to the
 licensee that it is not a competitor of Gaussian, Inc. and that
 it will not use this program in any manner prohibited above.
 ---------------------------------------------------------------
  

 Cite this work as:
 Gaussian 16, Revision C.01,
 M. J. Frisch, G. W. Trucks, H. B. Schlegel, G. E. Scuseria, 
 M. A. Robb, J. R. Cheeseman, G. Scalmani, V. Barone, 
 G. A. Petersson, H. Nakatsuji, X. Li, M. Caricato, A. V. Marenich, 
 J. Bloino, B. G. Janesko, R. Gomperts, B. Mennucci, H. P. Hratchian, 
 J. V. Ortiz, A. F. Izmaylov, J. L. Sonnenberg, D. Williams-Young, 
 F. Ding, F. Lipparini, F. Egidi, J. Goings, B. Peng, A. Petrone, 
 T. Henderson, D. Ranasinghe, V. G. Zakrzewski, J. Gao, N. Rega, 
 G. Zheng, W. Liang, M. Hada, M. Ehara, K. Toyota, R. Fukuda, 
 J. Hasegawa, M. Ishida, T. Nakajima, Y. Honda, O. Kitao, H. Nakai, 
 T. Vreven, K. Throssell, J. A. Montgomery, Jr., J. E. Peralta, 
 F. Ogliaro, M. J. Bearpark, J. J. Heyd, E. N. Brothers, K. N. Kudin, 
 V. N. Staroverov, T. A. Keith, R. Kobayashi, J. Normand, 
 K. Raghavachari, A. P. Rendell, J. C. Burant, S. S. Iyengar, 
 J. Tomasi, M. Cossi, J. M. Millam, M. Klene, C. Adamo, R. Cammi, 
 J. W. Ochterski, R. L. Martin, K. Morokuma, O. Farkas, 
 J. B. Foresman, and D. J. Fox, Gaussian, Inc., Wallingford CT, 2019.
 
 ******************************************
 Gaussian 16:  ES64L-G16RevC.01  3-Jul-2019
                14-Dec-2020 
 ******************************************
 %mem=480GB
 %nprocshared=40
 Will use up to   40 processors via shared memory.
 -------------------------------
 # mp2/aug-cc-pvdz MaxDisk=400GB
 -------------------------------
 1/38=1,172=1/1;
 2/12=2,17=6,18=5,40=1/2;
 3/5=16,7=10,11=9,25=1,30=1/1,2,3;
 4//1;
 5/5=2,38=5/2;
 8/10=1/1;
 9/16=-3/6;
 6/7=2,8=2,9=2,10=2/1;
 99/5=1,9=1/99;
 ----------------
 NDI_-5_b3lyp.pdb
 ----------------
 Symbolic Z-matrix:
 Charge =  0 Multiplicity = 1
 C                    -2.423    -3.039     0.049 
 C                    -2.184    -1.572     0.073 
 C                    -3.263    -0.666    -0.036 
 C                    -4.58     -1.139    -0.196 
 C                    -4.855    -2.6      -0.239 
 C                    -0.903    -1.105     0.16 
 C                    -2.984     0.726     0.029 
 C                    -1.645     1.206     0.191 
 C                    -0.555     0.285     0.181 
 C                    -1.499     2.651     0.494 
 C                    -3.898     3.073    -0.031 
 C                    -4.088     1.609    -0.089 
 C                    -5.378     1.126    -0.266 
 C                    -5.634    -0.246    -0.315 
 H                    -6.638    -0.628    -0.442 
 H                    -6.181     1.846    -0.362 
 H                    -0.127    -1.858     0.191 
 N                    -2.603     3.494     0.271 
 N                    -3.748    -3.458    -0.106 
 O                    -1.527    -3.857     0.155 
 O                    -5.979    -3.043    -0.379 
 O                    -4.808     3.867    -0.203 
 O                    -0.486     3.159     0.95 
 C                    -2.376     4.929     0.493 
 H                    -2.161     5.117     1.546 
 H                    -1.522     5.26     -0.096 
 H                    -3.276     5.455     0.193 
 C                    -3.975    -4.909    -0.133 
 H                    -3.418    -5.353    -0.958 
 H                    -3.625    -5.354     0.798 
 H                    -5.04     -5.078    -0.26 
 C                     0.873     0.56      0.059 
 C                     1.584     1.729    -0.167 
 S                     2.009    -0.792     0.197 
 C                     2.972     1.544    -0.254 
 H                     1.114     2.69     -0.25 
 C                     3.396     0.226    -0.071 
 O                     3.9       2.509    -0.478 
 C                     4.74     -0.273    -0.08 
 C                     3.448     3.856    -0.61 
 C                     5.16     -1.588     0.105 
 S                     6.145     0.756    -0.34 
 H                     4.345     4.458    -0.747 
 H                     2.797     3.966    -1.482 
 H                     2.918     4.182     0.29 
 C                     6.568    -1.764     0.041 
 O                     4.235    -2.555     0.323 
 C                     7.219    -0.584    -0.193 
 H                     7.075    -2.71      0.161 
 C                     4.685    -3.895     0.508 
 H                     8.283    -0.427    -0.289 
 H                     5.332    -3.973     1.388 
 H                     3.787    -4.491     0.662 
 H                     5.216    -4.256    -0.378 
 
 Stoichiometry    C26H18N2O6S2
 Framework group  C1[X(C26H18N2O6S2)]
 Deg. of freedom   156
 Full point group                 C1      NOp   1
 Largest Abelian subgroup         C1      NOp   1
 Largest concise Abelian subgroup C1      NOp   1
                         Standard orientation:                         
 ---------------------------------------------------------------------
 Center     Atomic      Atomic             Coordinates (Angstroms)
 Number     Number       Type             X           Y           Z
 ---------------------------------------------------------------------
      1          6           0       -2.422832   -3.039129    0.049022
      2          6           0       -2.183906   -1.572117    0.073022
      3          6           0       -3.262952   -0.666172   -0.035978
      4          6           0       -4.579928   -1.139238   -0.195978
      5          6           0       -4.854854   -2.600252   -0.238978
      6          6           0       -0.902929   -1.105053    0.160022
      7          6           0       -2.984022    0.725842    0.029022
      8          6           0       -1.645046    1.205910    0.191022
      9          6           0       -0.554999    0.284965    0.181022
     10          6           0       -1.499118    2.650917    0.494022
     11          6           0       -3.898140    3.072796   -0.030978
     12          6           0       -4.088066    1.608787   -0.088978
     13          6           0       -5.378042    1.125722   -0.265978
     14          6           0       -5.633973   -0.246291   -0.314978
     15          1           0       -6.637953   -0.628341   -0.441978
     16          1           0       -6.181078    1.845682   -0.361978
     17          1           0       -0.126892   -1.858014    0.191022
     18          7           0       -2.603161    3.493862    0.271022
     19          7           0       -3.747811   -3.458196   -0.105978
     20          8           0       -1.526791   -3.857084    0.155022
     21          8           0       -5.978832   -3.043308   -0.378978
     22          8           0       -4.808180    3.866751   -0.202978
     23          8           0       -0.486144    3.158968    0.950022
     24          6           0       -2.376233    4.928873    0.493022
     25          1           0       -2.161243    5.116884    1.546022
     26          1           0       -1.522250    5.259916   -0.095978
     27          1           0       -3.276260    5.454828    0.193022
     28          6           0       -3.974738   -4.909207   -0.132978
     29          1           0       -3.417716   -5.353179   -0.957978
     30          1           0       -3.624716   -5.354190    0.798022
     31          1           0       -5.039730   -5.078261   -0.259978
     32          6           0        0.872987    0.560036    0.059022
     33          6           0        1.583928    1.729072   -0.166978
     34         16           0        2.009055   -0.791906    0.197022
     35          6           0        2.971937    1.544142   -0.253978
     36          1           0        1.113880    2.690049   -0.249978
     37          6           0        3.396004    0.226163   -0.070978
     38          8           0        3.899889    2.509189   -0.477978
     39          6           0        4.740029   -0.272769   -0.079978
     40          6           0        3.447821    3.856166   -0.609978
     41          6           0        5.160095   -1.587748    0.105022
     42         16           0        6.144977    0.756302   -0.339978
     43          1           0        4.344791    4.458211   -0.746978
     44          1           0        2.796815    3.966133   -1.481978
     45          1           0        2.917805    4.182139    0.290022
     46          6           0        6.568104   -1.763677    0.041022
     47          8           0        4.235143   -2.554794    0.323022
     48          6           0        7.219044   -0.583644   -0.192978
     49          1           0        7.075151   -2.709652    0.161022
     50          6           0        4.685211   -3.894772    0.508022
     51          1           0        8.283036   -0.426591   -0.288978
     52          1           0        5.332215   -3.972739    1.388022
     53          1           0        3.787241   -4.490817    0.662022
     54          1           0        5.216229   -4.255745   -0.377978
 ---------------------------------------------------------------------
 Rotational constants (GHZ):           0.1516142           0.0606116           0.0437453
 Standard basis: Aug-CC-pVDZ (5D, 7F)
 There are  1070 symmetry adapted cartesian basis functions of A   symmetry.
 There are   998 symmetry adapted basis functions of A   symmetry.
   998 basis functions,  1822 primitive gaussians,  1070 cartesian basis functions
   134 alpha electrons      134 beta electrons
       nuclear repulsion energy      4088.4809427601 Hartrees.
 NAtoms=   54 NActive=   54 NUniq=   54 SFac= 1.00D+00 NAtFMM=   60 NAOKFM=F Big=F
 Integral buffers will be    131072 words long.
 Raffenetti 1 integral format.
 Two-electron integral symmetry is turned on.
 One-electron integrals computed using PRISM.
 NBasis=   998 RedAO= T EigKep=  1.04D-06  NBF=   998
 NBsUse=   988 1.00D-06 EigRej=  9.46D-07 NBFU=   988
 ExpMin= 2.97D-02 ExpMax= 1.11D+05 ExpMxC= 1.07D+03 IAcc=3 IRadAn=         5 AccDes= 0.00D+00
 Harris functional with IExCor=  205 and IRadAn=       5 diagonalized for initial guess.
 HarFok:  IExCor=  205 AccDes= 0.00D+00 IRadAn=         5 IDoV= 1 UseB2=F ITyADJ=14
 ICtDFT=  3500011 ScaDFX=  1.000000  1.000000  1.000000  1.000000
 FoFCou: FMM=F IPFlag=           0 FMFlag=      100000 FMFlg1=           0
         NFxFlg=           0 DoJE=T BraDBF=F KetDBF=T FulRan=T
         wScrn=  0.000000 ICntrl=       500 IOpCl=  0 I1Cent=   200000004 NGrid=           0
         NMat0=    1 NMatS0=      1 NMatT0=    0 NMatD0=    1 NMtDS0=    0 NMtDT0=    0
 Petite list used in FoFCou.
 Requested convergence on RMS density matrix=1.00D-08 within 128 cycles.
 Requested convergence on MAX density matrix=1.00D-06.
 Requested convergence on             energy=1.00D-06.
 No special actions if energy rises.
 Restarting incremental Fock formation.
 SCF Done:  E(RHF) =  -2348.39912414     A.U. after   21 cycles
            NFock= 21  Conv=0.29D-08     -V/T= 2.0007
 ExpMin= 2.97D-02 ExpMax= 1.11D+05 ExpMxC= 1.07D+03 IAcc=3 IRadAn=         5 AccDes= 0.00D+00
 HarFok:  IExCor=  205 AccDes= 0.00D+00 IRadAn=         5 IDoV=-2 UseB2=F ITyADJ=14
 ICtDFT= 12500011 ScaDFX=  1.000000  1.000000  1.000000  1.000000
 GSVD:  LWork=       -2288 too small for GESVD, short by       10340 words or       10340 for optimal perf.
 Range of M.O.s used for correlation:    45   988
 NBasis=   998 NAE=   134 NBE=   134 NFC=    44 NFV=     0
 NROrb=    944 NOA=    90 NOB=    90 NVA=   854 NVB=   854

 **** Warning!!: The largest alpha MO coefficient is  0.17982199D+03

 Disk-based method using OVN memory for 30 occupieds at a time.
 Estimated scratch disk usage= 45725659796 words.
 Actual    scratch disk usage= 33516499604 words.
 JobTyp=1 Pass  1:  I=   1 to  30 NPSUse= 40 ParTrn=T ParDer=T DoDerP=F.
 (rs|ai) integrals will be sorted in core.
 JobTyp=1 Pass  2:  I=  31 to  60 NPSUse= 40 ParTrn=T ParDer=T DoDerP=F.
 (rs|ai) integrals will be sorted in core.
 JobTyp=1 Pass  3:  I=  61 to  90 NPSUse= 40 ParTrn=T ParDer=T DoDerP=F.
 (rs|ai) integrals will be sorted in core.
 Spin components of T(2) and E(2):
     alpha-alpha T2 =       0.2776833102D+00 E2=     -0.7397262331D+00
     alpha-beta  T2 =       0.1355498231D+01 E2=     -0.3848037412D+01
     beta-beta   T2 =       0.2776833102D+00 E2=     -0.7397262331D+00
 ANorm=    0.1706125684D+01
 E2 =    -0.5327489879D+01 EUMP2 =    -0.23537266140210D+04

 **********************************************************************

            Population analysis using the SCF Density.

 **********************************************************************

 Orbital symmetries:
       Occupied  (A) (A) (A) (A) (A) (A) (A) (A) (A) (A) (A) (A)
                 (A) (A) (A) (A) (A) (A) (A) (A) (A) (A) (A) (A)
                 (A) (A) (A) (A) (A) (A) (A) (A) (A) (A) (A) (A)
                 (A) (A) (A) (A) (A) (A) (A) (A) (A) (A) (A) (A)
                 (A) (A) (A) (A) (A) (A) (A) (A) (A) (A) (A) (A)
                 (A) (A) (A) (A) (A) (A) (A) (A) (A) (A) (A) (A)
                 (A) (A) (A) (A) (A) (A) (A) (A) (A) (A) (A) (A)
                 (A) (A) (A) (A) (A) (A) (A) (A) (A) (A) (A) (A)
                 (A) (A) (A) (A) (A) (A) (A) (A) (A) (A) (A) (A)
                 (A) (A) (A) (A) (A) (A) (A) (A) (A) (A) (A) (A)
                 (A) (A) (A) (A) (A) (A) (A) (A) (A) (A) (A) (A)
                 (A) (A)
       Virtual   (A) (A) (A) (A) (A) (A) (A) (A) (A) (A) (A) (A)
                 (A) (A) (A) (A) (A) (A) (A) (A) (A) (A) (A) (A)
                 (A) (A) (A) (A) (A) (A) (A) (A) (A) (A) (A) (A)
                 (A) (A) (A) (A) (A) (A) (A) (A) (A) (A) (A) (A)
                 (A) (A) (A) (A) (A) (A) (A) (A) (A) (A) (A) (A)
                 (A) (A) (A) (A) (A) (A) (A) (A) (A) (A) (A) (A)
                 (A) (A) (A) (A) (A) (A) (A) (A) (A) (A) (A) (A)
                 (A) (A) (A) (A) (A) (A) (A) (A) (A) (A) (A) (A)
                 (A) (A) (A) (A) (A) (A) (A) (A) (A) (A) (A) (A)
                 (A) (A) (A) (A) (A) (A) (A) (A) (A) (A) (A) (A)
                 (A) (A) (A) (A) (A) (A) (A) (A) (A) (A) (A) (A)
                 (A) (A) (A) (A) (A) (A) (A) (A) (A) (A) (A) (A)
                 (A) (A) (A) (A) (A) (A) (A) (A) (A) (A) (A) (A)
                 (A) (A) (A) (A) (A) (A) (A) (A) (A) (A) (A) (A)
                 (A) (A) (A) (A) (A) (A) (A) (A) (A) (A) (A) (A)
                 (A) (A) (A) (A) (A) (A) (A) (A) (A) (A) (A) (A)
                 (A) (A) (A) (A) (A) (A) (A) (A) (A) (A) (A) (A)
                 (A) (A) (A) (A) (A) (A) (A) (A) (A) (A) (A) (A)
                 (A) (A) (A) (A) (A) (A) (A) (A) (A) (A) (A) (A)
                 (A) (A) (A) (A) (A) (A) (A) (A) (A) (A) (A) (A)
                 (A) (A) (A) (A) (A) (A) (A) (A) (A) (A) (A) (A)
                 (A) (A) (A) (A) (A) (A) (A) (A) (A) (A) (A) (A)
                 (A) (A) (A) (A) (A) (A) (A) (A) (A) (A) (A) (A)
                 (A) (A) (A) (A) (A) (A) (A) (A) (A) (A) (A) (A)
                 (A) (A) (A) (A) (A) (A) (A) (A) (A) (A) (A) (A)
                 (A) (A) (A) (A) (A) (A) (A) (A) (A) (A) (A) (A)
                 (A) (A) (A) (A) (A) (A) (A) (A) (A) (A) (A) (A)
                 (A) (A) (A) (A) (A) (A) (A) (A) (A) (A) (A) (A)
                 (A) (A) (A) (A) (A) (A) (A) (A) (A) (A) (A) (A)
                 (A) (A) (A) (A) (A) (A) (A) (A) (A) (A) (A) (A)
                 (A) (A) (A) (A) (A) (A) (A) (A) (A) (A) (A) (A)
                 (A) (A) (A) (A) (A) (A) (A) (A) (A) (A) (A) (A)
                 (A) (A) (A) (A) (A) (A) (A) (A) (A) (A) (A) (A)
                 (A) (A) (A) (A) (A) (A) (A) (A) (A) (A) (A) (A)
                 (A) (A) (A) (A) (A) (A) (A) (A) (A) (A) (A) (A)
                 (A) (A) (A) (A) (A) (A) (A) (A) (A) (A) (A) (A)
                 (A) (A) (A) (A) (A) (A) (A) (A) (A) (A) (A) (A)
                 (A) (A) (A) (A) (A) (A) (A) (A) (A) (A) (A) (A)
                 (A) (A) (A) (A) (A) (A) (A) (A) (A) (A) (A) (A)
                 (A) (A) (A) (A) (A) (A) (A) (A) (A) (A) (A) (A)
                 (A) (A) (A) (A) (A) (A) (A) (A) (A) (A) (A) (A)
                 (A) (A) (A) (A) (A) (A) (A) (A) (A) (A) (A) (A)
                 (A) (A) (A) (A) (A) (A) (A) (A) (A) (A) (A) (A)
                 (A) (A) (A) (A) (A) (A) (A) (A) (A) (A) (A) (A)
                 (A) (A) (A) (A) (A) (A) (A) (A) (A) (A) (A) (A)
                 (A) (A) (A) (A) (A) (A) (A) (A) (A) (A) (A) (A)
                 (A) (A) (A) (A) (A) (A) (A) (A) (A) (A) (A) (A)
                 (A) (A) (A) (A) (A) (A) (A) (A) (A) (A) (A) (A)
                 (A) (A) (A) (A) (A) (A) (A) (A) (A) (A) (A) (A)
                 (A) (A) (A) (A) (A) (A) (A) (A) (A) (A) (A) (A)
                 (A) (A) (A) (A) (A) (A) (A) (A) (A) (A) (A) (A)
                 (A) (A) (A) (A) (A) (A) (A) (A) (A) (A) (A) (A)
                 (A) (A) (A) (A) (A) (A) (A) (A) (A) (A) (A) (A)
                 (A) (A) (A) (A) (A) (A) (A) (A) (A) (A) (A) (A)
                 (A) (A) (A) (A) (A) (A) (A) (A) (A) (A) (A) (A)
                 (A) (A) (A) (A) (A) (A) (A) (A) (A) (A) (A) (A)
                 (A) (A) (A) (A) (A) (A) (A) (A) (A) (A) (A) (A)
                 (A) (A) (A) (A) (A) (A) (A) (A) (A) (A) (A) (A)
                 (A) (A) (A) (A) (A) (A) (A) (A) (A) (A) (A) (A)
                 (A) (A) (A) (A) (A) (A) (A) (A) (A) (A) (A) (A)
                 (A) (A) (A) (A) (A) (A) (A) (A) (A) (A) (A) (A)
                 (A) (A) (A) (A) (A) (A) (A) (A) (A) (A) (A) (A)
                 (A) (A) (A) (A) (A) (A) (A) (A) (A) (A) (A) (A)
                 (A) (A) (A) (A) (A) (A) (A) (A) (A) (A) (A) (A)
                 (A) (A) (A) (A) (A) (A) (A) (A) (A) (A) (A) (A)
                 (A) (A) (A) (A) (A) (A) (A) (A) (A) (A) (A) (A)
                 (A) (A) (A) (A) (A) (A) (A) (A) (A) (A) (A) (A)
                 (A) (A) (A) (A) (A) (A) (A) (A) (A) (A) (A) (A)
                 (A) (A) (A) (A) (A) (A) (A) (A) (A) (A) (A) (A)
                 (A) (A) (A) (A) (A) (A) (A) (A) (A) (A) (A) (A)
                 (A) (A) (A) (A) (A) (A) (A) (A) (A) (A) (A) (A)
                 (A) (A)
 The electronic state is 1-A.
 Alpha  occ. eigenvalues --  -91.99127 -91.99114 -20.60852 -20.60243 -20.56749
 Alpha  occ. eigenvalues --  -20.56727 -20.56316 -20.56031 -15.63817 -15.63445
 Alpha  occ. eigenvalues --  -11.39869 -11.39704 -11.39642 -11.39154 -11.32002
 Alpha  occ. eigenvalues --  -11.31914 -11.30978 -11.30369 -11.29959 -11.29897
 Alpha  occ. eigenvalues --  -11.29244 -11.29134 -11.29018 -11.29010 -11.28955
 Alpha  occ. eigenvalues --  -11.28681 -11.28547 -11.28320 -11.28290 -11.28116
 Alpha  occ. eigenvalues --  -11.27852 -11.27641 -11.27268 -11.27136 -11.25580
 Alpha  occ. eigenvalues --  -11.25373  -8.99239  -8.99194  -6.67390  -6.67349
 Alpha  occ. eigenvalues --   -6.67295  -6.67254  -6.67103  -6.67066  -1.43362
 Alpha  occ. eigenvalues --   -1.43070  -1.42837  -1.42236  -1.41406  -1.40923
 Alpha  occ. eigenvalues --   -1.27429  -1.26975  -1.22825  -1.19420  -1.17554
 Alpha  occ. eigenvalues --   -1.15408  -1.12504  -1.07829  -1.05653  -1.04181
 Alpha  occ. eigenvalues --   -1.01122  -1.00056  -0.99872  -0.97860  -0.96854
 Alpha  occ. eigenvalues --   -0.96513  -0.94064  -0.92483  -0.89827  -0.88652
 Alpha  occ. eigenvalues --   -0.88386  -0.86459  -0.82042  -0.80079  -0.78794
 Alpha  occ. eigenvalues --   -0.77826  -0.76450  -0.75116  -0.74545  -0.73173
 Alpha  occ. eigenvalues --   -0.71882  -0.70433  -0.69348  -0.68067  -0.67451
 Alpha  occ. eigenvalues --   -0.66957  -0.66823  -0.66349  -0.66258  -0.65792
 Alpha  occ. eigenvalues --   -0.65323  -0.65033  -0.64113  -0.63944  -0.63606
 Alpha  occ. eigenvalues --   -0.62553  -0.61755  -0.61314  -0.59636  -0.59404
 Alpha  occ. eigenvalues --   -0.59025  -0.57397  -0.57226  -0.57000  -0.56610
 Alpha  occ. eigenvalues --   -0.56463  -0.56419  -0.56305  -0.55591  -0.55439
 Alpha  occ. eigenvalues --   -0.53877  -0.53248  -0.53090  -0.52415  -0.51280
 Alpha  occ. eigenvalues --   -0.51260  -0.49937  -0.48640  -0.48041  -0.47084
 Alpha  occ. eigenvalues --   -0.46675  -0.46178  -0.45725  -0.45639  -0.44849
 Alpha  occ. eigenvalues --   -0.42834  -0.41768  -0.41208  -0.39365  -0.35048
 Alpha  occ. eigenvalues --   -0.34373  -0.33781  -0.32937  -0.25248
 Alpha virt. eigenvalues --   -0.01936   0.02855   0.03267   0.03554   0.04036
 Alpha virt. eigenvalues --    0.04119   0.04248   0.04957   0.05197   0.05316
 Alpha virt. eigenvalues --    0.05502   0.05693   0.06003   0.06533   0.06795
 Alpha virt. eigenvalues --    0.06873   0.07034   0.07274   0.07663   0.08487
 Alpha virt. eigenvalues --    0.08677   0.09033   0.09166   0.09341   0.09810
 Alpha virt. eigenvalues --    0.10181   0.10301   0.10712   0.11198   0.11371
 Alpha virt. eigenvalues --    0.11690   0.12013   0.12117   0.12473   0.12835
 Alpha virt. eigenvalues --    0.12897   0.13298   0.13536   0.13825   0.14158
 Alpha virt. eigenvalues --    0.14319   0.14502   0.14684   0.14920   0.15214
 Alpha virt. eigenvalues --    0.15252   0.15390   0.15472   0.15646   0.15952
 Alpha virt. eigenvalues --    0.16061   0.16163   0.16513   0.16685   0.16795
 Alpha virt. eigenvalues --    0.17077   0.17282   0.17525   0.17617   0.17740
 Alpha virt. eigenvalues --    0.18123   0.18305   0.18500   0.18554   0.18752
 Alpha virt. eigenvalues --    0.18921   0.19289   0.19405   0.19539   0.19622
 Alpha virt. eigenvalues --    0.20064   0.20509   0.20602   0.20900   0.21042
 Alpha virt. eigenvalues --    0.21122   0.21348   0.21641   0.21750   0.21951
 Alpha virt. eigenvalues --    0.22388   0.22503   0.22843   0.22982   0.23477
 Alpha virt. eigenvalues --    0.23574   0.23756   0.23998   0.24086   0.24332
 Alpha virt. eigenvalues --    0.24501   0.24801   0.25008   0.25205   0.25521
 Alpha virt. eigenvalues --    0.25717   0.26052   0.26345   0.26587   0.26878
 Alpha virt. eigenvalues --    0.26967   0.27103   0.27691   0.27978   0.28246
 Alpha virt. eigenvalues --    0.28486   0.28717   0.28858   0.29256   0.29448
 Alpha virt. eigenvalues --    0.29835   0.30358   0.30561   0.30648   0.30746
 Alpha virt. eigenvalues --    0.30875   0.31059   0.31267   0.31606   0.31687
 Alpha virt. eigenvalues --    0.31894   0.31953   0.32252   0.32554   0.32809
 Alpha virt. eigenvalues --    0.32832   0.33158   0.33277   0.33675   0.33720
 Alpha virt. eigenvalues --    0.34210   0.34321   0.34402   0.34588   0.34844
 Alpha virt. eigenvalues --    0.35110   0.35306   0.35586   0.35703   0.35763
 Alpha virt. eigenvalues --    0.36086   0.36138   0.36547   0.36693   0.36839
 Alpha virt. eigenvalues --    0.37185   0.37331   0.37497   0.37769   0.37994
 Alpha virt. eigenvalues --    0.38041   0.38370   0.38512   0.38809   0.38925
 Alpha virt. eigenvalues --    0.39047   0.39311   0.39364   0.39577   0.39713
 Alpha virt. eigenvalues --    0.39934   0.40121   0.40527   0.40699   0.40881
 Alpha virt. eigenvalues --    0.41145   0.41208   0.41436   0.41506   0.41816
 Alpha virt. eigenvalues --    0.42078   0.42422   0.42527   0.42600   0.42977
 Alpha virt. eigenvalues --    0.43120   0.43293   0.43311   0.43609   0.43819
 Alpha virt. eigenvalues --    0.44148   0.44494   0.44564   0.44934   0.44990
 Alpha virt. eigenvalues --    0.45315   0.45471   0.45772   0.45943   0.46217
 Alpha virt. eigenvalues --    0.46498   0.46647   0.47003   0.47042   0.47312
 Alpha virt. eigenvalues --    0.47633   0.47742   0.48066   0.48264   0.48837
 Alpha virt. eigenvalues --    0.48961   0.49159   0.49286   0.49627   0.50107
 Alpha virt. eigenvalues --    0.50338   0.50856   0.51351   0.51507   0.51644
 Alpha virt. eigenvalues --    0.51827   0.52106   0.52174   0.52611   0.53045
 Alpha virt. eigenvalues --    0.53256   0.53707   0.53814   0.54133   0.54752
 Alpha virt. eigenvalues --    0.54916   0.55054   0.55354   0.55696   0.55865
 Alpha virt. eigenvalues --    0.55954   0.56268   0.56419   0.56653   0.57159
 Alpha virt. eigenvalues --    0.57334   0.57429   0.57580   0.57842   0.58184
 Alpha virt. eigenvalues --    0.58363   0.58991   0.59192   0.59482   0.59942
 Alpha virt. eigenvalues --    0.60124   0.60421   0.60820   0.60985   0.61213
 Alpha virt. eigenvalues --    0.61405   0.61519   0.62004   0.62564   0.62711
 Alpha virt. eigenvalues --    0.62721   0.63033   0.63482   0.63778   0.63902
 Alpha virt. eigenvalues --    0.64128   0.64287   0.64484   0.64650   0.64864
 Alpha virt. eigenvalues --    0.65048   0.65486   0.66173   0.66426   0.66605
 Alpha virt. eigenvalues --    0.66907   0.67044   0.67239   0.67491   0.67695
 Alpha virt. eigenvalues --    0.67935   0.68447   0.68495   0.68507   0.68578
 Alpha virt. eigenvalues --    0.68768   0.69357   0.69582   0.69781   0.69970
 Alpha virt. eigenvalues --    0.70332   0.70579   0.70835   0.71211   0.71589
 Alpha virt. eigenvalues --    0.71762   0.72004   0.72108   0.72641   0.72926
 Alpha virt. eigenvalues --    0.72941   0.73279   0.73689   0.73838   0.74428
 Alpha virt. eigenvalues --    0.74621   0.74713   0.75110   0.75172   0.75662
 Alpha virt. eigenvalues --    0.75733   0.75764   0.76244   0.76630   0.76784
 Alpha virt. eigenvalues --    0.77021   0.77468   0.77643   0.77883   0.77945
 Alpha virt. eigenvalues --    0.78350   0.78514   0.78791   0.79009   0.79237
 Alpha virt. eigenvalues --    0.79572   0.80057   0.80143   0.80604   0.80953
 Alpha virt. eigenvalues --    0.81066   0.81509   0.81842   0.82049   0.82261
 Alpha virt. eigenvalues --    0.82545   0.82751   0.83201   0.83302   0.83651
 Alpha virt. eigenvalues --    0.83968   0.84151   0.84393   0.84680   0.84943
 Alpha virt. eigenvalues --    0.85316   0.85634   0.85875   0.86287   0.86566
 Alpha virt. eigenvalues --    0.86762   0.87133   0.87216   0.87513   0.87586
 Alpha virt. eigenvalues --    0.88097   0.88488   0.88848   0.89198   0.89283
 Alpha virt. eigenvalues --    0.89553   0.90218   0.90412   0.90962   0.91261
 Alpha virt. eigenvalues --    0.91465   0.91818   0.92273   0.92498   0.92795
 Alpha virt. eigenvalues --    0.93260   0.93570   0.93704   0.93956   0.94129
 Alpha virt. eigenvalues --    0.94158   0.94378   0.95123   0.95287   0.95723
 Alpha virt. eigenvalues --    0.96025   0.96346   0.97267   0.97376   0.97618
 Alpha virt. eigenvalues --    0.98112   0.98409   0.98597   0.98719   0.99131
 Alpha virt. eigenvalues --    0.99322   0.99578   0.99766   1.00243   1.00578
 Alpha virt. eigenvalues --    1.00792   1.01077   1.01409   1.01792   1.01916
 Alpha virt. eigenvalues --    1.02254   1.02651   1.03066   1.03221   1.03602
 Alpha virt. eigenvalues --    1.03781   1.04093   1.04743   1.05058   1.05748
 Alpha virt. eigenvalues --    1.06133   1.06401   1.06529   1.07030   1.07580
 Alpha virt. eigenvalues --    1.07978   1.08546   1.08889   1.09295   1.09450
 Alpha virt. eigenvalues --    1.09789   1.10163   1.10821   1.11281   1.11507
 Alpha virt. eigenvalues --    1.12099   1.12217   1.13040   1.13360   1.13974
 Alpha virt. eigenvalues --    1.14251   1.14636   1.15156   1.15631   1.16128
 Alpha virt. eigenvalues --    1.16947   1.17247   1.17749   1.18345   1.18558
 Alpha virt. eigenvalues --    1.19253   1.19445   1.19917   1.20038   1.21000
 Alpha virt. eigenvalues --    1.21682   1.21900   1.22123   1.22598   1.23930
 Alpha virt. eigenvalues --    1.24131   1.24234   1.25263   1.25386   1.25745
 Alpha virt. eigenvalues --    1.25946   1.26304   1.26733   1.27157   1.27678
 Alpha virt. eigenvalues --    1.28000   1.28684   1.29282   1.29446   1.29815
 Alpha virt. eigenvalues --    1.30058   1.30427   1.30936   1.31467   1.31955
 Alpha virt. eigenvalues --    1.32263   1.32361   1.32990   1.33304   1.33703
 Alpha virt. eigenvalues --    1.33985   1.34510   1.34791   1.35500   1.35695
 Alpha virt. eigenvalues --    1.35976   1.36919   1.37369   1.37748   1.38693
 Alpha virt. eigenvalues --    1.39123   1.39746   1.40405   1.40985   1.41301
 Alpha virt. eigenvalues --    1.41740   1.42183   1.42797   1.43502   1.44175
 Alpha virt. eigenvalues --    1.45034   1.45231   1.45783   1.45840   1.46805
 Alpha virt. eigenvalues --    1.47018   1.47252   1.47644   1.48575   1.48897
 Alpha virt. eigenvalues --    1.49030   1.49321   1.50005   1.50393   1.51056
 Alpha virt. eigenvalues --    1.51814   1.52229   1.53145   1.53305   1.53880
 Alpha virt. eigenvalues --    1.54715   1.54939   1.55640   1.55830   1.56188
 Alpha virt. eigenvalues --    1.56950   1.57834   1.58386   1.58795   1.59115
 Alpha virt. eigenvalues --    1.59610   1.60275   1.60734   1.61046   1.61592
 Alpha virt. eigenvalues --    1.62279   1.62459   1.63104   1.63493   1.63978
 Alpha virt. eigenvalues --    1.64118   1.64544   1.64712   1.65622   1.65974
 Alpha virt. eigenvalues --    1.66067   1.66457   1.67051   1.67539   1.68211
 Alpha virt. eigenvalues --    1.68754   1.69418   1.69811   1.70020   1.70713
 Alpha virt. eigenvalues --    1.71513   1.71820   1.72492   1.73026   1.73644
 Alpha virt. eigenvalues --    1.73884   1.74063   1.74903   1.75329   1.75670
 Alpha virt. eigenvalues --    1.75895   1.76275   1.76791   1.77000   1.77326
 Alpha virt. eigenvalues --    1.77851   1.78235   1.78383   1.79173   1.79498
 Alpha virt. eigenvalues --    1.79631   1.80140   1.80363   1.81063   1.81226
 Alpha virt. eigenvalues --    1.81607   1.82343   1.82531   1.82750   1.82864
 Alpha virt. eigenvalues --    1.83143   1.83240   1.83737   1.84336   1.84436
 Alpha virt. eigenvalues --    1.84821   1.85072   1.85621   1.86384   1.86539
 Alpha virt. eigenvalues --    1.87277   1.87656   1.88218   1.88662   1.88951
 Alpha virt. eigenvalues --    1.89384   1.89738   1.89778   1.90151   1.90739
 Alpha virt. eigenvalues --    1.90961   1.91256   1.91761   1.92065   1.92643
 Alpha virt. eigenvalues --    1.92766   1.93265   1.93778   1.94240   1.94309
 Alpha virt. eigenvalues --    1.94639   1.95337   1.95760   1.96319   1.96646
 Alpha virt. eigenvalues --    1.96923   1.97168   1.97953   1.98842   1.99239
 Alpha virt. eigenvalues --    1.99580   1.99943   2.00724   2.01477   2.01622
 Alpha virt. eigenvalues --    2.02091   2.03194   2.03514   2.03558   2.04109
 Alpha virt. eigenvalues --    2.04593   2.05399   2.05579   2.05977   2.06319
 Alpha virt. eigenvalues --    2.06921   2.07786   2.07967   2.08512   2.09202
 Alpha virt. eigenvalues --    2.09719   2.10164   2.11468   2.11757   2.12761
 Alpha virt. eigenvalues --    2.12871   2.13273   2.13928   2.14508   2.14709
 Alpha virt. eigenvalues --    2.15188   2.15985   2.16570   2.17324   2.17526
 Alpha virt. eigenvalues --    2.18144   2.18722   2.20064   2.20328   2.20814
 Alpha virt. eigenvalues --    2.21056   2.21524   2.22312   2.22411   2.23043
 Alpha virt. eigenvalues --    2.23334   2.23902   2.24422   2.24531   2.24762
 Alpha virt. eigenvalues --    2.25738   2.26134   2.26385   2.26855   2.27417
 Alpha virt. eigenvalues --    2.28107   2.28792   2.29102   2.29313   2.29839
 Alpha virt. eigenvalues --    2.30205   2.30794   2.31401   2.31642   2.32098
 Alpha virt. eigenvalues --    2.32448   2.33209   2.33693   2.34524   2.34688
 Alpha virt. eigenvalues --    2.35171   2.35538   2.36368   2.36664   2.36835
 Alpha virt. eigenvalues --    2.37540   2.37772   2.38451   2.39253   2.39622
 Alpha virt. eigenvalues --    2.40411   2.41395   2.41584   2.42006   2.42200
 Alpha virt. eigenvalues --    2.42502   2.43180   2.43604   2.44384   2.45045
 Alpha virt. eigenvalues --    2.45431   2.45556   2.46061   2.46407   2.47163
 Alpha virt. eigenvalues --    2.47613   2.47936   2.48103   2.48478   2.49309
 Alpha virt. eigenvalues --    2.49712   2.50950   2.51936   2.52147   2.52608
 Alpha virt. eigenvalues --    2.53064   2.53861   2.54913   2.56117   2.56952
 Alpha virt. eigenvalues --    2.57668   2.58584   2.59052   2.59294   2.60157
 Alpha virt. eigenvalues --    2.60790   2.61164   2.62342   2.62647   2.63461
 Alpha virt. eigenvalues --    2.64271   2.64613   2.65833   2.66376   2.68408
 Alpha virt. eigenvalues --    2.69010   2.69186   2.69915   2.70593   2.70975
 Alpha virt. eigenvalues --    2.72735   2.73580   2.74157   2.75271   2.76505
 Alpha virt. eigenvalues --    2.77545   2.77925   2.79499   2.79872   2.80604
 Alpha virt. eigenvalues --    2.81294   2.82593   2.82839   2.84646   2.86099
 Alpha virt. eigenvalues --    2.86525   2.87143   2.87408   2.88077   2.88626
 Alpha virt. eigenvalues --    2.90482   2.91586   2.92478   2.93496   2.94737
 Alpha virt. eigenvalues --    2.95207   2.95731   2.95958   2.96973   2.97881
 Alpha virt. eigenvalues --    2.98210   2.99612   3.00644   3.01934   3.02618
 Alpha virt. eigenvalues --    3.04667   3.06673   3.07184   3.09698   3.11421
 Alpha virt. eigenvalues --    3.13176   3.13708   3.15273   3.17537   3.18980
 Alpha virt. eigenvalues --    3.20579   3.20825   3.23301   3.24408   3.27534
 Alpha virt. eigenvalues --    3.29017   3.30656   3.31239   3.31842   3.38396
 Alpha virt. eigenvalues --    3.41353   3.43575   3.46635   3.48158   3.49483
 Alpha virt. eigenvalues --    3.50490   3.54095   3.56685   3.58027   3.60291
 Alpha virt. eigenvalues --    3.61003   3.63360   3.64975   3.69057   3.72584
 Alpha virt. eigenvalues --    3.73980   3.75407   3.78673   3.79665   3.80618
 Alpha virt. eigenvalues --    3.80823   3.81285   3.82109   3.82445   3.83116
 Alpha virt. eigenvalues --    3.83849   3.84690   3.86959   3.89682   3.90089
 Alpha virt. eigenvalues --    3.91802   3.95183   3.97549   3.99429   4.00379
 Alpha virt. eigenvalues --    4.03065   4.03949   4.06199   4.06523   4.07734
 Alpha virt. eigenvalues --    4.09453   4.10856   4.12924   4.14626   4.16582
 Alpha virt. eigenvalues --    4.16988   4.18840   4.20527   4.21026   4.25005
 Alpha virt. eigenvalues --    4.28273   4.32018   4.37479   4.39314   4.42474
 Alpha virt. eigenvalues --    4.58654   4.67323   4.74290   5.29178
          Condensed to atoms (all electrons):
 Mulliken charges:
               1
     1  C    0.015985
     2  C    0.796380
     3  C   -0.845738
     4  C    1.872541
     5  C    0.059220
     6  C    0.796076
     7  C   -0.138371
     8  C    1.023959
     9  C    0.410194
    10  C    0.116467
    11  C   -0.177698
    12  C    1.347757
    13  C    0.331297
    14  C    0.225386
    15  H   -0.659201
    16  H   -0.708500
    17  H   -0.613412
    18  N   -0.972173
    19  N   -0.939312
    20  O   -0.863640
    21  O   -0.888487
    22  O   -0.900085
    23  O   -0.861755
    24  C    0.680841
    25  H   -0.033906
    26  H   -0.058689
    27  H   -0.227673
    28  C    0.666748
    29  H   -0.016774
    30  H   -0.018306
    31  H   -0.228900
    32  C    0.670336
    33  C    0.543561
    34  S    0.700461
    35  C   -0.048194
    36  H   -0.747568
    37  C    0.085385
    38  O   -1.102690
    39  C    1.037148
    40  C    0.951937
    41  C   -0.171460
    42  S    0.319433
    43  H   -0.362550
    44  H   -0.047847
    45  H   -0.043071
    46  C    0.985126
    47  O   -1.130721
    48  C   -0.229935
    49  H   -0.637922
    50  C    0.908648
    51  H   -0.430475
    52  H   -0.054153
    53  H   -0.328958
    54  H   -0.056720
 Sum of Mulliken charges =  -0.00000
 Mulliken charges with hydrogens summed into heavy atoms:
               1
     1  C    0.015985
     2  C    0.796380
     3  C   -0.845738
     4  C    1.872541
     5  C    0.059220
     6  C    0.182664
     7  C   -0.138371
     8  C    1.023959
     9  C    0.410194
    10  C    0.116467
    11  C   -0.177698
    12  C    1.347757
    13  C   -0.377204
    14  C   -0.433815
    18  N   -0.972173
    19  N   -0.939312
    20  O   -0.863640
    21  O   -0.888487
    22  O   -0.900085
    23  O   -0.861755
    24  C    0.360573
    28  C    0.402768
    32  C    0.670336
    33  C   -0.204007
    34  S    0.700461
    35  C   -0.048194
    37  C    0.085385
    38  O   -1.102690
    39  C    1.037148
    40  C    0.498469
    41  C   -0.171460
    42  S    0.319433
    46  C    0.347204
    47  O   -1.130721
    48  C   -0.660410
    50  C    0.468817
 Electronic spatial extent (au):  <R**2>=          22429.5219
 Charge=             -0.0000 electrons
 Dipole moment (field-independent basis, Debye):
    X=              3.9552    Y=             -0.6334    Z=             -0.4459  Tot=              4.0303
 Quadrupole moment (field-independent basis, Debye-Ang):
   XX=           -215.4626   YY=           -210.1371   ZZ=           -227.4393
   XY=             -6.9338   XZ=             -2.5894   YZ=             -4.7507
 Traceless Quadrupole moment (field-independent basis, Debye-Ang):
   XX=              2.2171   YY=              7.5426   ZZ=             -9.7596
   XY=             -6.9338   XZ=             -2.5894   YZ=             -4.7507
 Octapole moment (field-independent basis, Debye-Ang**2):
  XXX=            376.3654  YYY=            -13.4711  ZZZ=              3.7637  XYY=            153.3974
  XXY=            -93.9795  XXZ=             19.9070  XZZ=            -15.9727  YZZ=             -4.4924
  YYZ=             -0.1972  XYZ=            -20.5924
 Hexadecapole moment (field-independent basis, Debye-Ang**3):
 XXXX=         -20544.7642 YYYY=          -7978.2883 ZZZZ=           -407.3007 XXXY=           -685.1457
 XXXZ=            -85.4192 YYYX=            201.4599 YYYZ=            -28.9330 ZZZX=              8.0268
 ZZZY=              0.4242 XXYY=          -5019.1097 XXZZ=          -3805.4868 YYZZ=          -1479.3268
 XXYZ=            -81.0911 YYXZ=            -55.6051 ZZXY=             15.5527
 N-N= 4.088480942760D+03 E-N=-1.370506261364D+04  KE= 2.346657734719D+03
 Unable to Open any file for archive entry.
 1\1\GINC-AX4\SP\RMP2-FC\Aug-CC-pVDZ\C26H18N2O6S2\NS5018\14-Dec-2020\0\
 \# mp2/aug-cc-pvdz MaxDisk=400GB\\NDI_-5_b3lyp.pdb\\0,1\C,0,-2.423,-3.
 039,0.049\C,0,-2.184,-1.572,0.073\C,0,-3.263,-0.666,-0.036\C,0,-4.58,-
 1.139,-0.196\C,0,-4.855,-2.6,-0.239\C,0,-0.903,-1.105,0.16\C,0,-2.984,
 0.726,0.029\C,0,-1.645,1.206,0.191\C,0,-0.555,0.285,0.181\C,0,-1.499,2
 .651,0.494\C,0,-3.898,3.073,-0.031\C,0,-4.088,1.609,-0.089\C,0,-5.378,
 1.126,-0.266\C,0,-5.634,-0.246,-0.315\H,0,-6.638,-0.628,-0.442\H,0,-6.
 181,1.846,-0.362\H,0,-0.127,-1.858,0.191\N,0,-2.603,3.494,0.271\N,0,-3
 .748,-3.458,-0.106\O,0,-1.527,-3.857,0.155\O,0,-5.979,-3.043,-0.379\O,
 0,-4.808,3.867,-0.203\O,0,-0.486,3.159,0.95\C,0,-2.376,4.929,0.493\H,0
 ,-2.161,5.117,1.546\H,0,-1.522,5.26,-0.096\H,0,-3.276,5.455,0.193\C,0,
 -3.975,-4.909,-0.133\H,0,-3.418,-5.353,-0.958\H,0,-3.625,-5.354,0.798\
 H,0,-5.04,-5.078,-0.26\C,0,0.873,0.56,0.059\C,0,1.584,1.729,-0.167\S,0
 ,2.009,-0.792,0.197\C,0,2.972,1.544,-0.254\H,0,1.114,2.69,-0.25\C,0,3.
 396,0.226,-0.071\O,0,3.9,2.509,-0.478\C,0,4.74,-0.273,-0.08\C,0,3.448,
 3.856,-0.61\C,0,5.16,-1.588,0.105\S,0,6.145,0.756,-0.34\H,0,4.345,4.45
 8,-0.747\H,0,2.797,3.966,-1.482\H,0,2.918,4.182,0.29\C,0,6.568,-1.764,
 0.041\O,0,4.235,-2.555,0.323\C,0,7.219,-0.584,-0.193\H,0,7.075,-2.71,0
 .161\C,0,4.685,-3.895,0.508\H,0,8.283,-0.427,-0.289\H,0,5.332,-3.973,1
 .388\H,0,3.787,-4.491,0.662\H,0,5.216,-4.256,-0.378\\Version=ES64L-G16
 RevC.01\State=1-A\HF=-2348.3991241\MP2=-2353.726614\RMSD=2.928e-09\PG=
 C01 [X(C26H18N2O6S2)]\\@
 The archive entry for this job was punched.


 IT IS NOT EASY TO DESCRIBE
     THE SEA WITH THE MOUTH

                   -- KOKYU
 Job cpu time:      11 days 21 hours  4 minutes 55.5 seconds.
 Elapsed time:       0 days  7 hours 11 minutes 49.3 seconds.
 File lengths (MBytes):  RWF= 256220 Int=      0 D2E=      0 Chk=     65 Scr=      1
 Normal termination of Gaussian 16 at Mon Dec 14 23:42:51 2020.
