 Entering Gaussian System, Link 0=g16
 Input=NDI_-95.gjf
 Output=NDI_-95.log
 Initial command:
 /apps/gaussian/g16-c01-avx/g16/l1.exe "/rds/general/ephemeral/tmpdir/pbs.2671500[17].pbs/Gau-2056570.inp" -scrdir="/rds/general/ephemeral/tmpdir/pbs.2671500[17].pbs/"
 Entering Link 1 = /apps/gaussian/g16-c01-avx/g16/l1.exe PID=   2056571.
  
 Copyright (c) 1988-2019, Gaussian, Inc.  All Rights Reserved.
  
 This is part of the Gaussian(R) 16 program.  It is based on
 the Gaussian(R) 09 system (copyright 2009, Gaussian, Inc.),
 the Gaussian(R) 03 system (copyright 2003, Gaussian, Inc.),
 the Gaussian(R) 98 system (copyright 1998, Gaussian, Inc.),
 the Gaussian(R) 94 system (copyright 1995, Gaussian, Inc.),
 the Gaussian 92(TM) system (copyright 1992, Gaussian, Inc.),
 the Gaussian 90(TM) system (copyright 1990, Gaussian, Inc.),
 the Gaussian 88(TM) system (copyright 1988, Gaussian, Inc.),
 the Gaussian 86(TM) system (copyright 1986, Carnegie Mellon
 University), and the Gaussian 82(TM) system (copyright 1983,
 Carnegie Mellon University). Gaussian is a federally registered
 trademark of Gaussian, Inc.
  
 This software contains proprietary and confidential information,
 including trade secrets, belonging to Gaussian, Inc.
  
 This software is provided under written license and may be
 used, copied, transmitted, or stored only in accord with that
 written license.
  
 The following legend is applicable only to US Government
 contracts under FAR:
  
                    RESTRICTED RIGHTS LEGEND
  
 Use, reproduction and disclosure by the US Government is
 subject to restrictions as set forth in subparagraphs (a)
 and (c) of the Commercial Computer Software - Restricted
 Rights clause in FAR 52.227-19.
  
 Gaussian, Inc.
 340 Quinnipiac St., Bldg. 40, Wallingford CT 06492
  
  
 ---------------------------------------------------------------
 Warning -- This program may not be used in any manner that
 competes with the business of Gaussian, Inc. or will provide
 assistance to any competitor of Gaussian, Inc.  The licensee
 of this program is prohibited from giving any competitor of
 Gaussian, Inc. access to this program.  By using this program,
 the user acknowledges that Gaussian, Inc. is engaged in the
 business of creating and licensing software in the field of
 computational chemistry and represents and warrants to the
 licensee that it is not a competitor of Gaussian, Inc. and that
 it will not use this program in any manner prohibited above.
 ---------------------------------------------------------------
  

 Cite this work as:
 Gaussian 16, Revision C.01,
 M. J. Frisch, G. W. Trucks, H. B. Schlegel, G. E. Scuseria, 
 M. A. Robb, J. R. Cheeseman, G. Scalmani, V. Barone, 
 G. A. Petersson, H. Nakatsuji, X. Li, M. Caricato, A. V. Marenich, 
 J. Bloino, B. G. Janesko, R. Gomperts, B. Mennucci, H. P. Hratchian, 
 J. V. Ortiz, A. F. Izmaylov, J. L. Sonnenberg, D. Williams-Young, 
 F. Ding, F. Lipparini, F. Egidi, J. Goings, B. Peng, A. Petrone, 
 T. Henderson, D. Ranasinghe, V. G. Zakrzewski, J. Gao, N. Rega, 
 G. Zheng, W. Liang, M. Hada, M. Ehara, K. Toyota, R. Fukuda, 
 J. Hasegawa, M. Ishida, T. Nakajima, Y. Honda, O. Kitao, H. Nakai, 
 T. Vreven, K. Throssell, J. A. Montgomery, Jr., J. E. Peralta, 
 F. Ogliaro, M. J. Bearpark, J. J. Heyd, E. N. Brothers, K. N. Kudin, 
 V. N. Staroverov, T. A. Keith, R. Kobayashi, J. Normand, 
 K. Raghavachari, A. P. Rendell, J. C. Burant, S. S. Iyengar, 
 J. Tomasi, M. Cossi, J. M. Millam, M. Klene, C. Adamo, R. Cammi, 
 J. W. Ochterski, R. L. Martin, K. Morokuma, O. Farkas, 
 J. B. Foresman, and D. J. Fox, Gaussian, Inc., Wallingford CT, 2019.
 
 ******************************************
 Gaussian 16:  ES64L-G16RevC.01  3-Jul-2019
                10-Dec-2020 
 ******************************************
 %mem=480GB
 %nprocshared=40
 Will use up to   40 processors via shared memory.
 -------------------------------
 # mp2/aug-cc-pvdz MaxDisk=400GB
 -------------------------------
 1/38=1,172=1/1;
 2/12=2,17=6,18=5,40=1/2;
 3/5=16,7=10,11=9,25=1,30=1/1,2,3;
 4//1;
 5/5=2,38=5/2;
 8/10=1/1;
 9/16=-3/6;
 6/7=2,8=2,9=2,10=2/1;
 99/5=1,9=1/99;
 -----------------
 NDI_-95_b3lyp.pdb
 -----------------
 Symbolic Z-matrix:
 Charge =  0 Multiplicity = 1
 C                     3.284    -2.842     0.132 
 C                     2.641    -1.501     0.148 
 C                     3.416    -0.338    -0.048 
 C                     4.809    -0.428    -0.269 
 C                     5.483    -1.755    -0.295 
 C                     1.283    -1.396     0.35 
 C                     2.777     0.932    -0.022 
 C                     1.375     1.024     0.201 
 C                     0.622    -0.142     0.379 
 C                     0.748     2.38      0.257 
 C                     2.958     3.441    -0.216 
 C                     3.571     2.087    -0.226 
 C                     4.933     1.976    -0.442 
 C                     5.556     0.719    -0.463 
 H                     6.622     0.628    -0.63 
 H                     5.506     2.882    -0.596 
 H                     0.702    -2.299     0.49 
 N                     1.582     3.489     0.017 
 N                     4.667    -2.879    -0.092 
 O                     2.66     -3.872     0.304 
 O                     6.68     -1.867    -0.482 
 O                     3.614     4.45     -0.398 
 O                    -0.425     2.568     0.499 
 C                     0.924     4.804     0.055 
 H                     0.099     4.82     -0.657 
 H                     0.522     4.99      1.051 
 H                     1.666     5.554    -0.2 
 C                     5.287    -4.212    -0.108 
 H                     5.129    -4.704     0.852 
 H                     4.828    -4.821    -0.887 
 H                     6.348    -4.085    -0.299 
 C                    -0.844    -0.177     0.599 
 C                    -1.51     -0.23      1.791 
 S                    -1.935    -0.265    -0.752 
 C                    -2.92     -0.316     1.624 
 H                    -1.009    -0.184     2.748 
 C                    -3.339    -0.348     0.304 
 O                    -3.845    -0.377     2.623 
 C                    -4.687    -0.441    -0.201 
 C                    -3.39     -0.25      3.965 
 C                    -5.099    -0.487    -1.525 
 S                    -6.096    -0.509     0.849 
 H                    -4.281    -0.29      4.588 
 H                    -2.721    -1.074     4.237 
 H                    -2.88      0.707     4.12 
 C                    -6.51     -0.572    -1.696 
 O                    -4.165    -0.45     -2.518 
 C                    -7.17     -0.592    -0.5 
 H                    -7.009    -0.616    -2.653 
 C                    -4.622    -0.484    -3.865 
 H                    -8.235    -0.652    -0.333 
 H                    -5.26      0.377    -4.088 
 H                    -3.728    -0.441    -4.485 
 H                    -5.165    -1.411    -4.076 
 
 Stoichiometry    C26H18N2O6S2
 Framework group  C1[X(C26H18N2O6S2)]
 Deg. of freedom   156
 Full point group                 C1      NOp   1
 Largest Abelian subgroup         C1      NOp   1
 Largest concise Abelian subgroup C1      NOp   1
                         Standard orientation:                         
 ---------------------------------------------------------------------
 Center     Atomic      Atomic             Coordinates (Angstroms)
 Number     Number       Type             X           Y           Z
 ---------------------------------------------------------------------
      1          6           0        3.283953   -2.842083    0.131974
      2          6           0        2.640995   -1.501063    0.147974
      3          6           0        3.416031   -0.338087   -0.048026
      4          6           0        4.809028   -0.428130   -0.269026
      5          6           0        5.482987   -1.755151   -0.295026
      6          6           0        1.282998   -1.396021    0.349974
      7          6           0        2.777070    0.931933   -0.022026
      8          6           0        1.375073    1.023976    0.200974
      9          6           0        0.622037   -0.142001    0.378974
     10          6           0        0.748115    2.379995    0.256974
     11          6           0        2.958148    3.440927   -0.216026
     12          6           0        3.571106    2.086908   -0.226026
     13          6           0        4.933102    1.975866   -0.442026
     14          6           0        5.556063    0.718846   -0.463026
     15          1           0        6.622061    0.627813   -0.630026
     16          1           0        5.506130    2.881848   -0.596026
     17          1           0        0.701970   -2.299003    0.489974
     18          7           0        1.582149    3.488970    0.016974
     19          7           0        4.666952   -2.879126   -0.092026
     20          8           0        2.659921   -3.872064    0.303974
     21          8           0        6.679983   -1.867188   -0.482026
     22          8           0        3.614179    4.449907   -0.398026
     23          8           0       -0.424879    2.568032    0.498974
     24          6           0        0.924190    4.803990    0.054974
     25          1           0        0.099190    4.820016   -0.657026
     26          1           0        0.522196    4.990002    1.050974
     27          1           0        1.666213    5.553967   -0.200026
     28          6           0        5.286911   -4.212145   -0.108026
     29          1           0        5.128895   -4.704140    0.851974
     30          1           0        4.827892   -4.821131   -0.887026
     31          1           0        6.347914   -4.085178   -0.299026
     32          6           0       -0.843964   -0.176955    0.598974
     33          6           0       -1.509966   -0.229935    1.790974
     34         16           0       -1.934967   -0.264921   -0.752026
     35          6           0       -2.919969   -0.315891    1.623974
     36          1           0       -1.008965   -0.183950    2.747974
     37          6           0       -3.338970   -0.347878    0.303974
     38          8           0       -3.844971   -0.376862    2.622974
     39          6           0       -4.686973   -0.440836   -0.201026
     40          6           0       -3.389967   -0.249876    3.964974
     41          6           0       -5.098974   -0.486823   -1.525026
     42         16           0       -6.095975   -0.508792    0.848974
     43          1           0       -4.280968   -0.289849    4.587974
     44          1           0       -2.720992   -1.073897    4.236974
     45          1           0       -2.879937    0.707108    4.119974
     46          6           0       -6.509977   -0.571780   -1.696026
     47          8           0       -4.164973   -0.449852   -2.518026
     48          6           0       -7.169977   -0.591759   -0.500026
     49          1           0       -7.008978   -0.615764   -2.653026
     50          6           0       -4.621974   -0.483838   -3.865026
     51          1           0       -8.234979   -0.651726   -0.333026
     52          1           0       -5.259947    0.377182   -4.088026
     53          1           0       -3.727973   -0.440866   -4.485026
     54          1           0       -5.165003   -1.410821   -4.076026
 ---------------------------------------------------------------------
 Rotational constants (GHZ):           0.1612334           0.0544658           0.0477629
 Standard basis: Aug-CC-pVDZ (5D, 7F)
 There are  1070 symmetry adapted cartesian basis functions of A   symmetry.
 There are   998 symmetry adapted basis functions of A   symmetry.
   998 basis functions,  1822 primitive gaussians,  1070 cartesian basis functions
   134 alpha electrons      134 beta electrons
       nuclear repulsion energy      4090.2010556288 Hartrees.
 NAtoms=   54 NActive=   54 NUniq=   54 SFac= 1.00D+00 NAtFMM=   60 NAOKFM=F Big=F
 Integral buffers will be    131072 words long.
 Raffenetti 1 integral format.
 Two-electron integral symmetry is turned on.
 One-electron integrals computed using PRISM.
 NBasis=   998 RedAO= T EigKep=  1.05D-06  NBF=   998
 NBsUse=   988 1.00D-06 EigRej=  9.63D-07 NBFU=   988
 ExpMin= 2.97D-02 ExpMax= 1.11D+05 ExpMxC= 1.07D+03 IAcc=3 IRadAn=         5 AccDes= 0.00D+00
 Harris functional with IExCor=  205 and IRadAn=       5 diagonalized for initial guess.
 HarFok:  IExCor=  205 AccDes= 0.00D+00 IRadAn=         5 IDoV= 1 UseB2=F ITyADJ=14
 ICtDFT=  3500011 ScaDFX=  1.000000  1.000000  1.000000  1.000000
 FoFCou: FMM=F IPFlag=           0 FMFlag=      100000 FMFlg1=           0
         NFxFlg=           0 DoJE=T BraDBF=F KetDBF=T FulRan=T
         wScrn=  0.000000 ICntrl=       500 IOpCl=  0 I1Cent=   200000004 NGrid=           0
         NMat0=    1 NMatS0=      1 NMatT0=    0 NMatD0=    1 NMtDS0=    0 NMtDT0=    0
 Petite list used in FoFCou.
 Requested convergence on RMS density matrix=1.00D-08 within 128 cycles.
 Requested convergence on MAX density matrix=1.00D-06.
 Requested convergence on             energy=1.00D-06.
 No special actions if energy rises.
 Restarting incremental Fock formation.
 SCF Done:  E(RHF) =  -2348.40914004     A.U. after   21 cycles
            NFock= 21  Conv=0.17D-08     -V/T= 2.0008
 ExpMin= 2.97D-02 ExpMax= 1.11D+05 ExpMxC= 1.07D+03 IAcc=3 IRadAn=         5 AccDes= 0.00D+00
 HarFok:  IExCor=  205 AccDes= 0.00D+00 IRadAn=         5 IDoV=-2 UseB2=F ITyADJ=14
 ICtDFT= 12500011 ScaDFX=  1.000000  1.000000  1.000000  1.000000
 GSVD:  LWork=       -2288 too small for GESVD, short by       10340 words or       10340 for optimal perf.
 Range of M.O.s used for correlation:    45   988
 NBasis=   998 NAE=   134 NBE=   134 NFC=    44 NFV=     0
 NROrb=    944 NOA=    90 NOB=    90 NVA=   854 NVB=   854

 **** Warning!!: The largest alpha MO coefficient is  0.19151107D+03

 Disk-based method using OVN memory for 30 occupieds at a time.
 Estimated scratch disk usage= 45910059972 words.
 Actual    scratch disk usage= 33651485636 words.
 JobTyp=1 Pass  1:  I=   1 to  30 NPSUse= 40 ParTrn=T ParDer=T DoDerP=F.
 (rs|ai) integrals will be sorted in core.
 JobTyp=1 Pass  2:  I=  31 to  60 NPSUse= 40 ParTrn=T ParDer=T DoDerP=F.
 (rs|ai) integrals will be sorted in core.
 JobTyp=1 Pass  3:  I=  61 to  90 NPSUse= 40 ParTrn=T ParDer=T DoDerP=F.
 (rs|ai) integrals will be sorted in core.
 Spin components of T(2) and E(2):
     alpha-alpha T2 =       0.2749121656D+00 E2=     -0.7365262301D+00
     alpha-beta  T2 =       0.1349868516D+01 E2=     -0.3843312708D+01
     beta-beta   T2 =       0.2749121656D+00 E2=     -0.7365262301D+00
 ANorm=    0.1702848451D+01
 E2 =    -0.5316365168D+01 EUMP2 =    -0.23537255052118D+04

 **********************************************************************

            Population analysis using the SCF Density.

 **********************************************************************

 Orbital symmetries:
       Occupied  (A) (A) (A) (A) (A) (A) (A) (A) (A) (A) (A) (A)
                 (A) (A) (A) (A) (A) (A) (A) (A) (A) (A) (A) (A)
                 (A) (A) (A) (A) (A) (A) (A) (A) (A) (A) (A) (A)
                 (A) (A) (A) (A) (A) (A) (A) (A) (A) (A) (A) (A)
                 (A) (A) (A) (A) (A) (A) (A) (A) (A) (A) (A) (A)
                 (A) (A) (A) (A) (A) (A) (A) (A) (A) (A) (A) (A)
                 (A) (A) (A) (A) (A) (A) (A) (A) (A) (A) (A) (A)
                 (A) (A) (A) (A) (A) (A) (A) (A) (A) (A) (A) (A)
                 (A) (A) (A) (A) (A) (A) (A) (A) (A) (A) (A) (A)
                 (A) (A) (A) (A) (A) (A) (A) (A) (A) (A) (A) (A)
                 (A) (A) (A) (A) (A) (A) (A) (A) (A) (A) (A) (A)
                 (A) (A)
       Virtual   (A) (A) (A) (A) (A) (A) (A) (A) (A) (A) (A) (A)
                 (A) (A) (A) (A) (A) (A) (A) (A) (A) (A) (A) (A)
                 (A) (A) (A) (A) (A) (A) (A) (A) (A) (A) (A) (A)
                 (A) (A) (A) (A) (A) (A) (A) (A) (A) (A) (A) (A)
                 (A) (A) (A) (A) (A) (A) (A) (A) (A) (A) (A) (A)
                 (A) (A) (A) (A) (A) (A) (A) (A) (A) (A) (A) (A)
                 (A) (A) (A) (A) (A) (A) (A) (A) (A) (A) (A) (A)
                 (A) (A) (A) (A) (A) (A) (A) (A) (A) (A) (A) (A)
                 (A) (A) (A) (A) (A) (A) (A) (A) (A) (A) (A) (A)
                 (A) (A) (A) (A) (A) (A) (A) (A) (A) (A) (A) (A)
                 (A) (A) (A) (A) (A) (A) (A) (A) (A) (A) (A) (A)
                 (A) (A) (A) (A) (A) (A) (A) (A) (A) (A) (A) (A)
                 (A) (A) (A) (A) (A) (A) (A) (A) (A) (A) (A) (A)
                 (A) (A) (A) (A) (A) (A) (A) (A) (A) (A) (A) (A)
                 (A) (A) (A) (A) (A) (A) (A) (A) (A) (A) (A) (A)
                 (A) (A) (A) (A) (A) (A) (A) (A) (A) (A) (A) (A)
                 (A) (A) (A) (A) (A) (A) (A) (A) (A) (A) (A) (A)
                 (A) (A) (A) (A) (A) (A) (A) (A) (A) (A) (A) (A)
                 (A) (A) (A) (A) (A) (A) (A) (A) (A) (A) (A) (A)
                 (A) (A) (A) (A) (A) (A) (A) (A) (A) (A) (A) (A)
                 (A) (A) (A) (A) (A) (A) (A) (A) (A) (A) (A) (A)
                 (A) (A) (A) (A) (A) (A) (A) (A) (A) (A) (A) (A)
                 (A) (A) (A) (A) (A) (A) (A) (A) (A) (A) (A) (A)
                 (A) (A) (A) (A) (A) (A) (A) (A) (A) (A) (A) (A)
                 (A) (A) (A) (A) (A) (A) (A) (A) (A) (A) (A) (A)
                 (A) (A) (A) (A) (A) (A) (A) (A) (A) (A) (A) (A)
                 (A) (A) (A) (A) (A) (A) (A) (A) (A) (A) (A) (A)
                 (A) (A) (A) (A) (A) (A) (A) (A) (A) (A) (A) (A)
                 (A) (A) (A) (A) (A) (A) (A) (A) (A) (A) (A) (A)
                 (A) (A) (A) (A) (A) (A) (A) (A) (A) (A) (A) (A)
                 (A) (A) (A) (A) (A) (A) (A) (A) (A) (A) (A) (A)
                 (A) (A) (A) (A) (A) (A) (A) (A) (A) (A) (A) (A)
                 (A) (A) (A) (A) (A) (A) (A) (A) (A) (A) (A) (A)
                 (A) (A) (A) (A) (A) (A) (A) (A) (A) (A) (A) (A)
                 (A) (A) (A) (A) (A) (A) (A) (A) (A) (A) (A) (A)
                 (A) (A) (A) (A) (A) (A) (A) (A) (A) (A) (A) (A)
                 (A) (A) (A) (A) (A) (A) (A) (A) (A) (A) (A) (A)
                 (A) (A) (A) (A) (A) (A) (A) (A) (A) (A) (A) (A)
                 (A) (A) (A) (A) (A) (A) (A) (A) (A) (A) (A) (A)
                 (A) (A) (A) (A) (A) (A) (A) (A) (A) (A) (A) (A)
                 (A) (A) (A) (A) (A) (A) (A) (A) (A) (A) (A) (A)
                 (A) (A) (A) (A) (A) (A) (A) (A) (A) (A) (A) (A)
                 (A) (A) (A) (A) (A) (A) (A) (A) (A) (A) (A) (A)
                 (A) (A) (A) (A) (A) (A) (A) (A) (A) (A) (A) (A)
                 (A) (A) (A) (A) (A) (A) (A) (A) (A) (A) (A) (A)
                 (A) (A) (A) (A) (A) (A) (A) (A) (A) (A) (A) (A)
                 (A) (A) (A) (A) (A) (A) (A) (A) (A) (A) (A) (A)
                 (A) (A) (A) (A) (A) (A) (A) (A) (A) (A) (A) (A)
                 (A) (A) (A) (A) (A) (A) (A) (A) (A) (A) (A) (A)
                 (A) (A) (A) (A) (A) (A) (A) (A) (A) (A) (A) (A)
                 (A) (A) (A) (A) (A) (A) (A) (A) (A) (A) (A) (A)
                 (A) (A) (A) (A) (A) (A) (A) (A) (A) (A) (A) (A)
                 (A) (A) (A) (A) (A) (A) (A) (A) (A) (A) (A) (A)
                 (A) (A) (A) (A) (A) (A) (A) (A) (A) (A) (A) (A)
                 (A) (A) (A) (A) (A) (A) (A) (A) (A) (A) (A) (A)
                 (A) (A) (A) (A) (A) (A) (A) (A) (A) (A) (A) (A)
                 (A) (A) (A) (A) (A) (A) (A) (A) (A) (A) (A) (A)
                 (A) (A) (A) (A) (A) (A) (A) (A) (A) (A) (A) (A)
                 (A) (A) (A) (A) (A) (A) (A) (A) (A) (A) (A) (A)
                 (A) (A) (A) (A) (A) (A) (A) (A) (A) (A) (A) (A)
                 (A) (A) (A) (A) (A) (A) (A) (A) (A) (A) (A) (A)
                 (A) (A) (A) (A) (A) (A) (A) (A) (A) (A) (A) (A)
                 (A) (A) (A) (A) (A) (A) (A) (A) (A) (A) (A) (A)
                 (A) (A) (A) (A) (A) (A) (A) (A) (A) (A) (A) (A)
                 (A) (A) (A) (A) (A) (A) (A) (A) (A) (A) (A) (A)
                 (A) (A) (A) (A) (A) (A) (A) (A) (A) (A) (A) (A)
                 (A) (A) (A) (A) (A) (A) (A) (A) (A) (A) (A) (A)
                 (A) (A) (A) (A) (A) (A) (A) (A) (A) (A) (A) (A)
                 (A) (A) (A) (A) (A) (A) (A) (A) (A) (A) (A) (A)
                 (A) (A) (A) (A) (A) (A) (A) (A) (A) (A) (A) (A)
                 (A) (A) (A) (A) (A) (A) (A) (A) (A) (A) (A) (A)
                 (A) (A)
 The electronic state is 1-A.
 Alpha  occ. eigenvalues --  -91.98351 -91.98005 -20.59771 -20.59758 -20.57089
 Alpha  occ. eigenvalues --  -20.57073 -20.56837 -20.56735 -15.64187 -15.63860
 Alpha  occ. eigenvalues --  -11.40270 -11.40013 -11.39907 -11.39905 -11.31000
 Alpha  occ. eigenvalues --  -11.30536 -11.30424 -11.30420 -11.30324 -11.30138
 Alpha  occ. eigenvalues --  -11.29671 -11.29657 -11.29591 -11.29571 -11.29515
 Alpha  occ. eigenvalues --  -11.29014 -11.28898 -11.28843 -11.28446 -11.27559
 Alpha  occ. eigenvalues --  -11.27272 -11.26942 -11.26939 -11.26752 -11.24755
 Alpha  occ. eigenvalues --  -11.24442  -8.98417  -8.98098  -6.66576  -6.66478
 Alpha  occ. eigenvalues --   -6.66283  -6.66256  -6.66161  -6.65972  -1.43712
 Alpha  occ. eigenvalues --   -1.43618  -1.41767  -1.41649  -1.41624  -1.41530
 Alpha  occ. eigenvalues --   -1.27824  -1.27399  -1.23574  -1.18897  -1.17059
 Alpha  occ. eigenvalues --   -1.15392  -1.13163  -1.07804  -1.06190  -1.03497
 Alpha  occ. eigenvalues --   -1.00454  -1.00338  -0.98890  -0.97327  -0.97070
 Alpha  occ. eigenvalues --   -0.96236  -0.93548  -0.92109  -0.90210  -0.89142
 Alpha  occ. eigenvalues --   -0.88576  -0.86942  -0.81307  -0.79671  -0.78793
 Alpha  occ. eigenvalues --   -0.78104  -0.76225  -0.74621  -0.73955  -0.72862
 Alpha  occ. eigenvalues --   -0.71994  -0.70815  -0.69598  -0.68154  -0.67482
 Alpha  occ. eigenvalues --   -0.66964  -0.66413  -0.66018  -0.65939  -0.65697
 Alpha  occ. eigenvalues --   -0.65502  -0.64829  -0.64437  -0.64218  -0.63958
 Alpha  occ. eigenvalues --   -0.62405  -0.61775  -0.60861  -0.60332  -0.59642
 Alpha  occ. eigenvalues --   -0.59413  -0.57483  -0.57070  -0.57015  -0.56694
 Alpha  occ. eigenvalues --   -0.56423  -0.56183  -0.55999  -0.55904  -0.55426
 Alpha  occ. eigenvalues --   -0.54010  -0.53524  -0.52571  -0.51531  -0.51093
 Alpha  occ. eigenvalues --   -0.50429  -0.48827  -0.48000  -0.47694  -0.47642
 Alpha  occ. eigenvalues --   -0.46479  -0.46280  -0.45885  -0.45519  -0.45121
 Alpha  occ. eigenvalues --   -0.43281  -0.42073  -0.41544  -0.37154  -0.36077
 Alpha  occ. eigenvalues --   -0.33948  -0.33344  -0.33092  -0.25453
 Alpha virt. eigenvalues --   -0.01751   0.02928   0.03280   0.03531   0.03892
 Alpha virt. eigenvalues --    0.04087   0.04629   0.04825   0.05191   0.05488
 Alpha virt. eigenvalues --    0.05563   0.05907   0.06316   0.06375   0.06623
 Alpha virt. eigenvalues --    0.06729   0.06865   0.07054   0.07563   0.07658
 Alpha virt. eigenvalues --    0.08081   0.08227   0.08768   0.09144   0.09427
 Alpha virt. eigenvalues --    0.09683   0.10026   0.10254   0.10733   0.10926
 Alpha virt. eigenvalues --    0.11330   0.11759   0.11900   0.12496   0.12719
 Alpha virt. eigenvalues --    0.12820   0.13334   0.13486   0.13648   0.13873
 Alpha virt. eigenvalues --    0.14005   0.14289   0.14438   0.14564   0.14816
 Alpha virt. eigenvalues --    0.14905   0.15137   0.15320   0.15405   0.15689
 Alpha virt. eigenvalues --    0.15878   0.16011   0.16188   0.16426   0.16663
 Alpha virt. eigenvalues --    0.16845   0.16955   0.17259   0.17368   0.17693
 Alpha virt. eigenvalues --    0.17880   0.18021   0.18040   0.18228   0.18367
 Alpha virt. eigenvalues --    0.18701   0.18832   0.19047   0.19328   0.19701
 Alpha virt. eigenvalues --    0.19760   0.20020   0.20234   0.20397   0.20639
 Alpha virt. eigenvalues --    0.21018   0.21069   0.21399   0.21753   0.21767
 Alpha virt. eigenvalues --    0.22165   0.22498   0.22695   0.22780   0.23075
 Alpha virt. eigenvalues --    0.23307   0.23491   0.23805   0.23913   0.23998
 Alpha virt. eigenvalues --    0.24299   0.24756   0.25112   0.25325   0.25615
 Alpha virt. eigenvalues --    0.25722   0.25976   0.26131   0.26311   0.26569
 Alpha virt. eigenvalues --    0.27088   0.27285   0.27393   0.27818   0.28055
 Alpha virt. eigenvalues --    0.28305   0.28624   0.28866   0.29183   0.29465
 Alpha virt. eigenvalues --    0.29608   0.29900   0.30246   0.30474   0.30658
 Alpha virt. eigenvalues --    0.30997   0.31109   0.31302   0.31396   0.31731
 Alpha virt. eigenvalues --    0.31894   0.32185   0.32252   0.32543   0.32695
 Alpha virt. eigenvalues --    0.32978   0.33073   0.33214   0.33462   0.33519
 Alpha virt. eigenvalues --    0.33755   0.33878   0.34137   0.34168   0.34439
 Alpha virt. eigenvalues --    0.34510   0.35006   0.35233   0.35243   0.35430
 Alpha virt. eigenvalues --    0.35737   0.35995   0.36082   0.36409   0.36475
 Alpha virt. eigenvalues --    0.36688   0.37002   0.37341   0.37456   0.37568
 Alpha virt. eigenvalues --    0.37691   0.37951   0.38151   0.38299   0.38367
 Alpha virt. eigenvalues --    0.38662   0.38945   0.39291   0.39331   0.39806
 Alpha virt. eigenvalues --    0.39877   0.40105   0.40438   0.40535   0.40777
 Alpha virt. eigenvalues --    0.41079   0.41246   0.41488   0.41567   0.41804
 Alpha virt. eigenvalues --    0.41835   0.42240   0.42265   0.42395   0.42751
 Alpha virt. eigenvalues --    0.42859   0.43160   0.43384   0.43806   0.43834
 Alpha virt. eigenvalues --    0.44159   0.44263   0.44412   0.44523   0.44800
 Alpha virt. eigenvalues --    0.45243   0.45298   0.45366   0.45515   0.45591
 Alpha virt. eigenvalues --    0.46020   0.46248   0.46400   0.46537   0.46737
 Alpha virt. eigenvalues --    0.47070   0.47135   0.47530   0.47994   0.48203
 Alpha virt. eigenvalues --    0.48396   0.49200   0.49533   0.49829   0.50373
 Alpha virt. eigenvalues --    0.50866   0.51175   0.51271   0.51570   0.51971
 Alpha virt. eigenvalues --    0.52408   0.52566   0.52723   0.53056   0.53375
 Alpha virt. eigenvalues --    0.53506   0.53714   0.53809   0.54314   0.54678
 Alpha virt. eigenvalues --    0.54930   0.55277   0.55506   0.56079   0.56172
 Alpha virt. eigenvalues --    0.56323   0.56489   0.56765   0.56879   0.57136
 Alpha virt. eigenvalues --    0.57398   0.57583   0.57746   0.58102   0.58208
 Alpha virt. eigenvalues --    0.58251   0.58937   0.59128   0.59339   0.59847
 Alpha virt. eigenvalues --    0.59989   0.60138   0.60346   0.60534   0.61159
 Alpha virt. eigenvalues --    0.61230   0.61312   0.62062   0.62222   0.62611
 Alpha virt. eigenvalues --    0.62800   0.63112   0.63261   0.63423   0.63958
 Alpha virt. eigenvalues --    0.64020   0.64185   0.64375   0.64645   0.64832
 Alpha virt. eigenvalues --    0.65393   0.65593   0.65705   0.66259   0.66842
 Alpha virt. eigenvalues --    0.66915   0.67093   0.67216   0.67428   0.67632
 Alpha virt. eigenvalues --    0.67885   0.68102   0.68452   0.68565   0.68707
 Alpha virt. eigenvalues --    0.69064   0.69273   0.69387   0.69861   0.70156
 Alpha virt. eigenvalues --    0.70309   0.70600   0.70951   0.71116   0.71390
 Alpha virt. eigenvalues --    0.71823   0.72447   0.72550   0.72737   0.73107
 Alpha virt. eigenvalues --    0.73279   0.73576   0.73777   0.74263   0.74383
 Alpha virt. eigenvalues --    0.74594   0.74883   0.75164   0.75336   0.75418
 Alpha virt. eigenvalues --    0.75833   0.75933   0.76094   0.76363   0.76518
 Alpha virt. eigenvalues --    0.76882   0.77159   0.77527   0.77659   0.77942
 Alpha virt. eigenvalues --    0.78059   0.78690   0.78806   0.78863   0.79214
 Alpha virt. eigenvalues --    0.79537   0.79676   0.80146   0.80491   0.80576
 Alpha virt. eigenvalues --    0.80808   0.81168   0.81410   0.81508   0.82044
 Alpha virt. eigenvalues --    0.82210   0.82684   0.82804   0.83431   0.83726
 Alpha virt. eigenvalues --    0.83793   0.84236   0.84489   0.84510   0.85013
 Alpha virt. eigenvalues --    0.85186   0.85491   0.85912   0.86000   0.86308
 Alpha virt. eigenvalues --    0.86543   0.87158   0.87453   0.87566   0.87664
 Alpha virt. eigenvalues --    0.87905   0.88185   0.88306   0.88858   0.89108
 Alpha virt. eigenvalues --    0.89276   0.89802   0.90256   0.90481   0.90603
 Alpha virt. eigenvalues --    0.91129   0.91470   0.91797   0.92120   0.92260
 Alpha virt. eigenvalues --    0.92675   0.92823   0.93014   0.93051   0.93564
 Alpha virt. eigenvalues --    0.94042   0.94187   0.94421   0.94780   0.94915
 Alpha virt. eigenvalues --    0.95089   0.95853   0.96269   0.96357   0.96477
 Alpha virt. eigenvalues --    0.96669   0.97298   0.97741   0.97869   0.98267
 Alpha virt. eigenvalues --    0.98517   0.99028   0.99538   0.99608   1.00430
 Alpha virt. eigenvalues --    1.00697   1.00827   1.01156   1.01532   1.02073
 Alpha virt. eigenvalues --    1.02145   1.02429   1.02567   1.02983   1.03376
 Alpha virt. eigenvalues --    1.03831   1.04141   1.04327   1.04571   1.04891
 Alpha virt. eigenvalues --    1.05211   1.05609   1.06241   1.06510   1.06951
 Alpha virt. eigenvalues --    1.07278   1.07383   1.08285   1.08484   1.09425
 Alpha virt. eigenvalues --    1.09645   1.09741   1.10245   1.10550   1.10999
 Alpha virt. eigenvalues --    1.11190   1.11845   1.12143   1.12360   1.12918
 Alpha virt. eigenvalues --    1.13656   1.13961   1.14416   1.14901   1.15198
 Alpha virt. eigenvalues --    1.15754   1.16230   1.16611   1.17121   1.17724
 Alpha virt. eigenvalues --    1.18571   1.18646   1.19222   1.19412   1.19733
 Alpha virt. eigenvalues --    1.20398   1.20494   1.21170   1.21482   1.22225
 Alpha virt. eigenvalues --    1.22545   1.23373   1.23679   1.25009   1.25228
 Alpha virt. eigenvalues --    1.25609   1.25776   1.26370   1.27263   1.27523
 Alpha virt. eigenvalues --    1.27758   1.27881   1.28311   1.28658   1.28798
 Alpha virt. eigenvalues --    1.29193   1.29557   1.30155   1.30688   1.31220
 Alpha virt. eigenvalues --    1.31558   1.31777   1.32109   1.32588   1.32947
 Alpha virt. eigenvalues --    1.33425   1.34099   1.34495   1.35078   1.35743
 Alpha virt. eigenvalues --    1.36100   1.36248   1.36655   1.37014   1.37515
 Alpha virt. eigenvalues --    1.37974   1.39037   1.39280   1.39762   1.40205
 Alpha virt. eigenvalues --    1.40619   1.41197   1.41609   1.42200   1.42814
 Alpha virt. eigenvalues --    1.43182   1.43695   1.44517   1.44900   1.45547
 Alpha virt. eigenvalues --    1.46117   1.46409   1.46469   1.46972   1.47709
 Alpha virt. eigenvalues --    1.48119   1.48724   1.48913   1.49297   1.49864
 Alpha virt. eigenvalues --    1.50252   1.51205   1.51861   1.52203   1.53199
 Alpha virt. eigenvalues --    1.53528   1.53880   1.54169   1.54798   1.55404
 Alpha virt. eigenvalues --    1.55972   1.56224   1.56924   1.56969   1.57501
 Alpha virt. eigenvalues --    1.58086   1.58453   1.59450   1.59621   1.60068
 Alpha virt. eigenvalues --    1.61176   1.61476   1.61610   1.61994   1.62555
 Alpha virt. eigenvalues --    1.63343   1.63607   1.64197   1.64509   1.65070
 Alpha virt. eigenvalues --    1.65253   1.65294   1.66625   1.66857   1.67253
 Alpha virt. eigenvalues --    1.67421   1.68406   1.68830   1.68928   1.69295
 Alpha virt. eigenvalues --    1.70089   1.70796   1.71542   1.71981   1.72347
 Alpha virt. eigenvalues --    1.72850   1.73253   1.73780   1.74623   1.74924
 Alpha virt. eigenvalues --    1.75428   1.75570   1.75717   1.76370   1.76893
 Alpha virt. eigenvalues --    1.77304   1.77429   1.77784   1.78260   1.78882
 Alpha virt. eigenvalues --    1.78931   1.79442   1.79733   1.79927   1.80855
 Alpha virt. eigenvalues --    1.81026   1.81498   1.81720   1.82148   1.82539
 Alpha virt. eigenvalues --    1.82822   1.83164   1.83324   1.83626   1.83970
 Alpha virt. eigenvalues --    1.84435   1.85323   1.85838   1.85980   1.86733
 Alpha virt. eigenvalues --    1.86871   1.87479   1.87902   1.88169   1.88246
 Alpha virt. eigenvalues --    1.88674   1.88873   1.89236   1.89515   1.89958
 Alpha virt. eigenvalues --    1.90123   1.90462   1.90838   1.91122   1.91438
 Alpha virt. eigenvalues --    1.91541   1.91865   1.92430   1.92951   1.93939
 Alpha virt. eigenvalues --    1.94191   1.94525   1.94930   1.95118   1.95679
 Alpha virt. eigenvalues --    1.95956   1.96153   1.96757   1.98037   1.98158
 Alpha virt. eigenvalues --    1.98799   1.99019   1.99527   2.00132   2.00538
 Alpha virt. eigenvalues --    2.01238   2.01940   2.02368   2.02952   2.03034
 Alpha virt. eigenvalues --    2.04194   2.04677   2.04855   2.05753   2.06046
 Alpha virt. eigenvalues --    2.06453   2.07192   2.08331   2.08682   2.09377
 Alpha virt. eigenvalues --    2.10221   2.10522   2.10919   2.11517   2.12306
 Alpha virt. eigenvalues --    2.12766   2.12889   2.13221   2.13708   2.14873
 Alpha virt. eigenvalues --    2.15550   2.15812   2.16478   2.16873   2.17234
 Alpha virt. eigenvalues --    2.18439   2.18911   2.19227   2.19798   2.21000
 Alpha virt. eigenvalues --    2.21022   2.21861   2.22053   2.22213   2.22592
 Alpha virt. eigenvalues --    2.22908   2.23551   2.23742   2.24274   2.24924
 Alpha virt. eigenvalues --    2.25115   2.25545   2.25814   2.26437   2.27087
 Alpha virt. eigenvalues --    2.27739   2.28278   2.28510   2.29291   2.29724
 Alpha virt. eigenvalues --    2.30151   2.30214   2.30601   2.31040   2.31597
 Alpha virt. eigenvalues --    2.32105   2.32718   2.32825   2.33707   2.34117
 Alpha virt. eigenvalues --    2.34889   2.35110   2.35236   2.36090   2.36586
 Alpha virt. eigenvalues --    2.37099   2.38046   2.38578   2.39014   2.39257
 Alpha virt. eigenvalues --    2.39738   2.40154   2.40515   2.40692   2.42043
 Alpha virt. eigenvalues --    2.42497   2.42765   2.43081   2.43886   2.44666
 Alpha virt. eigenvalues --    2.44905   2.45483   2.45734   2.46370   2.46666
 Alpha virt. eigenvalues --    2.46893   2.47382   2.47630   2.48353   2.49017
 Alpha virt. eigenvalues --    2.49399   2.49786   2.50238   2.52031   2.52657
 Alpha virt. eigenvalues --    2.53666   2.53857   2.54256   2.54723   2.55390
 Alpha virt. eigenvalues --    2.55581   2.56519   2.57853   2.58172   2.59177
 Alpha virt. eigenvalues --    2.59573   2.60657   2.61242   2.61966   2.62823
 Alpha virt. eigenvalues --    2.63992   2.64872   2.66093   2.66718   2.67374
 Alpha virt. eigenvalues --    2.68149   2.68689   2.70114   2.70446   2.70489
 Alpha virt. eigenvalues --    2.70831   2.72054   2.72375   2.73556   2.76635
 Alpha virt. eigenvalues --    2.76966   2.77212   2.78612   2.78746   2.79531
 Alpha virt. eigenvalues --    2.79595   2.80397   2.82651   2.83783   2.84192
 Alpha virt. eigenvalues --    2.85554   2.86649   2.87232   2.87659   2.88006
 Alpha virt. eigenvalues --    2.89610   2.89931   2.90994   2.91250   2.93682
 Alpha virt. eigenvalues --    2.94302   2.94742   2.95339   2.95986   2.96999
 Alpha virt. eigenvalues --    2.97255   2.98002   2.99150   2.99931   3.01902
 Alpha virt. eigenvalues --    3.02445   3.03883   3.04340   3.08035   3.10056
 Alpha virt. eigenvalues --    3.11828   3.12968   3.14560   3.15240   3.17108
 Alpha virt. eigenvalues --    3.18856   3.20064   3.20825   3.23021   3.23954
 Alpha virt. eigenvalues --    3.26450   3.28222   3.29717   3.30413   3.33365
 Alpha virt. eigenvalues --    3.37247   3.42562   3.45204   3.46221   3.49234
 Alpha virt. eigenvalues --    3.49970   3.51008   3.54149   3.56846   3.57708
 Alpha virt. eigenvalues --    3.59495   3.63682   3.64542   3.66433   3.69524
 Alpha virt. eigenvalues --    3.72070   3.77617   3.78998   3.79502   3.80214
 Alpha virt. eigenvalues --    3.80537   3.81165   3.81725   3.82315   3.83461
 Alpha virt. eigenvalues --    3.83791   3.85417   3.85925   3.86512   3.87142
 Alpha virt. eigenvalues --    3.88774   3.91130   3.92707   3.94961   3.97200
 Alpha virt. eigenvalues --    3.98875   4.00275   4.03147   4.05823   4.06166
 Alpha virt. eigenvalues --    4.07738   4.10276   4.12655   4.14118   4.15031
 Alpha virt. eigenvalues --    4.16717   4.17560   4.19181   4.20241   4.21907
 Alpha virt. eigenvalues --    4.25453   4.30192   4.36230   4.41794   4.47655
 Alpha virt. eigenvalues --    4.62145   4.76061   4.81645   5.39287
          Condensed to atoms (all electrons):
 Mulliken charges:
               1
     1  C    0.057104
     2  C    1.129993
     3  C   -0.619395
     4  C    1.733101
     5  C   -0.011216
     6  C   -0.130157
     7  C   -0.239702
     8  C    1.032967
     9  C    1.519084
    10  C   -0.460892
    11  C   -0.020399
    12  C    1.452889
    13  C    0.338331
    14  C    0.273441
    15  H   -0.632689
    16  H   -0.644720
    17  H   -0.815130
    18  N   -0.942814
    19  N   -0.955489
    20  O   -0.864827
    21  O   -0.888782
    22  O   -0.905657
    23  O   -0.856421
    24  C    0.695915
    25  H   -0.017265
    26  H   -0.015580
    27  H   -0.251864
    28  C    0.674112
    29  H   -0.020798
    30  H   -0.019183
    31  H   -0.232989
    32  C    2.289242
    33  C   -0.201705
    34  S   -0.010754
    35  C    0.259992
    36  H   -0.865103
    37  C   -0.759438
    38  O   -1.101601
    39  C    1.342312
    40  C    0.972326
    41  C   -0.166968
    42  S    0.334086
    43  H   -0.347372
    44  H   -0.070197
    45  H   -0.052952
    46  C    1.015251
    47  O   -1.131944
    48  C   -0.258688
    49  H   -0.638926
    50  C    0.920948
    51  H   -0.425587
    52  H   -0.064575
    53  H   -0.328072
    54  H   -0.071249
 Sum of Mulliken charges =  -0.00000
 Mulliken charges with hydrogens summed into heavy atoms:
               1
     1  C    0.057104
     2  C    1.129993
     3  C   -0.619395
     4  C    1.733101
     5  C   -0.011216
     6  C   -0.945287
     7  C   -0.239702
     8  C    1.032967
     9  C    1.519084
    10  C   -0.460892
    11  C   -0.020399
    12  C    1.452889
    13  C   -0.306389
    14  C   -0.359247
    18  N   -0.942814
    19  N   -0.955489
    20  O   -0.864827
    21  O   -0.888782
    22  O   -0.905657
    23  O   -0.856421
    24  C    0.411206
    28  C    0.401142
    32  C    2.289242
    33  C   -1.066807
    34  S   -0.010754
    35  C    0.259992
    37  C   -0.759438
    38  O   -1.101601
    39  C    1.342312
    40  C    0.501806
    41  C   -0.166968
    42  S    0.334086
    46  C    0.376325
    47  O   -1.131944
    48  C   -0.684275
    50  C    0.457053
 Electronic spatial extent (au):  <R**2>=          22219.0552
 Charge=             -0.0000 electrons
 Dipole moment (field-independent basis, Debye):
    X=             -0.9177    Y=              0.2288    Z=             -0.0796  Tot=              0.9492
 Quadrupole moment (field-independent basis, Debye-Ang):
   XX=           -221.2912   YY=           -238.9746   ZZ=           -197.8007
   XY=             -1.2696   XZ=             11.5284   YZ=              2.2731
 Traceless Quadrupole moment (field-independent basis, Debye-Ang):
   XX=             -1.9357   YY=            -19.6191   ZZ=             21.5548
   XY=             -1.2696   XZ=             11.5284   YZ=              2.2731
 Octapole moment (field-independent basis, Debye-Ang**2):
  XXX=           -277.0608  YYY=             -5.5877  ZZZ=              5.9371  XYY=            -17.5665
  XXY=            -22.5420  XXZ=            -61.0409  XZZ=            -97.0274  YZZ=             -8.5065
  YYZ=             -0.8483  XYZ=             -4.6887
 Hexadecapole moment (field-independent basis, Debye-Ang**3):
 XXXX=         -21383.2794 YYYY=          -6056.8081 ZZZZ=          -2210.0327 XXXY=            302.7980
 XXXZ=            556.7066 YYYX=           -526.1100 YYYZ=             85.3141 ZZZX=             71.9694
 ZZZY=             20.3617 XXYY=          -4828.9719 XXZZ=          -3670.0432 YYZZ=          -1404.0292
 XXYZ=             13.2829 YYXZ=             25.6679 ZZXY=              4.6598
 N-N= 4.090201055629D+03 E-N=-1.370879312750D+04  KE= 2.346632835196D+03
 Unable to Open any file for archive entry.
 1\1\GINC-AX4\SP\RMP2-FC\Aug-CC-pVDZ\C26H18N2O6S2\NS5018\10-Dec-2020\0\
 \# mp2/aug-cc-pvdz MaxDisk=400GB\\NDI_-95_b3lyp.pdb\\0,1\C,0,3.284,-2.
 842,0.132\C,0,2.641,-1.501,0.148\C,0,3.416,-0.338,-0.048\C,0,4.809,-0.
 428,-0.269\C,0,5.483,-1.755,-0.295\C,0,1.283,-1.396,0.35\C,0,2.777,0.9
 32,-0.022\C,0,1.375,1.024,0.201\C,0,0.622,-0.142,0.379\C,0,0.748,2.38,
 0.257\C,0,2.958,3.441,-0.216\C,0,3.571,2.087,-0.226\C,0,4.933,1.976,-0
 .442\C,0,5.556,0.719,-0.463\H,0,6.622,0.628,-0.63\H,0,5.506,2.882,-0.5
 96\H,0,0.702,-2.299,0.49\N,0,1.582,3.489,0.017\N,0,4.667,-2.879,-0.092
 \O,0,2.66,-3.872,0.304\O,0,6.68,-1.867,-0.482\O,0,3.614,4.45,-0.398\O,
 0,-0.425,2.568,0.499\C,0,0.924,4.804,0.055\H,0,0.099,4.82,-0.657\H,0,0
 .522,4.99,1.051\H,0,1.666,5.554,-0.2\C,0,5.287,-4.212,-0.108\H,0,5.129
 ,-4.704,0.852\H,0,4.828,-4.821,-0.887\H,0,6.348,-4.085,-0.299\C,0,-0.8
 44,-0.177,0.599\C,0,-1.51,-0.23,1.791\S,0,-1.935,-0.265,-0.752\C,0,-2.
 92,-0.316,1.624\H,0,-1.009,-0.184,2.748\C,0,-3.339,-0.348,0.304\O,0,-3
 .845,-0.377,2.623\C,0,-4.687,-0.441,-0.201\C,0,-3.39,-0.25,3.965\C,0,-
 5.099,-0.487,-1.525\S,0,-6.096,-0.509,0.849\H,0,-4.281,-0.29,4.588\H,0
 ,-2.721,-1.074,4.237\H,0,-2.88,0.707,4.12\C,0,-6.51,-0.572,-1.696\O,0,
 -4.165,-0.45,-2.518\C,0,-7.17,-0.592,-0.5\H,0,-7.009,-0.616,-2.653\C,0
 ,-4.622,-0.484,-3.865\H,0,-8.235,-0.652,-0.333\H,0,-5.26,0.377,-4.088\
 H,0,-3.728,-0.441,-4.485\H,0,-5.165,-1.411,-4.076\\Version=ES64L-G16Re
 vC.01\State=1-A\HF=-2348.40914\MP2=-2353.7255052\RMSD=1.665e-09\PG=C01
  [X(C26H18N2O6S2)]\\@
 The archive entry for this job was punched.


 ASKING DUMB QUESTIONS IS EASIER THAN CORECTING DUMB MISTAKES.
 Job cpu time:      24 days 19 hours 57 minutes 25.3 seconds.
 Elapsed time:       0 days 15 hours 24 minutes  0.6 seconds.
 File lengths (MBytes):  RWF= 257250 Int=      0 D2E=      0 Chk=     65 Scr=      1
 Normal termination of Gaussian 16 at Thu Dec 10 17:44:16 2020.
