 Entering Gaussian System, Link 0=g16
 Input=NDI_5.gjf
 Output=NDI_5.log
 Initial command:
 /apps/gaussian/g16-c01-avx/g16/l1.exe "/tmp/pbs.4643763[180].pbs/Gau-2848625.inp" -scrdir="/tmp/pbs.4643763[180].pbs/"
 Entering Link 1 = /apps/gaussian/g16-c01-avx/g16/l1.exe PID=   2848626.
  
 Copyright (c) 1988-2019, Gaussian, Inc.  All Rights Reserved.
  
 This is part of the Gaussian(R) 16 program.  It is based on
 the Gaussian(R) 09 system (copyright 2009, Gaussian, Inc.),
 the Gaussian(R) 03 system (copyright 2003, Gaussian, Inc.),
 the Gaussian(R) 98 system (copyright 1998, Gaussian, Inc.),
 the Gaussian(R) 94 system (copyright 1995, Gaussian, Inc.),
 the Gaussian 92(TM) system (copyright 1992, Gaussian, Inc.),
 the Gaussian 90(TM) system (copyright 1990, Gaussian, Inc.),
 the Gaussian 88(TM) system (copyright 1988, Gaussian, Inc.),
 the Gaussian 86(TM) system (copyright 1986, Carnegie Mellon
 University), and the Gaussian 82(TM) system (copyright 1983,
 Carnegie Mellon University). Gaussian is a federally registered
 trademark of Gaussian, Inc.
  
 This software contains proprietary and confidential information,
 including trade secrets, belonging to Gaussian, Inc.
  
 This software is provided under written license and may be
 used, copied, transmitted, or stored only in accord with that
 written license.
  
 The following legend is applicable only to US Government
 contracts under FAR:
  
                    RESTRICTED RIGHTS LEGEND
  
 Use, reproduction and disclosure by the US Government is
 subject to restrictions as set forth in subparagraphs (a)
 and (c) of the Commercial Computer Software - Restricted
 Rights clause in FAR 52.227-19.
  
 Gaussian, Inc.
 340 Quinnipiac St., Bldg. 40, Wallingford CT 06492
  
  
 ---------------------------------------------------------------
 Warning -- This program may not be used in any manner that
 competes with the business of Gaussian, Inc. or will provide
 assistance to any competitor of Gaussian, Inc.  The licensee
 of this program is prohibited from giving any competitor of
 Gaussian, Inc. access to this program.  By using this program,
 the user acknowledges that Gaussian, Inc. is engaged in the
 business of creating and licensing software in the field of
 computational chemistry and represents and warrants to the
 licensee that it is not a competitor of Gaussian, Inc. and that
 it will not use this program in any manner prohibited above.
 ---------------------------------------------------------------
  

 Cite this work as:
 Gaussian 16, Revision C.01,
 M. J. Frisch, G. W. Trucks, H. B. Schlegel, G. E. Scuseria, 
 M. A. Robb, J. R. Cheeseman, G. Scalmani, V. Barone, 
 G. A. Petersson, H. Nakatsuji, X. Li, M. Caricato, A. V. Marenich, 
 J. Bloino, B. G. Janesko, R. Gomperts, B. Mennucci, H. P. Hratchian, 
 J. V. Ortiz, A. F. Izmaylov, J. L. Sonnenberg, D. Williams-Young, 
 F. Ding, F. Lipparini, F. Egidi, J. Goings, B. Peng, A. Petrone, 
 T. Henderson, D. Ranasinghe, V. G. Zakrzewski, J. Gao, N. Rega, 
 G. Zheng, W. Liang, M. Hada, M. Ehara, K. Toyota, R. Fukuda, 
 J. Hasegawa, M. Ishida, T. Nakajima, Y. Honda, O. Kitao, H. Nakai, 
 T. Vreven, K. Throssell, J. A. Montgomery, Jr., J. E. Peralta, 
 F. Ogliaro, M. J. Bearpark, J. J. Heyd, E. N. Brothers, K. N. Kudin, 
 V. N. Staroverov, T. A. Keith, R. Kobayashi, J. Normand, 
 K. Raghavachari, A. P. Rendell, J. C. Burant, S. S. Iyengar, 
 J. Tomasi, M. Cossi, J. M. Millam, M. Klene, C. Adamo, R. Cammi, 
 J. W. Ochterski, R. L. Martin, K. Morokuma, O. Farkas, 
 J. B. Foresman, and D. J. Fox, Gaussian, Inc., Wallingford CT, 2019.
 
 ******************************************
 Gaussian 16:  ES64L-G16RevC.01  3-Jul-2019
                 7-Oct-2021 
 ******************************************
 %mem=10GB
 %nprocshared=8
 Will use up to    8 processors via shared memory.
 -------------------------------------
 # opt=modredundant b3lyp/6-311+g(d,p)
 -------------------------------------
 1/18=120,19=15,26=3,38=1/1,3;
 2/9=110,12=2,17=6,18=5,40=1/2;
 3/5=4,6=6,7=111,11=2,25=1,30=1,71=1,74=-5/1,2,3;
 4//1;
 5/5=2,38=5/2;
 6/7=2,8=2,9=2,10=2,28=1/1;
 7//1,2,3,16;
 1/18=20,19=15,26=3/3(2);
 2/9=110/2;
 99//99;
 2/9=110/2;
 3/5=4,6=6,7=111,11=2,25=1,30=1,71=1,74=-5/1,2,3;
 4/5=5,16=3,69=1/1;
 5/5=2,38=5/2;
 7//1,2,3,16;
 1/18=20,19=15,26=3/3(-5);
 2/9=110/2;
 6/7=2,8=2,9=2,10=2,19=2,28=1/1;
 99/9=1/99;
 ---------
 NDI_5.pdb
 ---------
 Symbolic Z-matrix:
 Charge = -2 Multiplicity = 1
 C                    -2.563    -2.994    -0.409 
 C                    -2.257    -1.551    -0.224 
 C                    -3.301    -0.607    -0.083 
 C                    -4.65     -1.024    -0.115 
 C                    -4.992    -2.459    -0.304 
 C                    -0.949    -1.137    -0.215 
 C                    -2.962     0.764     0.102 
 C                    -1.595     1.188     0.123 
 C                    -0.561     0.232    -0.072 
 C                    -1.328     2.616     0.446 
 C                    -3.777     3.115     0.508 
 C                    -4.035     1.679     0.268 
 C                    -5.356     1.252     0.23 
 C                    -5.672    -0.098     0.036 
 H                    -6.699    -0.442     0.008 
 H                    -6.133     1.997     0.361 
 H                    -0.19     -1.895    -0.369 
 N                    -2.432     3.476     0.608 
 N                    -3.916    -3.353    -0.438 
 O                    -1.695    -3.847    -0.532 
 O                    -6.149    -2.85     -0.34 
 O                    -4.676     3.938     0.629 
 O                    -0.212     3.097     0.596 
 C                    -2.111     4.875     0.912 
 H                    -1.54      4.931     1.84 
 H                    -1.5       5.299     0.111 
 H                    -3.05      5.414     1.003 
 C                    -4.206    -4.779    -0.625 
 H                    -3.759    -5.126    -1.559 
 H                    -3.775    -5.355     0.196 
 H                    -5.286    -4.897    -0.649 
 C                     0.876     0.482    -0.178 
 C                     1.604     1.647    -0.031 
 S                     1.928    -0.825    -0.721 
 C                     2.971     1.499    -0.34 
 H                     1.163     2.574     0.297 
 C                     3.339     0.207    -0.729 
 O                     3.921     2.47     -0.29 
 C                     4.652    -0.268    -1.062 
 C                     3.542     3.735     0.246 
 C                     5.014    -1.55     -1.472 
 S                     6.088     0.751    -1.001 
 H                     4.451     4.334     0.272 
 H                     2.799     4.229    -0.392 
 H                     3.138     3.63      1.26 
 C                     6.406    -1.709    -1.729 
 O                     4.055    -2.506    -1.586 
 C                     7.1      -0.549    -1.516 
 H                     6.866    -2.631    -2.056 
 C                     4.45     -3.796    -2.04 
 H                     8.163    -0.387    -1.636 
 H                     5.166    -4.259    -1.35 
 H                     3.54     -4.395    -2.072 
 H                     4.89     -3.747    -3.043 
 
 The following ModRedundant input section has been read:
 D       8       9      32      33 F                                           
 

 GradGradGradGradGradGradGradGradGradGradGradGradGradGradGradGradGradGrad
 Berny optimization.
 Initialization pass.
                           ----------------------------
                           !    Initial Parameters    !
                           ! (Angstroms and Degrees)  !
 --------------------------                            --------------------------
 ! Name  Definition              Value          Derivative Info.                !
 --------------------------------------------------------------------------------
 ! R1    R(1,2)                  1.4866         estimate D2E/DX2                !
 ! R2    R(1,19)                 1.4001         estimate D2E/DX2                !
 ! R3    R(1,20)                 1.2232         estimate D2E/DX2                !
 ! R4    R(2,3)                  1.4146         estimate D2E/DX2                !
 ! R5    R(2,6)                  1.372          estimate D2E/DX2                !
 ! R6    R(3,4)                  1.4123         estimate D2E/DX2                !
 ! R7    R(3,7)                  1.4244         estimate D2E/DX2                !
 ! R8    R(4,5)                  1.4872         estimate D2E/DX2                !
 ! R9    R(4,14)                 1.3874         estimate D2E/DX2                !
 ! R10   R(5,19)                 1.4053         estimate D2E/DX2                !
 ! R11   R(5,21)                 1.2218         estimate D2E/DX2                !
 ! R12   R(6,9)                  1.4301         estimate D2E/DX2                !
 ! R13   R(6,17)                 1.0837         estimate D2E/DX2                !
 ! R14   R(7,8)                  1.4314         estimate D2E/DX2                !
 ! R15   R(7,12)                 1.4199         estimate D2E/DX2                !
 ! R16   R(8,9)                  1.4217         estimate D2E/DX2                !
 ! R17   R(8,10)                 1.4882         estimate D2E/DX2                !
 ! R18   R(9,32)                 1.4624         estimate D2E/DX2                !
 ! R19   R(10,18)                1.4088         estimate D2E/DX2                !
 ! R20   R(10,23)                1.2245         estimate D2E/DX2                !
 ! R21   R(11,12)                1.4786         estimate D2E/DX2                !
 ! R22   R(11,18)                1.3962         estimate D2E/DX2                !
 ! R23   R(11,22)                1.2248         estimate D2E/DX2                !
 ! R24   R(12,13)                1.3888         estimate D2E/DX2                !
 ! R25   R(13,14)                1.4            estimate D2E/DX2                !
 ! R26   R(13,16)                1.0844         estimate D2E/DX2                !
 ! R27   R(14,15)                1.0834         estimate D2E/DX2                !
 ! R28   R(18,24)                1.4672         estimate D2E/DX2                !
 ! R29   R(19,28)                1.4672         estimate D2E/DX2                !
 ! R30   R(24,25)                1.091          estimate D2E/DX2                !
 ! R31   R(24,26)                1.093          estimate D2E/DX2                !
 ! R32   R(24,27)                1.0865         estimate D2E/DX2                !
 ! R33   R(28,29)                1.0921         estimate D2E/DX2                !
 ! R34   R(28,30)                1.0916         estimate D2E/DX2                !
 ! R35   R(28,31)                1.0867         estimate D2E/DX2                !
 ! R36   R(32,33)                1.3816         estimate D2E/DX2                !
 ! R37   R(32,34)                1.7635         estimate D2E/DX2                !
 ! R38   R(33,35)                1.4093         estimate D2E/DX2                !
 ! R39   R(33,36)                1.0777         estimate D2E/DX2                !
 ! R40   R(34,37)                1.7481         estimate D2E/DX2                !
 ! R41   R(35,37)                1.3986         estimate D2E/DX2                !
 ! R42   R(35,38)                1.3594         estimate D2E/DX2                !
 ! R43   R(37,39)                1.4354         estimate D2E/DX2                !
 ! R44   R(38,40)                1.4252         estimate D2E/DX2                !
 ! R45   R(39,41)                1.3938         estimate D2E/DX2                !
 ! R46   R(39,42)                1.7619         estimate D2E/DX2                !
 ! R47   R(40,43)                1.0889         estimate D2E/DX2                !
 ! R48   R(40,44)                1.0969         estimate D2E/DX2                !
 ! R49   R(40,45)                1.0966         estimate D2E/DX2                !
 ! R50   R(41,46)                1.4244         estimate D2E/DX2                !
 ! R51   R(41,47)                1.3589         estimate D2E/DX2                !
 ! R52   R(42,48)                1.7261         estimate D2E/DX2                !
 ! R53   R(46,48)                1.3684         estimate D2E/DX2                !
 ! R54   R(46,49)                1.081          estimate D2E/DX2                !
 ! R55   R(47,50)                1.4235         estimate D2E/DX2                !
 ! R56   R(48,51)                1.0819         estimate D2E/DX2                !
 ! R57   R(50,52)                1.0969         estimate D2E/DX2                !
 ! R58   R(50,53)                1.0899         estimate D2E/DX2                !
 ! R59   R(50,54)                1.0964         estimate D2E/DX2                !
 ! A1    A(2,1,19)             116.767          estimate D2E/DX2                !
 ! A2    A(2,1,20)             122.9113         estimate D2E/DX2                !
 ! A3    A(19,1,20)            120.3217         estimate D2E/DX2                !
 ! A4    A(1,2,3)              120.5473         estimate D2E/DX2                !
 ! A5    A(1,2,6)              119.3369         estimate D2E/DX2                !
 ! A6    A(3,2,6)              120.1056         estimate D2E/DX2                !
 ! A7    A(2,3,4)              120.3743         estimate D2E/DX2                !
 ! A8    A(2,3,7)              118.662          estimate D2E/DX2                !
 ! A9    A(4,3,7)              120.9617         estimate D2E/DX2                !
 ! A10   A(3,4,5)              120.4909         estimate D2E/DX2                !
 ! A11   A(3,4,14)             120.2702         estimate D2E/DX2                !
 ! A12   A(5,4,14)             119.2382         estimate D2E/DX2                !
 ! A13   A(4,5,19)             116.7341         estimate D2E/DX2                !
 ! A14   A(4,5,21)             122.024          estimate D2E/DX2                !
 ! A15   A(19,5,21)            121.2418         estimate D2E/DX2                !
 ! A16   A(2,6,9)              123.2421         estimate D2E/DX2                !
 ! A17   A(2,6,17)             117.1119         estimate D2E/DX2                !
 ! A18   A(9,6,17)             119.589          estimate D2E/DX2                !
 ! A19   A(3,7,8)              120.9519         estimate D2E/DX2                !
 ! A20   A(3,7,12)             117.1037         estimate D2E/DX2                !
 ! A21   A(8,7,12)             121.944          estimate D2E/DX2                !
 ! A22   A(7,8,9)              119.5639         estimate D2E/DX2                !
 ! A23   A(7,8,10)             117.3064         estimate D2E/DX2                !
 ! A24   A(9,8,10)             122.9922         estimate D2E/DX2                !
 ! A25   A(6,9,8)              117.3944         estimate D2E/DX2                !
 ! A26   A(6,9,32)             115.0236         estimate D2E/DX2                !
 ! A27   A(8,9,32)             127.5648         estimate D2E/DX2                !
 ! A28   A(8,10,18)            118.042          estimate D2E/DX2                !
 ! A29   A(8,10,23)            124.5436         estimate D2E/DX2                !
 ! A30   A(18,10,23)           117.4097         estimate D2E/DX2                !
 ! A31   A(12,11,18)           115.5202         estimate D2E/DX2                !
 ! A32   A(12,11,22)           122.7205         estimate D2E/DX2                !
 ! A33   A(18,11,22)           121.7534         estimate D2E/DX2                !
 ! A34   A(7,12,11)            120.8614         estimate D2E/DX2                !
 ! A35   A(7,12,13)            121.162          estimate D2E/DX2                !
 ! A36   A(11,12,13)           117.9699         estimate D2E/DX2                !
 ! A37   A(12,13,14)           120.9948         estimate D2E/DX2                !
 ! A38   A(12,13,16)           117.8401         estimate D2E/DX2                !
 ! A39   A(14,13,16)           121.1642         estimate D2E/DX2                !
 ! A40   A(4,14,13)            119.5003         estimate D2E/DX2                !
 ! A41   A(4,14,15)            118.9169         estimate D2E/DX2                !
 ! A42   A(13,14,15)           121.5811         estimate D2E/DX2                !
 ! A43   A(10,18,11)           126.0753         estimate D2E/DX2                !
 ! A44   A(10,18,24)           115.7508         estimate D2E/DX2                !
 ! A45   A(11,18,24)           118.1737         estimate D2E/DX2                !
 ! A46   A(1,19,5)             125.0856         estimate D2E/DX2                !
 ! A47   A(1,19,28)            116.2868         estimate D2E/DX2                !
 ! A48   A(5,19,28)            118.6276         estimate D2E/DX2                !
 ! A49   A(18,24,25)           109.8574         estimate D2E/DX2                !
 ! A50   A(18,24,26)           109.8979         estimate D2E/DX2                !
 ! A51   A(18,24,27)           107.5355         estimate D2E/DX2                !
 ! A52   A(25,24,26)           108.1108         estimate D2E/DX2                !
 ! A53   A(25,24,27)           110.8301         estimate D2E/DX2                !
 ! A54   A(26,24,27)           110.6124         estimate D2E/DX2                !
 ! A55   A(19,28,29)           109.6906         estimate D2E/DX2                !
 ! A56   A(19,28,30)           109.8136         estimate D2E/DX2                !
 ! A57   A(19,28,31)           107.7461         estimate D2E/DX2                !
 ! A58   A(29,28,30)           108.2991         estimate D2E/DX2                !
 ! A59   A(29,28,31)           110.6959         estimate D2E/DX2                !
 ! A60   A(30,28,31)           110.5924         estimate D2E/DX2                !
 ! A61   A(9,32,33)            130.8589         estimate D2E/DX2                !
 ! A62   A(9,32,34)            118.803          estimate D2E/DX2                !
 ! A63   A(33,32,34)           110.0832         estimate D2E/DX2                !
 ! A64   A(32,33,35)           113.5303         estimate D2E/DX2                !
 ! A65   A(32,33,36)           122.8257         estimate D2E/DX2                !
 ! A66   A(35,33,36)           123.6421         estimate D2E/DX2                !
 ! A67   A(32,34,37)            92.6009         estimate D2E/DX2                !
 ! A68   A(33,35,37)           114.408          estimate D2E/DX2                !
 ! A69   A(33,35,38)           126.4994         estimate D2E/DX2                !
 ! A70   A(37,35,38)           119.0925         estimate D2E/DX2                !
 ! A71   A(34,37,35)           109.3722         estimate D2E/DX2                !
 ! A72   A(34,37,39)           122.9569         estimate D2E/DX2                !
 ! A73   A(35,37,39)           127.6546         estimate D2E/DX2                !
 ! A74   A(35,38,40)           117.5168         estimate D2E/DX2                !
 ! A75   A(37,39,41)           127.6023         estimate D2E/DX2                !
 ! A76   A(37,39,42)           123.1003         estimate D2E/DX2                !
 ! A77   A(41,39,42)           109.2975         estimate D2E/DX2                !
 ! A78   A(38,40,43)           105.9766         estimate D2E/DX2                !
 ! A79   A(38,40,44)           111.1697         estimate D2E/DX2                !
 ! A80   A(38,40,45)           111.1468         estimate D2E/DX2                !
 ! A81   A(43,40,44)           109.366          estimate D2E/DX2                !
 ! A82   A(43,40,45)           109.7638         estimate D2E/DX2                !
 ! A83   A(44,40,45)           109.3552         estimate D2E/DX2                !
 ! A84   A(39,41,46)           114.1768         estimate D2E/DX2                !
 ! A85   A(39,41,47)           119.2399         estimate D2E/DX2                !
 ! A86   A(46,41,47)           126.583          estimate D2E/DX2                !
 ! A87   A(39,42,48)            91.83           estimate D2E/DX2                !
 ! A88   A(41,46,48)           111.8945         estimate D2E/DX2                !
 ! A89   A(41,46,49)           124.445          estimate D2E/DX2                !
 ! A90   A(48,46,49)           123.6602         estimate D2E/DX2                !
 ! A91   A(41,47,50)           117.9353         estimate D2E/DX2                !
 ! A92   A(42,48,46)           112.8012         estimate D2E/DX2                !
 ! A93   A(42,48,51)           119.759          estimate D2E/DX2                !
 ! A94   A(46,48,51)           127.4399         estimate D2E/DX2                !
 ! A95   A(47,50,52)           111.2869         estimate D2E/DX2                !
 ! A96   A(47,50,53)           106.0057         estimate D2E/DX2                !
 ! A97   A(47,50,54)           111.2626         estimate D2E/DX2                !
 ! A98   A(52,50,53)           109.3596         estimate D2E/DX2                !
 ! A99   A(52,50,54)           109.4137         estimate D2E/DX2                !
 ! A100  A(53,50,54)           109.4376         estimate D2E/DX2                !
 ! D1    D(19,1,2,3)             0.1578         estimate D2E/DX2                !
 ! D2    D(19,1,2,6)          -178.6792         estimate D2E/DX2                !
 ! D3    D(20,1,2,3)          -179.8231         estimate D2E/DX2                !
 ! D4    D(20,1,2,6)             1.3399         estimate D2E/DX2                !
 ! D5    D(2,1,19,5)            -0.124          estimate D2E/DX2                !
 ! D6    D(2,1,19,28)          179.8267         estimate D2E/DX2                !
 ! D7    D(20,1,19,5)          179.8575         estimate D2E/DX2                !
 ! D8    D(20,1,19,28)          -0.1919         estimate D2E/DX2                !
 ! D9    D(1,2,3,4)              0.0571         estimate D2E/DX2                !
 ! D10   D(1,2,3,7)            179.5453         estimate D2E/DX2                !
 ! D11   D(6,2,3,4)            178.8851         estimate D2E/DX2                !
 ! D12   D(6,2,3,7)             -1.6266         estimate D2E/DX2                !
 ! D13   D(1,2,6,9)            178.625          estimate D2E/DX2                !
 ! D14   D(1,2,6,17)             1.3881         estimate D2E/DX2                !
 ! D15   D(3,2,6,9)             -0.2173         estimate D2E/DX2                !
 ! D16   D(3,2,6,17)          -177.4541         estimate D2E/DX2                !
 ! D17   D(2,3,4,5)             -0.3074         estimate D2E/DX2                !
 ! D18   D(2,3,4,14)           179.3968         estimate D2E/DX2                !
 ! D19   D(7,3,4,5)           -179.7837         estimate D2E/DX2                !
 ! D20   D(7,3,4,14)            -0.0795         estimate D2E/DX2                !
 ! D21   D(2,3,7,8)              1.0523         estimate D2E/DX2                !
 ! D22   D(2,3,7,12)          -178.712          estimate D2E/DX2                !
 ! D23   D(4,3,7,8)           -179.4626         estimate D2E/DX2                !
 ! D24   D(4,3,7,12)             0.7731         estimate D2E/DX2                !
 ! D25   D(3,4,5,19)             0.3343         estimate D2E/DX2                !
 ! D26   D(3,4,5,21)          -179.7799         estimate D2E/DX2                !
 ! D27   D(14,4,5,19)         -179.3729         estimate D2E/DX2                !
 ! D28   D(14,4,5,21)            0.5129         estimate D2E/DX2                !
 ! D29   D(3,4,14,13)           -0.4559         estimate D2E/DX2                !
 ! D30   D(3,4,14,15)         -179.9937         estimate D2E/DX2                !
 ! D31   D(5,4,14,13)          179.252          estimate D2E/DX2                !
 ! D32   D(5,4,14,15)           -0.2858         estimate D2E/DX2                !
 ! D33   D(4,5,19,1)            -0.1141         estimate D2E/DX2                !
 ! D34   D(4,5,19,28)          179.9364         estimate D2E/DX2                !
 ! D35   D(21,5,19,1)          179.9992         estimate D2E/DX2                !
 ! D36   D(21,5,19,28)           0.0496         estimate D2E/DX2                !
 ! D37   D(2,6,9,8)              2.5984         estimate D2E/DX2                !
 ! D38   D(2,6,9,32)          -176.0103         estimate D2E/DX2                !
 ! D39   D(17,6,9,8)           179.77           estimate D2E/DX2                !
 ! D40   D(17,6,9,32)            1.1613         estimate D2E/DX2                !
 ! D41   D(3,7,8,9)              1.3551         estimate D2E/DX2                !
 ! D42   D(3,7,8,10)          -174.5099         estimate D2E/DX2                !
 ! D43   D(12,7,8,9)          -178.8921         estimate D2E/DX2                !
 ! D44   D(12,7,8,10)            5.2428         estimate D2E/DX2                !
 ! D45   D(3,7,12,11)          178.0768         estimate D2E/DX2                !
 ! D46   D(3,7,12,13)           -0.9621         estimate D2E/DX2                !
 ! D47   D(8,7,12,11)           -1.685          estimate D2E/DX2                !
 ! D48   D(8,7,12,13)          179.2761         estimate D2E/DX2                !
 ! D49   D(7,8,9,6)             -3.0809         estimate D2E/DX2                !
 ! D50   D(7,8,9,32)           175.3285         estimate D2E/DX2                !
 ! D51   D(10,8,9,6)           172.5381         estimate D2E/DX2                !
 ! D52   D(10,8,9,32)           -9.0525         estimate D2E/DX2                !
 ! D53   D(7,8,10,18)           -4.7549         estimate D2E/DX2                !
 ! D54   D(7,8,10,23)          174.4235         estimate D2E/DX2                !
 ! D55   D(9,8,10,18)          179.5335         estimate D2E/DX2                !
 ! D56   D(9,8,10,23)           -1.2882         estimate D2E/DX2                !
 ! D57   D(6,9,32,33)         -176.5466         estimate D2E/DX2                !
 ! D58   D(6,9,32,34)            9.8892         estimate D2E/DX2                !
 ! D59   D(8,9,32,33)            5.0119         Frozen                          !
 ! D60   D(8,9,32,34)         -168.5523         estimate D2E/DX2                !
 ! D61   D(8,10,18,11)           0.7189         estimate D2E/DX2                !
 ! D62   D(8,10,18,24)        -179.4089         estimate D2E/DX2                !
 ! D63   D(23,10,18,11)       -178.5188         estimate D2E/DX2                !
 ! D64   D(23,10,18,24)          1.3535         estimate D2E/DX2                !
 ! D65   D(18,11,12,7)          -2.3856         estimate D2E/DX2                !
 ! D66   D(18,11,12,13)        176.6833         estimate D2E/DX2                !
 ! D67   D(22,11,12,7)         178.4862         estimate D2E/DX2                !
 ! D68   D(22,11,12,13)         -2.445          estimate D2E/DX2                !
 ! D69   D(12,11,18,10)          2.8444         estimate D2E/DX2                !
 ! D70   D(12,11,18,24)       -177.0251         estimate D2E/DX2                !
 ! D71   D(22,11,18,10)       -178.0181         estimate D2E/DX2                !
 ! D72   D(22,11,18,24)          2.1124         estimate D2E/DX2                !
 ! D73   D(7,12,13,14)           0.461          estimate D2E/DX2                !
 ! D74   D(7,12,13,16)        -179.8781         estimate D2E/DX2                !
 ! D75   D(11,12,13,14)       -178.6049         estimate D2E/DX2                !
 ! D76   D(11,12,13,16)          1.056          estimate D2E/DX2                !
 ! D77   D(12,13,14,4)           0.2708         estimate D2E/DX2                !
 ! D78   D(12,13,14,15)        179.7958         estimate D2E/DX2                !
 ! D79   D(16,13,14,4)        -179.3788         estimate D2E/DX2                !
 ! D80   D(16,13,14,15)          0.1463         estimate D2E/DX2                !
 ! D81   D(10,18,24,25)        -59.609          estimate D2E/DX2                !
 ! D82   D(10,18,24,26)         59.2209         estimate D2E/DX2                !
 ! D83   D(10,18,24,27)        179.6858         estimate D2E/DX2                !
 ! D84   D(11,18,24,25)        120.2739         estimate D2E/DX2                !
 ! D85   D(11,18,24,26)       -120.8962         estimate D2E/DX2                !
 ! D86   D(11,18,24,27)         -0.4313         estimate D2E/DX2                !
 ! D87   D(1,19,28,29)         -58.1407         estimate D2E/DX2                !
 ! D88   D(1,19,28,30)          60.7668         estimate D2E/DX2                !
 ! D89   D(1,19,28,31)        -178.7139         estimate D2E/DX2                !
 ! D90   D(5,19,28,29)         121.8132         estimate D2E/DX2                !
 ! D91   D(5,19,28,30)        -119.2792         estimate D2E/DX2                !
 ! D92   D(5,19,28,31)           1.2401         estimate D2E/DX2                !
 ! D93   D(9,32,33,35)        -174.2061         estimate D2E/DX2                !
 ! D94   D(9,32,33,36)           6.2805         estimate D2E/DX2                !
 ! D95   D(34,32,33,35)         -0.2092         estimate D2E/DX2                !
 ! D96   D(34,32,33,36)       -179.7226         estimate D2E/DX2                !
 ! D97   D(9,32,34,37)         175.345          estimate D2E/DX2                !
 ! D98   D(33,32,34,37)          0.5238         estimate D2E/DX2                !
 ! D99   D(32,33,35,37)         -0.3356         estimate D2E/DX2                !
 ! D100  D(32,33,35,38)        179.788          estimate D2E/DX2                !
 ! D101  D(36,33,35,37)        179.1733         estimate D2E/DX2                !
 ! D102  D(36,33,35,38)         -0.7031         estimate D2E/DX2                !
 ! D103  D(32,34,37,35)         -0.6963         estimate D2E/DX2                !
 ! D104  D(32,34,37,39)        177.9328         estimate D2E/DX2                !
 ! D105  D(33,35,37,34)          0.7153         estimate D2E/DX2                !
 ! D106  D(33,35,37,39)       -177.8317         estimate D2E/DX2                !
 ! D107  D(38,35,37,34)       -179.3984         estimate D2E/DX2                !
 ! D108  D(38,35,37,39)          2.0546         estimate D2E/DX2                !
 ! D109  D(33,35,38,40)          6.4338         estimate D2E/DX2                !
 ! D110  D(37,35,38,40)       -173.4374         estimate D2E/DX2                !
 ! D111  D(34,37,39,41)          2.8516         estimate D2E/DX2                !
 ! D112  D(34,37,39,42)       -177.1522         estimate D2E/DX2                !
 ! D113  D(35,37,39,41)       -178.782          estimate D2E/DX2                !
 ! D114  D(35,37,39,42)          1.2142         estimate D2E/DX2                !
 ! D115  D(35,38,40,43)        175.5342         estimate D2E/DX2                !
 ! D116  D(35,38,40,44)        -65.7305         estimate D2E/DX2                !
 ! D117  D(35,38,40,45)         56.3335         estimate D2E/DX2                !
 ! D118  D(37,39,41,46)       -179.9672         estimate D2E/DX2                !
 ! D119  D(37,39,41,47)         -0.1364         estimate D2E/DX2                !
 ! D120  D(42,39,41,46)          0.0362         estimate D2E/DX2                !
 ! D121  D(42,39,41,47)        179.867          estimate D2E/DX2                !
 ! D122  D(37,39,42,48)       -179.9924         estimate D2E/DX2                !
 ! D123  D(41,39,42,48)          0.0044         estimate D2E/DX2                !
 ! D124  D(39,41,46,48)         -0.0711         estimate D2E/DX2                !
 ! D125  D(39,41,46,49)       -179.9032         estimate D2E/DX2                !
 ! D126  D(47,41,46,48)       -179.8872         estimate D2E/DX2                !
 ! D127  D(47,41,46,49)          0.2807         estimate D2E/DX2                !
 ! D128  D(39,41,47,50)        178.4082         estimate D2E/DX2                !
 ! D129  D(46,41,47,50)         -1.784          estimate D2E/DX2                !
 ! D130  D(39,42,48,46)         -0.0453         estimate D2E/DX2                !
 ! D131  D(39,42,48,51)        179.9193         estimate D2E/DX2                !
 ! D132  D(41,46,48,42)          0.0732         estimate D2E/DX2                !
 ! D133  D(41,46,48,51)       -179.8881         estimate D2E/DX2                !
 ! D134  D(49,46,48,42)        179.9068         estimate D2E/DX2                !
 ! D135  D(49,46,48,51)         -0.0545         estimate D2E/DX2                !
 ! D136  D(41,47,50,52)         61.9931         estimate D2E/DX2                !
 ! D137  D(41,47,50,53)       -179.1987         estimate D2E/DX2                !
 ! D138  D(41,47,50,54)        -60.3098         estimate D2E/DX2                !
 --------------------------------------------------------------------------------
 Trust Radius=3.00D-01 FncErr=1.00D-07 GrdErr=1.00D-06 EigMax=2.50D+02 EigMin=1.00D-04
 Number of steps in this run=    307 maximum allowed number of steps=    324.
 GradGradGradGradGradGradGradGradGradGradGradGradGradGradGradGradGradGrad

 Stoichiometry    C26H18N2O6S2(2-)
 Framework group  C1[X(C26H18N2O6S2)]
 Deg. of freedom   156
 Full point group                 C1      NOp   1
 Largest Abelian subgroup         C1      NOp   1
 Largest concise Abelian subgroup C1      NOp   1
                         Standard orientation:                         
 ---------------------------------------------------------------------
 Center     Atomic      Atomic             Coordinates (Angstroms)
 Number     Number       Type             X           Y           Z
 ---------------------------------------------------------------------
      1          6           0       -2.511391   -3.024598    0.244188
      2          6           0       -2.228361   -1.566778    0.175170
      3          6           0       -3.280538   -0.637618    0.000418
      4          6           0       -4.616109   -1.083518   -0.109756
      5          6           0       -4.934371   -2.535107   -0.050526
      6          6           0       -0.930684   -1.129278    0.258651
      7          6           0       -2.964848    0.750383   -0.050394
      8          6           0       -1.610062    1.201394    0.049848
      9          6           0       -0.561241    0.249624    0.173244
     10          6           0       -1.382589    2.670755    0.113384
     11          6           0       -3.820223    3.116045   -0.218432
     12          6           0       -4.048895    1.655370   -0.198558
     13          6           0       -5.355955    1.199128   -0.309236
     14          6           0       -5.647692   -0.169532   -0.268582
     15          1           0       -6.664059   -0.535724   -0.350744
     16          1           0       -6.142164    1.937368   -0.422341
     17          1           0       -0.159554   -1.885196    0.349798
     18          7           0       -2.496987    3.520334   -0.031497
     19          7           0       -3.851222   -3.413148    0.124972
     20          8           0       -1.635978   -3.865047    0.397356
     21          8           0       -6.078853   -2.951916   -0.146739
     22          8           0       -4.726200    3.925985   -0.371321
     23          8           0       -0.292585    3.197261    0.297776
     24          6           0       -2.213638    4.958768    0.025763
     25          1           0       -1.759990    5.209199    0.985892
     26          1           0       -1.508972    5.230850   -0.764246
     27          1           0       -3.156027    5.483514   -0.104883
     28          6           0       -4.118105   -4.854333    0.190595
     29          1           0       -3.560997   -5.367896   -0.595825
     30          1           0       -3.791185   -5.247637    1.154967
     31          1           0       -5.187271   -4.999424    0.061237
     32          6           0        0.878284    0.506707    0.192762
     33          6           0        1.584437    1.694211    0.192357
     34         16           0        1.986951   -0.857134    0.049240
     35          6           0        2.978722    1.519652    0.084786
     36          1           0        1.107934    2.657273    0.275126
     37          6           0        3.389734    0.185149    0.006183
     38          8           0        3.916795    2.503001    0.055009
     39          6           0        4.732925   -0.315893   -0.066474
     40          6           0        3.476904    3.839692    0.280650
     41          6           0        5.140556   -1.644861   -0.168206
     42         16           0        6.152091    0.727787   -0.036836
     43          1           0        4.376726    4.452745    0.296253
     44          1           0        2.817890    4.181466   -0.526828
     45          1           0        2.952133    3.926916    1.239527
     46          6           0        6.553299   -1.819405   -0.220016
     47          8           0        4.201374   -2.626297   -0.204739
     48          6           0        7.217651   -0.624602   -0.159295
     49          1           0        7.048545   -2.776935   -0.300525
     50          6           0        4.647114   -3.971003   -0.343741
     51          1           0        8.287561   -0.465086   -0.180776
     52          1           0        5.273028   -4.272783    0.504956
     53          1           0        3.747031   -4.585259   -0.365300
     54          1           0        5.206202   -4.110132   -1.276518
 ---------------------------------------------------------------------
 Rotational constants (GHZ):           0.1523327           0.0607584           0.0436307
 Standard basis: 6-311+G(d,p) (5D, 7F)
 There are   952 symmetry adapted cartesian basis functions of A   symmetry.
 There are   916 symmetry adapted basis functions of A   symmetry.
   916 basis functions,  1468 primitive gaussians,   952 cartesian basis functions
   135 alpha electrons      135 beta electrons
       nuclear repulsion energy      4092.9627761335 Hartrees.
 NAtoms=   54 NActive=   54 NUniq=   54 SFac= 1.00D+00 NAtFMM=   60 NAOKFM=F Big=F
 Integral buffers will be    131072 words long.
 Raffenetti 2 integral format.
 Two-electron integral symmetry is turned on.
 One-electron integrals computed using PRISM.
 NBasis=   916 RedAO= T EigKep=  1.03D-06  NBF=   916
 NBsUse=   901 1.00D-06 EigRej=  6.69D-07 NBFU=   901
 ExpMin= 4.05D-02 ExpMax= 9.34D+04 ExpMxC= 3.17D+03 IAcc=3 IRadAn=         5 AccDes= 0.00D+00
 Harris functional with IExCor=  402 and IRadAn=       5 diagonalized for initial guess.
 HarFok:  IExCor=  402 AccDes= 0.00D+00 IRadAn=         5 IDoV= 1 UseB2=F ITyADJ=14
 ICtDFT=  3500011 ScaDFX=  1.000000  1.000000  1.000000  1.000000
 FoFCou: FMM=F IPFlag=           0 FMFlag=      100000 FMFlg1=           0
         NFxFlg=           0 DoJE=T BraDBF=F KetDBF=T FulRan=T
         wScrn=  0.000000 ICntrl=       500 IOpCl=  0 I1Cent=   200000004 NGrid=           0
         NMat0=    1 NMatS0=      1 NMatT0=    0 NMatD0=    1 NMtDS0=    0 NMtDT0=    0
 Petite list used in FoFCou.
 Requested convergence on RMS density matrix=1.00D-08 within 128 cycles.
 Requested convergence on MAX density matrix=1.00D-06.
 Requested convergence on             energy=1.00D-06.
 No special actions if energy rises.
 EnCoef did     8 forward-backward iterations
 Restarting incremental Fock formation.
 SCF Done:  E(RB3LYP) =  -2359.36127528     A.U. after   22 cycles
            NFock= 22  Conv=0.70D-08     -V/T= 2.0028

 **********************************************************************

            Population analysis using the SCF Density.

 **********************************************************************

 Orbital symmetries:
       Occupied  (A) (A) (A) (A) (A) (A) (A) (A) (A) (A) (A) (A)
                 (A) (A) (A) (A) (A) (A) (A) (A) (A) (A) (A) (A)
                 (A) (A) (A) (A) (A) (A) (A) (A) (A) (A) (A) (A)
                 (A) (A) (A) (A) (A) (A) (A) (A) (A) (A) (A) (A)
                 (A) (A) (A) (A) (A) (A) (A) (A) (A) (A) (A) (A)
                 (A) (A) (A) (A) (A) (A) (A) (A) (A) (A) (A) (A)
                 (A) (A) (A) (A) (A) (A) (A) (A) (A) (A) (A) (A)
                 (A) (A) (A) (A) (A) (A) (A) (A) (A) (A) (A) (A)
                 (A) (A) (A) (A) (A) (A) (A) (A) (A) (A) (A) (A)
                 (A) (A) (A) (A) (A) (A) (A) (A) (A) (A) (A) (A)
                 (A) (A) (A) (A) (A) (A) (A) (A) (A) (A) (A) (A)
                 (A) (A) (A)
       Virtual   (A) (A) (A) (A) (A) (A) (A) (A) (A) (A) (A) (A)
                 (A) (A) (A) (A) (A) (A) (A) (A) (A) (A) (A) (A)
                 (A) (A) (A) (A) (A) (A) (A) (A) (A) (A) (A) (A)
                 (A) (A) (A) (A) (A) (A) (A) (A) (A) (A) (A) (A)
                 (A) (A) (A) (A) (A) (A) (A) (A) (A) (A) (A) (A)
                 (A) (A) (A) (A) (A) (A) (A) (A) (A) (A) (A) (A)
                 (A) (A) (A) (A) (A) (A) (A) (A) (A) (A) (A) (A)
                 (A) (A) (A) (A) (A) (A) (A) (A) (A) (A) (A) (A)
                 (A) (A) (A) (A) (A) (A) (A) (A) (A) (A) (A) (A)
                 (A) (A) (A) (A) (A) (A) (A) (A) (A) (A) (A) (A)
                 (A) (A) (A) (A) (A) (A) (A) (A) (A) (A) (A) (A)
                 (A) (A) (A) (A) (A) (A) (A) (A) (A) (A) (A) (A)
                 (A) (A) (A) (A) (A) (A) (A) (A) (A) (A) (A) (A)
                 (A) (A) (A) (A) (A) (A) (A) (A) (A) (A) (A) (A)
                 (A) (A) (A) (A) (A) (A) (A) (A) (A) (A) (A) (A)
                 (A) (A) (A) (A) (A) (A) (A) (A) (A) (A) (A) (A)
                 (A) (A) (A) (A) (A) (A) (A) (A) (A) (A) (A) (A)
                 (A) (A) (A) (A) (A) (A) (A) (A) (A) (A) (A) (A)
                 (A) (A) (A) (A) (A) (A) (A) (A) (A) (A) (A) (A)
                 (A) (A) (A) (A) (A) (A) (A) (A) (A) (A) (A) (A)
                 (A) (A) (A) (A) (A) (A) (A) (A) (A) (A) (A) (A)
                 (A) (A) (A) (A) (A) (A) (A) (A) (A) (A) (A) (A)
                 (A) (A) (A) (A) (A) (A) (A) (A) (A) (A) (A) (A)
                 (A) (A) (A) (A) (A) (A) (A) (A) (A) (A) (A) (A)
                 (A) (A) (A) (A) (A) (A) (A) (A) (A) (A) (A) (A)
                 (A) (A) (A) (A) (A) (A) (A) (A) (A) (A) (A) (A)
                 (A) (A) (A) (A) (A) (A) (A) (A) (A) (A) (A) (A)
                 (A) (A) (A) (A) (A) (A) (A) (A) (A) (A) (A) (A)
                 (A) (A) (A) (A) (A) (A) (A) (A) (A) (A) (A) (A)
                 (A) (A) (A) (A) (A) (A) (A) (A) (A) (A) (A) (A)
                 (A) (A) (A) (A) (A) (A) (A) (A) (A) (A) (A) (A)
                 (A) (A) (A) (A) (A) (A) (A) (A) (A) (A) (A) (A)
                 (A) (A) (A) (A) (A) (A) (A) (A) (A) (A) (A) (A)
                 (A) (A) (A) (A) (A) (A) (A) (A) (A) (A) (A) (A)
                 (A) (A) (A) (A) (A) (A) (A) (A) (A) (A) (A) (A)
                 (A) (A) (A) (A) (A) (A) (A) (A) (A) (A) (A) (A)
                 (A) (A) (A) (A) (A) (A) (A) (A) (A) (A) (A) (A)
                 (A) (A) (A) (A) (A) (A) (A) (A) (A) (A) (A) (A)
                 (A) (A) (A) (A) (A) (A) (A) (A) (A) (A) (A) (A)
                 (A) (A) (A) (A) (A) (A) (A) (A) (A) (A) (A) (A)
                 (A) (A) (A) (A) (A) (A) (A) (A) (A) (A) (A) (A)
                 (A) (A) (A) (A) (A) (A) (A) (A) (A) (A) (A) (A)
                 (A) (A) (A) (A) (A) (A) (A) (A) (A) (A) (A) (A)
                 (A) (A) (A) (A) (A) (A) (A) (A) (A) (A) (A) (A)
                 (A) (A) (A) (A) (A) (A) (A) (A) (A) (A) (A) (A)
                 (A) (A) (A) (A) (A) (A) (A) (A) (A) (A) (A) (A)
                 (A) (A) (A) (A) (A) (A) (A) (A) (A) (A) (A) (A)
                 (A) (A) (A) (A) (A) (A) (A) (A) (A) (A) (A) (A)
                 (A) (A) (A) (A) (A) (A) (A) (A) (A) (A) (A) (A)
                 (A) (A) (A) (A) (A) (A) (A) (A) (A) (A) (A) (A)
                 (A) (A) (A) (A) (A) (A) (A) (A) (A) (A) (A) (A)
                 (A) (A) (A) (A) (A) (A) (A) (A) (A) (A) (A) (A)
                 (A) (A) (A) (A) (A) (A) (A) (A) (A) (A) (A) (A)
                 (A) (A) (A) (A) (A) (A) (A) (A) (A) (A) (A) (A)
                 (A) (A) (A) (A) (A) (A) (A) (A) (A) (A) (A) (A)
                 (A) (A) (A) (A) (A) (A) (A) (A) (A) (A) (A) (A)
                 (A) (A) (A) (A) (A) (A) (A) (A) (A) (A) (A) (A)
                 (A) (A) (A) (A) (A) (A) (A) (A) (A) (A) (A) (A)
                 (A) (A) (A) (A) (A) (A) (A) (A) (A) (A) (A) (A)
                 (A) (A) (A) (A) (A) (A) (A) (A) (A) (A) (A) (A)
                 (A) (A) (A) (A) (A) (A) (A) (A) (A) (A) (A) (A)
                 (A) (A) (A) (A) (A) (A) (A) (A) (A) (A) (A) (A)
                 (A) (A) (A) (A) (A) (A) (A) (A) (A) (A) (A) (A)
                 (A) (A) (A) (A) (A) (A) (A) (A) (A) (A)
 The electronic state is 1-A.
 Alpha  occ. eigenvalues --  -88.70405 -88.66333 -18.99292 -18.98253 -18.87964
 Alpha  occ. eigenvalues --  -18.87591 -18.87013 -18.86874 -14.15599 -14.15071
 Alpha  occ. eigenvalues --  -10.08116 -10.06304 -10.06131 -10.05816 -10.05743
 Alpha  occ. eigenvalues --  -10.05695 -10.05194 -10.03675 -10.03340 -10.02557
 Alpha  occ. eigenvalues --  -10.01750 -10.01393 -10.00892 -10.00347 -10.00294
 Alpha  occ. eigenvalues --   -9.97580  -9.97375  -9.97305  -9.95859  -9.95850
 Alpha  occ. eigenvalues --   -9.95581  -9.95412  -9.95211  -9.95095  -9.95048
 Alpha  occ. eigenvalues --   -9.94238  -7.78988  -7.74975  -5.75298  -5.74927
 Alpha  occ. eigenvalues --   -5.74542  -5.71312  -5.70916  -5.70476  -0.90990
 Alpha  occ. eigenvalues --   -0.89679  -0.84507  -0.84402  -0.82425  -0.82128
 Alpha  occ. eigenvalues --   -0.72765  -0.72284  -0.71296  -0.67925  -0.66469
 Alpha  occ. eigenvalues --   -0.61518  -0.59573  -0.59047  -0.58286  -0.56595
 Alpha  occ. eigenvalues --   -0.54531  -0.53638  -0.52821  -0.52557  -0.51605
 Alpha  occ. eigenvalues --   -0.50688  -0.48872  -0.46183  -0.43794  -0.42167
 Alpha  occ. eigenvalues --   -0.42017  -0.41528  -0.40315  -0.39504  -0.38352
 Alpha  occ. eigenvalues --   -0.36304  -0.35522  -0.33894  -0.33575  -0.32180
 Alpha  occ. eigenvalues --   -0.31440  -0.31060  -0.30699  -0.30387  -0.29981
 Alpha  occ. eigenvalues --   -0.28438  -0.28311  -0.27828  -0.27375  -0.26693
 Alpha  occ. eigenvalues --   -0.26064  -0.25595  -0.25313  -0.24543  -0.23843
 Alpha  occ. eigenvalues --   -0.23450  -0.23241  -0.22648  -0.22027  -0.21380
 Alpha  occ. eigenvalues --   -0.21316  -0.20770  -0.20420  -0.20182  -0.19800
 Alpha  occ. eigenvalues --   -0.19218  -0.19028  -0.18876  -0.18238  -0.17740
 Alpha  occ. eigenvalues --   -0.17683  -0.17517  -0.17071  -0.16852  -0.16032
 Alpha  occ. eigenvalues --   -0.15219  -0.14777  -0.14476  -0.12946  -0.11403
 Alpha  occ. eigenvalues --   -0.11217  -0.09217  -0.07411  -0.07155  -0.06971
 Alpha  occ. eigenvalues --   -0.06653  -0.06013  -0.05770  -0.04903  -0.04086
 Alpha  occ. eigenvalues --   -0.03759  -0.03546  -0.01477   0.01052   0.08430
 Alpha virt. eigenvalues --    0.12566   0.13063   0.13806   0.14680   0.16084
 Alpha virt. eigenvalues --    0.16532   0.16749   0.16801   0.17093   0.17420
 Alpha virt. eigenvalues --    0.17803   0.18087   0.18766   0.19156   0.19243
 Alpha virt. eigenvalues --    0.19482   0.19555   0.20138   0.20266   0.20601
 Alpha virt. eigenvalues --    0.20912   0.21147   0.21252   0.21262   0.21279
 Alpha virt. eigenvalues --    0.21533   0.22234   0.22751   0.22895   0.23001
 Alpha virt. eigenvalues --    0.23262   0.23703   0.23780   0.24212   0.24519
 Alpha virt. eigenvalues --    0.24652   0.24818   0.25616   0.25806   0.25900
 Alpha virt. eigenvalues --    0.26066   0.26240   0.26406   0.26613   0.26723
 Alpha virt. eigenvalues --    0.27208   0.27454   0.27505   0.28056   0.28684
 Alpha virt. eigenvalues --    0.28739   0.29072   0.29164   0.29317   0.29496
 Alpha virt. eigenvalues --    0.29676   0.29985   0.30133   0.30204   0.31152
 Alpha virt. eigenvalues --    0.31253   0.31579   0.31762   0.31946   0.32203
 Alpha virt. eigenvalues --    0.32617   0.32695   0.32833   0.33226   0.33255
 Alpha virt. eigenvalues --    0.33771   0.34041   0.34147   0.34384   0.34623
 Alpha virt. eigenvalues --    0.34890   0.35055   0.35095   0.35496   0.35548
 Alpha virt. eigenvalues --    0.35693   0.36060   0.36161   0.36448   0.36817
 Alpha virt. eigenvalues --    0.37132   0.37196   0.37361   0.37535   0.37780
 Alpha virt. eigenvalues --    0.37954   0.38335   0.38623   0.38647   0.38922
 Alpha virt. eigenvalues --    0.39220   0.39394   0.39485   0.39568   0.39897
 Alpha virt. eigenvalues --    0.40322   0.40586   0.41133   0.41468   0.41716
 Alpha virt. eigenvalues --    0.41813   0.41930   0.42152   0.42523   0.42604
 Alpha virt. eigenvalues --    0.42858   0.43007   0.43439   0.43612   0.43675
 Alpha virt. eigenvalues --    0.43888   0.44088   0.44436   0.44657   0.45079
 Alpha virt. eigenvalues --    0.45149   0.45305   0.45519   0.45620   0.45902
 Alpha virt. eigenvalues --    0.46180   0.46562   0.46721   0.46731   0.46976
 Alpha virt. eigenvalues --    0.47238   0.47340   0.47401   0.47738   0.48073
 Alpha virt. eigenvalues --    0.48315   0.48473   0.48985   0.49068   0.49360
 Alpha virt. eigenvalues --    0.49544   0.49798   0.49957   0.50005   0.50190
 Alpha virt. eigenvalues --    0.50453   0.50822   0.51311   0.51498   0.51619
 Alpha virt. eigenvalues --    0.51780   0.52095   0.52381   0.52642   0.52962
 Alpha virt. eigenvalues --    0.53140   0.53234   0.53468   0.54094   0.54332
 Alpha virt. eigenvalues --    0.54555   0.55007   0.55361   0.55700   0.56077
 Alpha virt. eigenvalues --    0.56677   0.56786   0.57426   0.57893   0.58355
 Alpha virt. eigenvalues --    0.58495   0.58610   0.59233   0.59636   0.60114
 Alpha virt. eigenvalues --    0.60327   0.60731   0.61021   0.61220   0.61766
 Alpha virt. eigenvalues --    0.62270   0.62575   0.62677   0.63182   0.63360
 Alpha virt. eigenvalues --    0.63976   0.64259   0.64565   0.64684   0.65136
 Alpha virt. eigenvalues --    0.65401   0.65755   0.65850   0.66466   0.66986
 Alpha virt. eigenvalues --    0.67579   0.68094   0.68603   0.69033   0.69607
 Alpha virt. eigenvalues --    0.70558   0.71211   0.71707   0.71908   0.72590
 Alpha virt. eigenvalues --    0.72922   0.73618   0.73778   0.74477   0.74491
 Alpha virt. eigenvalues --    0.74685   0.75483   0.75734   0.76379   0.76658
 Alpha virt. eigenvalues --    0.76880   0.77086   0.77636   0.78182   0.78364
 Alpha virt. eigenvalues --    0.78634   0.78866   0.78945   0.79706   0.80056
 Alpha virt. eigenvalues --    0.80325   0.80701   0.80743   0.81148   0.81470
 Alpha virt. eigenvalues --    0.81873   0.82302   0.82600   0.83138   0.83326
 Alpha virt. eigenvalues --    0.84213   0.84607   0.84797   0.85192   0.85361
 Alpha virt. eigenvalues --    0.85614   0.86204   0.86640   0.86998   0.87352
 Alpha virt. eigenvalues --    0.87618   0.88427   0.88472   0.88843   0.89384
 Alpha virt. eigenvalues --    0.89410   0.89989   0.90084   0.90759   0.91060
 Alpha virt. eigenvalues --    0.92296   0.92496   0.92817   0.93428   0.93505
 Alpha virt. eigenvalues --    0.93986   0.94166   0.94508   0.95023   0.95171
 Alpha virt. eigenvalues --    0.95363   0.95556   0.96063   0.96684   0.97008
 Alpha virt. eigenvalues --    0.97270   0.97659   0.98551   0.98811   0.98992
 Alpha virt. eigenvalues --    0.99208   0.99625   1.00273   1.01017   1.01259
 Alpha virt. eigenvalues --    1.01598   1.01783   1.02870   1.03915   1.04948
 Alpha virt. eigenvalues --    1.05365   1.06043   1.06757   1.07563   1.07628
 Alpha virt. eigenvalues --    1.08468   1.08779   1.09716   1.09828   1.10955
 Alpha virt. eigenvalues --    1.11048   1.12018   1.12510   1.13133   1.14150
 Alpha virt. eigenvalues --    1.14455   1.14809   1.15808   1.15950   1.16539
 Alpha virt. eigenvalues --    1.16800   1.17033   1.17549   1.18021   1.18328
 Alpha virt. eigenvalues --    1.18701   1.18989   1.19320   1.19450   1.20012
 Alpha virt. eigenvalues --    1.20663   1.20771   1.21286   1.21464   1.21696
 Alpha virt. eigenvalues --    1.22574   1.22715   1.23493   1.24036   1.24416
 Alpha virt. eigenvalues --    1.24802   1.24956   1.25293   1.25617   1.26085
 Alpha virt. eigenvalues --    1.26867   1.27331   1.27517   1.27864   1.27978
 Alpha virt. eigenvalues --    1.29033   1.29534   1.30078   1.30578   1.31519
 Alpha virt. eigenvalues --    1.32454   1.32805   1.33458   1.33503   1.34097
 Alpha virt. eigenvalues --    1.35238   1.35728   1.36678   1.36876   1.37073
 Alpha virt. eigenvalues --    1.37420   1.38022   1.39608   1.39994   1.40575
 Alpha virt. eigenvalues --    1.41051   1.41070   1.42086   1.43219   1.43417
 Alpha virt. eigenvalues --    1.44108   1.44787   1.44924   1.46912   1.46940
 Alpha virt. eigenvalues --    1.48141   1.48859   1.49045   1.49604   1.50704
 Alpha virt. eigenvalues --    1.51339   1.52084   1.52151   1.52534   1.52707
 Alpha virt. eigenvalues --    1.54559   1.55034   1.55547   1.56568   1.57345
 Alpha virt. eigenvalues --    1.57594   1.58147   1.58977   1.59776   1.60251
 Alpha virt. eigenvalues --    1.61098   1.62191   1.62395   1.62546   1.62924
 Alpha virt. eigenvalues --    1.63732   1.64546   1.65073   1.65425   1.66501
 Alpha virt. eigenvalues --    1.66763   1.67881   1.68016   1.69311   1.69459
 Alpha virt. eigenvalues --    1.70220   1.70996   1.71101   1.71649   1.72191
 Alpha virt. eigenvalues --    1.72555   1.72842   1.73617   1.74245   1.74484
 Alpha virt. eigenvalues --    1.74966   1.75596   1.76130   1.76453   1.76584
 Alpha virt. eigenvalues --    1.77361   1.77737   1.78562   1.78866   1.79800
 Alpha virt. eigenvalues --    1.80041   1.80889   1.81301   1.82265   1.82804
 Alpha virt. eigenvalues --    1.83109   1.83434   1.83871   1.84676   1.85289
 Alpha virt. eigenvalues --    1.85911   1.86498   1.87278   1.87898   1.88140
 Alpha virt. eigenvalues --    1.88622   1.89213   1.91000   1.91372   1.92355
 Alpha virt. eigenvalues --    1.92809   1.92948   1.93411   1.94025   1.94821
 Alpha virt. eigenvalues --    1.95225   1.95627   1.95728   1.96693   1.97037
 Alpha virt. eigenvalues --    1.97425   1.98973   1.99611   2.00344   2.00554
 Alpha virt. eigenvalues --    2.01536   2.01590   2.02519   2.04528   2.05072
 Alpha virt. eigenvalues --    2.05429   2.06727   2.07208   2.08452   2.08755
 Alpha virt. eigenvalues --    2.09735   2.10782   2.11008   2.11206   2.12347
 Alpha virt. eigenvalues --    2.12982   2.13446   2.14048   2.14462   2.14646
 Alpha virt. eigenvalues --    2.15567   2.16573   2.17116   2.18014   2.18281
 Alpha virt. eigenvalues --    2.18984   2.19511   2.20312   2.20630   2.21504
 Alpha virt. eigenvalues --    2.21916   2.22353   2.23214   2.23636   2.23820
 Alpha virt. eigenvalues --    2.24290   2.25261   2.25557   2.25943   2.26613
 Alpha virt. eigenvalues --    2.27003   2.27412   2.28326   2.28682   2.29726
 Alpha virt. eigenvalues --    2.29853   2.31481   2.32545   2.32796   2.33438
 Alpha virt. eigenvalues --    2.34461   2.35444   2.36479   2.37352   2.37476
 Alpha virt. eigenvalues --    2.38579   2.39969   2.40440   2.41154   2.42013
 Alpha virt. eigenvalues --    2.43052   2.43374   2.44327   2.45567   2.46538
 Alpha virt. eigenvalues --    2.47707   2.49486   2.50397   2.53807   2.55406
 Alpha virt. eigenvalues --    2.55762   2.57341   2.58253   2.59131   2.59832
 Alpha virt. eigenvalues --    2.60419   2.60938   2.61665   2.61798   2.62871
 Alpha virt. eigenvalues --    2.63692   2.64910   2.65026   2.65755   2.66577
 Alpha virt. eigenvalues --    2.67085   2.67533   2.69384   2.70002   2.70146
 Alpha virt. eigenvalues --    2.70662   2.71610   2.71865   2.72295   2.72812
 Alpha virt. eigenvalues --    2.73062   2.74146   2.75716   2.76935   2.78122
 Alpha virt. eigenvalues --    2.79854   2.80268   2.80726   2.81915   2.82000
 Alpha virt. eigenvalues --    2.84276   2.85312   2.86040   2.87131   2.87398
 Alpha virt. eigenvalues --    2.87797   2.88970   2.89684   2.90574   2.90925
 Alpha virt. eigenvalues --    2.91896   2.92815   2.93777   2.94130   2.94484
 Alpha virt. eigenvalues --    2.95295   2.95514   2.95957   2.97328   2.98056
 Alpha virt. eigenvalues --    2.99792   3.00022   3.00377   3.01460   3.03086
 Alpha virt. eigenvalues --    3.04293   3.04958   3.05441   3.05690   3.06756
 Alpha virt. eigenvalues --    3.08024   3.08885   3.09424   3.10148   3.11397
 Alpha virt. eigenvalues --    3.12000   3.12123   3.12810   3.13699   3.13873
 Alpha virt. eigenvalues --    3.14620   3.14863   3.16307   3.16957   3.17787
 Alpha virt. eigenvalues --    3.18419   3.19339   3.19888   3.20811   3.21067
 Alpha virt. eigenvalues --    3.23388   3.23907   3.24518   3.27308   3.29158
 Alpha virt. eigenvalues --    3.30684   3.31268   3.31918   3.32843   3.33812
 Alpha virt. eigenvalues --    3.36387   3.36961   3.37612   3.38488   3.39572
 Alpha virt. eigenvalues --    3.41019   3.41512   3.42295   3.42801   3.44043
 Alpha virt. eigenvalues --    3.46588   3.48772   3.48963   3.49981   3.50100
 Alpha virt. eigenvalues --    3.52352   3.53623   3.54737   3.57545   3.57798
 Alpha virt. eigenvalues --    3.58562   3.58803   3.59263   3.60523   3.61883
 Alpha virt. eigenvalues --    3.63620   3.63902   3.65417   3.67029   3.68269
 Alpha virt. eigenvalues --    3.69117   3.69759   3.71692   3.73487   3.73897
 Alpha virt. eigenvalues --    3.76609   3.78364   3.81982   3.83102   3.84920
 Alpha virt. eigenvalues --    3.87747   3.89131   3.89813   3.91480   3.91619
 Alpha virt. eigenvalues --    3.92029   3.92604   3.93213   3.93718   3.95557
 Alpha virt. eigenvalues --    3.98634   3.99295   4.02583   4.05778   4.06273
 Alpha virt. eigenvalues --    4.09131   4.13883   4.15367   4.16560   4.16988
 Alpha virt. eigenvalues --    4.17217   4.22002   4.23237   4.25666   4.26506
 Alpha virt. eigenvalues --    4.27958   4.29869   4.33063   4.37559   4.41711
 Alpha virt. eigenvalues --    4.45406   4.49945   4.52572   4.60434   4.65502
 Alpha virt. eigenvalues --    4.66484   4.75904   4.96321   5.09834   5.10259
 Alpha virt. eigenvalues --    5.12435   5.13483   5.18997   5.20874   5.27687
 Alpha virt. eigenvalues --    5.29435   5.29675   5.31563   5.35263   5.37615
 Alpha virt. eigenvalues --    5.48815   5.51138   5.53421   5.60414   5.61067
 Alpha virt. eigenvalues --    5.63842   5.94644   5.98686   6.00067   6.04538
 Alpha virt. eigenvalues --    6.06329   6.10118   8.20785   8.26750  17.46912
 Alpha virt. eigenvalues --   17.52430  17.68121  17.70933  17.80899  17.85353
 Alpha virt. eigenvalues --   23.72437  23.79146  23.92823  24.01108  24.04385
 Alpha virt. eigenvalues --   24.06007  24.07346  24.07983  24.09281  24.11301
 Alpha virt. eigenvalues --   24.11806  24.12446  24.13628  24.15070  24.15929
 Alpha virt. eigenvalues --   24.19900  24.20901  24.21578  24.23031  24.24183
 Alpha virt. eigenvalues --   24.26140  24.31204  24.32011  24.36596  24.39574
 Alpha virt. eigenvalues --   24.40071  35.79478  35.82724  50.14059  50.16815
 Alpha virt. eigenvalues --   50.26650  50.29010  50.30539  50.32721 189.38340
 Alpha virt. eigenvalues --  189.44819
          Condensed to atoms (all electrons):
 Mulliken charges:
               1
     1  C    0.274425
     2  C    0.002519
     3  C    0.165700
     4  C    0.247481
     5  C    0.220245
     6  C   -0.020818
     7  C    0.139718
     8  C    0.017946
     9  C   -0.139320
    10  C   -0.098006
    11  C    0.061917
    12  C    0.184920
    13  C   -0.423683
    14  C   -0.727195
    15  H    0.100105
    16  H    0.104520
    17  H    0.130451
    18  N   -0.192993
    19  N   -0.138007
    20  O   -0.404813
    21  O   -0.391932
    22  O   -0.396651
    23  O   -0.378998
    24  C   -0.191443
    25  H    0.137325
    26  H    0.136170
    27  H    0.161860
    28  C   -0.185988
    29  H    0.139264
    30  H    0.136124
    31  H    0.155617
    32  C   -0.320157
    33  C   -0.187415
    34  S   -0.790641
    35  C   -0.157337
    36  H    0.252002
    37  C    0.580248
    38  O   -0.140041
    39  C    0.805753
    40  C   -0.235112
    41  C   -0.022911
    42  S   -0.300271
    43  H    0.124131
    44  H    0.144416
    45  H    0.147981
    46  C   -0.627272
    47  O   -0.095559
    48  C   -0.364591
    49  H    0.093900
    50  C   -0.244283
    51  H    0.113517
    52  H    0.115951
    53  H    0.164594
    54  H    0.116640
 Sum of Mulliken charges =  -2.00000
 Mulliken charges with hydrogens summed into heavy atoms:
               1
     1  C    0.274425
     2  C    0.002519
     3  C    0.165700
     4  C    0.247481
     5  C    0.220245
     6  C    0.109633
     7  C    0.139718
     8  C    0.017946
     9  C   -0.139320
    10  C   -0.098006
    11  C    0.061917
    12  C    0.184920
    13  C   -0.319163
    14  C   -0.627091
    18  N   -0.192993
    19  N   -0.138007
    20  O   -0.404813
    21  O   -0.391932
    22  O   -0.396651
    23  O   -0.378998
    24  C    0.243912
    28  C    0.245017
    32  C   -0.320157
    33  C    0.064588
    34  S   -0.790641
    35  C   -0.157337
    37  C    0.580248
    38  O   -0.140041
    39  C    0.805753
    40  C    0.181415
    41  C   -0.022911
    42  S   -0.300271
    46  C   -0.533372
    47  O   -0.095559
    48  C   -0.251074
    50  C    0.152902
 Electronic spatial extent (au):  <R**2>=          22650.7615
 Charge=             -2.0000 electrons
 Dipole moment (field-independent basis, Debye):
    X=             14.5977    Y=             -0.3577    Z=              0.1871  Tot=             14.6033
 Quadrupole moment (field-independent basis, Debye-Ang):
   XX=           -426.2461   YY=           -295.0073   ZZ=           -236.3208
   XY=             -2.2615   XZ=             -5.2650   YZ=              5.0369
 Traceless Quadrupole moment (field-independent basis, Debye-Ang):
   XX=           -107.0547   YY=             24.1841   ZZ=             82.8706
   XY=             -2.2615   XZ=             -5.2650   YZ=              5.0369
 Octapole moment (field-independent basis, Debye-Ang**2):
  XXX=            457.8422  YYY=            -25.3226  ZZZ=              3.3751  XYY=            298.1662
  XXY=             -8.1216  XXZ=             39.9852  XZZ=             -5.1436  YZZ=              0.1186
  YYZ=             -2.0069  XYZ=             -6.1904
 Hexadecapole moment (field-independent basis, Debye-Ang**3):
 XXXX=         -29145.0369 YYYY=          -9874.8001 ZZZZ=           -366.6016 XXXY=           -409.2613
 XXXZ=           -178.0427 YYYX=            209.6176 YYYZ=            102.1261 ZZZX=             -6.5116
 ZZZY=              2.2679 XXYY=          -6456.4989 XXZZ=          -4034.6396 YYZZ=          -1579.3622
 XXYZ=             70.5349 YYXZ=            -78.1081 ZZXY=             37.7994
 N-N= 4.092962776133D+03 E-N=-1.378539615430D+04  KE= 2.352702737016D+03
 Calling FoFJK, ICntrl=      2127 FMM=F ISym2X=0 I1Cent= 0 IOpClX= 0 NMat=1 NMatS=1 NMatT=0.
 ***** Axes restored to original set *****
 -------------------------------------------------------------------
 Center     Atomic                   Forces (Hartrees/Bohr)
 Number     Number              X              Y              Z
 -------------------------------------------------------------------
      1        6          -0.001318168    0.041385309    0.006180655
      2        6          -0.020397925   -0.029815581   -0.003648864
      3        6          -0.005575974   -0.006464492   -0.000862079
      4        6           0.015237030   -0.034966245   -0.005242470
      5        6           0.023825803    0.036853552    0.004617244
      6        6           0.024812787    0.031000155    0.000361106
      7        6           0.001748124    0.008175529    0.000587316
      8        6          -0.013372204    0.045565721    0.013766481
      9        6           0.020351232   -0.043983397   -0.004392511
     10        6          -0.035848529   -0.047594735   -0.011805083
     11        6           0.006750173   -0.043734767   -0.007291923
     12        6           0.025547241    0.029327290    0.004872784
     13        6          -0.029633315   -0.028862281   -0.004005724
     14        6          -0.015100522    0.038727964    0.005999173
     15        1          -0.000088193    0.000881612    0.000139598
     16        1          -0.000039863   -0.000956118   -0.000223879
     17        1          -0.001805720   -0.000295509    0.001608291
     18        7           0.001374978    0.003483705   -0.000557046
     19        7          -0.002066035   -0.004288906   -0.000762265
     20        8           0.014669281   -0.024253772   -0.003467955
     21        8          -0.027343525   -0.016483275   -0.001778827
     22        8          -0.018611408    0.026209281    0.004428556
     23        8          -0.007092086    0.045167921    0.018789163
     24        6          -0.001303715   -0.004814046   -0.002253576
     25        1           0.000990208    0.000687262    0.000487030
     26        1           0.000353451    0.000457916    0.000757586
     27        1          -0.000909253   -0.000348166   -0.000063184
     28        6           0.000655835    0.005858428    0.000244287
     29        1           0.000515959   -0.000951869    0.000272041
     30        1           0.000666925   -0.001187065   -0.000084523
     31        1          -0.000599128    0.000694345    0.000169978
     32        6          -0.015119827    0.001381175   -0.001638812
     33        6           0.040399731   -0.002398581   -0.006697937
     34       16          -0.001868870   -0.003432343   -0.001094177
     35        6          -0.012098902   -0.021783925   -0.002291662
     36        1           0.008878789   -0.011356388   -0.004936520
     37        6           0.018564957    0.006177294   -0.001089468
     38        8           0.006456200    0.010926779    0.002940031
     39        6          -0.013735918    0.002434971    0.002273751
     40        6          -0.001637139   -0.003815769   -0.001857247
     41        6           0.014806870    0.004085985   -0.000702621
     42       16          -0.002238933    0.002542168    0.000898571
     43        1           0.001832012    0.000549284    0.000002122
     44        1          -0.000265179   -0.001017142    0.001803721
     45        1          -0.000474350    0.000378472   -0.001572500
     46        6          -0.008243618   -0.000254041    0.001356311
     47        8          -0.004477533   -0.016284999   -0.004224674
     48        6           0.015850313   -0.001345955   -0.002569713
     49        1           0.000415761   -0.000298883   -0.000128148
     50        6          -0.003518070    0.008165408    0.003268821
     51        1          -0.001450945   -0.000245840   -0.000137229
     52        1           0.000790577   -0.000273040    0.000220675
     53        1          -0.000029749    0.000446647    0.000167847
     54        1           0.000770360   -0.000057045   -0.000832516
 -------------------------------------------------------------------
 Cartesian Forces:  Max     0.047594735 RMS     0.014437199

 GradGradGradGradGradGradGradGradGradGradGradGradGradGradGradGradGradGrad
 Berny optimization.
 FormGI is forming the generalized inverse of G from B-inverse, IUseBI=4.
 Internal  Forces:  Max     0.131063151 RMS     0.017189137
 Search for a local minimum.
 Step number   1 out of a maximum of  307
 All quantities printed in internal units (Hartrees-Bohrs-Radians)
 Mixed Optimization -- RFO/linear search
 Second derivative matrix not updated -- first step.
 ITU=  0
     Eigenvalues ---    0.00803   0.00803   0.01176   0.01203   0.01245
     Eigenvalues ---    0.01292   0.01308   0.01311   0.01359   0.01381
     Eigenvalues ---    0.01419   0.01429   0.01458   0.01496   0.01516
     Eigenvalues ---    0.01568   0.01574   0.01577   0.01620   0.01651
     Eigenvalues ---    0.01692   0.01711   0.01712   0.01719   0.01754
     Eigenvalues ---    0.01783   0.01803   0.01847   0.01960   0.02040
     Eigenvalues ---    0.02043   0.02066   0.02075   0.02082   0.02135
     Eigenvalues ---    0.02149   0.02163   0.02174   0.02197   0.02229
     Eigenvalues ---    0.02235   0.02252   0.07556   0.07572   0.07690
     Eigenvalues ---    0.07700   0.10058   0.10078   0.10633   0.10635
     Eigenvalues ---    0.15983   0.15999   0.15999   0.16000   0.16000
     Eigenvalues ---    0.16000   0.16000   0.16000   0.16000   0.16000
     Eigenvalues ---    0.16000   0.16000   0.16000   0.16000   0.16000
     Eigenvalues ---    0.16000   0.16000   0.16000   0.22530   0.22583
     Eigenvalues ---    0.23518   0.23582   0.24516   0.24747   0.24866
     Eigenvalues ---    0.24931   0.24952   0.24985   0.24987   0.24988
     Eigenvalues ---    0.24991   0.24994   0.24997   0.24997   0.24998
     Eigenvalues ---    0.24998   0.25000   0.25000   0.25000   0.25000
     Eigenvalues ---    0.25000   0.25000   0.25000   0.25000   0.25000
     Eigenvalues ---    0.25000   0.28859   0.28872   0.30119   0.32164
     Eigenvalues ---    0.32582   0.32774   0.33111   0.33787   0.34030
     Eigenvalues ---    0.34031   0.34066   0.34088   0.34354   0.34466
     Eigenvalues ---    0.34577   0.34629   0.34693   0.34822   0.34937
     Eigenvalues ---    0.35198   0.35218   0.35468   0.35553   0.35582
     Eigenvalues ---    0.35760   0.35871   0.36078   0.36083   0.36276
     Eigenvalues ---    0.36396   0.36662   0.39352   0.40194   0.40218
     Eigenvalues ---    0.40627   0.40651   0.41524   0.41688   0.41943
     Eigenvalues ---    0.42300   0.42656   0.43455   0.43891   0.44092
     Eigenvalues ---    0.44594   0.44595   0.45014   0.45406   0.46251
     Eigenvalues ---    0.47305   0.47561   0.49310   0.49645   0.53078
     Eigenvalues ---    0.53170   0.93281   0.93432   0.93989   0.94585
     Eigenvalues --- 1000.000001000.000001000.000001000.000001000.00000
     Eigenvalues --- 1000.000001000.000001000.000001000.000001000.00000
     Eigenvalues --- 1000.000001000.000001000.000001000.000001000.00000
     Eigenvalues --- 1000.000001000.000001000.000001000.000001000.00000
     Eigenvalues --- 1000.000001000.000001000.000001000.000001000.00000
     Eigenvalues --- 1000.000001000.000001000.000001000.000001000.00000
     Eigenvalues --- 1000.000001000.000001000.000001000.000001000.00000
     Eigenvalues --- 1000.000001000.000001000.000001000.000001000.00000
     Eigenvalues --- 1000.000001000.000001000.000001000.000001000.00000
     Eigenvalues --- 1000.000001000.000001000.000001000.000001000.00000
     Eigenvalues --- 1000.000001000.000001000.000001000.000001000.00000
     Eigenvalues --- 1000.000001000.000001000.000001000.000001000.00000
     Eigenvalues --- 1000.000001000.000001000.000001000.000001000.00000
     Eigenvalues --- 1000.000001000.000001000.000001000.000001000.00000
     Eigenvalues --- 1000.000001000.000001000.000001000.000001000.00000
     Eigenvalues --- 1000.000001000.000001000.000001000.000001000.00000
     Eigenvalues --- 1000.000001000.000001000.000001000.000001000.00000
     Eigenvalues --- 1000.000001000.000001000.000001000.000001000.00000
     Eigenvalues --- 1000.000001000.000001000.000001000.000001000.00000
     Eigenvalues --- 1000.000001000.000001000.000001000.000001000.00000
     Eigenvalues --- 1000.000001000.000001000.000001000.000001000.00000
     Eigenvalues --- 1000.000001000.000001000.000001000.000001000.00000
     Eigenvalues --- 1000.000001000.000001000.000001000.000001000.00000
     Eigenvalues --- 1000.000001000.000001000.000001000.000001000.00000
     Eigenvalues --- 1000.000001000.000001000.000001000.000001000.00000
     Eigenvalues --- 1000.000001000.000001000.000001000.000001000.00000
     Eigenvalues --- 1000.000001000.000001000.000001000.000001000.00000
     Eigenvalues --- 1000.000001000.000001000.000001000.000001000.00000
     Eigenvalues --- 1000.000001000.00000
 RFO step:  Lambda=-1.85572849D-01 EMin= 8.02933640D-03
 Linear search not attempted -- first point.
 Maximum step size (   0.300) exceeded in Quadratic search.
    -- Step size scaled by   0.477
 Iteration  1 RMS(Cart)=  0.29396123 RMS(Int)=  0.00659331
 Iteration  2 RMS(Cart)=  0.07896876 RMS(Int)=  0.00040267
 Iteration  3 RMS(Cart)=  0.00136866 RMS(Int)=  0.00008637
 Iteration  4 RMS(Cart)=  0.00000020 RMS(Int)=  0.00008637
 Iteration  1 RMS(Cart)=  0.00001887 RMS(Int)=  0.00000336
 Iteration  2 RMS(Cart)=  0.00001071 RMS(Int)=  0.00000375
 Iteration  3 RMS(Cart)=  0.00000608 RMS(Int)=  0.00000425
 Iteration  4 RMS(Cart)=  0.00000345 RMS(Int)=  0.00000460
 Iteration  5 RMS(Cart)=  0.00000196 RMS(Int)=  0.00000481
 Iteration  6 RMS(Cart)=  0.00000111 RMS(Int)=  0.00000494
 Iteration  7 RMS(Cart)=  0.00000063 RMS(Int)=  0.00000501
 Variable       Old X    -DE/DX   Delta X   Delta X   Delta X     New X
                                 (Linear)    (Quad)   (Total)
    R1        2.80935  -0.01897   0.00000  -0.01761  -0.01761   2.79174
    R2        2.64584   0.00037   0.00000   0.00006   0.00006   2.64590
    R3        2.31147   0.02767   0.00000   0.01174   0.01174   2.32321
    R4        2.67311  -0.00657   0.00000  -0.00669  -0.00675   2.66636
    R5        2.59267   0.00461   0.00000   0.00106   0.00104   2.59372
    R6        2.66894   0.00943   0.00000   0.00756   0.00755   2.67650
    R7        2.69164   0.01671   0.00000   0.01513   0.01513   2.70677
    R8        2.81049  -0.01986   0.00000  -0.01779  -0.01780   2.79269
    R9        2.62173   0.01807   0.00000   0.01210   0.01206   2.63378
   R10        2.65570  -0.00101   0.00000  -0.00074  -0.00074   2.65496
   R11        2.30889   0.03122   0.00000   0.01317   0.01317   2.32206
   R12        2.70248  -0.02114   0.00000  -0.01790  -0.01787   2.68461
   R13        2.04786  -0.00129   0.00000  -0.00113  -0.00113   2.04672
   R14        2.70495   0.04337   0.00000   0.03921   0.03931   2.74427
   R15        2.68322   0.01856   0.00000   0.01646   0.01646   2.69967
   R16        2.68655   0.10237   0.00000   0.08202   0.08207   2.76861
   R17        2.81233   0.00928   0.00000   0.00939   0.00951   2.82184
   R18        2.76359   0.03971   0.00000   0.03433   0.03433   2.79792
   R19        2.66221  -0.00073   0.00000  -0.00157  -0.00154   2.66067
   R20        2.31391   0.01358   0.00000   0.00579   0.00579   2.31969
   R21        2.79415  -0.03797   0.00000  -0.03492  -0.03505   2.75910
   R22        2.63842  -0.01681   0.00000  -0.01406  -0.01414   2.62428
   R23        2.31456   0.03171   0.00000   0.01353   0.01353   2.32810
   R24        2.62448   0.02387   0.00000   0.01714   0.01714   2.64163
   R25        2.64561  -0.03356   0.00000  -0.02598  -0.02602   2.61959
   R26        2.04921  -0.00066   0.00000  -0.00058  -0.00058   2.04863
   R27        2.04741  -0.00020   0.00000  -0.00018  -0.00018   2.04723
   R28        2.77259  -0.00424   0.00000  -0.00371  -0.00371   2.76889
   R29        2.77252  -0.00461   0.00000  -0.00403  -0.00403   2.76849
   R30        2.06176   0.00097   0.00000   0.00087   0.00087   2.06263
   R31        2.06551  -0.00018   0.00000  -0.00016  -0.00016   2.06535
   R32        2.05322   0.00061   0.00000   0.00054   0.00054   2.05376
   R33        2.06368   0.00028   0.00000   0.00025   0.00025   2.06393
   R34        2.06281   0.00083   0.00000   0.00074   0.00074   2.06356
   R35        2.05355   0.00052   0.00000   0.00046   0.00046   2.05401
   R36        2.61085   0.01467   0.00000   0.01078   0.01083   2.62167
   R37        3.33246   0.01573   0.00000   0.01628   0.01632   3.34879
   R38        2.66316   0.00183   0.00000   0.00127   0.00127   2.66443
   R39        2.03652  -0.01490   0.00000  -0.01297  -0.01297   2.02355
   R40        3.30351   0.00151   0.00000   0.00112   0.00109   3.30460
   R41        2.64292  -0.01233   0.00000  -0.00963  -0.00968   2.63324
   R42        2.56881   0.00920   0.00000   0.00613   0.00613   2.57493
   R43        2.71259  -0.00052   0.00000  -0.00042  -0.00042   2.71217
   R44        2.69322  -0.00393   0.00000  -0.00311  -0.00311   2.69010
   R45        2.63389   0.00626   0.00000   0.00454   0.00454   2.63843
   R46        3.32945   0.00445   0.00000   0.00443   0.00443   3.33388
   R47        2.05777   0.00183   0.00000   0.00163   0.00163   2.05940
   R48        2.07279  -0.00133   0.00000  -0.00120  -0.00120   2.07158
   R49        2.07219  -0.00132   0.00000  -0.00119  -0.00119   2.07100
   R50        2.69178  -0.00078   0.00000  -0.00065  -0.00065   2.69113
   R51        2.56795   0.01031   0.00000   0.00686   0.00686   2.57481
   R52        3.26183   0.00632   0.00000   0.00591   0.00591   3.26774
   R53        2.58596   0.00376   0.00000   0.00259   0.00259   2.58855
   R54        2.04284   0.00047   0.00000   0.00041   0.00041   2.04325
   R55        2.68995  -0.00896   0.00000  -0.00707  -0.00707   2.68288
   R56        2.04459  -0.00145   0.00000  -0.00127  -0.00127   2.04332
   R57        2.07278   0.00077   0.00000   0.00070   0.00070   2.07348
   R58        2.05965  -0.00023   0.00000  -0.00020  -0.00020   2.05945
   R59        2.07182   0.00107   0.00000   0.00097   0.00097   2.07279
    A1        2.03797  -0.00249   0.00000  -0.00366  -0.00367   2.03430
    A2        2.14521   0.00939   0.00000   0.01076   0.01076   2.15597
    A3        2.10001  -0.00690   0.00000  -0.00710  -0.00709   2.09291
    A4        2.10395   0.00610   0.00000   0.00837   0.00840   2.11234
    A5        2.08282  -0.00863   0.00000  -0.00681  -0.00678   2.07605
    A6        2.09624   0.00250   0.00000  -0.00161  -0.00168   2.09456
    A7        2.10093  -0.00672   0.00000  -0.00863  -0.00861   2.09231
    A8        2.07104  -0.00083   0.00000  -0.00251  -0.00259   2.06845
    A9        2.11118   0.00756   0.00000   0.01114   0.01120   2.12238
   A10        2.10296   0.00387   0.00000   0.00489   0.00490   2.10786
   A11        2.09911   0.00495   0.00000   0.00501   0.00496   2.10407
   A12        2.08110  -0.00881   0.00000  -0.00990  -0.00985   2.07125
   A13        2.03739  -0.00301   0.00000  -0.00300  -0.00302   2.03437
   A14        2.12972   0.00949   0.00000   0.01025   0.01026   2.13998
   A15        2.11607  -0.00648   0.00000  -0.00725  -0.00724   2.10883
   A16        2.15098   0.03151   0.00000   0.03325   0.03329   2.18427
   A17        2.04399  -0.01728   0.00000  -0.01879  -0.01880   2.02519
   A18        2.08722  -0.01425   0.00000  -0.01456  -0.01459   2.07264
   A19        2.11101   0.01126   0.00000   0.01305   0.01300   2.12401
   A20        2.04385  -0.02573   0.00000  -0.02967  -0.02964   2.01420
   A21        2.12832   0.01448   0.00000   0.01662   0.01664   2.14497
   A22        2.08678  -0.02651   0.00000  -0.02502  -0.02505   2.06174
   A23        2.04738  -0.04605   0.00000  -0.04856  -0.04835   1.99903
   A24        2.14662   0.07261   0.00000   0.07368   0.07351   2.22013
   A25        2.04892  -0.01814   0.00000  -0.01766  -0.01753   2.03139
   A26        2.00754  -0.11299   0.00000  -0.12501  -0.12506   1.88248
   A27        2.22643   0.13106   0.00000   0.14249   0.14240   2.36883
   A28        2.06022   0.01660   0.00000   0.01935   0.01953   2.07975
   A29        2.17370   0.04575   0.00000   0.04952   0.04942   2.22312
   A30        2.04919  -0.06238   0.00000  -0.06895  -0.06904   1.98014
   A31        2.01621  -0.00979   0.00000  -0.01311  -0.01332   2.00288
   A32        2.14188   0.01284   0.00000   0.01525   0.01535   2.15723
   A33        2.12500  -0.00308   0.00000  -0.00220  -0.00210   2.12290
   A34        2.10943   0.00765   0.00000   0.00900   0.00883   2.11826
   A35        2.11468   0.01357   0.00000   0.01637   0.01648   2.13116
   A36        2.05896  -0.02122   0.00000  -0.02538  -0.02531   2.03365
   A37        2.11176   0.00363   0.00000   0.00373   0.00368   2.11544
   A38        2.05670  -0.00107   0.00000  -0.00084  -0.00081   2.05589
   A39        2.11471  -0.00256   0.00000  -0.00290  -0.00288   2.11184
   A40        2.08567  -0.00396   0.00000  -0.00658  -0.00668   2.07900
   A41        2.07549   0.00288   0.00000   0.00453   0.00458   2.08007
   A42        2.12199   0.00108   0.00000   0.00205   0.00210   2.12409
   A43        2.20043   0.01689   0.00000   0.01612   0.01608   2.21651
   A44        2.02023  -0.00729   0.00000  -0.00679  -0.00677   2.01346
   A45        2.06252  -0.00961   0.00000  -0.00933  -0.00932   2.05321
   A46        2.18316   0.00226   0.00000   0.00202   0.00201   2.18516
   A47        2.02959  -0.00045   0.00000  -0.00027  -0.00026   2.02932
   A48        2.07044  -0.00180   0.00000  -0.00175  -0.00174   2.06870
   A49        1.91737   0.00097   0.00000   0.00134   0.00134   1.91871
   A50        1.91808   0.00116   0.00000   0.00161   0.00161   1.91969
   A51        1.87685  -0.00138   0.00000  -0.00191  -0.00191   1.87494
[...]
 Alpha  occ. eigenvalues --   -0.31347  -0.31160  -0.30768  -0.30531  -0.29863
 Alpha  occ. eigenvalues --   -0.28922  -0.28446  -0.27817  -0.27232  -0.26895
 Alpha  occ. eigenvalues --   -0.26306  -0.25717  -0.25326  -0.25129  -0.24284
 Alpha  occ. eigenvalues --   -0.23619  -0.23037  -0.22691  -0.22487  -0.21525
 Alpha  occ. eigenvalues --   -0.21397  -0.20996  -0.20877  -0.20343  -0.19782
 Alpha  occ. eigenvalues --   -0.19534  -0.19396  -0.19271  -0.18687  -0.18552
 Alpha  occ. eigenvalues --   -0.18129  -0.17734  -0.16883  -0.16401  -0.16130
 Alpha  occ. eigenvalues --   -0.15448  -0.15040  -0.14434  -0.12846  -0.11990
 Alpha  occ. eigenvalues --   -0.11559  -0.09785  -0.08742  -0.07403  -0.07199
 Alpha  occ. eigenvalues --   -0.06689  -0.06229  -0.05764  -0.05313  -0.05131
 Alpha  occ. eigenvalues --   -0.05001  -0.03707  -0.02021   0.00121   0.06264
 Alpha virt. eigenvalues --    0.11833   0.12905   0.14056   0.14595   0.15489
 Alpha virt. eigenvalues --    0.15835   0.16510   0.16628   0.16762   0.17259
 Alpha virt. eigenvalues --    0.17633   0.18076   0.18638   0.18860   0.18952
 Alpha virt. eigenvalues --    0.19242   0.19326   0.19641   0.20059   0.20214
 Alpha virt. eigenvalues --    0.20562   0.20843   0.20970   0.21293   0.21590
 Alpha virt. eigenvalues --    0.21672   0.21897   0.22128   0.22574   0.22799
 Alpha virt. eigenvalues --    0.23173   0.23573   0.23702   0.23861   0.24127
 Alpha virt. eigenvalues --    0.24355   0.24758   0.24894   0.25095   0.25223
 Alpha virt. eigenvalues --    0.25616   0.25759   0.26111   0.26364   0.26526
 Alpha virt. eigenvalues --    0.26646   0.27141   0.27396   0.27724   0.28162
 Alpha virt. eigenvalues --    0.28225   0.28672   0.28735   0.28850   0.29133
 Alpha virt. eigenvalues --    0.29416   0.29666   0.29810   0.30054   0.30348
 Alpha virt. eigenvalues --    0.30691   0.30978   0.31315   0.31575   0.31955
 Alpha virt. eigenvalues --    0.32149   0.32437   0.32764   0.32816   0.33153
 Alpha virt. eigenvalues --    0.33228   0.33316   0.33561   0.33940   0.34046
 Alpha virt. eigenvalues --    0.34318   0.34492   0.34898   0.34961   0.35112
 Alpha virt. eigenvalues --    0.35297   0.35654   0.35847   0.36050   0.36374
 Alpha virt. eigenvalues --    0.36598   0.36764   0.36902   0.37312   0.37658
 Alpha virt. eigenvalues --    0.37783   0.38034   0.38073   0.38451   0.39030
 Alpha virt. eigenvalues --    0.39119   0.39209   0.39557   0.39698   0.39861
 Alpha virt. eigenvalues --    0.40135   0.40269   0.40803   0.40866   0.41136
 Alpha virt. eigenvalues --    0.41415   0.41559   0.41734   0.42032   0.42376
 Alpha virt. eigenvalues --    0.42698   0.42720   0.42853   0.43325   0.43551
 Alpha virt. eigenvalues --    0.43592   0.43612   0.44007   0.44337   0.44456
 Alpha virt. eigenvalues --    0.44747   0.44824   0.44975   0.45401   0.45504
 Alpha virt. eigenvalues --    0.45772   0.45880   0.46178   0.46343   0.46502
 Alpha virt. eigenvalues --    0.46682   0.46935   0.47239   0.47281   0.47496
 Alpha virt. eigenvalues --    0.47647   0.48227   0.48297   0.48510   0.48684
 Alpha virt. eigenvalues --    0.49071   0.49147   0.49240   0.49584   0.49765
 Alpha virt. eigenvalues --    0.49969   0.50118   0.50493   0.50618   0.51024
 Alpha virt. eigenvalues --    0.51135   0.51347   0.51665   0.52040   0.52472
 Alpha virt. eigenvalues --    0.52500   0.52989   0.53142   0.53250   0.53624
 Alpha virt. eigenvalues --    0.53994   0.54238   0.54476   0.54787   0.55330
 Alpha virt. eigenvalues --    0.55407   0.55798   0.55939   0.56187   0.56498
 Alpha virt. eigenvalues --    0.56755   0.57300   0.57542   0.57934   0.58370
 Alpha virt. eigenvalues --    0.58692   0.59142   0.59770   0.59983   0.60221
 Alpha virt. eigenvalues --    0.60357   0.60498   0.61016   0.61654   0.61928
 Alpha virt. eigenvalues --    0.62290   0.62611   0.62881   0.63169   0.63464
 Alpha virt. eigenvalues --    0.63941   0.64585   0.65134   0.65478   0.65756
 Alpha virt. eigenvalues --    0.66372   0.66640   0.67035   0.67706   0.68364
 Alpha virt. eigenvalues --    0.68917   0.69385   0.69666   0.70499   0.70851
 Alpha virt. eigenvalues --    0.71251   0.71996   0.72205   0.72692   0.73106
 Alpha virt. eigenvalues --    0.73215   0.73701   0.73973   0.74507   0.74817
 Alpha virt. eigenvalues --    0.75664   0.76029   0.76415   0.76952   0.77483
 Alpha virt. eigenvalues --    0.77755   0.78033   0.78502   0.78591   0.79219
 Alpha virt. eigenvalues --    0.79530   0.80154   0.80353   0.80766   0.81221
 Alpha virt. eigenvalues --    0.81288   0.81930   0.82509   0.82622   0.83391
 Alpha virt. eigenvalues --    0.83826   0.83849   0.83942   0.84433   0.84600
 Alpha virt. eigenvalues --    0.85186   0.85605   0.86198   0.86581   0.86783
 Alpha virt. eigenvalues --    0.87374   0.87714   0.87858   0.88076   0.88744
 Alpha virt. eigenvalues --    0.88897   0.89368   0.89392   0.90153   0.90666
 Alpha virt. eigenvalues --    0.90705   0.91569   0.91826   0.91993   0.92472
 Alpha virt. eigenvalues --    0.92597   0.93227   0.93420   0.94011   0.94195
 Alpha virt. eigenvalues --    0.94363   0.94502   0.95253   0.95275   0.95725
 Alpha virt. eigenvalues --    0.96348   0.96977   0.97065   0.97387   0.97620
 Alpha virt. eigenvalues --    0.97958   0.98488   0.98725   0.99071   0.99726
 Alpha virt. eigenvalues --    1.00232   1.00378   1.00693   1.01236   1.02277
 Alpha virt. eigenvalues --    1.02997   1.04349   1.04807   1.05321   1.05717
 Alpha virt. eigenvalues --    1.06374   1.07002   1.07477   1.08483   1.08970
 Alpha virt. eigenvalues --    1.09282   1.10002   1.10169   1.10722   1.11017
 Alpha virt. eigenvalues --    1.11870   1.12392   1.13154   1.13590   1.14233
 Alpha virt. eigenvalues --    1.14640   1.15149   1.15700   1.15938   1.16423
 Alpha virt. eigenvalues --    1.16472   1.17176   1.17496   1.17959   1.18503
 Alpha virt. eigenvalues --    1.18836   1.19000   1.19554   1.20024   1.20523
 Alpha virt. eigenvalues --    1.20985   1.21284   1.22085   1.22525   1.22896
 Alpha virt. eigenvalues --    1.23040   1.23305   1.23698   1.24216   1.25086
 Alpha virt. eigenvalues --    1.25303   1.25966   1.26310   1.26425   1.26986
 Alpha virt. eigenvalues --    1.27869   1.28170   1.28447   1.29105   1.29883
 Alpha virt. eigenvalues --    1.30394   1.30618   1.30822   1.31895   1.32344
 Alpha virt. eigenvalues --    1.32637   1.33235   1.33936   1.34275   1.35723
 Alpha virt. eigenvalues --    1.36925   1.37326   1.37620   1.38476   1.39421
 Alpha virt. eigenvalues --    1.40311   1.40786   1.41073   1.42559   1.43278
 Alpha virt. eigenvalues --    1.43549   1.43876   1.44253   1.44545   1.45331
 Alpha virt. eigenvalues --    1.45888   1.46645   1.47099   1.47857   1.48006
 Alpha virt. eigenvalues --    1.49275   1.49880   1.50656   1.51145   1.51437
 Alpha virt. eigenvalues --    1.52198   1.52739   1.53165   1.54120   1.55071
 Alpha virt. eigenvalues --    1.55530   1.55995   1.56539   1.57906   1.58980
 Alpha virt. eigenvalues --    1.59301   1.60538   1.61347   1.61993   1.62598
 Alpha virt. eigenvalues --    1.63278   1.63565   1.64076   1.65304   1.65566
 Alpha virt. eigenvalues --    1.66619   1.66979   1.67415   1.68221   1.69124
 Alpha virt. eigenvalues --    1.69203   1.69382   1.70430   1.70734   1.71090
 Alpha virt. eigenvalues --    1.71273   1.71912   1.72625   1.73004   1.73525
 Alpha virt. eigenvalues --    1.74054   1.74450   1.74562   1.74832   1.75519
 Alpha virt. eigenvalues --    1.75971   1.76296   1.76657   1.77519   1.78009
 Alpha virt. eigenvalues --    1.78721   1.79597   1.79875   1.80670   1.81163
 Alpha virt. eigenvalues --    1.81856   1.82361   1.82463   1.83672   1.83887
 Alpha virt. eigenvalues --    1.84122   1.84598   1.85778   1.86413   1.87138
 Alpha virt. eigenvalues --    1.87554   1.88014   1.88281   1.88945   1.90101
 Alpha virt. eigenvalues --    1.91128   1.91918   1.92307   1.93016   1.93377
 Alpha virt. eigenvalues --    1.94001   1.94342   1.94772   1.94927   1.95928
 Alpha virt. eigenvalues --    1.96058   1.96907   1.97170   1.98634   1.99094
 Alpha virt. eigenvalues --    1.99474   2.00572   2.01053   2.01500   2.02759
 Alpha virt. eigenvalues --    2.03635   2.04428   2.04870   2.05404   2.06936
 Alpha virt. eigenvalues --    2.07042   2.07733   2.08675   2.09832   2.10323
 Alpha virt. eigenvalues --    2.11059   2.11498   2.11881   2.12480   2.13180
 Alpha virt. eigenvalues --    2.13710   2.14114   2.14828   2.15503   2.16708
 Alpha virt. eigenvalues --    2.17069   2.17910   2.18543   2.19478   2.20117
 Alpha virt. eigenvalues --    2.20370   2.21235   2.21630   2.22636   2.23112
 Alpha virt. eigenvalues --    2.23423   2.23732   2.24583   2.24979   2.25653
 Alpha virt. eigenvalues --    2.25864   2.26124   2.26441   2.27000   2.27823
 Alpha virt. eigenvalues --    2.28722   2.29100   2.31093   2.31434   2.31896
 Alpha virt. eigenvalues --    2.32392   2.33386   2.33996   2.34656   2.35503
 Alpha virt. eigenvalues --    2.36947   2.38303   2.39552   2.39708   2.40897
 Alpha virt. eigenvalues --    2.41402   2.42425   2.42904   2.43994   2.45379
 Alpha virt. eigenvalues --    2.45969   2.47798   2.49888   2.50602   2.51956
 Alpha virt. eigenvalues --    2.54206   2.55117   2.56126   2.58272   2.58674
 Alpha virt. eigenvalues --    2.59379   2.59902   2.60285   2.60847   2.61223
 Alpha virt. eigenvalues --    2.61994   2.62970   2.64240   2.64589   2.66009
 Alpha virt. eigenvalues --    2.66571   2.67157   2.68257   2.68940   2.69474
 Alpha virt. eigenvalues --    2.69866   2.70497   2.71098   2.71972   2.72544
 Alpha virt. eigenvalues --    2.73008   2.74516   2.75362   2.76076   2.76904
 Alpha virt. eigenvalues --    2.77822   2.78223   2.80187   2.80476   2.80620
 Alpha virt. eigenvalues --    2.82780   2.82993   2.84447   2.85300   2.85991
 Alpha virt. eigenvalues --    2.87176   2.87407   2.87754   2.88724   2.89272
 Alpha virt. eigenvalues --    2.89434   2.89898   2.90766   2.91742   2.92962
 Alpha virt. eigenvalues --    2.93275   2.94391   2.95256   2.95501   2.95995
 Alpha virt. eigenvalues --    2.98083   2.98739   2.99239   2.99496   3.00432
 Alpha virt. eigenvalues --    3.01631   3.02793   3.03594   3.03717   3.05264
 Alpha virt. eigenvalues --    3.06069   3.06915   3.07910   3.08231   3.09901
 Alpha virt. eigenvalues --    3.10382   3.11284   3.11728   3.12221   3.12812
 Alpha virt. eigenvalues --    3.13537   3.13944   3.14547   3.14827   3.15250
 Alpha virt. eigenvalues --    3.15652   3.17090   3.18648   3.18981   3.19573
 Alpha virt. eigenvalues --    3.20861   3.22401   3.23744   3.25230   3.27138
 Alpha virt. eigenvalues --    3.28634   3.30042   3.30711   3.31524   3.32392
 Alpha virt. eigenvalues --    3.33341   3.34678   3.35252   3.37382   3.38453
 Alpha virt. eigenvalues --    3.38941   3.40239   3.40781   3.41469   3.42539
 Alpha virt. eigenvalues --    3.43689   3.43798   3.45541   3.46171   3.47758
 Alpha virt. eigenvalues --    3.49306   3.50519   3.51459   3.52054   3.55294
 Alpha virt. eigenvalues --    3.55790   3.56118   3.56459   3.56819   3.58120
 Alpha virt. eigenvalues --    3.60135   3.60604   3.61478   3.62266   3.62643
 Alpha virt. eigenvalues --    3.62926   3.64633   3.67446   3.69177   3.70390
 Alpha virt. eigenvalues --    3.72254   3.73157   3.74589   3.80165   3.81685
 Alpha virt. eigenvalues --    3.82135   3.83665   3.86411   3.86868   3.88793
 Alpha virt. eigenvalues --    3.91123   3.91366   3.91888   3.92871   3.93133
 Alpha virt. eigenvalues --    3.93857   3.95210   3.97798   4.00740   4.03552
 Alpha virt. eigenvalues --    4.06783   4.07926   4.12129   4.14595   4.15022
 Alpha virt. eigenvalues --    4.15963   4.17545   4.17852   4.20180   4.20877
 Alpha virt. eigenvalues --    4.25279   4.26532   4.28270   4.32088   4.36062
 Alpha virt. eigenvalues --    4.39307   4.42575   4.48789   4.50838   4.59779
 Alpha virt. eigenvalues --    4.63749   4.64854   4.71771   4.90032   5.04036
 Alpha virt. eigenvalues --    5.06934   5.10086   5.13015   5.20104   5.27550
 Alpha virt. eigenvalues --    5.29449   5.30462   5.33574   5.35117   5.36221
 Alpha virt. eigenvalues --    5.36966   5.47916   5.50259   5.51914   5.53967
 Alpha virt. eigenvalues --    5.55558   5.60880   5.90860   5.96067   5.98245
 Alpha virt. eigenvalues --    6.02113   6.04511   6.06987   8.18418   8.23423
 Alpha virt. eigenvalues --   17.46325  17.52032  17.66828  17.70117  17.78249
 Alpha virt. eigenvalues --   17.83695  23.70179  23.77482  23.89670  23.99286
 Alpha virt. eigenvalues --   24.02969  24.04962  24.07041  24.07579  24.08490
 Alpha virt. eigenvalues --   24.10065  24.11512  24.12974  24.13973  24.14509
 Alpha virt. eigenvalues --   24.15768  24.16413  24.18676  24.20274  24.22481
 Alpha virt. eigenvalues --   24.23168  24.23570  24.25658  24.31902  24.32487
 Alpha virt. eigenvalues --   24.34425  24.41905  35.77930  35.80668  50.12348
 Alpha virt. eigenvalues --   50.15252  50.25200  50.27011  50.28530  50.29705
 Alpha virt. eigenvalues --  189.35963 189.41583
          Condensed to atoms (all electrons):
 Mulliken charges:
               1
     1  C    0.141239
     2  C    0.077597
     3  C    0.214267
     4  C    0.258843
     5  C    0.128816
     6  C    0.158872
     7  C    0.085186
     8  C    0.417072
     9  C    0.139651
    10  C   -0.789727
    11  C    0.113745
    12  C    0.252949
    13  C   -0.490812
    14  C   -0.583015
    15  H    0.103695
    16  H    0.109375
    17  H    0.134683
    18  N   -0.052223
    19  N   -0.131285
    20  O   -0.414333
    21  O   -0.404616
    22  O   -0.422627
    23  O   -0.410904
    24  C   -0.141070
    25  H    0.135943
    26  H    0.130340
    27  H    0.157071
    28  C   -0.178642
    29  H    0.137413
    30  H    0.136578
    31  H    0.156378
    32  C   -0.131098
    33  C    0.141914
    34  S   -0.991481
    35  C   -0.787900
    36  H    0.180250
    37  C    0.232308
    38  O   -0.126323
    39  C    0.432118
    40  C   -0.250269
    41  C    0.079231
    42  S   -0.353597
    43  H    0.128740
    44  H    0.138843
    45  H    0.161297
    46  C   -0.008334
    47  O   -0.138362
    48  C   -0.218438
    49  H    0.092457
    50  C   -0.287387
    51  H    0.119022
    52  H    0.102890
    53  H    0.150996
    54  H    0.162665
 Sum of Mulliken charges =  -2.00000
 Mulliken charges with hydrogens summed into heavy atoms:
               1
     1  C    0.141239
     2  C    0.077597
     3  C    0.214267
     4  C    0.258843
     5  C    0.128816
     6  C    0.293555
     7  C    0.085186
     8  C    0.417072
     9  C    0.139651
    10  C   -0.789727
    11  C    0.113745
    12  C    0.252949
    13  C   -0.381437
    14  C   -0.479320
    18  N   -0.052223
    19  N   -0.131285
    20  O   -0.414333
    21  O   -0.404616
    22  O   -0.422627
    23  O   -0.410904
    24  C    0.282284
    28  C    0.251728
    32  C   -0.131098
    33  C    0.322164
    34  S   -0.991481
    35  C   -0.787900
    37  C    0.232308
    38  O   -0.126323
    39  C    0.432118
    40  C    0.178611
    41  C    0.079231
    42  S   -0.353597
    46  C    0.084123
    47  O   -0.138362
    48  C   -0.099416
    50  C    0.129164
 Electronic spatial extent (au):  <R**2>=          22480.4783
 Charge=             -2.0000 electrons
 Dipole moment (field-independent basis, Debye):
    X=             14.0414    Y=              0.1495    Z=             -1.8778  Tot=             14.1672
 Quadrupole moment (field-independent basis, Debye-Ang):
   XX=           -420.8923   YY=           -307.2573   ZZ=           -241.8040
   XY=              6.2428   XZ=            -16.7970   YZ=              4.8424
 Traceless Quadrupole moment (field-independent basis, Debye-Ang):
   XX=            -97.5744   YY=             16.0606   ZZ=             81.5138
   XY=              6.2428   XZ=            -16.7970   YZ=              4.8424
 Octapole moment (field-independent basis, Debye-Ang**2):
  XXX=            411.7178  YYY=            -10.2536  ZZZ=              2.2697  XYY=            279.0243
  XXY=             40.6790  XXZ=             70.7522  XZZ=              3.0658  YZZ=             -7.0775
  YYZ=            -25.9841  XYZ=             -0.0422
 Hexadecapole moment (field-independent basis, Debye-Ang**3):
 XXXX=         -28451.2478 YYYY=          -9793.1701 ZZZZ=           -602.7567 XXXY=           -262.0233
 XXXZ=           -500.1072 YYYX=            391.7613 YYYZ=            122.1438 ZZZX=            -18.7967
 ZZZY=             -6.6402 XXYY=          -6544.9845 XXZZ=          -4066.8225 YYZZ=          -1637.5017
 XXYZ=             57.9442 YYXZ=           -202.6622 ZZXY=             36.2894
 N-N= 4.089510294799D+03 E-N=-1.377696581228D+04  KE= 2.352089695926D+03
 Unable to Open any file for archive entry.
 1\1\GINC-CX3-2-9\FOpt\RB3LYP\6-311+G(d,p)\C26H18N2O6S2(2-)\NS5018\08-O
 ct-2021\0\\# opt=modredundant b3lyp/6-311+g(d,p)\\NDI_5.pdb\\-2,1\C,-2
 .5227492038,-3.0340231789,-0.1395277227\C,-2.2089632225,-1.6320788858,
 -0.0022730872\C,-3.2353085046,-0.648023999,-0.0909674887\C,-4.57303400
 23,-1.0175477663,-0.3327323826\C,-4.9312135706,-2.4111342779,-0.495548
 5579\C,-0.8701156358,-1.2315707884,0.1151917159\C,-2.8757130637,0.7390
 085437,0.1032526959\C,-1.5172594969,1.1141894147,0.3626316676\C,-0.454
 745327,0.0889963359,0.2323304681\C,-1.2956265764,2.4373276336,0.871391
 6626\C,-3.6783286326,3.0785521067,0.3556010203\C,-3.9332854054,1.69012
 89645,0.0765142519\C,-5.2749631752,1.2882383519,-0.1948792024\C,-5.594
 7641194,-0.0226212232,-0.3987294353\H,-6.6104085229,-0.343803737,-0.59
 35934922\H,-6.0276332422,2.06742018,-0.2158476398\H,-0.1411124984,-2.0
 306769306,0.0405784153\N,-2.3686988957,3.3637709264,0.7613063166\N,-3.
 8783585062,-3.3437816569,-0.3799061337\O,-1.7044452502,-3.9686096213,-
 0.071241128\O,-6.0882575879,-2.8130925894,-0.7183929823\O,-4.533689474
 8,3.9880293637,0.2925975094\O,-0.2570590447,2.8692867615,1.4245716291\
 C,-2.076034906,4.723426868,1.2014970103\H,-1.8425405657,4.7389822542,2
 .2698919713\H,-1.2011784275,5.1087308697,0.6727891793\H,-2.9562010719,
 5.3270265558,0.9937678262\C,-4.1927280897,-4.7608049079,-0.52447007\H,
 -3.6397203769,-5.1871108022,-1.3657915283\H,-3.891427006,-5.3061216829
 ,0.3734671141\H,-5.264278681,-4.8437746021,-0.6872558162\C,0.950782048
 1,0.3489588975,-0.0248625953\C,1.6538865462,1.5449026271,-0.1162005932
 \S,2.0834290442,-0.9996285438,-0.310866883\C,3.0186582352,1.3923674048
 ,-0.4068906432\H,1.1759196472,2.4827019229,0.1089717026\C,3.4664677462
 ,0.0835800528,-0.5590739079\O,3.9145903792,2.4239446289,-0.5359773636\
 C,4.7761329907,-0.380651806,-0.884795506\C,3.41680501,3.7395272917,-0.
 3408313452\C,5.2309600868,-1.6806304451,-1.1130024519\S,6.1592547668,0
 .7225372829,-1.0455228791\H,4.2753166914,4.4041024054,-0.4510762491\H,
 2.6578328992,3.9919956413,-1.0893879188\H,2.9794165323,3.8576257451,0.
 6554695445\C,6.6179386277,-1.7897539789,-1.3925392717\O,4.4138586524,-
 2.7912973674,-1.0220536463\C,7.2629616882,-0.5854716351,-1.3979832993\
 H,7.0996709228,-2.7435195363,-1.5730530283\C,3.8577472047,-3.226699492
 3,-2.2631798457\H,8.305527556,-0.3764367813,-1.5822812251\H,4.64820823
 5,-3.5472643207,-2.9552322546\H,3.2052980039,-4.0700474268,-2.03319842
 1\H,3.2641785695,-2.434181047,-2.7286557052\\Version=ES64L-G16RevC.01\
 State=1-A\HF=-2359.3984595\RMSD=3.292e-09\RMSF=6.692e-04\Dipole=5.4205
 549,0.2155846,-1.2799747\Quadrupole=-73.536706,12.2987139,61.2379921,5
 .8485413,2.398891,-5.9169715\PG=C01 [X(C26H18N2O6S2)]\\@
 The archive entry for this job was punched.


 THERE IS NOTHING NOBLE IN BEING SUPERIOR TO SOME OTHER MAN.
 TRUE NOBILITY IS BEING SUPERIOR TO YOUR FORMER SELF.

                                                   -- HINDU PROVERB
 Job cpu time:       5 days  6 hours 21 minutes 23.3 seconds.
 Elapsed time:       0 days 15 hours 58 minutes 57.9 seconds.
 File lengths (MBytes):  RWF=    556 Int=      0 D2E=      0 Chk=     70 Scr=      1
 Normal termination of Gaussian 16 at Fri Oct  8 12:26:21 2021.
