 Entering Gaussian System, Link 0=g16
 Input=NDI_10.gjf
 Output=NDI_10.log
 Initial command:
 /apps/gaussian/g16-c01-avx/g16/l1.exe "/tmp/pbs.4643763[185].pbs/Gau-348750.inp" -scrdir="/tmp/pbs.4643763[185].pbs/"
 Entering Link 1 = /apps/gaussian/g16-c01-avx/g16/l1.exe PID=    348784.
  
 Copyright (c) 1988-2019, Gaussian, Inc.  All Rights Reserved.
  
 This is part of the Gaussian(R) 16 program.  It is based on
 the Gaussian(R) 09 system (copyright 2009, Gaussian, Inc.),
 the Gaussian(R) 03 system (copyright 2003, Gaussian, Inc.),
 the Gaussian(R) 98 system (copyright 1998, Gaussian, Inc.),
 the Gaussian(R) 94 system (copyright 1995, Gaussian, Inc.),
 the Gaussian 92(TM) system (copyright 1992, Gaussian, Inc.),
 the Gaussian 90(TM) system (copyright 1990, Gaussian, Inc.),
 the Gaussian 88(TM) system (copyright 1988, Gaussian, Inc.),
 the Gaussian 86(TM) system (copyright 1986, Carnegie Mellon
 University), and the Gaussian 82(TM) system (copyright 1983,
 Carnegie Mellon University). Gaussian is a federally registered
 trademark of Gaussian, Inc.
  
 This software contains proprietary and confidential information,
 including trade secrets, belonging to Gaussian, Inc.
  
 This software is provided under written license and may be
 used, copied, transmitted, or stored only in accord with that
 written license.
  
 The following legend is applicable only to US Government
 contracts under FAR:
  
                    RESTRICTED RIGHTS LEGEND
  
 Use, reproduction and disclosure by the US Government is
 subject to restrictions as set forth in subparagraphs (a)
 and (c) of the Commercial Computer Software - Restricted
 Rights clause in FAR 52.227-19.
  
 Gaussian, Inc.
 340 Quinnipiac St., Bldg. 40, Wallingford CT 06492
  
  
 ---------------------------------------------------------------
 Warning -- This program may not be used in any manner that
 competes with the business of Gaussian, Inc. or will provide
 assistance to any competitor of Gaussian, Inc.  The licensee
 of this program is prohibited from giving any competitor of
 Gaussian, Inc. access to this program.  By using this program,
 the user acknowledges that Gaussian, Inc. is engaged in the
 business of creating and licensing software in the field of
 computational chemistry and represents and warrants to the
 licensee that it is not a competitor of Gaussian, Inc. and that
 it will not use this program in any manner prohibited above.
 ---------------------------------------------------------------
  

 Cite this work as:
 Gaussian 16, Revision C.01,
 M. J. Frisch, G. W. Trucks, H. B. Schlegel, G. E. Scuseria, 
 M. A. Robb, J. R. Cheeseman, G. Scalmani, V. Barone, 
 G. A. Petersson, H. Nakatsuji, X. Li, M. Caricato, A. V. Marenich, 
 J. Bloino, B. G. Janesko, R. Gomperts, B. Mennucci, H. P. Hratchian, 
 J. V. Ortiz, A. F. Izmaylov, J. L. Sonnenberg, D. Williams-Young, 
 F. Ding, F. Lipparini, F. Egidi, J. Goings, B. Peng, A. Petrone, 
 T. Henderson, D. Ranasinghe, V. G. Zakrzewski, J. Gao, N. Rega, 
 G. Zheng, W. Liang, M. Hada, M. Ehara, K. Toyota, R. Fukuda, 
 J. Hasegawa, M. Ishida, T. Nakajima, Y. Honda, O. Kitao, H. Nakai, 
 T. Vreven, K. Throssell, J. A. Montgomery, Jr., J. E. Peralta, 
 F. Ogliaro, M. J. Bearpark, J. J. Heyd, E. N. Brothers, K. N. Kudin, 
 V. N. Staroverov, T. A. Keith, R. Kobayashi, J. Normand, 
 K. Raghavachari, A. P. Rendell, J. C. Burant, S. S. Iyengar, 
 J. Tomasi, M. Cossi, J. M. Millam, M. Klene, C. Adamo, R. Cammi, 
 J. W. Ochterski, R. L. Martin, K. Morokuma, O. Farkas, 
 J. B. Foresman, and D. J. Fox, Gaussian, Inc., Wallingford CT, 2019.
 
 ******************************************
 Gaussian 16:  ES64L-G16RevC.01  3-Jul-2019
                 7-Oct-2021 
 ******************************************
 %mem=10GB
 %nprocshared=8
 Will use up to    8 processors via shared memory.
 -------------------------------------
 # opt=modredundant b3lyp/6-311+g(d,p)
 -------------------------------------
 1/18=120,19=15,26=3,38=1/1,3;
 2/9=110,12=2,17=6,18=5,40=1/2;
 3/5=4,6=6,7=111,11=2,25=1,30=1,71=1,74=-5/1,2,3;
 4//1;
 5/5=2,38=5/2;
 6/7=2,8=2,9=2,10=2,28=1/1;
 7//1,2,3,16;
 1/18=20,19=15,26=3/3(2);
 2/9=110/2;
 99//99;
 2/9=110/2;
 3/5=4,6=6,7=111,11=2,25=1,30=1,71=1,74=-5/1,2,3;
 4/5=5,16=3,69=1/1;
 5/5=2,38=5/2;
 7//1,2,3,16;
 1/18=20,19=15,26=3/3(-5);
 2/9=110/2;
 6/7=2,8=2,9=2,10=2,19=2,28=1/1;
 99/9=1/99;
 ----------
 NDI_10.pdb
 ----------
 Symbolic Z-matrix:
 Charge = -2 Multiplicity = 1
 C                    -2.563    -2.994    -0.409 
 C                    -2.257    -1.551    -0.224 
 C                    -3.301    -0.607    -0.083 
 C                    -4.65     -1.024    -0.115 
 C                    -4.992    -2.459    -0.304 
 C                    -0.949    -1.137    -0.215 
 C                    -2.962     0.764     0.102 
 C                    -1.595     1.188     0.123 
 C                    -0.561     0.232    -0.072 
 C                    -1.328     2.616     0.446 
 C                    -3.777     3.115     0.508 
 C                    -4.035     1.679     0.268 
 C                    -5.356     1.252     0.23 
 C                    -5.672    -0.098     0.036 
 H                    -6.699    -0.442     0.008 
 H                    -6.133     1.997     0.361 
 H                    -0.19     -1.895    -0.369 
 N                    -2.432     3.476     0.608 
 N                    -3.916    -3.353    -0.438 
 O                    -1.695    -3.847    -0.532 
 O                    -6.149    -2.85     -0.34 
 O                    -4.676     3.938     0.629 
 O                    -0.212     3.097     0.596 
 C                    -2.111     4.875     0.912 
 H                    -1.54      4.931     1.84 
 H                    -1.5       5.299     0.111 
 H                    -3.05      5.414     1.003 
 C                    -4.206    -4.779    -0.625 
 H                    -3.759    -5.126    -1.559 
 H                    -3.775    -5.355     0.196 
 H                    -5.286    -4.897    -0.649 
 C                     0.876     0.482    -0.178 
 C                     1.614     1.626     0.057 
 S                     1.911    -0.78     -0.847 
 C                     2.975     1.497    -0.284 
 H                     1.184     2.524     0.47 
 C                     3.329     0.241    -0.787 
 O                     3.933     2.455    -0.166 
 C                     4.634    -0.211    -1.18 
 C                     3.57      3.671     0.482 
 C                     4.981    -1.455    -1.704 
 S                     6.077     0.791    -1.054 
 H                     4.484     4.261     0.546 
 H                     2.822     4.223    -0.1 
 H                     3.181     3.483     1.49 
 C                     6.367    -1.599    -1.995 
 O                     4.014    -2.393    -1.884 
 C                     7.073    -0.466    -1.693 
 H                     6.816    -2.493    -2.406 
 C                     4.392    -3.641    -2.454 
 H                     8.134    -0.3      -1.816 
 H                     5.115    -4.166    -1.817 
 H                     3.478    -4.229    -2.523 
 H                     4.818    -3.508    -3.455 
 
 The following ModRedundant input section has been read:
 D       8       9      32      33 F                                           
 

 GradGradGradGradGradGradGradGradGradGradGradGradGradGradGradGradGradGrad
 Berny optimization.
 Initialization pass.
                           ----------------------------
                           !    Initial Parameters    !
                           ! (Angstroms and Degrees)  !
 --------------------------                            --------------------------
 ! Name  Definition              Value          Derivative Info.                !
 --------------------------------------------------------------------------------
 ! R1    R(1,2)                  1.4866         estimate D2E/DX2                !
 ! R2    R(1,19)                 1.4001         estimate D2E/DX2                !
 ! R3    R(1,20)                 1.2232         estimate D2E/DX2                !
 ! R4    R(2,3)                  1.4146         estimate D2E/DX2                !
 ! R5    R(2,6)                  1.372          estimate D2E/DX2                !
 ! R6    R(3,4)                  1.4123         estimate D2E/DX2                !
 ! R7    R(3,7)                  1.4244         estimate D2E/DX2                !
 ! R8    R(4,5)                  1.4872         estimate D2E/DX2                !
 ! R9    R(4,14)                 1.3874         estimate D2E/DX2                !
 ! R10   R(5,19)                 1.4053         estimate D2E/DX2                !
 ! R11   R(5,21)                 1.2218         estimate D2E/DX2                !
 ! R12   R(6,9)                  1.4301         estimate D2E/DX2                !
 ! R13   R(6,17)                 1.0837         estimate D2E/DX2                !
 ! R14   R(7,8)                  1.4314         estimate D2E/DX2                !
 ! R15   R(7,12)                 1.4199         estimate D2E/DX2                !
 ! R16   R(8,9)                  1.4217         estimate D2E/DX2                !
 ! R17   R(8,10)                 1.4882         estimate D2E/DX2                !
 ! R18   R(9,32)                 1.4624         estimate D2E/DX2                !
 ! R19   R(10,18)                1.4088         estimate D2E/DX2                !
 ! R20   R(10,23)                1.2245         estimate D2E/DX2                !
 ! R21   R(11,12)                1.4786         estimate D2E/DX2                !
 ! R22   R(11,18)                1.3962         estimate D2E/DX2                !
 ! R23   R(11,22)                1.2248         estimate D2E/DX2                !
 ! R24   R(12,13)                1.3888         estimate D2E/DX2                !
 ! R25   R(13,14)                1.4            estimate D2E/DX2                !
 ! R26   R(13,16)                1.0844         estimate D2E/DX2                !
 ! R27   R(14,15)                1.0834         estimate D2E/DX2                !
 ! R28   R(18,24)                1.4672         estimate D2E/DX2                !
 ! R29   R(19,28)                1.4672         estimate D2E/DX2                !
 ! R30   R(24,25)                1.091          estimate D2E/DX2                !
 ! R31   R(24,26)                1.093          estimate D2E/DX2                !
 ! R32   R(24,27)                1.0865         estimate D2E/DX2                !
 ! R33   R(28,29)                1.0921         estimate D2E/DX2                !
 ! R34   R(28,30)                1.0916         estimate D2E/DX2                !
 ! R35   R(28,31)                1.0867         estimate D2E/DX2                !
 ! R36   R(32,33)                1.3815         estimate D2E/DX2                !
 ! R37   R(32,34)                1.7639         estimate D2E/DX2                !
 ! R38   R(33,35)                1.409          estimate D2E/DX2                !
 ! R39   R(33,36)                1.0779         estimate D2E/DX2                !
 ! R40   R(34,37)                1.7484         estimate D2E/DX2                !
 ! R41   R(35,37)                1.3985         estimate D2E/DX2                !
 ! R42   R(35,38)                1.3599         estimate D2E/DX2                !
 ! R43   R(37,39)                1.4359         estimate D2E/DX2                !
 ! R44   R(38,40)                1.4249         estimate D2E/DX2                !
 ! R45   R(39,41)                1.3937         estimate D2E/DX2                !
 ! R46   R(39,42)                1.7613         estimate D2E/DX2                !
 ! R47   R(40,43)                1.0898         estimate D2E/DX2                !
 ! R48   R(40,44)                1.0968         estimate D2E/DX2                !
 ! R49   R(40,45)                1.0967         estimate D2E/DX2                !
 ! R50   R(41,46)                1.4235         estimate D2E/DX2                !
 ! R51   R(41,47)                1.3592         estimate D2E/DX2                !
 ! R52   R(42,48)                1.7264         estimate D2E/DX2                !
 ! R53   R(46,48)                1.3687         estimate D2E/DX2                !
 ! R54   R(46,49)                1.0816         estimate D2E/DX2                !
 ! R55   R(47,50)                1.4231         estimate D2E/DX2                !
 ! R56   R(48,51)                1.0809         estimate D2E/DX2                !
 ! R57   R(50,52)                1.0973         estimate D2E/DX2                !
 ! R58   R(50,53)                1.089          estimate D2E/DX2                !
 ! R59   R(50,54)                1.096          estimate D2E/DX2                !
 ! A1    A(2,1,19)             116.767          estimate D2E/DX2                !
 ! A2    A(2,1,20)             122.9113         estimate D2E/DX2                !
 ! A3    A(19,1,20)            120.3217         estimate D2E/DX2                !
 ! A4    A(1,2,3)              120.5473         estimate D2E/DX2                !
 ! A5    A(1,2,6)              119.3369         estimate D2E/DX2                !
 ! A6    A(3,2,6)              120.1056         estimate D2E/DX2                !
 ! A7    A(2,3,4)              120.3743         estimate D2E/DX2                !
 ! A8    A(2,3,7)              118.662          estimate D2E/DX2                !
 ! A9    A(4,3,7)              120.9617         estimate D2E/DX2                !
 ! A10   A(3,4,5)              120.4909         estimate D2E/DX2                !
 ! A11   A(3,4,14)             120.2702         estimate D2E/DX2                !
 ! A12   A(5,4,14)             119.2382         estimate D2E/DX2                !
 ! A13   A(4,5,19)             116.7341         estimate D2E/DX2                !
 ! A14   A(4,5,21)             122.024          estimate D2E/DX2                !
 ! A15   A(19,5,21)            121.2418         estimate D2E/DX2                !
 ! A16   A(2,6,9)              123.2421         estimate D2E/DX2                !
 ! A17   A(2,6,17)             117.1119         estimate D2E/DX2                !
 ! A18   A(9,6,17)             119.589          estimate D2E/DX2                !
 ! A19   A(3,7,8)              120.9519         estimate D2E/DX2                !
 ! A20   A(3,7,12)             117.1037         estimate D2E/DX2                !
 ! A21   A(8,7,12)             121.944          estimate D2E/DX2                !
 ! A22   A(7,8,9)              119.5639         estimate D2E/DX2                !
 ! A23   A(7,8,10)             117.3064         estimate D2E/DX2                !
 ! A24   A(9,8,10)             122.9922         estimate D2E/DX2                !
 ! A25   A(6,9,8)              117.3944         estimate D2E/DX2                !
 ! A26   A(6,9,32)             115.0236         estimate D2E/DX2                !
 ! A27   A(8,9,32)             127.5648         estimate D2E/DX2                !
 ! A28   A(8,10,18)            118.042          estimate D2E/DX2                !
 ! A29   A(8,10,23)            124.5436         estimate D2E/DX2                !
 ! A30   A(18,10,23)           117.4097         estimate D2E/DX2                !
 ! A31   A(12,11,18)           115.5202         estimate D2E/DX2                !
 ! A32   A(12,11,22)           122.7205         estimate D2E/DX2                !
 ! A33   A(18,11,22)           121.7534         estimate D2E/DX2                !
 ! A34   A(7,12,11)            120.8614         estimate D2E/DX2                !
 ! A35   A(7,12,13)            121.162          estimate D2E/DX2                !
 ! A36   A(11,12,13)           117.9699         estimate D2E/DX2                !
 ! A37   A(12,13,14)           120.9948         estimate D2E/DX2                !
 ! A38   A(12,13,16)           117.8401         estimate D2E/DX2                !
 ! A39   A(14,13,16)           121.1642         estimate D2E/DX2                !
 ! A40   A(4,14,13)            119.5003         estimate D2E/DX2                !
 ! A41   A(4,14,15)            118.9169         estimate D2E/DX2                !
 ! A42   A(13,14,15)           121.5811         estimate D2E/DX2                !
 ! A43   A(10,18,11)           126.0753         estimate D2E/DX2                !
 ! A44   A(10,18,24)           115.7508         estimate D2E/DX2                !
 ! A45   A(11,18,24)           118.1737         estimate D2E/DX2                !
 ! A46   A(1,19,5)             125.0856         estimate D2E/DX2                !
 ! A47   A(1,19,28)            116.2868         estimate D2E/DX2                !
 ! A48   A(5,19,28)            118.6276         estimate D2E/DX2                !
 ! A49   A(18,24,25)           109.8574         estimate D2E/DX2                !
 ! A50   A(18,24,26)           109.8979         estimate D2E/DX2                !
 ! A51   A(18,24,27)           107.5355         estimate D2E/DX2                !
 ! A52   A(25,24,26)           108.1108         estimate D2E/DX2                !
 ! A53   A(25,24,27)           110.8301         estimate D2E/DX2                !
 ! A54   A(26,24,27)           110.6124         estimate D2E/DX2                !
 ! A55   A(19,28,29)           109.6906         estimate D2E/DX2                !
 ! A56   A(19,28,30)           109.8136         estimate D2E/DX2                !
 ! A57   A(19,28,31)           107.7461         estimate D2E/DX2                !
 ! A58   A(29,28,30)           108.2991         estimate D2E/DX2                !
 ! A59   A(29,28,31)           110.6959         estimate D2E/DX2                !
 ! A60   A(30,28,31)           110.5924         estimate D2E/DX2                !
 ! A61   A(9,32,33)            130.8538         estimate D2E/DX2                !
 ! A62   A(9,32,34)            118.7992         estimate D2E/DX2                !
 ! A63   A(33,32,34)           110.0912         estimate D2E/DX2                !
 ! A64   A(32,33,35)           113.5168         estimate D2E/DX2                !
 ! A65   A(32,33,36)           122.8158         estimate D2E/DX2                !
 ! A66   A(35,33,36)           123.6653         estimate D2E/DX2                !
 ! A67   A(32,34,37)            92.5831         estimate D2E/DX2                !
 ! A68   A(33,35,37)           114.4421         estimate D2E/DX2                !
 ! A69   A(33,35,38)           126.5093         estimate D2E/DX2                !
 ! A70   A(37,35,38)           119.0484         estimate D2E/DX2                !
 ! A71   A(34,37,35)           109.3605         estimate D2E/DX2                !
 ! A72   A(34,37,39)           122.9491         estimate D2E/DX2                !
 ! A73   A(35,37,39)           127.6762         estimate D2E/DX2                !
 ! A74   A(35,38,40)           117.4623         estimate D2E/DX2                !
 ! A75   A(37,39,41)           127.5998         estimate D2E/DX2                !
 ! A76   A(37,39,42)           123.089          estimate D2E/DX2                !
 ! A77   A(41,39,42)           109.3111         estimate D2E/DX2                !
 ! A78   A(38,40,43)           105.9662         estimate D2E/DX2                !
 ! A79   A(38,40,44)           111.2186         estimate D2E/DX2                !
 ! A80   A(38,40,45)           111.2269         estimate D2E/DX2                !
 ! A81   A(43,40,44)           109.31           estimate D2E/DX2                !
 ! A82   A(43,40,45)           109.6531         estimate D2E/DX2                !
 ! A83   A(44,40,45)           109.3963         estimate D2E/DX2                !
 ! A84   A(39,41,46)           114.1767         estimate D2E/DX2                !
 ! A85   A(39,41,47)           119.2512         estimate D2E/DX2                !
 ! A86   A(46,41,47)           126.5717         estimate D2E/DX2                !
 ! A87   A(39,42,48)            91.8319         estimate D2E/DX2                !
 ! A88   A(41,46,48)           111.9242         estimate D2E/DX2                !
 ! A89   A(41,46,49)           124.437          estimate D2E/DX2                !
 ! A90   A(48,46,49)           123.6388         estimate D2E/DX2                !
 ! A91   A(41,47,50)           117.9871         estimate D2E/DX2                !
 ! A92   A(42,48,46)           112.756          estimate D2E/DX2                !
 ! A93   A(42,48,51)           119.7749         estimate D2E/DX2                !
 ! A94   A(46,48,51)           127.4687         estimate D2E/DX2                !
 ! A95   A(47,50,52)           111.2267         estimate D2E/DX2                !
 ! A96   A(47,50,53)           106.0187         estimate D2E/DX2                !
 ! A97   A(47,50,54)           111.2624         estimate D2E/DX2                !
 ! A98   A(52,50,53)           109.3568         estimate D2E/DX2                !
 ! A99   A(52,50,54)           109.3996         estimate D2E/DX2                !
 ! A100  A(53,50,54)           109.505          estimate D2E/DX2                !
 ! D1    D(19,1,2,3)             0.1578         estimate D2E/DX2                !
 ! D2    D(19,1,2,6)          -178.6792         estimate D2E/DX2                !
 ! D3    D(20,1,2,3)          -179.8231         estimate D2E/DX2                !
 ! D4    D(20,1,2,6)             1.3399         estimate D2E/DX2                !
 ! D5    D(2,1,19,5)            -0.124          estimate D2E/DX2                !
 ! D6    D(2,1,19,28)          179.8267         estimate D2E/DX2                !
 ! D7    D(20,1,19,5)          179.8575         estimate D2E/DX2                !
 ! D8    D(20,1,19,28)          -0.1919         estimate D2E/DX2                !
 ! D9    D(1,2,3,4)              0.0571         estimate D2E/DX2                !
 ! D10   D(1,2,3,7)            179.5453         estimate D2E/DX2                !
 ! D11   D(6,2,3,4)            178.8851         estimate D2E/DX2                !
 ! D12   D(6,2,3,7)             -1.6266         estimate D2E/DX2                !
 ! D13   D(1,2,6,9)            178.625          estimate D2E/DX2                !
 ! D14   D(1,2,6,17)             1.3881         estimate D2E/DX2                !
 ! D15   D(3,2,6,9)             -0.2173         estimate D2E/DX2                !
 ! D16   D(3,2,6,17)          -177.4541         estimate D2E/DX2                !
 ! D17   D(2,3,4,5)             -0.3074         estimate D2E/DX2                !
 ! D18   D(2,3,4,14)           179.3968         estimate D2E/DX2                !
 ! D19   D(7,3,4,5)           -179.7837         estimate D2E/DX2                !
 ! D20   D(7,3,4,14)            -0.0795         estimate D2E/DX2                !
 ! D21   D(2,3,7,8)              1.0523         estimate D2E/DX2                !
 ! D22   D(2,3,7,12)          -178.712          estimate D2E/DX2                !
 ! D23   D(4,3,7,8)           -179.4626         estimate D2E/DX2                !
 ! D24   D(4,3,7,12)             0.7731         estimate D2E/DX2                !
 ! D25   D(3,4,5,19)             0.3343         estimate D2E/DX2                !
 ! D26   D(3,4,5,21)          -179.7799         estimate D2E/DX2                !
 ! D27   D(14,4,5,19)         -179.3729         estimate D2E/DX2                !
 ! D28   D(14,4,5,21)            0.5129         estimate D2E/DX2                !
 ! D29   D(3,4,14,13)           -0.4559         estimate D2E/DX2                !
 ! D30   D(3,4,14,15)         -179.9937         estimate D2E/DX2                !
 ! D31   D(5,4,14,13)          179.252          estimate D2E/DX2                !
 ! D32   D(5,4,14,15)           -0.2858         estimate D2E/DX2                !
 ! D33   D(4,5,19,1)            -0.1141         estimate D2E/DX2                !
 ! D34   D(4,5,19,28)          179.9364         estimate D2E/DX2                !
 ! D35   D(21,5,19,1)          179.9992         estimate D2E/DX2                !
 ! D36   D(21,5,19,28)           0.0496         estimate D2E/DX2                !
 ! D37   D(2,6,9,8)              2.5984         estimate D2E/DX2                !
 ! D38   D(2,6,9,32)          -176.0103         estimate D2E/DX2                !
 ! D39   D(17,6,9,8)           179.77           estimate D2E/DX2                !
 ! D40   D(17,6,9,32)            1.1613         estimate D2E/DX2                !
 ! D41   D(3,7,8,9)              1.3551         estimate D2E/DX2                !
 ! D42   D(3,7,8,10)          -174.5099         estimate D2E/DX2                !
 ! D43   D(12,7,8,9)          -178.8921         estimate D2E/DX2                !
 ! D44   D(12,7,8,10)            5.2428         estimate D2E/DX2                !
 ! D45   D(3,7,12,11)          178.0768         estimate D2E/DX2                !
 ! D46   D(3,7,12,13)           -0.9621         estimate D2E/DX2                !
 ! D47   D(8,7,12,11)           -1.685          estimate D2E/DX2                !
 ! D48   D(8,7,12,13)          179.2761         estimate D2E/DX2                !
 ! D49   D(7,8,9,6)             -3.0809         estimate D2E/DX2                !
 ! D50   D(7,8,9,32)           175.3285         estimate D2E/DX2                !
 ! D51   D(10,8,9,6)           172.5381         estimate D2E/DX2                !
 ! D52   D(10,8,9,32)           -9.0525         estimate D2E/DX2                !
 ! D53   D(7,8,10,18)           -4.7549         estimate D2E/DX2                !
 ! D54   D(7,8,10,23)          174.4235         estimate D2E/DX2                !
 ! D55   D(9,8,10,18)          179.5335         estimate D2E/DX2                !
 ! D56   D(9,8,10,23)           -1.2882         estimate D2E/DX2                !
 ! D57   D(6,9,32,33)         -171.5541         estimate D2E/DX2                !
 ! D58   D(6,9,32,34)           14.8907         estimate D2E/DX2                !
 ! D59   D(8,9,32,33)           10.0043         Frozen                          !
 ! D60   D(8,9,32,34)         -163.5508         estimate D2E/DX2                !
 ! D61   D(8,10,18,11)           0.7189         estimate D2E/DX2                !
 ! D62   D(8,10,18,24)        -179.4089         estimate D2E/DX2                !
 ! D63   D(23,10,18,11)       -178.5188         estimate D2E/DX2                !
 ! D64   D(23,10,18,24)          1.3535         estimate D2E/DX2                !
 ! D65   D(18,11,12,7)          -2.3856         estimate D2E/DX2                !
 ! D66   D(18,11,12,13)        176.6833         estimate D2E/DX2                !
 ! D67   D(22,11,12,7)         178.4862         estimate D2E/DX2                !
 ! D68   D(22,11,12,13)         -2.445          estimate D2E/DX2                !
 ! D69   D(12,11,18,10)          2.8444         estimate D2E/DX2                !
 ! D70   D(12,11,18,24)       -177.0251         estimate D2E/DX2                !
 ! D71   D(22,11,18,10)       -178.0181         estimate D2E/DX2                !
 ! D72   D(22,11,18,24)          2.1124         estimate D2E/DX2                !
 ! D73   D(7,12,13,14)           0.461          estimate D2E/DX2                !
 ! D74   D(7,12,13,16)        -179.8781         estimate D2E/DX2                !
 ! D75   D(11,12,13,14)       -178.6049         estimate D2E/DX2                !
 ! D76   D(11,12,13,16)          1.056          estimate D2E/DX2                !
 ! D77   D(12,13,14,4)           0.2708         estimate D2E/DX2                !
 ! D78   D(12,13,14,15)        179.7958         estimate D2E/DX2                !
 ! D79   D(16,13,14,4)        -179.3788         estimate D2E/DX2                !
 ! D80   D(16,13,14,15)          0.1463         estimate D2E/DX2                !
 ! D81   D(10,18,24,25)        -59.609          estimate D2E/DX2                !
 ! D82   D(10,18,24,26)         59.2209         estimate D2E/DX2                !
 ! D83   D(10,18,24,27)        179.6858         estimate D2E/DX2                !
 ! D84   D(11,18,24,25)        120.2739         estimate D2E/DX2                !
 ! D85   D(11,18,24,26)       -120.8962         estimate D2E/DX2                !
 ! D86   D(11,18,24,27)         -0.4313         estimate D2E/DX2                !
 ! D87   D(1,19,28,29)         -58.1407         estimate D2E/DX2                !
 ! D88   D(1,19,28,30)          60.7668         estimate D2E/DX2                !
 ! D89   D(1,19,28,31)        -178.7139         estimate D2E/DX2                !
 ! D90   D(5,19,28,29)         121.8132         estimate D2E/DX2                !
 ! D91   D(5,19,28,30)        -119.2792         estimate D2E/DX2                !
 ! D92   D(5,19,28,31)           1.2401         estimate D2E/DX2                !
 ! D93   D(9,32,33,35)        -174.2148         estimate D2E/DX2                !
 ! D94   D(9,32,33,36)           6.297          estimate D2E/DX2                !
 ! D95   D(34,32,33,35)         -0.2268         estimate D2E/DX2                !
 ! D96   D(34,32,33,36)       -179.715          estimate D2E/DX2                !
 ! D97   D(9,32,34,37)         175.3753         estimate D2E/DX2                !
 ! D98   D(33,32,34,37)          0.5621         estimate D2E/DX2                !
 ! D99   D(32,33,35,37)         -0.3558         estimate D2E/DX2                !
 ! D100  D(32,33,35,38)        179.7693         estimate D2E/DX2                !
 ! D101  D(36,33,35,37)        179.1274         estimate D2E/DX2                !
 ! D102  D(36,33,35,38)         -0.7475         estimate D2E/DX2                !
 ! D103  D(32,34,37,35)         -0.7445         estimate D2E/DX2                !
 ! D104  D(32,34,37,39)        177.9801         estimate D2E/DX2                !
 ! D105  D(33,35,37,34)          0.7635         estimate D2E/DX2                !
 ! D106  D(33,35,37,39)       -177.8843         estimate D2E/DX2                !
 ! D107  D(38,35,37,34)       -179.3515         estimate D2E/DX2                !
 ! D108  D(38,35,37,39)          2.0006         estimate D2E/DX2                !
 ! D109  D(33,35,38,40)          6.4689         estimate D2E/DX2                !
 ! D110  D(37,35,38,40)       -173.4008         estimate D2E/DX2                !
 ! D111  D(34,37,39,41)          2.7979         estimate D2E/DX2                !
 ! D112  D(34,37,39,42)       -177.2035         estimate D2E/DX2                !
 ! D113  D(35,37,39,41)       -178.7224         estimate D2E/DX2                !
 ! D114  D(35,37,39,42)          1.2762         estimate D2E/DX2                !
 ! D115  D(35,38,40,43)        175.4942         estimate D2E/DX2                !
 ! D116  D(35,38,40,44)        -65.8178         estimate D2E/DX2                !
 ! D117  D(35,38,40,45)         56.3894         estimate D2E/DX2                !
 ! D118  D(37,39,41,46)       -179.9613         estimate D2E/DX2                !
 ! D119  D(37,39,41,47)         -0.1766         estimate D2E/DX2                !
 ! D120  D(42,39,41,46)          0.0399         estimate D2E/DX2                !
 ! D121  D(42,39,41,47)        179.8246         estimate D2E/DX2                !
 ! D122  D(37,39,42,48)        179.958          estimate D2E/DX2                !
 ! D123  D(41,39,42,48)         -0.0431         estimate D2E/DX2                !
 ! D124  D(39,41,46,48)         -0.0133         estimate D2E/DX2                !
 ! D125  D(39,41,46,49)       -179.9845         estimate D2E/DX2                !
 ! D126  D(47,41,46,48)       -179.7793         estimate D2E/DX2                !
 ! D127  D(47,41,46,49)          0.2495         estimate D2E/DX2                !
 ! D128  D(39,41,47,50)        178.3519         estimate D2E/DX2                !
 ! D129  D(46,41,47,50)         -1.8927         estimate D2E/DX2                !
 ! D130  D(39,42,48,46)          0.0373         estimate D2E/DX2                !
 ! D131  D(39,42,48,51)        179.83           estimate D2E/DX2                !
 ! D132  D(41,46,48,42)         -0.0209         estimate D2E/DX2                !
 ! D133  D(41,46,48,51)       -179.7942         estimate D2E/DX2                !
 ! D134  D(49,46,48,42)        179.9505         estimate D2E/DX2                !
 ! D135  D(49,46,48,51)          0.1773         estimate D2E/DX2                !
 ! D136  D(41,47,50,52)         62.0847         estimate D2E/DX2                !
 ! D137  D(41,47,50,53)       -179.1351         estimate D2E/DX2                !
 ! D138  D(41,47,50,54)        -60.1575         estimate D2E/DX2                !
 --------------------------------------------------------------------------------
 Trust Radius=3.00D-01 FncErr=1.00D-07 GrdErr=1.00D-06 EigMax=2.50D+02 EigMin=1.00D-04
 Number of steps in this run=    307 maximum allowed number of steps=    324.
 GradGradGradGradGradGradGradGradGradGradGradGradGradGradGradGradGradGrad

 Stoichiometry    C26H18N2O6S2(2-)
 Framework group  C1[X(C26H18N2O6S2)]
 Deg. of freedom   156
 Full point group                 C1      NOp   1
 Largest Abelian subgroup         C1      NOp   1
 Largest concise Abelian subgroup C1      NOp   1
                         Standard orientation:                         
 ---------------------------------------------------------------------
 Center     Atomic      Atomic             Coordinates (Angstroms)
 Number     Number       Type             X           Y           Z
 ---------------------------------------------------------------------
      1          6           0       -2.532230   -3.013446    0.326716
      2          6           0       -2.239376   -1.559480    0.225086
      3          6           0       -3.283258   -0.629040    0.011674
      4          6           0       -4.619791   -1.069945   -0.106637
      5          6           0       -4.947694   -2.517728   -0.015460
      6          6           0       -0.940399   -1.127432    0.316376
      7          6           0       -2.958435    0.755404   -0.069522
      8          6           0       -1.602515    1.201056    0.039013
      9          6           0       -0.561387    0.246734    0.201611
     10          6           0       -1.367049    2.670230    0.068781
     11          6           0       -3.796901    3.120908   -0.309581
     12          6           0       -4.034713    1.662533   -0.256212
     13          6           0       -5.342795    1.211115   -0.374351
     14          6           0       -5.643404   -0.154388   -0.303447
     15          1           0       -6.660691   -0.516727   -0.391126
     16          1           0       -6.122790    1.950739   -0.517459
     17          1           0       -0.175272   -1.885196    0.437762
     18          7           0       -2.474060    3.522227   -0.113672
     19          7           0       -3.872544   -3.397224    0.197859
     20          8           0       -1.664239   -3.854739    0.513745
     21          8           0       -6.093186   -2.930290   -0.117771
     22          8           0       -4.695641    3.931885   -0.496006
     23          8           0       -0.276632    3.194995    0.255675
     24          6           0       -2.182823    4.960007   -0.088584
     25          1           0       -1.741531    5.232052    0.871423
     26          1           0       -1.465214    5.207983   -0.874869
     27          1           0       -3.120024    5.486656   -0.246114
     28          6           0       -4.149102   -4.834738    0.295911
     29          1           0       -3.583863   -5.371209   -0.469123
     30          1           0       -3.838498   -5.205379    1.274547
     31          1           0       -5.217157   -4.976942    0.154714
     32          6           0        0.879245    0.495997    0.235579
     33          6           0        1.590377    1.678311    0.306496
     34         16           0        1.982137   -0.861784    0.008666
     35          6           0        2.983538    1.504422    0.187720
     36          1           0        1.117751    2.636678    0.448025
     37          6           0        3.389370    0.175547    0.028803
     38          8           0        3.926538    2.483901    0.216437
     39          6           0        4.730786   -0.325894   -0.075782
     40          6           0        3.491848    3.805771    0.523084
     41          6           0        5.132632   -1.647871   -0.258585
     42         16           0        6.153704    0.708065    0.015662
     43          1           0        4.394806    4.413629    0.575680
     44          1           0        2.834705    4.199633   -0.261753
     45          1           0        2.968698    3.838283    1.486404
     46          6           0        6.543675   -1.824783   -0.322397
     47          8           0        4.189271   -2.621791   -0.352830
     48          6           0        7.213963   -0.638974   -0.188602
     49          1           0        7.034899   -2.778422   -0.460346
     50          6           0        4.627991   -3.957247   -0.575025
     51          1           0        8.283484   -0.482977   -0.202588
     52          1           0        5.253225   -4.313090    0.253577
     53          1           0        3.725726   -4.564265   -0.632894
     54          1           0        5.186303   -4.041075   -1.514401
 ---------------------------------------------------------------------
 Rotational constants (GHZ):           0.1522948           0.0606640           0.0437177
 Standard basis: 6-311+G(d,p) (5D, 7F)
 There are   952 symmetry adapted cartesian basis functions of A   symmetry.
 There are   916 symmetry adapted basis functions of A   symmetry.
   916 basis functions,  1468 primitive gaussians,   952 cartesian basis functions
   135 alpha electrons      135 beta electrons
       nuclear repulsion energy      4092.7383117113 Hartrees.
 NAtoms=   54 NActive=   54 NUniq=   54 SFac= 1.00D+00 NAtFMM=   60 NAOKFM=F Big=F
 Integral buffers will be    131072 words long.
 Raffenetti 2 integral format.
 Two-electron integral symmetry is turned on.
 One-electron integrals computed using PRISM.
 NBasis=   916 RedAO= T EigKep=  1.22D-06  NBF=   916
 NBsUse=   901 1.00D-06 EigRej=  6.95D-07 NBFU=   901
 ExpMin= 4.05D-02 ExpMax= 9.34D+04 ExpMxC= 3.17D+03 IAcc=3 IRadAn=         5 AccDes= 0.00D+00
 Harris functional with IExCor=  402 and IRadAn=       5 diagonalized for initial guess.
 HarFok:  IExCor=  402 AccDes= 0.00D+00 IRadAn=         5 IDoV= 1 UseB2=F ITyADJ=14
 ICtDFT=  3500011 ScaDFX=  1.000000  1.000000  1.000000  1.000000
 FoFCou: FMM=F IPFlag=           0 FMFlag=      100000 FMFlg1=           0
         NFxFlg=           0 DoJE=T BraDBF=F KetDBF=T FulRan=T
         wScrn=  0.000000 ICntrl=       500 IOpCl=  0 I1Cent=   200000004 NGrid=           0
         NMat0=    1 NMatS0=      1 NMatT0=    0 NMatD0=    1 NMtDS0=    0 NMtDT0=    0
 Petite list used in FoFCou.
 Requested convergence on RMS density matrix=1.00D-08 within 128 cycles.
 Requested convergence on MAX density matrix=1.00D-06.
 Requested convergence on             energy=1.00D-06.
 No special actions if energy rises.
 EnCoef did     8 forward-backward iterations
 Restarting incremental Fock formation.
 SCF Done:  E(RB3LYP) =  -2359.36156430     A.U. after   21 cycles
            NFock= 21  Conv=0.97D-08     -V/T= 2.0028

 **********************************************************************

            Population analysis using the SCF Density.

 **********************************************************************

 Orbital symmetries:
       Occupied  (A) (A) (A) (A) (A) (A) (A) (A) (A) (A) (A) (A)
                 (A) (A) (A) (A) (A) (A) (A) (A) (A) (A) (A) (A)
                 (A) (A) (A) (A) (A) (A) (A) (A) (A) (A) (A) (A)
                 (A) (A) (A) (A) (A) (A) (A) (A) (A) (A) (A) (A)
                 (A) (A) (A) (A) (A) (A) (A) (A) (A) (A) (A) (A)
                 (A) (A) (A) (A) (A) (A) (A) (A) (A) (A) (A) (A)
                 (A) (A) (A) (A) (A) (A) (A) (A) (A) (A) (A) (A)
                 (A) (A) (A) (A) (A) (A) (A) (A) (A) (A) (A) (A)
                 (A) (A) (A) (A) (A) (A) (A) (A) (A) (A) (A) (A)
                 (A) (A) (A) (A) (A) (A) (A) (A) (A) (A) (A) (A)
                 (A) (A) (A) (A) (A) (A) (A) (A) (A) (A) (A) (A)
                 (A) (A) (A)
       Virtual   (A) (A) (A) (A) (A) (A) (A) (A) (A) (A) (A) (A)
                 (A) (A) (A) (A) (A) (A) (A) (A) (A) (A) (A) (A)
                 (A) (A) (A) (A) (A) (A) (A) (A) (A) (A) (A) (A)
                 (A) (A) (A) (A) (A) (A) (A) (A) (A) (A) (A) (A)
                 (A) (A) (A) (A) (A) (A) (A) (A) (A) (A) (A) (A)
                 (A) (A) (A) (A) (A) (A) (A) (A) (A) (A) (A) (A)
                 (A) (A) (A) (A) (A) (A) (A) (A) (A) (A) (A) (A)
                 (A) (A) (A) (A) (A) (A) (A) (A) (A) (A) (A) (A)
                 (A) (A) (A) (A) (A) (A) (A) (A) (A) (A) (A) (A)
                 (A) (A) (A) (A) (A) (A) (A) (A) (A) (A) (A) (A)
                 (A) (A) (A) (A) (A) (A) (A) (A) (A) (A) (A) (A)
                 (A) (A) (A) (A) (A) (A) (A) (A) (A) (A) (A) (A)
                 (A) (A) (A) (A) (A) (A) (A) (A) (A) (A) (A) (A)
                 (A) (A) (A) (A) (A) (A) (A) (A) (A) (A) (A) (A)
                 (A) (A) (A) (A) (A) (A) (A) (A) (A) (A) (A) (A)
                 (A) (A) (A) (A) (A) (A) (A) (A) (A) (A) (A) (A)
                 (A) (A) (A) (A) (A) (A) (A) (A) (A) (A) (A) (A)
                 (A) (A) (A) (A) (A) (A) (A) (A) (A) (A) (A) (A)
                 (A) (A) (A) (A) (A) (A) (A) (A) (A) (A) (A) (A)
                 (A) (A) (A) (A) (A) (A) (A) (A) (A) (A) (A) (A)
                 (A) (A) (A) (A) (A) (A) (A) (A) (A) (A) (A) (A)
                 (A) (A) (A) (A) (A) (A) (A) (A) (A) (A) (A) (A)
                 (A) (A) (A) (A) (A) (A) (A) (A) (A) (A) (A) (A)
                 (A) (A) (A) (A) (A) (A) (A) (A) (A) (A) (A) (A)
                 (A) (A) (A) (A) (A) (A) (A) (A) (A) (A) (A) (A)
                 (A) (A) (A) (A) (A) (A) (A) (A) (A) (A) (A) (A)
                 (A) (A) (A) (A) (A) (A) (A) (A) (A) (A) (A) (A)
                 (A) (A) (A) (A) (A) (A) (A) (A) (A) (A) (A) (A)
                 (A) (A) (A) (A) (A) (A) (A) (A) (A) (A) (A) (A)
                 (A) (A) (A) (A) (A) (A) (A) (A) (A) (A) (A) (A)
                 (A) (A) (A) (A) (A) (A) (A) (A) (A) (A) (A) (A)
                 (A) (A) (A) (A) (A) (A) (A) (A) (A) (A) (A) (A)
                 (A) (A) (A) (A) (A) (A) (A) (A) (A) (A) (A) (A)
                 (A) (A) (A) (A) (A) (A) (A) (A) (A) (A) (A) (A)
                 (A) (A) (A) (A) (A) (A) (A) (A) (A) (A) (A) (A)
                 (A) (A) (A) (A) (A) (A) (A) (A) (A) (A) (A) (A)
                 (A) (A) (A) (A) (A) (A) (A) (A) (A) (A) (A) (A)
                 (A) (A) (A) (A) (A) (A) (A) (A) (A) (A) (A) (A)
                 (A) (A) (A) (A) (A) (A) (A) (A) (A) (A) (A) (A)
                 (A) (A) (A) (A) (A) (A) (A) (A) (A) (A) (A) (A)
                 (A) (A) (A) (A) (A) (A) (A) (A) (A) (A) (A) (A)
                 (A) (A) (A) (A) (A) (A) (A) (A) (A) (A) (A) (A)
                 (A) (A) (A) (A) (A) (A) (A) (A) (A) (A) (A) (A)
                 (A) (A) (A) (A) (A) (A) (A) (A) (A) (A) (A) (A)
                 (A) (A) (A) (A) (A) (A) (A) (A) (A) (A) (A) (A)
                 (A) (A) (A) (A) (A) (A) (A) (A) (A) (A) (A) (A)
                 (A) (A) (A) (A) (A) (A) (A) (A) (A) (A) (A) (A)
                 (A) (A) (A) (A) (A) (A) (A) (A) (A) (A) (A) (A)
                 (A) (A) (A) (A) (A) (A) (A) (A) (A) (A) (A) (A)
                 (A) (A) (A) (A) (A) (A) (A) (A) (A) (A) (A) (A)
                 (A) (A) (A) (A) (A) (A) (A) (A) (A) (A) (A) (A)
                 (A) (A) (A) (A) (A) (A) (A) (A) (A) (A) (A) (A)
                 (A) (A) (A) (A) (A) (A) (A) (A) (A) (A) (A) (A)
                 (A) (A) (A) (A) (A) (A) (A) (A) (A) (A) (A) (A)
                 (A) (A) (A) (A) (A) (A) (A) (A) (A) (A) (A) (A)
                 (A) (A) (A) (A) (A) (A) (A) (A) (A) (A) (A) (A)
                 (A) (A) (A) (A) (A) (A) (A) (A) (A) (A) (A) (A)
                 (A) (A) (A) (A) (A) (A) (A) (A) (A) (A) (A) (A)
                 (A) (A) (A) (A) (A) (A) (A) (A) (A) (A) (A) (A)
                 (A) (A) (A) (A) (A) (A) (A) (A) (A) (A) (A) (A)
                 (A) (A) (A) (A) (A) (A) (A) (A) (A) (A) (A) (A)
                 (A) (A) (A) (A) (A) (A) (A) (A) (A) (A) (A) (A)
                 (A) (A) (A) (A) (A) (A) (A) (A) (A) (A) (A) (A)
                 (A) (A) (A) (A) (A) (A) (A) (A) (A) (A)
 The electronic state is 1-A.
 Alpha  occ. eigenvalues --  -88.70433 -88.66395 -18.99319 -18.98273 -18.87932
 Alpha  occ. eigenvalues --  -18.87558 -18.87001 -18.86844 -14.15571 -14.15054
 Alpha  occ. eigenvalues --  -10.08139 -10.06323 -10.06099 -10.05780 -10.05773
 Alpha  occ. eigenvalues --  -10.05680 -10.05179 -10.03702 -10.03373 -10.02577
 Alpha  occ. eigenvalues --  -10.01777 -10.01372 -10.00878 -10.00389 -10.00314
 Alpha  occ. eigenvalues --   -9.97565  -9.97377  -9.97284  -9.95856  -9.95815
 Alpha  occ. eigenvalues --   -9.95550  -9.95371  -9.95186  -9.95075  -9.95025
 Alpha  occ. eigenvalues --   -9.94349  -7.79016  -7.75030  -5.75326  -5.74955
 Alpha  occ. eigenvalues --   -5.74571  -5.71367  -5.70972  -5.70534  -0.91020
 Alpha  occ. eigenvalues --   -0.89691  -0.84477  -0.84367  -0.82394  -0.82103
 Alpha  occ. eigenvalues --   -0.72737  -0.72262  -0.71333  -0.67944  -0.66457
 Alpha  occ. eigenvalues --   -0.61505  -0.59596  -0.59037  -0.58304  -0.56610
 Alpha  occ. eigenvalues --   -0.54539  -0.53640  -0.52813  -0.52534  -0.51635
 Alpha  occ. eigenvalues --   -0.50674  -0.48881  -0.46168  -0.43773  -0.42156
 Alpha  occ. eigenvalues --   -0.42011  -0.41544  -0.40300  -0.39523  -0.38378
 Alpha  occ. eigenvalues --   -0.36304  -0.35532  -0.33872  -0.33558  -0.32211
 Alpha  occ. eigenvalues --   -0.31444  -0.31048  -0.30694  -0.30402  -0.29960
 Alpha  occ. eigenvalues --   -0.28450  -0.28336  -0.27804  -0.27362  -0.26683
 Alpha  occ. eigenvalues --   -0.26060  -0.25569  -0.25297  -0.24556  -0.23843
 Alpha  occ. eigenvalues --   -0.23480  -0.23226  -0.22638  -0.22029  -0.21374
 Alpha  occ. eigenvalues --   -0.21282  -0.20770  -0.20396  -0.20189  -0.19792
 Alpha  occ. eigenvalues --   -0.19237  -0.18999  -0.18873  -0.18228  -0.17739
 Alpha  occ. eigenvalues --   -0.17620  -0.17543  -0.17128  -0.16869  -0.15990
 Alpha  occ. eigenvalues --   -0.15223  -0.14774  -0.14474  -0.12939  -0.11512
 Alpha  occ. eigenvalues --   -0.11166  -0.09236  -0.07410  -0.07140  -0.06956
 Alpha  occ. eigenvalues --   -0.06633  -0.06008  -0.05759  -0.04881  -0.04095
 Alpha  occ. eigenvalues --   -0.03917  -0.03366  -0.01462   0.01023   0.08443
 Alpha virt. eigenvalues --    0.12551   0.13055   0.13790   0.14672   0.16068
 Alpha virt. eigenvalues --    0.16544   0.16750   0.16818   0.17068   0.17429
 Alpha virt. eigenvalues --    0.17788   0.18054   0.18754   0.19177   0.19261
 Alpha virt. eigenvalues --    0.19462   0.19554   0.20125   0.20272   0.20607
 Alpha virt. eigenvalues --    0.20915   0.21097   0.21230   0.21240   0.21257
 Alpha virt. eigenvalues --    0.21529   0.22261   0.22704   0.22861   0.22978
 Alpha virt. eigenvalues --    0.23253   0.23691   0.23836   0.24195   0.24546
 Alpha virt. eigenvalues --    0.24633   0.24841   0.25584   0.25710   0.25875
 Alpha virt. eigenvalues --    0.26103   0.26236   0.26450   0.26616   0.26660
 Alpha virt. eigenvalues --    0.27190   0.27446   0.27497   0.28092   0.28630
 Alpha virt. eigenvalues --    0.28696   0.29002   0.29175   0.29319   0.29491
 Alpha virt. eigenvalues --    0.29640   0.29971   0.30158   0.30248   0.31158
 Alpha virt. eigenvalues --    0.31309   0.31545   0.31684   0.31852   0.32100
 Alpha virt. eigenvalues --    0.32638   0.32713   0.32820   0.33209   0.33264
 Alpha virt. eigenvalues --    0.33808   0.33977   0.34134   0.34393   0.34554
 Alpha virt. eigenvalues --    0.34879   0.35074   0.35131   0.35511   0.35555
 Alpha virt. eigenvalues --    0.35642   0.36029   0.36127   0.36530   0.36841
 Alpha virt. eigenvalues --    0.37047   0.37196   0.37332   0.37543   0.37841
 Alpha virt. eigenvalues --    0.37993   0.38305   0.38565   0.38715   0.38921
 Alpha virt. eigenvalues --    0.39211   0.39412   0.39511   0.39633   0.39895
 Alpha virt. eigenvalues --    0.40322   0.40618   0.41192   0.41430   0.41656
 Alpha virt. eigenvalues --    0.41767   0.41902   0.42185   0.42376   0.42695
 Alpha virt. eigenvalues --    0.42881   0.42966   0.43429   0.43533   0.43661
 Alpha virt. eigenvalues --    0.43850   0.44228   0.44418   0.44580   0.45032
 Alpha virt. eigenvalues --    0.45137   0.45281   0.45598   0.45616   0.45909
 Alpha virt. eigenvalues --    0.46149   0.46504   0.46645   0.46828   0.47013
 Alpha virt. eigenvalues --    0.47249   0.47424   0.47525   0.47878   0.48084
 Alpha virt. eigenvalues --    0.48350   0.48455   0.48830   0.48966   0.49174
 Alpha virt. eigenvalues --    0.49417   0.49790   0.49897   0.49980   0.50149
 Alpha virt. eigenvalues --    0.50458   0.50682   0.51152   0.51503   0.51629
 Alpha virt. eigenvalues --    0.51784   0.52080   0.52356   0.52435   0.53019
 Alpha virt. eigenvalues --    0.53169   0.53251   0.53600   0.53985   0.54318
 Alpha virt. eigenvalues --    0.54412   0.54993   0.55304   0.55638   0.56007
 Alpha virt. eigenvalues --    0.56322   0.56671   0.57221   0.57476   0.57994
 Alpha virt. eigenvalues --    0.58230   0.58663   0.59255   0.59677   0.60109
 Alpha virt. eigenvalues --    0.60189   0.60722   0.60898   0.61016   0.61629
 Alpha virt. eigenvalues --    0.61676   0.62482   0.62865   0.63048   0.63222
 Alpha virt. eigenvalues --    0.63898   0.64128   0.64544   0.64685   0.65090
 Alpha virt. eigenvalues --    0.65359   0.65527   0.65688   0.66265   0.66674
 Alpha virt. eigenvalues --    0.67490   0.67793   0.68190   0.68889   0.69401
 Alpha virt. eigenvalues --    0.70539   0.71156   0.71682   0.71738   0.72448
 Alpha virt. eigenvalues --    0.72955   0.73474   0.73725   0.74132   0.74347
 Alpha virt. eigenvalues --    0.74733   0.75474   0.75733   0.76327   0.76488
 Alpha virt. eigenvalues --    0.76845   0.76997   0.77320   0.78020   0.78293
 Alpha virt. eigenvalues --    0.78655   0.78690   0.78887   0.79686   0.80226
 Alpha virt. eigenvalues --    0.80292   0.80633   0.80921   0.81112   0.81431
 Alpha virt. eigenvalues --    0.82008   0.82207   0.82550   0.83215   0.83790
 Alpha virt. eigenvalues --    0.84327   0.84477   0.84994   0.85153   0.85383
 Alpha virt. eigenvalues --    0.85785   0.86155   0.86553   0.86857   0.87325
 Alpha virt. eigenvalues --    0.87769   0.88220   0.88602   0.89172   0.89365
 Alpha virt. eigenvalues --    0.89646   0.89938   0.90261   0.90853   0.90868
 Alpha virt. eigenvalues --    0.92239   0.92488   0.92836   0.93418   0.93453
 Alpha virt. eigenvalues --    0.93932   0.94056   0.94542   0.95035   0.95265
 Alpha virt. eigenvalues --    0.95370   0.95960   0.96511   0.96689   0.97036
 Alpha virt. eigenvalues --    0.97619   0.97862   0.98622   0.98847   0.99025
 Alpha virt. eigenvalues --    0.99268   0.99442   1.00073   1.00915   1.01203
 Alpha virt. eigenvalues --    1.01693   1.01795   1.02861   1.03895   1.04663
 Alpha virt. eigenvalues --    1.05426   1.05988   1.06375   1.07063   1.07745
 Alpha virt. eigenvalues --    1.08309   1.08716   1.09442   1.10319   1.10897
 Alpha virt. eigenvalues --    1.11118   1.11903   1.12153   1.12825   1.13954
 Alpha virt. eigenvalues --    1.14177   1.14637   1.15484   1.15680   1.16405
 Alpha virt. eigenvalues --    1.16699   1.17051   1.17446   1.17949   1.18127
 Alpha virt. eigenvalues --    1.18527   1.18919   1.19340   1.19734   1.19899
 Alpha virt. eigenvalues --    1.20347   1.20660   1.21297   1.21406   1.21593
 Alpha virt. eigenvalues --    1.21884   1.22538   1.23346   1.23453   1.24172
 Alpha virt. eigenvalues --    1.24620   1.24764   1.25214   1.25582   1.26026
 Alpha virt. eigenvalues --    1.26563   1.26891   1.27341   1.27398   1.28144
 Alpha virt. eigenvalues --    1.28870   1.29215   1.29579   1.30566   1.31326
 Alpha virt. eigenvalues --    1.31974   1.32796   1.33095   1.33626   1.34124
 Alpha virt. eigenvalues --    1.34990   1.35733   1.36672   1.36923   1.37202
 Alpha virt. eigenvalues --    1.37422   1.38081   1.39233   1.39328   1.40314
 Alpha virt. eigenvalues --    1.41025   1.41098   1.42153   1.43208   1.43385
 Alpha virt. eigenvalues --    1.43924   1.44666   1.45010   1.46793   1.47141
 Alpha virt. eigenvalues --    1.47918   1.48482   1.49159   1.50140   1.50837
 Alpha virt. eigenvalues --    1.51130   1.51845   1.52225   1.52366   1.52670
 Alpha virt. eigenvalues --    1.54264   1.54806   1.55548   1.56372   1.57124
 Alpha virt. eigenvalues --    1.57580   1.58209   1.58879   1.59604   1.60880
 Alpha virt. eigenvalues --    1.61409   1.62171   1.62216   1.62572   1.62938
 Alpha virt. eigenvalues --    1.63805   1.64481   1.64969   1.65432   1.66213
 Alpha virt. eigenvalues --    1.66669   1.67622   1.68047   1.69073   1.69477
 Alpha virt. eigenvalues --    1.70086   1.70657   1.70977   1.71324   1.71612
 Alpha virt. eigenvalues --    1.72413   1.72583   1.73765   1.74197   1.74285
 Alpha virt. eigenvalues --    1.74849   1.75320   1.76123   1.76427   1.76623
 Alpha virt. eigenvalues --    1.77423   1.77701   1.78556   1.79026   1.79754
 Alpha virt. eigenvalues --    1.80267   1.80887   1.81245   1.82131   1.82787
 Alpha virt. eigenvalues --    1.83227   1.83435   1.83976   1.84713   1.85174
 Alpha virt. eigenvalues --    1.85775   1.86420   1.87265   1.87798   1.88183
 Alpha virt. eigenvalues --    1.88767   1.89434   1.91024   1.91134   1.92212
 Alpha virt. eigenvalues --    1.92465   1.92811   1.93273   1.93988   1.94787
 Alpha virt. eigenvalues --    1.95315   1.95724   1.96430   1.96522   1.97344
 Alpha virt. eigenvalues --    1.97491   1.98741   1.99693   2.00367   2.00834
 Alpha virt. eigenvalues --    2.01335   2.01531   2.02386   2.04430   2.04921
 Alpha virt. eigenvalues --    2.05467   2.06542   2.07172   2.08340   2.08774
 Alpha virt. eigenvalues --    2.09559   2.10680   2.11007   2.11249   2.12063
 Alpha virt. eigenvalues --    2.13220   2.13408   2.13952   2.14397   2.14622
 Alpha virt. eigenvalues --    2.15491   2.16560   2.16808   2.18041   2.18375
 Alpha virt. eigenvalues --    2.18911   2.19426   2.20202   2.20526   2.21635
 Alpha virt. eigenvalues --    2.21939   2.22181   2.23275   2.23747   2.23985
 Alpha virt. eigenvalues --    2.24310   2.25179   2.25488   2.25992   2.26455
 Alpha virt. eigenvalues --    2.27034   2.27525   2.28348   2.28616   2.29501
 Alpha virt. eigenvalues --    2.30090   2.31478   2.32308   2.32588   2.33364
 Alpha virt. eigenvalues --    2.34315   2.35606   2.36098   2.37170   2.37259
 Alpha virt. eigenvalues --    2.38430   2.39753   2.40328   2.41074   2.41735
 Alpha virt. eigenvalues --    2.42576   2.43439   2.44522   2.45215   2.46268
 Alpha virt. eigenvalues --    2.47946   2.49687   2.50393   2.53811   2.55321
 Alpha virt. eigenvalues --    2.55810   2.57165   2.58149   2.59098   2.59711
 Alpha virt. eigenvalues --    2.60452   2.60692   2.61682   2.61771   2.62606
 Alpha virt. eigenvalues --    2.63701   2.64786   2.65411   2.65802   2.66553
 Alpha virt. eigenvalues --    2.67001   2.67749   2.69348   2.70003   2.70196
 Alpha virt. eigenvalues --    2.70761   2.71576   2.71940   2.72089   2.72819
 Alpha virt. eigenvalues --    2.73036   2.73976   2.75688   2.76847   2.78163
 Alpha virt. eigenvalues --    2.79881   2.80351   2.80730   2.81609   2.81862
 Alpha virt. eigenvalues --    2.84214   2.85382   2.86036   2.87210   2.87445
 Alpha virt. eigenvalues --    2.87975   2.89398   2.89877   2.90569   2.91464
 Alpha virt. eigenvalues --    2.91765   2.92596   2.93668   2.94239   2.94509
 Alpha virt. eigenvalues --    2.95274   2.95730   2.95920   2.97287   2.98107
 Alpha virt. eigenvalues --    2.99786   2.99981   3.00393   3.01160   3.03091
 Alpha virt. eigenvalues --    3.03971   3.04647   3.05068   3.05982   3.07066
 Alpha virt. eigenvalues --    3.08001   3.08794   3.09563   3.10233   3.11332
 Alpha virt. eigenvalues --    3.11926   3.12136   3.13023   3.13683   3.13963
 Alpha virt. eigenvalues --    3.14609   3.14755   3.16425   3.16800   3.17746
 Alpha virt. eigenvalues --    3.18423   3.19168   3.20208   3.20778   3.21375
 Alpha virt. eigenvalues --    3.23476   3.24290   3.24526   3.27444   3.29160
 Alpha virt. eigenvalues --    3.30816   3.31282   3.31998   3.32570   3.33744
 Alpha virt. eigenvalues --    3.35970   3.36852   3.37609   3.38538   3.39415
 Alpha virt. eigenvalues --    3.40987   3.41323   3.42281   3.42658   3.43778
 Alpha virt. eigenvalues --    3.46358   3.48414   3.48799   3.49920   3.50042
 Alpha virt. eigenvalues --    3.52407   3.53685   3.54634   3.57816   3.58108
 Alpha virt. eigenvalues --    3.58296   3.58603   3.58891   3.59653   3.61510
 Alpha virt. eigenvalues --    3.63271   3.63788   3.65428   3.66988   3.67999
 Alpha virt. eigenvalues --    3.69062   3.69523   3.71482   3.73418   3.73790
 Alpha virt. eigenvalues --    3.76265   3.78332   3.81977   3.83095   3.84887
 Alpha virt. eigenvalues --    3.87683   3.89198   3.89642   3.91399   3.91625
 Alpha virt. eigenvalues --    3.92061   3.92632   3.93399   3.93764   3.95328
 Alpha virt. eigenvalues --    3.98488   3.99074   4.02460   4.05687   4.06314
 Alpha virt. eigenvalues --    4.09008   4.13658   4.15346   4.16056   4.17158
 Alpha virt. eigenvalues --    4.17221   4.21806   4.22957   4.25653   4.26351
 Alpha virt. eigenvalues --    4.27864   4.29769   4.32791   4.37513   4.41523
 Alpha virt. eigenvalues --    4.45072   4.49962   4.52464   4.60452   4.65451
 Alpha virt. eigenvalues --    4.66413   4.75741   4.95672   5.09824   5.10264
 Alpha virt. eigenvalues --    5.11970   5.13367   5.19037   5.20903   5.27724
 Alpha virt. eigenvalues --    5.29467   5.29615   5.31592   5.35277   5.37577
 Alpha virt. eigenvalues --    5.48806   5.51115   5.53339   5.60234   5.60996
 Alpha virt. eigenvalues --    5.63441   5.94630   5.98637   6.00027   6.04465
 Alpha virt. eigenvalues --    6.06197   6.09596   8.20610   8.26296  17.46904
 Alpha virt. eigenvalues --   17.52592  17.67978  17.70822  17.80290  17.84787
 Alpha virt. eigenvalues --   23.72281  23.79149  23.92674  24.01072  24.04327
 Alpha virt. eigenvalues --   24.06024  24.07322  24.07823  24.09312  24.11161
 Alpha virt. eigenvalues --   24.11844  24.12301  24.13595  24.15042  24.15949
 Alpha virt. eigenvalues --   24.19919  24.20889  24.21548  24.22922  24.24151
 Alpha virt. eigenvalues --   24.26123  24.31212  24.31951  24.36412  24.39505
 Alpha virt. eigenvalues --   24.40055  35.79517  35.83071  50.13989  50.16683
 Alpha virt. eigenvalues --   50.26646  50.29079  50.30541  50.32706 189.38119
 Alpha virt. eigenvalues --  189.44296
          Condensed to atoms (all electrons):
 Mulliken charges:
               1
     1  C    0.266329
     2  C   -0.050992
     3  C    0.169152
     4  C    0.232812
     5  C    0.200630
     6  C   -0.006289
     7  C    0.157777
     8  C    0.034898
     9  C    0.039676
    10  C   -0.125887
    11  C    0.039277
    12  C    0.181216
    13  C   -0.444207
    14  C   -0.705088
    15  H    0.099858
    16  H    0.104218
    17  H    0.129193
    18  N   -0.192650
    19  N   -0.134305
    20  O   -0.405550
    21  O   -0.394410
    22  O   -0.395323
    23  O   -0.368731
    24  C   -0.198969
    25  H    0.136629
    26  H    0.136956
    27  H    0.162799
    28  C   -0.186802
    29  H    0.139237
    30  H    0.136020
    31  H    0.155557
    32  C   -0.328643
    33  C   -0.267501
    34  S   -0.798316
    35  C   -0.262509
    36  H    0.225155
    37  C    0.596248
    38  O   -0.136493
    39  C    0.917585
    40  C   -0.240390
    41  C   -0.031579
    42  S   -0.299188
    43  H    0.124339
    44  H    0.148664
    45  H    0.143655
    46  C   -0.610243
    47  O   -0.095920
    48  C   -0.358204
    49  H    0.093875
    50  C   -0.243872
    51  H    0.113717
    52  H    0.116172
    53  H    0.164051
    54  H    0.116368
 Sum of Mulliken charges =  -2.00000
 Mulliken charges with hydrogens summed into heavy atoms:
               1
     1  C    0.266329
     2  C   -0.050992
     3  C    0.169152
     4  C    0.232812
     5  C    0.200630
     6  C    0.122903
     7  C    0.157777
     8  C    0.034898
     9  C    0.039676
    10  C   -0.125887
    11  C    0.039277
    12  C    0.181216
    13  C   -0.339989
    14  C   -0.605230
    18  N   -0.192650
    19  N   -0.134305
    20  O   -0.405550
    21  O   -0.394410
    22  O   -0.395323
    23  O   -0.368731
    24  C    0.237415
    28  C    0.244011
    32  C   -0.328643
    33  C   -0.042346
    34  S   -0.798316
    35  C   -0.262509
    37  C    0.596248
    38  O   -0.136493
    39  C    0.917585
    40  C    0.176267
    41  C   -0.031579
    42  S   -0.299188
    46  C   -0.516368
    47  O   -0.095920
    48  C   -0.244487
    50  C    0.152719
 Electronic spatial extent (au):  <R**2>=          22642.1358
 Charge=             -2.0000 electrons
 Dipole moment (field-independent basis, Debye):
    X=             14.6712    Y=             -0.3712    Z=              0.2461  Tot=             14.6780
 Quadrupole moment (field-independent basis, Debye-Ang):
   XX=           -425.9728   YY=           -295.1074   ZZ=           -236.4644
   XY=             -2.3044   XZ=             -6.3635   YZ=              7.8455
 Traceless Quadrupole moment (field-independent basis, Debye-Ang):
   XX=           -106.7913   YY=             24.0742   ZZ=             82.7171
   XY=             -2.3044   XZ=             -6.3635   YZ=              7.8455
 Octapole moment (field-independent basis, Debye-Ang**2):
  XXX=            458.5227  YYY=            -27.2189  ZZZ=              3.7870  XYY=            296.4414
  XXY=             -5.4519  XXZ=             42.4423  XZZ=             -2.6731  YZZ=              0.1658
  YYZ=             -1.6033  XYZ=             -8.7390
 Hexadecapole moment (field-independent basis, Debye-Ang**3):
 XXXX=         -29119.0179 YYYY=          -9832.5890 ZZZZ=           -418.5311 XXXY=           -414.8649
 XXXZ=           -207.6954 YYYX=            212.3997 YYYZ=            151.9192 ZZZX=             -7.9652
 ZZZY=              4.2230 XXYY=          -6440.2143 XXZZ=          -4040.0821 YYZZ=          -1582.9261
 XXYZ=            113.8594 YYXZ=            -96.7937 ZZXY=             41.0925
 N-N= 4.092738311711D+03 E-N=-1.378494108281D+04  KE= 2.352696998253D+03
 Calling FoFJK, ICntrl=      2127 FMM=F ISym2X=0 I1Cent= 0 IOpClX= 0 NMat=1 NMatS=1 NMatT=0.
 ***** Axes restored to original set *****
 -------------------------------------------------------------------
 Center     Atomic                   Forces (Hartrees/Bohr)
 Number     Number              X              Y              Z
 -------------------------------------------------------------------
      1        6          -0.001330172    0.041555901    0.006397389
      2        6          -0.020785393   -0.029861182   -0.003776168
      3        6          -0.005467661   -0.006558369   -0.000982243
      4        6           0.015191142   -0.035059310   -0.005216410
      5        6           0.023907718    0.036926746    0.004617363
      6        6           0.025428554    0.030855835   -0.000186426
      7        6           0.001690677    0.008152974    0.000662585
      8        6          -0.013248875    0.045311494    0.014405108
      9        6           0.019915863   -0.044413147   -0.004217084
     10        6          -0.035505134   -0.047288283   -0.011571221
     11        6           0.006709057   -0.043764960   -0.007290564
     12        6           0.025631196    0.029344032    0.004867913
     13        6          -0.029719695   -0.028900546   -0.004030503
     14        6          -0.015098601    0.038784600    0.006029312
     15        1          -0.000090997    0.000882611    0.000142205
     16        1          -0.000041595   -0.000956212   -0.000237143
     17        1          -0.001356329   -0.000180211    0.001944726
     18        7           0.001335077    0.003484299   -0.000520547
     19        7          -0.002097399   -0.004274215   -0.000802378
     20        8           0.014756894   -0.024340316   -0.003499886
     21        8          -0.027438058   -0.016520977   -0.001780479
     22        8          -0.018602939    0.026211197    0.004407904
     23        8          -0.006896291    0.045492771    0.014613107
     24        6          -0.001295625   -0.004806125   -0.002311568
     25        1           0.000983786    0.000702175    0.000505976
     26        1           0.000365004    0.000435381    0.000771212
     27        1          -0.000914472   -0.000353212   -0.000045156
     28        6           0.000653894    0.005875650    0.000241534
     29        1           0.000518826   -0.000956032    0.000271043
     30        1           0.000670819   -0.001191117   -0.000083417
     31        1          -0.000602928    0.000695520    0.000168074
     32        6          -0.014688784    0.001944730   -0.001893322
     33        6           0.039958963   -0.003179332   -0.002362698
     34       16          -0.002860384   -0.002823423   -0.001862781
     35        6          -0.011726966   -0.020941660   -0.003628820
     36        1           0.009070303   -0.011745962   -0.004433951
     37        6           0.018404402    0.005625346   -0.000997711
     38        8           0.006215679    0.010332579    0.003998461
     39        6          -0.014040835    0.002402333    0.002780096
     40        6          -0.000994960   -0.002913806   -0.002139112
     41        6           0.014217875    0.003890762   -0.000534483
     42       16          -0.001927591    0.002413011    0.001153895
     43        1           0.001446837    0.000249489   -0.000005470
     44        1          -0.000385526   -0.001320030    0.001726010
     45        1          -0.000482281    0.000370274   -0.001554045
     46        6          -0.007325821   -0.000663739    0.001415086
     47        8          -0.004794043   -0.015356506   -0.005445064
     48        6           0.014832464   -0.001282537   -0.002939421
     49        1           0.000263200    0.000013241   -0.000066677
     50        6          -0.002553529    0.007991249    0.004519872
     51        1          -0.000795387   -0.000123374   -0.000239554
     52        1           0.000614876   -0.000270670   -0.000027198
     53        1          -0.000507293    0.000106593    0.000136387
     54        1           0.000792455   -0.000005543   -0.001093757
 -------------------------------------------------------------------
 Cartesian Forces:  Max     0.047288283 RMS     0.014381760

 GradGradGradGradGradGradGradGradGradGradGradGradGradGradGradGradGradGrad
 Berny optimization.
 FormGI is forming the generalized inverse of G from B-inverse, IUseBI=4.
 Internal  Forces:  Max     0.129820685 RMS     0.017042409
 Search for a local minimum.
 Step number   1 out of a maximum of  307
 All quantities printed in internal units (Hartrees-Bohrs-Radians)
 Mixed Optimization -- RFO/linear search
 Second derivative matrix not updated -- first step.
 ITU=  0
     Eigenvalues ---    0.00803   0.00803   0.01176   0.01203   0.01245
     Eigenvalues ---    0.01292   0.01308   0.01311   0.01362   0.01386
     Eigenvalues ---    0.01419   0.01429   0.01457   0.01496   0.01515
     Eigenvalues ---    0.01568   0.01576   0.01577   0.01614   0.01651
     Eigenvalues ---    0.01692   0.01709   0.01711   0.01719   0.01754
     Eigenvalues ---    0.01783   0.01803   0.01847   0.01966   0.02040
     Eigenvalues ---    0.02045   0.02066   0.02078   0.02083   0.02135
     Eigenvalues ---    0.02149   0.02163   0.02176   0.02197   0.02222
     Eigenvalues ---    0.02232   0.02251   0.07556   0.07572   0.07690
     Eigenvalues ---    0.07700   0.10063   0.10067   0.10634   0.10637
     Eigenvalues ---    0.15983   0.15999   0.15999   0.16000   0.16000
     Eigenvalues ---    0.16000   0.16000   0.16000   0.16000   0.16000
     Eigenvalues ---    0.16000   0.16000   0.16000   0.16000   0.16000
     Eigenvalues ---    0.16000   0.16000   0.16000   0.22530   0.22583
     Eigenvalues ---    0.23518   0.23582   0.24516   0.24747   0.24865
     Eigenvalues ---    0.24931   0.24952   0.24985   0.24987   0.24988
     Eigenvalues ---    0.24992   0.24994   0.24997   0.24997   0.24998
     Eigenvalues ---    0.24998   0.25000   0.25000   0.25000   0.25000
     Eigenvalues ---    0.25000   0.25000   0.25000   0.25000   0.25000
     Eigenvalues ---    0.25000   0.28820   0.28921   0.30100   0.32136
     Eigenvalues ---    0.32582   0.32774   0.33111   0.33787   0.33980
     Eigenvalues ---    0.34040   0.34051   0.34131   0.34354   0.34466
     Eigenvalues ---    0.34577   0.34629   0.34693   0.34840   0.34930
     Eigenvalues ---    0.35198   0.35218   0.35468   0.35553   0.35582
     Eigenvalues ---    0.35807   0.35882   0.36078   0.36083   0.36249
     Eigenvalues ---    0.36396   0.36662   0.39352   0.40155   0.40194
     Eigenvalues ---    0.40651   0.40750   0.41524   0.41731   0.41993
     Eigenvalues ---    0.42300   0.42695   0.43455   0.43902   0.44092
     Eigenvalues ---    0.44594   0.44599   0.45014   0.45406   0.46251
     Eigenvalues ---    0.47305   0.47574   0.49310   0.49603   0.52959
     Eigenvalues ---    0.53116   0.93281   0.93432   0.93989   0.94585
     Eigenvalues --- 1000.000001000.000001000.000001000.000001000.00000
     Eigenvalues --- 1000.000001000.000001000.000001000.000001000.00000
     Eigenvalues --- 1000.000001000.000001000.000001000.000001000.00000
     Eigenvalues --- 1000.000001000.000001000.000001000.000001000.00000
     Eigenvalues --- 1000.000001000.000001000.000001000.000001000.00000
     Eigenvalues --- 1000.000001000.000001000.000001000.000001000.00000
     Eigenvalues --- 1000.000001000.000001000.000001000.000001000.00000
     Eigenvalues --- 1000.000001000.000001000.000001000.000001000.00000
     Eigenvalues --- 1000.000001000.000001000.000001000.000001000.00000
     Eigenvalues --- 1000.000001000.000001000.000001000.000001000.00000
     Eigenvalues --- 1000.000001000.000001000.000001000.000001000.00000
     Eigenvalues --- 1000.000001000.000001000.000001000.000001000.00000
     Eigenvalues --- 1000.000001000.000001000.000001000.000001000.00000
     Eigenvalues --- 1000.000001000.000001000.000001000.000001000.00000
     Eigenvalues --- 1000.000001000.000001000.000001000.000001000.00000
     Eigenvalues --- 1000.000001000.000001000.000001000.000001000.00000
     Eigenvalues --- 1000.000001000.000001000.000001000.000001000.00000
     Eigenvalues --- 1000.000001000.000001000.000001000.000001000.00000
     Eigenvalues --- 1000.000001000.000001000.000001000.000001000.00000
     Eigenvalues --- 1000.000001000.000001000.000001000.000001000.00000
     Eigenvalues --- 1000.000001000.000001000.000001000.000001000.00000
     Eigenvalues --- 1000.000001000.000001000.000001000.000001000.00000
     Eigenvalues --- 1000.000001000.000001000.000001000.000001000.00000
     Eigenvalues --- 1000.000001000.000001000.000001000.000001000.00000
     Eigenvalues --- 1000.000001000.000001000.000001000.000001000.00000
     Eigenvalues --- 1000.000001000.000001000.000001000.000001000.00000
     Eigenvalues --- 1000.000001000.000001000.000001000.000001000.00000
     Eigenvalues --- 1000.000001000.000001000.000001000.000001000.00000
     Eigenvalues --- 1000.000001000.00000
 RFO step:  Lambda=-1.82588433D-01 EMin= 8.02933640D-03
 Linear search not attempted -- first point.
 Maximum step size (   0.300) exceeded in Quadratic search.
    -- Step size scaled by   0.478
 Iteration  1 RMS(Cart)=  0.29227092 RMS(Int)=  0.00654176
 Iteration  2 RMS(Cart)=  0.07924164 RMS(Int)=  0.00040140
 Iteration  3 RMS(Cart)=  0.00138974 RMS(Int)=  0.00005029
 Iteration  4 RMS(Cart)=  0.00000019 RMS(Int)=  0.00005029
 Iteration  1 RMS(Cart)=  0.00001365 RMS(Int)=  0.00000243
 Iteration  2 RMS(Cart)=  0.00000775 RMS(Int)=  0.00000271
 Iteration  3 RMS(Cart)=  0.00000440 RMS(Int)=  0.00000307
 Iteration  4 RMS(Cart)=  0.00000250 RMS(Int)=  0.00000333
 Iteration  5 RMS(Cart)=  0.00000142 RMS(Int)=  0.00000348
 Iteration  6 RMS(Cart)=  0.00000080 RMS(Int)=  0.00000357
 Variable       Old X    -DE/DX   Delta X   Delta X   Delta X     New X
                                 (Linear)    (Quad)   (Total)
    R1        2.80935  -0.01910   0.00000  -0.01786  -0.01785   2.79150
    R2        2.64584   0.00046   0.00000   0.00012   0.00012   2.64596
    R3        2.31147   0.02780   0.00000   0.01184   0.01184   2.32331
    R4        2.67311  -0.00641   0.00000  -0.00657  -0.00662   2.66650
    R5        2.59267   0.00504   0.00000   0.00138   0.00135   2.59402
    R6        2.66894   0.00943   0.00000   0.00762   0.00761   2.67655
    R7        2.69164   0.01683   0.00000   0.01535   0.01536   2.70701
    R8        2.81049  -0.01990   0.00000  -0.01795  -0.01796   2.79253
    R9        2.62173   0.01822   0.00000   0.01228   0.01223   2.63396
   R10        2.65570  -0.00095   0.00000  -0.00070  -0.00070   2.65500
   R11        2.30889   0.03132   0.00000   0.01327   0.01327   2.32216
   R12        2.70248  -0.02142   0.00000  -0.01828  -0.01826   2.68422
   R13        2.04786  -0.00110   0.00000  -0.00098  -0.00098   2.04688
   R14        2.70495   0.04304   0.00000   0.03918   0.03929   2.74424
   R15        2.68322   0.01840   0.00000   0.01643   0.01643   2.69965
   R16        2.68655   0.10136   0.00000   0.08169   0.08175   2.76830
   R17        2.81233   0.00885   0.00000   0.00905   0.00917   2.82150
   R18        2.76359   0.03865   0.00000   0.03363   0.03363   2.79723
   R19        2.66221  -0.00064   0.00000  -0.00151  -0.00148   2.66073
   R20        2.31391   0.01338   0.00000   0.00572   0.00572   2.31963
   R21        2.79415  -0.03774   0.00000  -0.03495  -0.03508   2.75907
   R22        2.63842  -0.01650   0.00000  -0.01390  -0.01398   2.62444
   R23        2.31456   0.03170   0.00000   0.01358   0.01358   2.32815
   R24        2.62448   0.02396   0.00000   0.01730   0.01730   2.64179
   R25        2.64561  -0.03347   0.00000  -0.02607  -0.02611   2.61950
   R26        2.04921  -0.00066   0.00000  -0.00058  -0.00058   2.04863
   R27        2.04741  -0.00020   0.00000  -0.00018  -0.00018   2.04724
   R28        2.77259  -0.00425   0.00000  -0.00374  -0.00374   2.76886
   R29        2.77252  -0.00462   0.00000  -0.00406  -0.00406   2.76846
   R30        2.06176   0.00098   0.00000   0.00089   0.00089   2.06265
   R31        2.06551  -0.00019   0.00000  -0.00017  -0.00017   2.06534
   R32        2.05322   0.00061   0.00000   0.00055   0.00055   2.05377
   R33        2.06368   0.00028   0.00000   0.00026   0.00026   2.06393
   R34        2.06281   0.00083   0.00000   0.00075   0.00075   2.06356
   R35        2.05355   0.00052   0.00000   0.00046   0.00046   2.05402
   R36        2.61070   0.01418   0.00000   0.01051   0.01056   2.62126
   R37        3.33333   0.01477   0.00000   0.01548   0.01552   3.34885
   R38        2.66260   0.00187   0.00000   0.00131   0.00131   2.66391
   R39        2.03694  -0.01510   0.00000  -0.01324  -0.01324   2.02370
   R40        3.30392   0.00157   0.00000   0.00116   0.00113   3.30505
   R41        2.64282  -0.01182   0.00000  -0.00933  -0.00938   2.63344
   R42        2.56992   0.00899   0.00000   0.00604   0.00604   2.57596
   R43        2.71344  -0.00074   0.00000  -0.00061  -0.00061   2.71283
   R44        2.69266  -0.00387   0.00000  -0.00309  -0.00309   2.68958
   R45        2.63379   0.00622   0.00000   0.00454   0.00454   2.63834
   R46        3.32835   0.00462   0.00000   0.00463   0.00463   3.33298
   R47        2.05936   0.00135   0.00000   0.00121   0.00121   2.06057
   R48        2.07262  -0.00132   0.00000  -0.00120  -0.00120   2.07141
   R49        2.07244  -0.00132   0.00000  -0.00121  -0.00121   2.07124
   R50        2.69007  -0.00024   0.00000  -0.00021  -0.00021   2.68985
   R51        2.56845   0.01004   0.00000   0.00672   0.00672   2.57517
   R52        3.26238   0.00621   0.00000   0.00584   0.00584   3.26823
   R53        2.58646   0.00358   0.00000   0.00248   0.00248   2.58894
   R54        2.04384   0.00012   0.00000   0.00011   0.00011   2.04395
   R55        2.68932  -0.00871   0.00000  -0.00691  -0.00691   2.68241
   R56        2.04266  -0.00077   0.00000  -0.00068  -0.00068   2.04198
   R57        2.07364   0.00052   0.00000   0.00047   0.00047   2.07412
   R58        2.05789   0.00036   0.00000   0.00032   0.00032   2.05822
   R59        2.07110   0.00131   0.00000   0.00119   0.00119   2.07229
    A1        2.03797  -0.00253   0.00000  -0.00373  -0.00373   2.03423
    A2        2.14521   0.00941   0.00000   0.01087   0.01087   2.15608
    A3        2.10001  -0.00689   0.00000  -0.00714  -0.00714   2.09287
    A4        2.10395   0.00607   0.00000   0.00841   0.00844   2.11238
    A5        2.08282  -0.00843   0.00000  -0.00669  -0.00666   2.07616
    A6        2.09624   0.00234   0.00000  -0.00175  -0.00181   2.09443
    A7        2.10093  -0.00664   0.00000  -0.00863  -0.00862   2.09231
    A8        2.07104  -0.00074   0.00000  -0.00239  -0.00246   2.06858
    A9        2.11118   0.00739   0.00000   0.01102   0.01108   2.12226
   A10        2.10296   0.00380   0.00000   0.00487   0.00488   2.10784
   A11        2.09911   0.00491   0.00000   0.00502   0.00497   2.10408
   A12        2.08110  -0.00871   0.00000  -0.00989  -0.00985   2.07125
   A13        2.03739  -0.00302   0.00000  -0.00303  -0.00305   2.03434
   A14        2.12972   0.00950   0.00000   0.01034   0.01035   2.14007
   A15        2.11607  -0.00648   0.00000  -0.00731  -0.00730   2.10877
   A16        2.15098   0.03100   0.00000   0.03290   0.03292   2.18390
   A17        2.04399  -0.01655   0.00000  -0.01793  -0.01794   2.02604
   A18        2.08722  -0.01442   0.00000  -0.01496  -0.01498   2.07225
   A19        2.11101   0.01122   0.00000   0.01311   0.01306   2.12407
   A20        2.04385  -0.02543   0.00000  -0.02957  -0.02955   2.01430
   A21        2.12832   0.01421   0.00000   0.01647   0.01649   2.14482
   A22        2.08678  -0.02664   0.00000  -0.02545  -0.02547   2.06132
   A23        2.04738  -0.04523   0.00000  -0.04798  -0.04779   1.99959
   A24        2.14662   0.07202   0.00000   0.07379   0.07361   2.22023
   A25        2.04892  -0.01732   0.00000  -0.01685  -0.01672   2.03220
   A26        2.00754  -0.11256   0.00000  -0.12552  -0.12559   1.88196
   A27        2.22643   0.12982   0.00000   0.14234   0.14227   2.36870
   A28        2.06022   0.01625   0.00000   0.01913   0.01932   2.07954
   A29        2.17370   0.04528   0.00000   0.04942   0.04933   2.22302
   A30        2.04919  -0.06155   0.00000  -0.06859  -0.06868   1.98050
   A31        2.01621  -0.00958   0.00000  -0.01295  -0.01316   2.00305
   A32        2.14188   0.01275   0.00000   0.01526   0.01536   2.15724
   A33        2.12500  -0.00318   0.00000  -0.00234  -0.00224   2.12276
   A34        2.10943   0.00753   0.00000   0.00897   0.00880   2.11823
   A35        2.11468   0.01343   0.00000   0.01634   0.01645   2.13113
   A36        2.05896  -0.02095   0.00000  -0.02530  -0.02525   2.03372
   A37        2.11176   0.00360   0.00000   0.00373   0.00368   2.11544
   A38        2.05670  -0.00105   0.00000  -0.00082  -0.00080   2.05590
   A39        2.11471  -0.00255   0.00000  -0.00291  -0.00289   2.11183
   A40        2.08567  -0.00387   0.00000  -0.00653  -0.00662   2.07905
   A41        2.07549   0.00284   0.00000   0.00452   0.00457   2.08006
   A42        2.12199   0.00104   0.00000   0.00201   0.00206   2.12405
   A43        2.20043   0.01675   0.00000   0.01613   0.01610   2.21653
   A44        2.02023  -0.00723   0.00000  -0.00680  -0.00678   2.01345
   A45        2.06252  -0.00952   0.00000  -0.00933  -0.00932   2.05320
   A46        2.18316   0.00231   0.00000   0.00211   0.00209   2.18525
   A47        2.02959  -0.00048   0.00000  -0.00030  -0.00030   2.02929
   A48        2.07044  -0.00184   0.00000  -0.00180  -0.00179   2.06865
   A49        1.91737   0.00099   0.00000   0.00137   0.00137   1.91875
   A50        1.91808   0.00114   0.00000   0.00160   0.00160   1.91968
   A51        1.87685  -0.00139   0.00000  -0.00194  -0.00193   1.87491
   A52        1.88689  -0.00107   0.00000  -0.00149  -0.00149   1.88540
[...]
 Alpha  occ. eigenvalues --   -0.31332  -0.31144  -0.30791  -0.30556  -0.29874
 Alpha  occ. eigenvalues --   -0.28926  -0.28455  -0.27797  -0.27219  -0.26903
 Alpha  occ. eigenvalues --   -0.26278  -0.25720  -0.25349  -0.25122  -0.24289
 Alpha  occ. eigenvalues --   -0.23619  -0.23054  -0.22725  -0.22492  -0.21523
 Alpha  occ. eigenvalues --   -0.21362  -0.20996  -0.20861  -0.20314  -0.19790
 Alpha  occ. eigenvalues --   -0.19548  -0.19390  -0.19247  -0.18680  -0.18547
 Alpha  occ. eigenvalues --   -0.18140  -0.17708  -0.16853  -0.16418  -0.16126
 Alpha  occ. eigenvalues --   -0.15433  -0.15039  -0.14374  -0.12825  -0.11996
 Alpha  occ. eigenvalues --   -0.11558  -0.09797  -0.08754  -0.07381  -0.07192
 Alpha  occ. eigenvalues --   -0.06671  -0.06209  -0.05762  -0.05281  -0.05118
 Alpha  occ. eigenvalues --   -0.05014  -0.03761  -0.02025   0.00089   0.06279
 Alpha virt. eigenvalues --    0.11817   0.12892   0.14038   0.14597   0.15494
 Alpha virt. eigenvalues --    0.15815   0.16492   0.16650   0.16765   0.17237
 Alpha virt. eigenvalues --    0.17644   0.18044   0.18629   0.18867   0.18954
 Alpha virt. eigenvalues --    0.19278   0.19332   0.19652   0.20033   0.20170
 Alpha virt. eigenvalues --    0.20576   0.20847   0.20975   0.21292   0.21586
 Alpha virt. eigenvalues --    0.21655   0.21896   0.22216   0.22599   0.22755
 Alpha virt. eigenvalues --    0.23197   0.23594   0.23679   0.23844   0.24145
 Alpha virt. eigenvalues --    0.24320   0.24756   0.24905   0.25111   0.25202
 Alpha virt. eigenvalues --    0.25548   0.25740   0.26115   0.26383   0.26514
 Alpha virt. eigenvalues --    0.26631   0.27154   0.27397   0.27772   0.28183
 Alpha virt. eigenvalues --    0.28363   0.28584   0.28621   0.28888   0.29184
 Alpha virt. eigenvalues --    0.29394   0.29615   0.29858   0.30069   0.30378
 Alpha virt. eigenvalues --    0.30725   0.31011   0.31196   0.31597   0.31979
 Alpha virt. eigenvalues --    0.32119   0.32401   0.32726   0.32791   0.33137
 Alpha virt. eigenvalues --    0.33254   0.33296   0.33581   0.33995   0.34023
 Alpha virt. eigenvalues --    0.34365   0.34404   0.34933   0.35016   0.35108
 Alpha virt. eigenvalues --    0.35290   0.35732   0.35831   0.36110   0.36323
 Alpha virt. eigenvalues --    0.36638   0.36740   0.36953   0.37284   0.37679
 Alpha virt. eigenvalues --    0.37778   0.38021   0.38110   0.38447   0.38960
 Alpha virt. eigenvalues --    0.39131   0.39226   0.39618   0.39665   0.39857
 Alpha virt. eigenvalues --    0.40124   0.40323   0.40785   0.40886   0.41089
 Alpha virt. eigenvalues --    0.41412   0.41524   0.41765   0.41965   0.42373
 Alpha virt. eigenvalues --    0.42728   0.42829   0.42935   0.43386   0.43504
 Alpha virt. eigenvalues --    0.43576   0.43696   0.44011   0.44198   0.44528
 Alpha virt. eigenvalues --    0.44589   0.44816   0.45013   0.45261   0.45627
 Alpha virt. eigenvalues --    0.45742   0.45968   0.46172   0.46431   0.46577
 Alpha virt. eigenvalues --    0.46820   0.46868   0.47268   0.47350   0.47540
 Alpha virt. eigenvalues --    0.47711   0.48219   0.48321   0.48550   0.48623
 Alpha virt. eigenvalues --    0.49096   0.49194   0.49308   0.49482   0.49723
 Alpha virt. eigenvalues --    0.49896   0.50121   0.50361   0.50624   0.50923
 Alpha virt. eigenvalues --    0.51178   0.51437   0.51721   0.51824   0.52571
 Alpha virt. eigenvalues --    0.52632   0.52966   0.53022   0.53298   0.53749
 Alpha virt. eigenvalues --    0.53998   0.54176   0.54435   0.54684   0.54984
 Alpha virt. eigenvalues --    0.55491   0.55863   0.55895   0.56207   0.56514
 Alpha virt. eigenvalues --    0.56717   0.57103   0.57632   0.57834   0.58244
 Alpha virt. eigenvalues --    0.58682   0.59246   0.59527   0.59940   0.60044
 Alpha virt. eigenvalues --    0.60137   0.60510   0.61073   0.61391   0.61896
 Alpha virt. eigenvalues --    0.62216   0.62561   0.62845   0.63060   0.63504
 Alpha virt. eigenvalues --    0.63938   0.64591   0.65052   0.65476   0.65639
 Alpha virt. eigenvalues --    0.66300   0.66677   0.67015   0.67382   0.68251
 Alpha virt. eigenvalues --    0.68856   0.69350   0.69687   0.70296   0.70731
 Alpha virt. eigenvalues --    0.71172   0.72068   0.72237   0.72573   0.73025
 Alpha virt. eigenvalues --    0.73242   0.73989   0.74046   0.74413   0.74791
 Alpha virt. eigenvalues --    0.75644   0.76167   0.76276   0.76973   0.77479
 Alpha virt. eigenvalues --    0.77893   0.78033   0.78357   0.78640   0.79338
 Alpha virt. eigenvalues --    0.79694   0.80281   0.80478   0.80776   0.81221
 Alpha virt. eigenvalues --    0.81348   0.81952   0.82322   0.82677   0.83401
 Alpha virt. eigenvalues --    0.83577   0.83773   0.83902   0.84348   0.84590
 Alpha virt. eigenvalues --    0.85342   0.85645   0.86192   0.86595   0.86706
 Alpha virt. eigenvalues --    0.87480   0.87670   0.87803   0.88162   0.88764
 Alpha virt. eigenvalues --    0.88817   0.89377   0.89413   0.90211   0.90524
 Alpha virt. eigenvalues --    0.90676   0.91633   0.91769   0.92033   0.92309
 Alpha virt. eigenvalues --    0.92595   0.93133   0.93507   0.94000   0.94216
 Alpha virt. eigenvalues --    0.94335   0.94700   0.95245   0.95315   0.95667
 Alpha virt. eigenvalues --    0.96224   0.96877   0.97136   0.97482   0.97562
 Alpha virt. eigenvalues --    0.97970   0.98411   0.98947   0.99155   0.99746
 Alpha virt. eigenvalues --    1.00299   1.00556   1.00767   1.01367   1.02316
 Alpha virt. eigenvalues --    1.02992   1.04294   1.04865   1.05324   1.05712
 Alpha virt. eigenvalues --    1.06283   1.06904   1.07472   1.08598   1.09059
 Alpha virt. eigenvalues --    1.09125   1.10146   1.10162   1.10952   1.11064
 Alpha virt. eigenvalues --    1.11979   1.12410   1.13002   1.13596   1.14086
 Alpha virt. eigenvalues --    1.14370   1.15224   1.15679   1.16061   1.16418
 Alpha virt. eigenvalues --    1.16545   1.17070   1.17316   1.17967   1.18645
 Alpha virt. eigenvalues --    1.18800   1.19086   1.19514   1.19923   1.20372
 Alpha virt. eigenvalues --    1.20982   1.21314   1.22104   1.22675   1.22915
 Alpha virt. eigenvalues --    1.22967   1.23314   1.23707   1.24180   1.24942
 Alpha virt. eigenvalues --    1.25265   1.26011   1.26318   1.26491   1.27047
 Alpha virt. eigenvalues --    1.27369   1.28139   1.28655   1.29035   1.30153
 Alpha virt. eigenvalues --    1.30377   1.30518   1.30924   1.31711   1.32273
 Alpha virt. eigenvalues --    1.32789   1.33268   1.33808   1.34117   1.35815
 Alpha virt. eigenvalues --    1.36928   1.37403   1.37904   1.38055   1.39674
 Alpha virt. eigenvalues --    1.40205   1.40842   1.41109   1.42580   1.43177
 Alpha virt. eigenvalues --    1.43453   1.43855   1.44043   1.44589   1.45334
 Alpha virt. eigenvalues --    1.46116   1.46662   1.46896   1.47645   1.47850
 Alpha virt. eigenvalues --    1.49653   1.49926   1.50615   1.51075   1.51324
 Alpha virt. eigenvalues --    1.52126   1.52593   1.52986   1.54052   1.54935
 Alpha virt. eigenvalues --    1.55427   1.56012   1.56706   1.57979   1.58996
 Alpha virt. eigenvalues --    1.59200   1.60256   1.61385   1.61912   1.62503
 Alpha virt. eigenvalues --    1.63280   1.63586   1.64132   1.65307   1.65663
 Alpha virt. eigenvalues --    1.66482   1.66976   1.67585   1.68222   1.69151
 Alpha virt. eigenvalues --    1.69360   1.69431   1.70510   1.70731   1.71050
 Alpha virt. eigenvalues --    1.71281   1.71861   1.72574   1.72980   1.73571
 Alpha virt. eigenvalues --    1.74096   1.74431   1.74527   1.74877   1.75549
 Alpha virt. eigenvalues --    1.76022   1.76340   1.76766   1.77526   1.77974
 Alpha virt. eigenvalues --    1.78953   1.79424   1.79931   1.80566   1.81122
 Alpha virt. eigenvalues --    1.81906   1.82361   1.82446   1.83577   1.83692
 Alpha virt. eigenvalues --    1.84043   1.84672   1.85734   1.86484   1.86991
 Alpha virt. eigenvalues --    1.87534   1.87859   1.88147   1.88920   1.90106
 Alpha virt. eigenvalues --    1.91089   1.91944   1.92258   1.92841   1.93357
 Alpha virt. eigenvalues --    1.94044   1.94278   1.94758   1.94862   1.95865
 Alpha virt. eigenvalues --    1.96012   1.96936   1.97174   1.98649   1.98946
 Alpha virt. eigenvalues --    1.99424   2.00452   2.00950   2.01508   2.02735
 Alpha virt. eigenvalues --    2.03496   2.04482   2.04867   2.05699   2.06792
 Alpha virt. eigenvalues --    2.07084   2.07679   2.08686   2.09838   2.10057
 Alpha virt. eigenvalues --    2.11230   2.11580   2.11807   2.12571   2.13263
 Alpha virt. eigenvalues --    2.13668   2.14110   2.14993   2.15554   2.16425
 Alpha virt. eigenvalues --    2.17109   2.17896   2.18612   2.19289   2.20124
 Alpha virt. eigenvalues --    2.20281   2.21055   2.21833   2.22738   2.23054
 Alpha virt. eigenvalues --    2.23539   2.23725   2.24664   2.25003   2.25634
 Alpha virt. eigenvalues --    2.25850   2.26128   2.26612   2.27043   2.27852
 Alpha virt. eigenvalues --    2.28846   2.29103   2.31070   2.31347   2.31783
 Alpha virt. eigenvalues --    2.32648   2.33271   2.34138   2.34465   2.35478
 Alpha virt. eigenvalues --    2.36870   2.38263   2.39270   2.39702   2.40810
 Alpha virt. eigenvalues --    2.41386   2.42395   2.42834   2.44177   2.45355
 Alpha virt. eigenvalues --    2.46192   2.47633   2.49866   2.50558   2.52291
 Alpha virt. eigenvalues --    2.54258   2.55142   2.56197   2.58198   2.58648
 Alpha virt. eigenvalues --    2.59392   2.60023   2.60306   2.60887   2.61283
 Alpha virt. eigenvalues --    2.62106   2.63079   2.64242   2.64644   2.65999
 Alpha virt. eigenvalues --    2.66617   2.67177   2.68299   2.68981   2.69451
 Alpha virt. eigenvalues --    2.69959   2.70439   2.71182   2.71907   2.72554
 Alpha virt. eigenvalues --    2.72900   2.74474   2.75345   2.76024   2.76921
 Alpha virt. eigenvalues --    2.77825   2.78394   2.80200   2.80362   2.80610
 Alpha virt. eigenvalues --    2.82798   2.82962   2.84465   2.85436   2.85953
 Alpha virt. eigenvalues --    2.87164   2.87463   2.87850   2.88732   2.89291
 Alpha virt. eigenvalues --    2.89502   2.89840   2.90747   2.91671   2.92777
 Alpha virt. eigenvalues --    2.93211   2.94450   2.95369   2.95508   2.96010
 Alpha virt. eigenvalues --    2.97882   2.98775   2.99184   2.99448   3.00491
 Alpha virt. eigenvalues --    3.01745   3.03159   3.03730   3.03763   3.05331
 Alpha virt. eigenvalues --    3.05989   3.06935   3.07825   3.08394   3.09884
 Alpha virt. eigenvalues --    3.10539   3.11204   3.11789   3.12234   3.12942
 Alpha virt. eigenvalues --    3.13539   3.13917   3.14519   3.14838   3.15140
 Alpha virt. eigenvalues --    3.15680   3.17149   3.18665   3.18965   3.19566
 Alpha virt. eigenvalues --    3.20990   3.22764   3.23528   3.25517   3.27180
 Alpha virt. eigenvalues --    3.28613   3.29909   3.30838   3.31561   3.32461
 Alpha virt. eigenvalues --    3.33467   3.34540   3.35394   3.37381   3.38561
 Alpha virt. eigenvalues --    3.38965   3.40220   3.40733   3.41470   3.42511
 Alpha virt. eigenvalues --    3.43744   3.43867   3.45551   3.46141   3.47789
 Alpha virt. eigenvalues --    3.49304   3.50436   3.51440   3.52032   3.55312
 Alpha virt. eigenvalues --    3.55861   3.56127   3.56457   3.56842   3.57979
 Alpha virt. eigenvalues --    3.60186   3.60631   3.61568   3.61920   3.62636
 Alpha virt. eigenvalues --    3.62816   3.64583   3.67422   3.69127   3.70316
 Alpha virt. eigenvalues --    3.72319   3.73063   3.74447   3.80185   3.81652
 Alpha virt. eigenvalues --    3.82135   3.83595   3.86382   3.86859   3.88759
 Alpha virt. eigenvalues --    3.91176   3.91407   3.91856   3.92868   3.93081
 Alpha virt. eigenvalues --    3.93864   3.95183   3.97794   4.00711   4.03701
 Alpha virt. eigenvalues --    4.06718   4.07931   4.12188   4.14537   4.15038
 Alpha virt. eigenvalues --    4.15972   4.17437   4.17820   4.20165   4.20721
 Alpha virt. eigenvalues --    4.25280   4.26556   4.28017   4.32143   4.36011
 Alpha virt. eigenvalues --    4.39302   4.42480   4.48814   4.50855   4.59729
 Alpha virt. eigenvalues --    4.63583   4.64881   4.71614   4.89730   5.03742
 Alpha virt. eigenvalues --    5.06848   5.10070   5.12955   5.20045   5.27580
 Alpha virt. eigenvalues --    5.29519   5.30505   5.33519   5.35079   5.36119
 Alpha virt. eigenvalues --    5.36701   5.47983   5.50293   5.52150   5.54577
 Alpha virt. eigenvalues --    5.55517   5.60881   5.90887   5.96072   5.98295
 Alpha virt. eigenvalues --    6.02065   6.04563   6.06946   8.18395   8.23233
 Alpha virt. eigenvalues --   17.46286  17.51973  17.66808  17.70109  17.78366
 Alpha virt. eigenvalues --   17.83673  23.70143  23.77409  23.89634  23.99313
 Alpha virt. eigenvalues --   24.02862  24.04804  24.07001  24.07618  24.08518
 Alpha virt. eigenvalues --   24.10070  24.11507  24.12937  24.13977  24.14490
 Alpha virt. eigenvalues --   24.15776  24.16422  24.18574  24.20295  24.22484
 Alpha virt. eigenvalues --   24.23171  24.23524  24.25697  24.31922  24.32525
 Alpha virt. eigenvalues --   24.34440  24.41939  35.77909  35.80597  50.12335
 Alpha virt. eigenvalues --   50.15334  50.25211  50.26938  50.28517  50.29663
 Alpha virt. eigenvalues --  189.35932 189.41373
          Condensed to atoms (all electrons):
 Mulliken charges:
               1
     1  C    0.167256
     2  C    0.040428
     3  C    0.162276
     4  C    0.257225
     5  C    0.125083
     6  C    0.120847
     7  C    0.057580
     8  C    0.415653
     9  C    0.192153
    10  C   -0.711550
    11  C    0.116557
    12  C    0.244975
    13  C   -0.491622
    14  C   -0.582161
    15  H    0.103772
    16  H    0.109413
    17  H    0.136127
    18  N   -0.057101
    19  N   -0.130104
    20  O   -0.413473
    21  O   -0.405762
    22  O   -0.424309
    23  O   -0.418413
    24  C   -0.141620
    25  H    0.134939
    26  H    0.131042
    27  H    0.156773
    28  C   -0.179544
    29  H    0.137750
    30  H    0.136381
    31  H    0.156369
    32  C   -0.108258
    33  C    0.015793
    34  S   -1.028785
    35  C   -0.763347
    36  H    0.190291
    37  C    0.325667
    38  O   -0.129559
    39  C    0.385803
    40  C   -0.248638
    41  C    0.169914
    42  S   -0.357206
    43  H    0.128473
    44  H    0.140970
    45  H    0.158147
    46  C   -0.028825
    47  O   -0.135195
    48  C   -0.201643
    49  H    0.092550
    50  C   -0.287424
    51  H    0.119002
    52  H    0.102820
    53  H    0.150892
    54  H    0.161618
 Sum of Mulliken charges =  -2.00000
 Mulliken charges with hydrogens summed into heavy atoms:
               1
     1  C    0.167256
     2  C    0.040428
     3  C    0.162276
     4  C    0.257225
     5  C    0.125083
     6  C    0.256974
     7  C    0.057580
     8  C    0.415653
     9  C    0.192153
    10  C   -0.711550
    11  C    0.116557
    12  C    0.244975
    13  C   -0.382208
    14  C   -0.478388
    18  N   -0.057101
    19  N   -0.130104
    20  O   -0.413473
    21  O   -0.405762
    22  O   -0.424309
    23  O   -0.418413
    24  C    0.281134
    28  C    0.250955
    32  C   -0.108258
    33  C    0.206085
    34  S   -1.028785
    35  C   -0.763347
    37  C    0.325667
    38  O   -0.129559
    39  C    0.385803
    40  C    0.178952
    41  C    0.169914
    42  S   -0.357206
    46  C    0.063725
    47  O   -0.135195
    48  C   -0.082640
    50  C    0.127905
 Electronic spatial extent (au):  <R**2>=          22453.2539
 Charge=             -2.0000 electrons
 Dipole moment (field-independent basis, Debye):
    X=             14.1043    Y=              0.2223    Z=             -1.7365  Tot=             14.2125
 Quadrupole moment (field-independent basis, Debye-Ang):
   XX=           -419.7244   YY=           -307.6272   ZZ=           -242.1317
   XY=              6.4420   XZ=            -17.3099   YZ=              7.2279
 Traceless Quadrupole moment (field-independent basis, Debye-Ang):
   XX=            -96.5633   YY=             15.5339   ZZ=             81.0294
   XY=              6.4420   XZ=            -17.3099   YZ=              7.2279
 Octapole moment (field-independent basis, Debye-Ang**2):
  XXX=            407.5563  YYY=             -8.9043  ZZZ=              2.8801  XYY=            277.0220
  XXY=             44.7316  XXZ=             76.3638  XZZ=              7.7904  YZZ=             -8.2590
  YYZ=            -24.4459  XYZ=             -4.6989
 Hexadecapole moment (field-independent basis, Debye-Ang**3):
 XXXX=         -28293.6030 YYYY=          -9789.0205 ZZZZ=           -644.5160 XXXY=           -259.4851
 XXXZ=           -517.6475 YYYX=            388.6408 YYYZ=            162.0799 ZZZX=            -19.0654
 ZZZY=             -1.2053 XXYY=          -6531.6130 XXZZ=          -4058.4477 YYZZ=          -1656.0162
 XXYZ=             91.3668 YYXZ=           -212.9858 ZZXY=             37.0355
 N-N= 4.089402587842D+03 E-N=-1.377675397336D+04  KE= 2.352089039472D+03
 Unable to Open any file for archive entry.
 1\1\GINC-CX3-2-14\FOpt\RB3LYP\6-311+G(d,p)\C26H18N2O6S2(2-)\NS5018\08-
 Oct-2021\0\\# opt=modredundant b3lyp/6-311+g(d,p)\\NDI_10.pdb\\-2,1\C,
 -2.4994015234,-3.033092158,-0.1312020766\C,-2.1936678047,-1.6287700374
 ,-0.001041834\C,-3.225599927,-0.651027943,-0.0927012619\C,-4.560387998
 9,-1.0289467372,-0.3376112763\C,-4.9096433785,-2.4248374799,-0.4999737
 896\C,-0.8574546365,-1.2196497652,0.1154797983\C,-2.8751290204,0.73791
 42315,0.1053057068\C,-1.51971221,1.1214212521,0.3709047151\C,-0.449679
 4395,0.1036749443,0.2292170118\C,-1.3110198463,2.4441702381,0.88517742
 54\C,-3.6942295409,3.0716226265,0.3573660651\C,-3.9389779659,1.6820897
 703,0.0762876251\C,-5.2773134194,1.2720032736,-0.1999427815\C,-5.58833
 76287,-0.0405319235,-0.4056881103\H,-6.6014189696,-0.3680503222,-0.603
 3056003\H,-6.0346540215,2.0465929495,-0.222623813\H,-0.1228209166,-2.0
 146521677,0.0501865805\N,-2.3883229974,3.3641465189,0.77000987\N,-3.85
 20628576,-3.3511519684,-0.3777433832\O,-1.6765313912,-3.9628486744,-0.
 0535491118\O,-6.0634627907,-2.833970538,-0.726699213\O,-4.5545355592,3
 .9761842451,0.2910114583\O,-0.2809097326,2.8822806766,1.4509283756\C,-
 2.106343791,4.7250741266,1.2134235553\H,-1.8875353688,4.7424186884,2.2
 849546542\H,-1.2258928171,5.1126353561,0.6959875828\H,-2.9859922675,5.
 3252539692,0.9938089094\C,-4.1580477525,-4.7703054241,-0.5192046909\H,
 -3.5933360961,-5.1974258843,-1.3522044228\H,-3.8645573467,-5.310376247
 2,0.3845552308\H,-5.2273451386,-4.8592614152,-0.6933409215\C,0.9551581
 852,0.3692475472,-0.0312871413\C,1.6803500885,1.5554670146,-0.03008700
 67\S,2.0517813535,-0.9660073283,-0.4781099494\C,3.0366727083,1.4042477
 934,-0.3587665385\H,1.2192478619,2.4752313226,0.2895477783\C,3.4546550
 071,0.1073777895,-0.6413581818\O,3.9520604197,2.4260029411,-0.40371034
 38\C,4.7496558027,-0.3490485154,-1.0313089579\C,3.4799524717,3.7291133
 332,-0.0941669497\C,5.1754325773,-1.6307924126,-1.3840018012\S,6.15031
 74723,0.7401320236,-1.1202083087\H,4.3477724673,4.3869056895,-0.165547
 9887\H,2.7124476818,4.0528735387,-0.805378157\H,3.061255758,3.77331807
 26,0.9161258567\C,6.5546540249,-1.7382041006,-1.7004676085\O,4.3391523
 786,-2.7306672737,-1.3762013799\C,7.2219778502,-0.549480894,-1.6114768
 437\H,7.0148392825,-2.6799775099,-1.9754348631\C,3.7572707295,-3.04786
 70228,-2.6410012955\H,8.2645312932,-0.3425217092,-1.7982223382\H,4.531
 3741713,-3.32152527,-3.3706697684\H,3.0926668255,-3.8964626361,-2.4736
 50176\H,3.1720977437,-2.2079465744,-3.027390315\\Version=ES64L-G16RevC
 .01\State=1-A\HF=-2359.3980503\RMSD=3.113e-09\RMSF=5.404e-04\Dipole=5.
 4304174,0.2837326,-1.3024372\Quadrupole=-72.79905,11.5903867,61.208663
 3,5.8326407,4.3127066,-5.7402913\PG=C01 [X(C26H18N2O6S2)]\\@
 The archive entry for this job was punched.


 ERWIN WITH HIS PSI CAN DO
 CALCULATIONS QUITE A FEW.
 BUT ONE THING HAS NOT BEEN SEEN
 JUST WHAT DOES PSI REALLY MEAN.
 -- WALTER HUCKEL, TRANS. BY FELIX BLOCH
 Job cpu time:       4 days 19 hours  0 minutes 54.3 seconds.
 Elapsed time:       0 days 14 hours 28 minutes  6.1 seconds.
 File lengths (MBytes):  RWF=    506 Int=      0 D2E=      0 Chk=     77 Scr=      1
 Normal termination of Gaussian 16 at Fri Oct  8 11:12:46 2021.
