 Entering Gaussian System, Link 0=g16
 Input=NDI_-75.gjf
 Output=NDI_-75.log
 Initial command:
 /apps/gaussian/g16-c01-avx/g16/l1.exe "/tmp/pbs.4643763[100].pbs/Gau-34037.inp" -scrdir="/tmp/pbs.4643763[100].pbs/"
 Entering Link 1 = /apps/gaussian/g16-c01-avx/g16/l1.exe PID=     34042.
  
 Copyright (c) 1988-2019, Gaussian, Inc.  All Rights Reserved.
  
 This is part of the Gaussian(R) 16 program.  It is based on
 the Gaussian(R) 09 system (copyright 2009, Gaussian, Inc.),
 the Gaussian(R) 03 system (copyright 2003, Gaussian, Inc.),
 the Gaussian(R) 98 system (copyright 1998, Gaussian, Inc.),
 the Gaussian(R) 94 system (copyright 1995, Gaussian, Inc.),
 the Gaussian 92(TM) system (copyright 1992, Gaussian, Inc.),
 the Gaussian 90(TM) system (copyright 1990, Gaussian, Inc.),
 the Gaussian 88(TM) system (copyright 1988, Gaussian, Inc.),
 the Gaussian 86(TM) system (copyright 1986, Carnegie Mellon
 University), and the Gaussian 82(TM) system (copyright 1983,
 Carnegie Mellon University). Gaussian is a federally registered
 trademark of Gaussian, Inc.
  
 This software contains proprietary and confidential information,
 including trade secrets, belonging to Gaussian, Inc.
  
 This software is provided under written license and may be
 used, copied, transmitted, or stored only in accord with that
 written license.
  
 The following legend is applicable only to US Government
 contracts under FAR:
  
                    RESTRICTED RIGHTS LEGEND
  
 Use, reproduction and disclosure by the US Government is
 subject to restrictions as set forth in subparagraphs (a)
 and (c) of the Commercial Computer Software - Restricted
 Rights clause in FAR 52.227-19.
  
 Gaussian, Inc.
 340 Quinnipiac St., Bldg. 40, Wallingford CT 06492
  
  
 ---------------------------------------------------------------
 Warning -- This program may not be used in any manner that
 competes with the business of Gaussian, Inc. or will provide
 assistance to any competitor of Gaussian, Inc.  The licensee
 of this program is prohibited from giving any competitor of
 Gaussian, Inc. access to this program.  By using this program,
 the user acknowledges that Gaussian, Inc. is engaged in the
 business of creating and licensing software in the field of
 computational chemistry and represents and warrants to the
 licensee that it is not a competitor of Gaussian, Inc. and that
 it will not use this program in any manner prohibited above.
 ---------------------------------------------------------------
  

 Cite this work as:
 Gaussian 16, Revision C.01,
 M. J. Frisch, G. W. Trucks, H. B. Schlegel, G. E. Scuseria, 
 M. A. Robb, J. R. Cheeseman, G. Scalmani, V. Barone, 
 G. A. Petersson, H. Nakatsuji, X. Li, M. Caricato, A. V. Marenich, 
 J. Bloino, B. G. Janesko, R. Gomperts, B. Mennucci, H. P. Hratchian, 
 J. V. Ortiz, A. F. Izmaylov, J. L. Sonnenberg, D. Williams-Young, 
 F. Ding, F. Lipparini, F. Egidi, J. Goings, B. Peng, A. Petrone, 
 T. Henderson, D. Ranasinghe, V. G. Zakrzewski, J. Gao, N. Rega, 
 G. Zheng, W. Liang, M. Hada, M. Ehara, K. Toyota, R. Fukuda, 
 J. Hasegawa, M. Ishida, T. Nakajima, Y. Honda, O. Kitao, H. Nakai, 
 T. Vreven, K. Throssell, J. A. Montgomery, Jr., J. E. Peralta, 
 F. Ogliaro, M. J. Bearpark, J. J. Heyd, E. N. Brothers, K. N. Kudin, 
 V. N. Staroverov, T. A. Keith, R. Kobayashi, J. Normand, 
 K. Raghavachari, A. P. Rendell, J. C. Burant, S. S. Iyengar, 
 J. Tomasi, M. Cossi, J. M. Millam, M. Klene, C. Adamo, R. Cammi, 
 J. W. Ochterski, R. L. Martin, K. Morokuma, O. Farkas, 
 J. B. Foresman, and D. J. Fox, Gaussian, Inc., Wallingford CT, 2019.
 
 ******************************************
 Gaussian 16:  ES64L-G16RevC.01  3-Jul-2019
                 7-Oct-2021 
 ******************************************
 %mem=10GB
 %nprocshared=8
 Will use up to    8 processors via shared memory.
 -------------------------------------
 # opt=modredundant b3lyp/6-311+g(d,p)
 -------------------------------------
 1/18=120,19=15,26=3,38=1/1,3;
 2/9=110,12=2,17=6,18=5,40=1/2;
 3/5=4,6=6,7=111,11=2,25=1,30=1,71=1,74=-5/1,2,3;
 4//1;
 5/5=2,38=5/2;
 6/7=2,8=2,9=2,10=2,28=1/1;
 7//1,2,3,16;
 1/18=20,19=15,26=3/3(2);
 2/9=110/2;
 99//99;
 2/9=110/2;
 3/5=4,6=6,7=111,11=2,25=1,30=1,71=1,74=-5/1,2,3;
 4/5=5,16=3,69=1/1;
 5/5=2,38=5/2;
 7//1,2,3,16;
 1/18=20,19=15,26=3/3(-5);
 2/9=110/2;
 6/7=2,8=2,9=2,10=2,19=2,28=1/1;
 99/9=1/99;
 -----------
 NDI_-75.pdb
 -----------
 Symbolic Z-matrix:
 Charge = -2 Multiplicity = 1
 C                    -2.563    -2.994    -0.409 
 C                    -2.257    -1.551    -0.224 
 C                    -3.301    -0.607    -0.083 
 C                    -4.65     -1.024    -0.115 
 C                    -4.992    -2.459    -0.304 
 C                    -0.949    -1.137    -0.215 
 C                    -2.962     0.764     0.102 
 C                    -1.595     1.188     0.123 
 C                    -0.561     0.232    -0.072 
 C                    -1.328     2.616     0.446 
 C                    -3.777     3.115     0.508 
 C                    -4.035     1.679     0.268 
 C                    -5.356     1.252     0.23 
 C                    -5.672    -0.098     0.036 
 H                    -6.699    -0.442     0.008 
 H                    -6.133     1.997     0.361 
 H                    -0.19     -1.895    -0.369 
 N                    -2.432     3.476     0.608 
 N                    -3.916    -3.353    -0.438 
 O                    -1.695    -3.847    -0.532 
 O                    -6.149    -2.85     -0.34 
 O                    -4.676     3.938     0.629 
 O                    -0.212     3.097     0.596 
 C                    -2.111     4.875     0.912 
 H                    -1.54      4.931     1.84 
 H                    -1.5       5.299     0.111 
 H                    -3.05      5.414     1.003 
 C                    -4.206    -4.779    -0.625 
 H                    -3.759    -5.126    -1.559 
 H                    -3.775    -5.355     0.196 
 H                    -5.286    -4.897    -0.649 
 C                     0.876     0.482    -0.178 
 C                     1.629     1.006    -1.211 
 S                     1.934    -0.076     1.119 
 C                     3.016     0.969    -0.972 
 H                     1.188     1.411    -2.108 
 C                     3.376     0.418     0.263 
 O                     3.994     1.408    -1.809 
 C                     4.695     0.281     0.812 
 C                     3.589     2.091    -2.992 
 C                     5.053    -0.289     2.032 
 S                     6.144     0.843    -0.017 
 H                     4.507     2.426    -3.474 
 H                     3.045     1.422    -3.67 
 H                     2.959     2.957    -2.753 
 C                     6.453    -0.274     2.294 
 O                     4.083    -0.788     2.842 
 C                     7.157     0.306     1.274 
 H                     6.912    -0.672     3.188 
 C                     4.482    -1.396     4.065 
 H                     8.228     0.445     1.21 
 H                     4.991    -0.676     4.72 
 H                     3.566    -1.736     4.546 
 H                     5.141    -2.254     3.887 
 
 The following ModRedundant input section has been read:
 D       8       9      32      33 F                                           
 

 GradGradGradGradGradGradGradGradGradGradGradGradGradGradGradGradGradGrad
 Berny optimization.
 Initialization pass.
                           ----------------------------
                           !    Initial Parameters    !
                           ! (Angstroms and Degrees)  !
 --------------------------                            --------------------------
 ! Name  Definition              Value          Derivative Info.                !
 --------------------------------------------------------------------------------
 ! R1    R(1,2)                  1.4866         estimate D2E/DX2                !
 ! R2    R(1,19)                 1.4001         estimate D2E/DX2                !
 ! R3    R(1,20)                 1.2232         estimate D2E/DX2                !
 ! R4    R(2,3)                  1.4146         estimate D2E/DX2                !
 ! R5    R(2,6)                  1.372          estimate D2E/DX2                !
 ! R6    R(3,4)                  1.4123         estimate D2E/DX2                !
 ! R7    R(3,7)                  1.4244         estimate D2E/DX2                !
 ! R8    R(4,5)                  1.4872         estimate D2E/DX2                !
 ! R9    R(4,14)                 1.3874         estimate D2E/DX2                !
 ! R10   R(5,19)                 1.4053         estimate D2E/DX2                !
 ! R11   R(5,21)                 1.2218         estimate D2E/DX2                !
 ! R12   R(6,9)                  1.4301         estimate D2E/DX2                !
 ! R13   R(6,17)                 1.0837         estimate D2E/DX2                !
 ! R14   R(7,8)                  1.4314         estimate D2E/DX2                !
 ! R15   R(7,12)                 1.4199         estimate D2E/DX2                !
 ! R16   R(8,9)                  1.4217         estimate D2E/DX2                !
 ! R17   R(8,10)                 1.4882         estimate D2E/DX2                !
 ! R18   R(9,32)                 1.4624         estimate D2E/DX2                !
 ! R19   R(10,18)                1.4088         estimate D2E/DX2                !
 ! R20   R(10,23)                1.2245         estimate D2E/DX2                !
 ! R21   R(11,12)                1.4786         estimate D2E/DX2                !
 ! R22   R(11,18)                1.3962         estimate D2E/DX2                !
 ! R23   R(11,22)                1.2248         estimate D2E/DX2                !
 ! R24   R(12,13)                1.3888         estimate D2E/DX2                !
 ! R25   R(13,14)                1.4            estimate D2E/DX2                !
 ! R26   R(13,16)                1.0844         estimate D2E/DX2                !
 ! R27   R(14,15)                1.0834         estimate D2E/DX2                !
 ! R28   R(18,24)                1.4672         estimate D2E/DX2                !
 ! R29   R(19,28)                1.4672         estimate D2E/DX2                !
 ! R30   R(24,25)                1.091          estimate D2E/DX2                !
 ! R31   R(24,26)                1.093          estimate D2E/DX2                !
 ! R32   R(24,27)                1.0865         estimate D2E/DX2                !
 ! R33   R(28,29)                1.0921         estimate D2E/DX2                !
 ! R34   R(28,30)                1.0916         estimate D2E/DX2                !
 ! R35   R(28,31)                1.0867         estimate D2E/DX2                !
 ! R36   R(32,33)                1.3815         estimate D2E/DX2                !
 ! R37   R(32,34)                1.7644         estimate D2E/DX2                !
 ! R38   R(33,35)                1.4079         estimate D2E/DX2                !
 ! R39   R(33,36)                1.0785         estimate D2E/DX2                !
 ! R40   R(34,37)                1.7482         estimate D2E/DX2                !
 ! R41   R(35,37)                1.3994         estimate D2E/DX2                !
 ! R42   R(35,38)                1.3601         estimate D2E/DX2                !
 ! R43   R(37,39)                1.4352         estimate D2E/DX2                !
 ! R44   R(38,40)                1.4248         estimate D2E/DX2                !
 ! R45   R(39,41)                1.3934         estimate D2E/DX2                !
 ! R46   R(39,42)                1.7614         estimate D2E/DX2                !
 ! R47   R(40,43)                1.0896         estimate D2E/DX2                !
 ! R48   R(40,44)                1.0969         estimate D2E/DX2                !
 ! R49   R(40,45)                1.0973         estimate D2E/DX2                !
 ! R50   R(41,46)                1.4244         estimate D2E/DX2                !
 ! R51   R(41,47)                1.3587         estimate D2E/DX2                !
 ! R52   R(42,48)                1.7266         estimate D2E/DX2                !
 ! R53   R(46,48)                1.3684         estimate D2E/DX2                !
 ! R54   R(46,49)                1.0809         estimate D2E/DX2                !
 ! R55   R(47,50)                1.4229         estimate D2E/DX2                !
 ! R56   R(48,51)                1.0819         estimate D2E/DX2                !
 ! R57   R(50,52)                1.0984         estimate D2E/DX2                !
 ! R58   R(50,53)                1.089          estimate D2E/DX2                !
 ! R59   R(50,54)                1.0964         estimate D2E/DX2                !
 ! A1    A(2,1,19)             116.767          estimate D2E/DX2                !
 ! A2    A(2,1,20)             122.9113         estimate D2E/DX2                !
 ! A3    A(19,1,20)            120.3217         estimate D2E/DX2                !
 ! A4    A(1,2,3)              120.5473         estimate D2E/DX2                !
 ! A5    A(1,2,6)              119.3369         estimate D2E/DX2                !
 ! A6    A(3,2,6)              120.1056         estimate D2E/DX2                !
 ! A7    A(2,3,4)              120.3743         estimate D2E/DX2                !
 ! A8    A(2,3,7)              118.662          estimate D2E/DX2                !
 ! A9    A(4,3,7)              120.9617         estimate D2E/DX2                !
 ! A10   A(3,4,5)              120.4909         estimate D2E/DX2                !
 ! A11   A(3,4,14)             120.2702         estimate D2E/DX2                !
 ! A12   A(5,4,14)             119.2382         estimate D2E/DX2                !
 ! A13   A(4,5,19)             116.7341         estimate D2E/DX2                !
 ! A14   A(4,5,21)             122.024          estimate D2E/DX2                !
 ! A15   A(19,5,21)            121.2418         estimate D2E/DX2                !
 ! A16   A(2,6,9)              123.2421         estimate D2E/DX2                !
 ! A17   A(2,6,17)             117.1119         estimate D2E/DX2                !
 ! A18   A(9,6,17)             119.589          estimate D2E/DX2                !
 ! A19   A(3,7,8)              120.9519         estimate D2E/DX2                !
 ! A20   A(3,7,12)             117.1037         estimate D2E/DX2                !
 ! A21   A(8,7,12)             121.944          estimate D2E/DX2                !
 ! A22   A(7,8,9)              119.5639         estimate D2E/DX2                !
 ! A23   A(7,8,10)             117.3064         estimate D2E/DX2                !
 ! A24   A(9,8,10)             122.9922         estimate D2E/DX2                !
 ! A25   A(6,9,8)              117.3944         estimate D2E/DX2                !
 ! A26   A(6,9,32)             115.0236         estimate D2E/DX2                !
 ! A27   A(8,9,32)             127.5648         estimate D2E/DX2                !
 ! A28   A(8,10,18)            118.042          estimate D2E/DX2                !
 ! A29   A(8,10,23)            124.5436         estimate D2E/DX2                !
 ! A30   A(18,10,23)           117.4097         estimate D2E/DX2                !
 ! A31   A(12,11,18)           115.5202         estimate D2E/DX2                !
 ! A32   A(12,11,22)           122.7205         estimate D2E/DX2                !
 ! A33   A(18,11,22)           121.7534         estimate D2E/DX2                !
 ! A34   A(7,12,11)            120.8614         estimate D2E/DX2                !
 ! A35   A(7,12,13)            121.162          estimate D2E/DX2                !
 ! A36   A(11,12,13)           117.9699         estimate D2E/DX2                !
 ! A37   A(12,13,14)           120.9948         estimate D2E/DX2                !
 ! A38   A(12,13,16)           117.8401         estimate D2E/DX2                !
 ! A39   A(14,13,16)           121.1642         estimate D2E/DX2                !
 ! A40   A(4,14,13)            119.5003         estimate D2E/DX2                !
 ! A41   A(4,14,15)            118.9169         estimate D2E/DX2                !
 ! A42   A(13,14,15)           121.5811         estimate D2E/DX2                !
 ! A43   A(10,18,11)           126.0753         estimate D2E/DX2                !
 ! A44   A(10,18,24)           115.7508         estimate D2E/DX2                !
 ! A45   A(11,18,24)           118.1737         estimate D2E/DX2                !
 ! A46   A(1,19,5)             125.0856         estimate D2E/DX2                !
 ! A47   A(1,19,28)            116.2868         estimate D2E/DX2                !
 ! A48   A(5,19,28)            118.6276         estimate D2E/DX2                !
 ! A49   A(18,24,25)           109.8574         estimate D2E/DX2                !
 ! A50   A(18,24,26)           109.8979         estimate D2E/DX2                !
 ! A51   A(18,24,27)           107.5355         estimate D2E/DX2                !
 ! A52   A(25,24,26)           108.1108         estimate D2E/DX2                !
 ! A53   A(25,24,27)           110.8301         estimate D2E/DX2                !
 ! A54   A(26,24,27)           110.6124         estimate D2E/DX2                !
 ! A55   A(19,28,29)           109.6906         estimate D2E/DX2                !
 ! A56   A(19,28,30)           109.8136         estimate D2E/DX2                !
 ! A57   A(19,28,31)           107.7461         estimate D2E/DX2                !
 ! A58   A(29,28,30)           108.2991         estimate D2E/DX2                !
 ! A59   A(29,28,31)           110.6959         estimate D2E/DX2                !
 ! A60   A(30,28,31)           110.5924         estimate D2E/DX2                !
 ! A61   A(9,32,33)            130.8891         estimate D2E/DX2                !
 ! A62   A(9,32,34)            118.8082         estimate D2E/DX2                !
 ! A63   A(33,32,34)           110.0458         estimate D2E/DX2                !
 ! A64   A(32,33,35)           113.581          estimate D2E/DX2                !
 ! A65   A(32,33,36)           122.7826         estimate D2E/DX2                !
 ! A66   A(35,33,36)           123.6342         estimate D2E/DX2                !
 ! A67   A(32,34,37)            92.5969         estimate D2E/DX2                !
 ! A68   A(33,35,37)           114.4297         estimate D2E/DX2                !
 ! A69   A(33,35,38)           126.5443         estimate D2E/DX2                !
 ! A70   A(37,35,38)           119.0259         estimate D2E/DX2                !
 ! A71   A(34,37,35)           109.3407         estimate D2E/DX2                !
 ! A72   A(34,37,39)           122.9412         estimate D2E/DX2                !
 ! A73   A(35,37,39)           127.7024         estimate D2E/DX2                !
 ! A74   A(35,38,40)           117.4715         estimate D2E/DX2                !
 ! A75   A(37,39,41)           127.5961         estimate D2E/DX2                !
 ! A76   A(37,39,42)           123.0598         estimate D2E/DX2                !
 ! A77   A(41,39,42)           109.3442         estimate D2E/DX2                !
 ! A78   A(38,40,43)           105.9732         estimate D2E/DX2                !
 ! A79   A(38,40,44)           111.2121         estimate D2E/DX2                !
 ! A80   A(38,40,45)           111.1428         estimate D2E/DX2                !
 ! A81   A(43,40,44)           109.3854         estimate D2E/DX2                !
 ! A82   A(43,40,45)           109.7203         estimate D2E/DX2                !
 ! A83   A(44,40,45)           109.3442         estimate D2E/DX2                !
 ! A84   A(39,41,46)           114.1595         estimate D2E/DX2                !
 ! A85   A(39,41,47)           119.262          estimate D2E/DX2                !
 ! A86   A(46,41,47)           126.5781         estimate D2E/DX2                !
 ! A87   A(39,42,48)            91.8051         estimate D2E/DX2                !
 ! A88   A(41,46,48)           111.9025         estimate D2E/DX2                !
 ! A89   A(41,46,49)           124.4467         estimate D2E/DX2                !
 ! A90   A(48,46,49)           123.6508         estimate D2E/DX2                !
 ! A91   A(41,47,50)           117.9796         estimate D2E/DX2                !
 ! A92   A(42,48,46)           112.7886         estimate D2E/DX2                !
 ! A93   A(42,48,51)           119.7757         estimate D2E/DX2                !
 ! A94   A(46,48,51)           127.4353         estimate D2E/DX2                !
 ! A95   A(47,50,52)           111.2476         estimate D2E/DX2                !
 ! A96   A(47,50,53)           106.0914         estimate D2E/DX2                !
 ! A97   A(47,50,54)           111.3084         estimate D2E/DX2                !
 ! A98   A(52,50,53)           109.3316         estimate D2E/DX2                !
 ! A99   A(52,50,54)           109.3441         estimate D2E/DX2                !
 ! A100  A(53,50,54)           109.4471         estimate D2E/DX2                !
 ! D1    D(19,1,2,3)             0.1578         estimate D2E/DX2                !
 ! D2    D(19,1,2,6)          -178.6792         estimate D2E/DX2                !
 ! D3    D(20,1,2,3)          -179.8231         estimate D2E/DX2                !
 ! D4    D(20,1,2,6)             1.3399         estimate D2E/DX2                !
 ! D5    D(2,1,19,5)            -0.124          estimate D2E/DX2                !
 ! D6    D(2,1,19,28)          179.8267         estimate D2E/DX2                !
 ! D7    D(20,1,19,5)          179.8575         estimate D2E/DX2                !
 ! D8    D(20,1,19,28)          -0.1919         estimate D2E/DX2                !
 ! D9    D(1,2,3,4)              0.0571         estimate D2E/DX2                !
 ! D10   D(1,2,3,7)            179.5453         estimate D2E/DX2                !
 ! D11   D(6,2,3,4)            178.8851         estimate D2E/DX2                !
 ! D12   D(6,2,3,7)             -1.6266         estimate D2E/DX2                !
 ! D13   D(1,2,6,9)            178.625          estimate D2E/DX2                !
 ! D14   D(1,2,6,17)             1.3881         estimate D2E/DX2                !
 ! D15   D(3,2,6,9)             -0.2173         estimate D2E/DX2                !
 ! D16   D(3,2,6,17)          -177.4541         estimate D2E/DX2                !
 ! D17   D(2,3,4,5)             -0.3074         estimate D2E/DX2                !
 ! D18   D(2,3,4,14)           179.3968         estimate D2E/DX2                !
 ! D19   D(7,3,4,5)           -179.7837         estimate D2E/DX2                !
 ! D20   D(7,3,4,14)            -0.0795         estimate D2E/DX2                !
 ! D21   D(2,3,7,8)              1.0523         estimate D2E/DX2                !
 ! D22   D(2,3,7,12)          -178.712          estimate D2E/DX2                !
 ! D23   D(4,3,7,8)           -179.4626         estimate D2E/DX2                !
 ! D24   D(4,3,7,12)             0.7731         estimate D2E/DX2                !
 ! D25   D(3,4,5,19)             0.3343         estimate D2E/DX2                !
 ! D26   D(3,4,5,21)          -179.7799         estimate D2E/DX2                !
 ! D27   D(14,4,5,19)         -179.3729         estimate D2E/DX2                !
 ! D28   D(14,4,5,21)            0.5129         estimate D2E/DX2                !
 ! D29   D(3,4,14,13)           -0.4559         estimate D2E/DX2                !
 ! D30   D(3,4,14,15)         -179.9937         estimate D2E/DX2                !
 ! D31   D(5,4,14,13)          179.252          estimate D2E/DX2                !
 ! D32   D(5,4,14,15)           -0.2858         estimate D2E/DX2                !
 ! D33   D(4,5,19,1)            -0.1141         estimate D2E/DX2                !
 ! D34   D(4,5,19,28)          179.9364         estimate D2E/DX2                !
 ! D35   D(21,5,19,1)          179.9992         estimate D2E/DX2                !
 ! D36   D(21,5,19,28)           0.0496         estimate D2E/DX2                !
 ! D37   D(2,6,9,8)              2.5984         estimate D2E/DX2                !
 ! D38   D(2,6,9,32)          -176.0103         estimate D2E/DX2                !
 ! D39   D(17,6,9,8)           179.77           estimate D2E/DX2                !
 ! D40   D(17,6,9,32)            1.1613         estimate D2E/DX2                !
 ! D41   D(3,7,8,9)              1.3551         estimate D2E/DX2                !
 ! D42   D(3,7,8,10)          -174.5099         estimate D2E/DX2                !
 ! D43   D(12,7,8,9)          -178.8921         estimate D2E/DX2                !
 ! D44   D(12,7,8,10)            5.2428         estimate D2E/DX2                !
 ! D45   D(3,7,12,11)          178.0768         estimate D2E/DX2                !
 ! D46   D(3,7,12,13)           -0.9621         estimate D2E/DX2                !
 ! D47   D(8,7,12,11)           -1.685          estimate D2E/DX2                !
 ! D48   D(8,7,12,13)          179.2761         estimate D2E/DX2                !
 ! D49   D(7,8,9,6)             -3.0809         estimate D2E/DX2                !
 ! D50   D(7,8,9,32)           175.3285         estimate D2E/DX2                !
 ! D51   D(10,8,9,6)           172.5381         estimate D2E/DX2                !
 ! D52   D(10,8,9,32)           -9.0525         estimate D2E/DX2                !
 ! D53   D(7,8,10,18)           -4.7549         estimate D2E/DX2                !
 ! D54   D(7,8,10,23)          174.4235         estimate D2E/DX2                !
 ! D55   D(9,8,10,18)          179.5335         estimate D2E/DX2                !
 ! D56   D(9,8,10,23)           -1.2882         estimate D2E/DX2                !
 ! D57   D(6,9,32,33)          103.4475         estimate D2E/DX2                !
 ! D58   D(6,9,32,34)          -70.0903         estimate D2E/DX2                !
 ! D59   D(8,9,32,33)          -74.9941         Frozen                          !
 ! D60   D(8,9,32,34)          111.4682         estimate D2E/DX2                !
 ! D61   D(8,10,18,11)           0.7189         estimate D2E/DX2                !
 ! D62   D(8,10,18,24)        -179.4089         estimate D2E/DX2                !
 ! D63   D(23,10,18,11)       -178.5188         estimate D2E/DX2                !
 ! D64   D(23,10,18,24)          1.3535         estimate D2E/DX2                !
 ! D65   D(18,11,12,7)          -2.3856         estimate D2E/DX2                !
 ! D66   D(18,11,12,13)        176.6833         estimate D2E/DX2                !
 ! D67   D(22,11,12,7)         178.4862         estimate D2E/DX2                !
 ! D68   D(22,11,12,13)         -2.445          estimate D2E/DX2                !
 ! D69   D(12,11,18,10)          2.8444         estimate D2E/DX2                !
 ! D70   D(12,11,18,24)       -177.0251         estimate D2E/DX2                !
 ! D71   D(22,11,18,10)       -178.0181         estimate D2E/DX2                !
 ! D72   D(22,11,18,24)          2.1124         estimate D2E/DX2                !
 ! D73   D(7,12,13,14)           0.461          estimate D2E/DX2                !
 ! D74   D(7,12,13,16)        -179.8781         estimate D2E/DX2                !
 ! D75   D(11,12,13,14)       -178.6049         estimate D2E/DX2                !
 ! D76   D(11,12,13,16)          1.056          estimate D2E/DX2                !
 ! D77   D(12,13,14,4)           0.2708         estimate D2E/DX2                !
 ! D78   D(12,13,14,15)        179.7958         estimate D2E/DX2                !
 ! D79   D(16,13,14,4)        -179.3788         estimate D2E/DX2                !
 ! D80   D(16,13,14,15)          0.1463         estimate D2E/DX2                !
 ! D81   D(10,18,24,25)        -59.609          estimate D2E/DX2                !
 ! D82   D(10,18,24,26)         59.2209         estimate D2E/DX2                !
 ! D83   D(10,18,24,27)        179.6858         estimate D2E/DX2                !
 ! D84   D(11,18,24,25)        120.2739         estimate D2E/DX2                !
 ! D85   D(11,18,24,26)       -120.8962         estimate D2E/DX2                !
 ! D86   D(11,18,24,27)         -0.4313         estimate D2E/DX2                !
 ! D87   D(1,19,28,29)         -58.1407         estimate D2E/DX2                !
 ! D88   D(1,19,28,30)          60.7668         estimate D2E/DX2                !
 ! D89   D(1,19,28,31)        -178.7139         estimate D2E/DX2                !
 ! D90   D(5,19,28,29)         121.8132         estimate D2E/DX2                !
 ! D91   D(5,19,28,30)        -119.2792         estimate D2E/DX2                !
 ! D92   D(5,19,28,31)           1.2401         estimate D2E/DX2                !
 ! D93   D(9,32,33,35)        -174.2298         estimate D2E/DX2                !
 ! D94   D(9,32,33,36)           6.2882         estimate D2E/DX2                !
 ! D95   D(34,32,33,35)         -0.2558         estimate D2E/DX2                !
 ! D96   D(34,32,33,36)       -179.7378         estimate D2E/DX2                !
 ! D97   D(9,32,34,37)         175.3665         estimate D2E/DX2                !
 ! D98   D(33,32,34,37)          0.563          estimate D2E/DX2                !
 ! D99   D(32,33,35,37)         -0.3039         estimate D2E/DX2                !
 ! D100  D(32,33,35,38)        179.7426         estimate D2E/DX2                !
 ! D101  D(36,33,35,37)        179.1731         estimate D2E/DX2                !
 ! D102  D(36,33,35,38)         -0.7804         estimate D2E/DX2                !
 ! D103  D(32,34,37,35)         -0.7177         estimate D2E/DX2                !
 ! D104  D(32,34,37,39)        177.9418         estimate D2E/DX2                !
 ! D105  D(33,35,37,34)          0.7146         estimate D2E/DX2                !
 ! D106  D(33,35,37,39)       -177.8636         estimate D2E/DX2                !
 ! D107  D(38,35,37,34)       -179.3282         estimate D2E/DX2                !
 ! D108  D(38,35,37,39)          2.0937         estimate D2E/DX2                !
 ! D109  D(33,35,38,40)          6.477          estimate D2E/DX2                !
 ! D110  D(37,35,38,40)       -173.4745         estimate D2E/DX2                !
 ! D111  D(34,37,39,41)          2.8101         estimate D2E/DX2                !
 ! D112  D(34,37,39,42)       -177.1888         estimate D2E/DX2                !
 ! D113  D(35,37,39,41)       -178.7886         estimate D2E/DX2                !
 ! D114  D(35,37,39,42)          1.2125         estimate D2E/DX2                !
 ! D115  D(35,38,40,43)        175.493          estimate D2E/DX2                !
 ! D116  D(35,38,40,44)        -65.7278         estimate D2E/DX2                !
 ! D117  D(35,38,40,45)         56.3489         estimate D2E/DX2                !
 ! D118  D(37,39,41,46)       -179.9663         estimate D2E/DX2                !
 ! D119  D(37,39,41,47)         -0.1759         estimate D2E/DX2                !
 ! D120  D(42,39,41,46)          0.0328         estimate D2E/DX2                !
 ! D121  D(42,39,41,47)        179.8232         estimate D2E/DX2                !
 ! D122  D(37,39,42,48)        179.978          estimate D2E/DX2                !
 ! D123  D(41,39,42,48)         -0.0211         estimate D2E/DX2                !
 ! D124  D(39,41,46,48)         -0.0303         estimate D2E/DX2                !
 ! D125  D(39,41,46,49)       -179.9579         estimate D2E/DX2                !
 ! D126  D(47,41,46,48)       -179.8026         estimate D2E/DX2                !
 ! D127  D(47,41,46,49)          0.2699         estimate D2E/DX2                !
 ! D128  D(39,41,47,50)        178.3481         estimate D2E/DX2                !
 ! D129  D(46,41,47,50)         -1.8901         estimate D2E/DX2                !
 ! D130  D(39,42,48,46)          0.0046         estimate D2E/DX2                !
 ! D131  D(39,42,48,51)        179.8041         estimate D2E/DX2                !
 ! D132  D(41,46,48,42)          0.0131         estimate D2E/DX2                !
 ! D133  D(41,46,48,51)       -179.7677         estimate D2E/DX2                !
 ! D134  D(49,46,48,42)        179.9413         estimate D2E/DX2                !
 ! D135  D(49,46,48,51)          0.1604         estimate D2E/DX2                !
 ! D136  D(41,47,50,52)         62.0254         estimate D2E/DX2                !
 ! D137  D(41,47,50,53)       -179.1697         estimate D2E/DX2                !
 ! D138  D(41,47,50,54)        -60.1927         estimate D2E/DX2                !
 --------------------------------------------------------------------------------
 Trust Radius=3.00D-01 FncErr=1.00D-07 GrdErr=1.00D-06 EigMax=2.50D+02 EigMin=1.00D-04
 Number of steps in this run=    307 maximum allowed number of steps=    324.
 GradGradGradGradGradGradGradGradGradGradGradGradGradGradGradGradGradGrad

 Stoichiometry    C26H18N2O6S2(2-)
 Framework group  C1[X(C26H18N2O6S2)]
 Deg. of freedom   156
 Full point group                 C1      NOp   1
 Largest Abelian subgroup         C1      NOp   1
 Largest concise Abelian subgroup C1      NOp   1
                         Standard orientation:                         
 ---------------------------------------------------------------------
 Center     Atomic      Atomic             Coordinates (Angstroms)
 Number     Number       Type             X           Y           Z
 ---------------------------------------------------------------------
      1          6           0        2.903649   -2.903503    0.510397
      2          6           0        2.440658   -1.503817    0.319011
      3          6           0        3.368521   -0.469540    0.053877
      4          6           0        4.749162   -0.753892   -0.033808
      5          6           0        5.247402   -2.142028    0.157880
      6          6           0        1.103083   -1.217717    0.425702
      7          6           0        2.879948    0.855357   -0.132487
      8          6           0        1.481812    1.145329   -0.032298
      9          6           0        0.570093    0.101954    0.285908
     10          6           0        1.046031    2.529027   -0.364375
     11          6           0        3.417177    3.258105   -0.675118
     12          6           0        3.837067    1.862695   -0.424554
     13          6           0        5.191518    1.565919   -0.503312
     14          6           0        5.656072    0.260021   -0.306310
     15          1           0        6.710121    0.017272   -0.368768
     16          1           0        5.875454    2.376979   -0.727652
     17          1           0        0.440415   -2.039182    0.671522
     18          7           0        2.039669    3.484764   -0.654050
     19          7           0        4.282243   -3.129878    0.417860
     20          8           0        2.139478   -3.831004    0.738315
     21          8           0        6.435634   -2.418787    0.092038
     22          8           0        4.215210    4.158804   -0.903272
     23          8           0       -0.121135    2.895278   -0.418218
     24          6           0        1.555032    4.835097   -0.961271
     25          1           0        0.897002    4.803736   -1.830968
     26          1           0        0.982760    5.226187   -0.116137
     27          1           0        2.423552    5.458159   -1.156184
     28          6           0        4.727891   -4.514117    0.612346
     29          1           0        4.406689   -4.869647    1.593673
     30          1           0        4.280992   -5.157030   -0.148261
     31          1           0        5.811751   -4.527102    0.535025
     32          6           0       -0.868326    0.216544    0.523658
     33          6           0       -1.569453    0.701574    1.610783
     34         16           0       -1.982700   -0.485163   -0.650529
     35          6           0       -2.962261    0.523442    1.507758
     36          1           0       -1.088649    1.177984    2.450411
     37          6           0       -3.380016   -0.102210    0.327730
     38          8           0       -3.896236    0.895514    2.423743
     39          6           0       -4.724577   -0.384094   -0.087756
     40          6           0       -3.451802    1.654981    3.544319
     41          6           0       -5.137070   -1.027932   -1.252567
     42         16           0       -6.138070    0.064893    0.862578
     43          1           0       -4.349270    1.916989    4.103942
     44          1           0       -2.783358    1.065247    4.183519
     45          1           0       -2.935553    2.568553    3.223614
     46          6           0       -6.550044   -1.156383   -1.378550
     47          8           0       -4.202569   -1.459518   -2.139383
     48          6           0       -7.209375   -0.611399   -0.310518
     49          1           0       -7.049093   -1.627451   -2.213635
     50          6           0       -4.652208   -2.145194   -3.302253
     51          1           0       -8.278161   -0.573596   -0.147041
     52          1           0       -5.288863   -1.500568   -3.923247
     53          1           0       -3.756135   -2.412332   -3.860560
     54          1           0       -5.203683   -3.055712   -3.039649
 ---------------------------------------------------------------------
 Rotational constants (GHZ):           0.1563493           0.0553029           0.0466309
 Standard basis: 6-311+G(d,p) (5D, 7F)
 There are   952 symmetry adapted cartesian basis functions of A   symmetry.
 There are   916 symmetry adapted basis functions of A   symmetry.
   916 basis functions,  1468 primitive gaussians,   952 cartesian basis functions
   135 alpha electrons      135 beta electrons
       nuclear repulsion energy      4075.2506022978 Hartrees.
 NAtoms=   54 NActive=   54 NUniq=   54 SFac= 1.00D+00 NAtFMM=   60 NAOKFM=F Big=F
 Integral buffers will be    131072 words long.
 Raffenetti 2 integral format.
 Two-electron integral symmetry is turned on.
 One-electron integrals computed using PRISM.
 NBasis=   916 RedAO= T EigKep=  1.03D-06  NBF=   916
 NBsUse=   902 1.00D-06 EigRej=  6.70D-07 NBFU=   902
 ExpMin= 4.05D-02 ExpMax= 9.34D+04 ExpMxC= 3.17D+03 IAcc=3 IRadAn=         5 AccDes= 0.00D+00
 Harris functional with IExCor=  402 and IRadAn=       5 diagonalized for initial guess.
 HarFok:  IExCor=  402 AccDes= 0.00D+00 IRadAn=         5 IDoV= 1 UseB2=F ITyADJ=14
 ICtDFT=  3500011 ScaDFX=  1.000000  1.000000  1.000000  1.000000
 FoFCou: FMM=F IPFlag=           0 FMFlag=      100000 FMFlg1=           0
         NFxFlg=           0 DoJE=T BraDBF=F KetDBF=T FulRan=T
         wScrn=  0.000000 ICntrl=       500 IOpCl=  0 I1Cent=   200000004 NGrid=           0
         NMat0=    1 NMatS0=      1 NMatT0=    0 NMatD0=    1 NMtDS0=    0 NMtDT0=    0
 Petite list used in FoFCou.
 Requested convergence on RMS density matrix=1.00D-08 within 128 cycles.
 Requested convergence on MAX density matrix=1.00D-06.
 Requested convergence on             energy=1.00D-06.
 No special actions if energy rises.
 EnCoef did     8 forward-backward iterations
 EnCoef did     6 forward-backward iterations
 EnCoef did     2 forward-backward iterations
 EnCoef did     2 forward-backward iterations
 Restarting incremental Fock formation.
 SCF Done:  E(RB3LYP) =  -2359.37301430     A.U. after   24 cycles
            NFock= 24  Conv=0.44D-08     -V/T= 2.0030

 **********************************************************************

            Population analysis using the SCF Density.

 **********************************************************************

 Orbital symmetries:
       Occupied  (A) (A) (A) (A) (A) (A) (A) (A) (A) (A) (A) (A)
                 (A) (A) (A) (A) (A) (A) (A) (A) (A) (A) (A) (A)
                 (A) (A) (A) (A) (A) (A) (A) (A) (A) (A) (A) (A)
                 (A) (A) (A) (A) (A) (A) (A) (A) (A) (A) (A) (A)
                 (A) (A) (A) (A) (A) (A) (A) (A) (A) (A) (A) (A)
                 (A) (A) (A) (A) (A) (A) (A) (A) (A) (A) (A) (A)
                 (A) (A) (A) (A) (A) (A) (A) (A) (A) (A) (A) (A)
                 (A) (A) (A) (A) (A) (A) (A) (A) (A) (A) (A) (A)
                 (A) (A) (A) (A) (A) (A) (A) (A) (A) (A) (A) (A)
                 (A) (A) (A) (A) (A) (A) (A) (A) (A) (A) (A) (A)
                 (A) (A) (A) (A) (A) (A) (A) (A) (A) (A) (A) (A)
                 (A) (A) (A)
       Virtual   (A) (A) (A) (A) (A) (A) (A) (A) (A) (A) (A) (A)
                 (A) (A) (A) (A) (A) (A) (A) (A) (A) (A) (A) (A)
                 (A) (A) (A) (A) (A) (A) (A) (A) (A) (A) (A) (A)
                 (A) (A) (A) (A) (A) (A) (A) (A) (A) (A) (A) (A)
                 (A) (A) (A) (A) (A) (A) (A) (A) (A) (A) (A) (A)
                 (A) (A) (A) (A) (A) (A) (A) (A) (A) (A) (A) (A)
                 (A) (A) (A) (A) (A) (A) (A) (A) (A) (A) (A) (A)
                 (A) (A) (A) (A) (A) (A) (A) (A) (A) (A) (A) (A)
                 (A) (A) (A) (A) (A) (A) (A) (A) (A) (A) (A) (A)
                 (A) (A) (A) (A) (A) (A) (A) (A) (A) (A) (A) (A)
                 (A) (A) (A) (A) (A) (A) (A) (A) (A) (A) (A) (A)
                 (A) (A) (A) (A) (A) (A) (A) (A) (A) (A) (A) (A)
                 (A) (A) (A) (A) (A) (A) (A) (A) (A) (A) (A) (A)
                 (A) (A) (A) (A) (A) (A) (A) (A) (A) (A) (A) (A)
                 (A) (A) (A) (A) (A) (A) (A) (A) (A) (A) (A) (A)
                 (A) (A) (A) (A) (A) (A) (A) (A) (A) (A) (A) (A)
                 (A) (A) (A) (A) (A) (A) (A) (A) (A) (A) (A) (A)
                 (A) (A) (A) (A) (A) (A) (A) (A) (A) (A) (A) (A)
                 (A) (A) (A) (A) (A) (A) (A) (A) (A) (A) (A) (A)
                 (A) (A) (A) (A) (A) (A) (A) (A) (A) (A) (A) (A)
                 (A) (A) (A) (A) (A) (A) (A) (A) (A) (A) (A) (A)
                 (A) (A) (A) (A) (A) (A) (A) (A) (A) (A) (A) (A)
                 (A) (A) (A) (A) (A) (A) (A) (A) (A) (A) (A) (A)
                 (A) (A) (A) (A) (A) (A) (A) (A) (A) (A) (A) (A)
                 (A) (A) (A) (A) (A) (A) (A) (A) (A) (A) (A) (A)
                 (A) (A) (A) (A) (A) (A) (A) (A) (A) (A) (A) (A)
                 (A) (A) (A) (A) (A) (A) (A) (A) (A) (A) (A) (A)
                 (A) (A) (A) (A) (A) (A) (A) (A) (A) (A) (A) (A)
                 (A) (A) (A) (A) (A) (A) (A) (A) (A) (A) (A) (A)
                 (A) (A) (A) (A) (A) (A) (A) (A) (A) (A) (A) (A)
                 (A) (A) (A) (A) (A) (A) (A) (A) (A) (A) (A) (A)
                 (A) (A) (A) (A) (A) (A) (A) (A) (A) (A) (A) (A)
                 (A) (A) (A) (A) (A) (A) (A) (A) (A) (A) (A) (A)
                 (A) (A) (A) (A) (A) (A) (A) (A) (A) (A) (A) (A)
                 (A) (A) (A) (A) (A) (A) (A) (A) (A) (A) (A) (A)
                 (A) (A) (A) (A) (A) (A) (A) (A) (A) (A) (A) (A)
                 (A) (A) (A) (A) (A) (A) (A) (A) (A) (A) (A) (A)
                 (A) (A) (A) (A) (A) (A) (A) (A) (A) (A) (A) (A)
                 (A) (A) (A) (A) (A) (A) (A) (A) (A) (A) (A) (A)
                 (A) (A) (A) (A) (A) (A) (A) (A) (A) (A) (A) (A)
                 (A) (A) (A) (A) (A) (A) (A) (A) (A) (A) (A) (A)
                 (A) (A) (A) (A) (A) (A) (A) (A) (A) (A) (A) (A)
                 (A) (A) (A) (A) (A) (A) (A) (A) (A) (A) (A) (A)
                 (A) (A) (A) (A) (A) (A) (A) (A) (A) (A) (A) (A)
                 (A) (A) (A) (A) (A) (A) (A) (A) (A) (A) (A) (A)
                 (A) (A) (A) (A) (A) (A) (A) (A) (A) (A) (A) (A)
                 (A) (A) (A) (A) (A) (A) (A) (A) (A) (A) (A) (A)
                 (A) (A) (A) (A) (A) (A) (A) (A) (A) (A) (A) (A)
                 (A) (A) (A) (A) (A) (A) (A) (A) (A) (A) (A) (A)
                 (A) (A) (A) (A) (A) (A) (A) (A) (A) (A) (A) (A)
                 (A) (A) (A) (A) (A) (A) (A) (A) (A) (A) (A) (A)
                 (A) (A) (A) (A) (A) (A) (A) (A) (A) (A) (A) (A)
                 (A) (A) (A) (A) (A) (A) (A) (A) (A) (A) (A) (A)
                 (A) (A) (A) (A) (A) (A) (A) (A) (A) (A) (A) (A)
                 (A) (A) (A) (A) (A) (A) (A) (A) (A) (A) (A) (A)
                 (A) (A) (A) (A) (A) (A) (A) (A) (A) (A) (A) (A)
                 (A) (A) (A) (A) (A) (A) (A) (A) (A) (A) (A) (A)
                 (A) (A) (A) (A) (A) (A) (A) (A) (A) (A) (A) (A)
                 (A) (A) (A) (A) (A) (A) (A) (A) (A) (A) (A) (A)
                 (A) (A) (A) (A) (A) (A) (A) (A) (A) (A) (A) (A)
                 (A) (A) (A) (A) (A) (A) (A) (A) (A) (A) (A) (A)
                 (A) (A) (A) (A) (A) (A) (A) (A) (A) (A) (A) (A)
                 (A) (A) (A) (A) (A) (A) (A) (A) (A) (A) (A) (A)
                 (A) (A) (A) (A) (A) (A) (A) (A) (A) (A) (A)
 The electronic state is 1-A.
 Alpha  occ. eigenvalues --  -88.71536 -88.67843 -19.00401 -18.99715 -18.87058
 Alpha  occ. eigenvalues --  -18.86733 -18.86368 -18.85783 -14.14837 -14.14123
 Alpha  occ. eigenvalues --  -10.09088 -10.07973 -10.06985 -10.05466 -10.05217
 Alpha  occ. eigenvalues --  -10.04906 -10.04492 -10.04474 -10.04393 -10.03772
 Alpha  occ. eigenvalues --  -10.02786 -10.01734 -10.01655 -10.00807 -10.00035
 Alpha  occ. eigenvalues --   -9.98361  -9.96964  -9.96855  -9.96621  -9.95320
 Alpha  occ. eigenvalues --   -9.95238  -9.94661  -9.94426  -9.94407  -9.94325
 Alpha  occ. eigenvalues --   -9.94310  -7.80113  -7.76408  -5.76422  -5.76049
 Alpha  occ. eigenvalues --   -5.75673  -5.72734  -5.72337  -5.71950  -0.92106
 Alpha  occ. eigenvalues --   -0.91188  -0.83674  -0.83005  -0.81583  -0.80811
 Alpha  occ. eigenvalues --   -0.72432  -0.71974  -0.71127  -0.69086  -0.65896
 Alpha  occ. eigenvalues --   -0.61504  -0.60397  -0.59255  -0.58221  -0.57872
 Alpha  occ. eigenvalues --   -0.55348  -0.53745  -0.53051  -0.52354  -0.51734
 Alpha  occ. eigenvalues --   -0.49996  -0.49414  -0.45642  -0.43373  -0.42712
 Alpha  occ. eigenvalues --   -0.41746  -0.41195  -0.40328  -0.39612  -0.39275
 Alpha  occ. eigenvalues --   -0.37027  -0.36590  -0.33147  -0.33139  -0.33020
 Alpha  occ. eigenvalues --   -0.32290  -0.31983  -0.31159  -0.30694  -0.29559
 Alpha  occ. eigenvalues --   -0.29373  -0.28788  -0.27147  -0.26586  -0.26461
 Alpha  occ. eigenvalues --   -0.26027  -0.25400  -0.24689  -0.24524  -0.24377
 Alpha  occ. eigenvalues --   -0.24200  -0.22880  -0.22144  -0.21865  -0.21062
 Alpha  occ. eigenvalues --   -0.20694  -0.20595  -0.20448  -0.20197  -0.20035
 Alpha  occ. eigenvalues --   -0.19540  -0.19403  -0.19043  -0.18454  -0.18132
 Alpha  occ. eigenvalues --   -0.17839  -0.17239  -0.16800  -0.16372  -0.16297
 Alpha  occ. eigenvalues --   -0.15214  -0.14931  -0.14495  -0.13967  -0.11729
 Alpha  occ. eigenvalues --   -0.10551  -0.09593  -0.08016  -0.06344  -0.06248
 Alpha  occ. eigenvalues --   -0.05864  -0.05485  -0.05097  -0.05021  -0.04175
 Alpha  occ. eigenvalues --   -0.03293  -0.02972  -0.00668  -0.00062   0.09045
 Alpha virt. eigenvalues --    0.11926   0.12426   0.13106   0.13714   0.15333
 Alpha virt. eigenvalues --    0.16300   0.16766   0.16884   0.16937   0.17226
 Alpha virt. eigenvalues --    0.17471   0.17955   0.18181   0.18268   0.18734
 Alpha virt. eigenvalues --    0.19146   0.19573   0.19662   0.19890   0.20163
 Alpha virt. eigenvalues --    0.20494   0.20603   0.20943   0.21164   0.21368
 Alpha virt. eigenvalues --    0.21459   0.21619   0.21973   0.22134   0.22396
 Alpha virt. eigenvalues --    0.22774   0.23108   0.23676   0.24107   0.24401
 Alpha virt. eigenvalues --    0.24536   0.25074   0.25233   0.25329   0.25389
 Alpha virt. eigenvalues --    0.25693   0.26156   0.26193   0.26271   0.26534
 Alpha virt. eigenvalues --    0.26738   0.26811   0.26951   0.27462   0.27740
 Alpha virt. eigenvalues --    0.27892   0.28120   0.28591   0.28797   0.29069
 Alpha virt. eigenvalues --    0.29187   0.29433   0.29765   0.29849   0.30481
 Alpha virt. eigenvalues --    0.30821   0.30934   0.31332   0.31439   0.31934
 Alpha virt. eigenvalues --    0.32018   0.32407   0.32492   0.32754   0.33060
 Alpha virt. eigenvalues --    0.33235   0.33308   0.33522   0.33954   0.34014
 Alpha virt. eigenvalues --    0.34152   0.34480   0.34554   0.34907   0.35193
 Alpha virt. eigenvalues --    0.35604   0.35853   0.35997   0.36122   0.36457
 Alpha virt. eigenvalues --    0.36725   0.36785   0.37113   0.37242   0.37435
 Alpha virt. eigenvalues --    0.37736   0.38038   0.38165   0.38244   0.38596
 Alpha virt. eigenvalues --    0.38779   0.38994   0.39340   0.39548   0.39925
 Alpha virt. eigenvalues --    0.40177   0.40412   0.40597   0.40996   0.41164
 Alpha virt. eigenvalues --    0.41443   0.41681   0.41958   0.42315   0.42372
 Alpha virt. eigenvalues --    0.42588   0.42757   0.42990   0.43158   0.43294
 Alpha virt. eigenvalues --    0.43431   0.43859   0.44018   0.44512   0.44845
 Alpha virt. eigenvalues --    0.45027   0.45078   0.45279   0.45600   0.45783
 Alpha virt. eigenvalues --    0.45941   0.45953   0.46236   0.46391   0.46806
 Alpha virt. eigenvalues --    0.47147   0.47326   0.47441   0.47875   0.48040
 Alpha virt. eigenvalues --    0.48090   0.48313   0.48491   0.48679   0.48813
 Alpha virt. eigenvalues --    0.49167   0.49307   0.49642   0.49851   0.50047
 Alpha virt. eigenvalues --    0.50156   0.50380   0.50621   0.50703   0.51205
 Alpha virt. eigenvalues --    0.51446   0.51675   0.51791   0.51910   0.52316
 Alpha virt. eigenvalues --    0.52477   0.52618   0.52966   0.53061   0.53718
 Alpha virt. eigenvalues --    0.53778   0.54064   0.54432   0.54796   0.55087
 Alpha virt. eigenvalues --    0.55465   0.55728   0.56156   0.56894   0.57247
 Alpha virt. eigenvalues --    0.57727   0.57987   0.58176   0.58657   0.59096
 Alpha virt. eigenvalues --    0.59353   0.59580   0.60211   0.60342   0.60698
 Alpha virt. eigenvalues --    0.60778   0.61033   0.61376   0.61874   0.62151
 Alpha virt. eigenvalues --    0.62592   0.63163   0.63689   0.63835   0.64226
 Alpha virt. eigenvalues --    0.64608   0.64856   0.65077   0.65762   0.65979
 Alpha virt. eigenvalues --    0.66234   0.66868   0.67154   0.68147   0.68438
 Alpha virt. eigenvalues --    0.68770   0.69645   0.70399   0.70692   0.70917
 Alpha virt. eigenvalues --    0.72080   0.72315   0.72537   0.73003   0.73139
 Alpha virt. eigenvalues --    0.73549   0.74142   0.74384   0.75532   0.75883
 Alpha virt. eigenvalues --    0.76344   0.76955   0.77263   0.77663   0.78163
 Alpha virt. eigenvalues --    0.78481   0.78748   0.79030   0.79168   0.79274
 Alpha virt. eigenvalues --    0.79521   0.79797   0.80264   0.80918   0.81217
 Alpha virt. eigenvalues --    0.81718   0.82516   0.82692   0.83346   0.83710
 Alpha virt. eigenvalues --    0.84033   0.84070   0.84512   0.85182   0.85527
 Alpha virt. eigenvalues --    0.85766   0.86347   0.86753   0.87035   0.87474
 Alpha virt. eigenvalues --    0.87880   0.88302   0.88659   0.88911   0.89312
 Alpha virt. eigenvalues --    0.89996   0.90060   0.90494   0.90843   0.91102
 Alpha virt. eigenvalues --    0.91569   0.91848   0.92285   0.92621   0.92726
 Alpha virt. eigenvalues --    0.93283   0.93658   0.93988   0.94380   0.94728
 Alpha virt. eigenvalues --    0.95177   0.95530   0.95681   0.95900   0.96273
 Alpha virt. eigenvalues --    0.96543   0.96951   0.97725   0.98186   0.98482
 Alpha virt. eigenvalues --    0.98649   0.99048   0.99229   0.99649   1.00134
 Alpha virt. eigenvalues --    1.00379   1.00998   1.01518   1.01945   1.02454
 Alpha virt. eigenvalues --    1.02602   1.03013   1.04763   1.04908   1.05648
 Alpha virt. eigenvalues --    1.06398   1.07397   1.07814   1.08208   1.08742
 Alpha virt. eigenvalues --    1.10270   1.10803   1.10947   1.11864   1.12156
 Alpha virt. eigenvalues --    1.12331   1.12449   1.13918   1.14062   1.15582
 Alpha virt. eigenvalues --    1.15693   1.16101   1.16498   1.16664   1.17336
 Alpha virt. eigenvalues --    1.17834   1.18322   1.18548   1.18815   1.19400
 Alpha virt. eigenvalues --    1.19625   1.20266   1.20383   1.20804   1.21235
 Alpha virt. eigenvalues --    1.21711   1.21785   1.22175   1.22560   1.23297
 Alpha virt. eigenvalues --    1.23687   1.24033   1.24360   1.24491   1.24927
 Alpha virt. eigenvalues --    1.25764   1.26388   1.26748   1.26932   1.27346
 Alpha virt. eigenvalues --    1.27891   1.28299   1.28701   1.29679   1.29926
 Alpha virt. eigenvalues --    1.30639   1.31092   1.31961   1.32209   1.32626
 Alpha virt. eigenvalues --    1.33584   1.34741   1.35059   1.35863   1.36498
 Alpha virt. eigenvalues --    1.36597   1.38072   1.38817   1.39176   1.40061
 Alpha virt. eigenvalues --    1.40238   1.41520   1.41750   1.42540   1.42647
 Alpha virt. eigenvalues --    1.43046   1.43842   1.44233   1.44575   1.46467
 Alpha virt. eigenvalues --    1.47240   1.47892   1.48615   1.49213   1.50140
 Alpha virt. eigenvalues --    1.50557   1.51093   1.51278   1.51347   1.51621
 Alpha virt. eigenvalues --    1.52572   1.53061   1.54114   1.55759   1.56406
 Alpha virt. eigenvalues --    1.56649   1.56771   1.56951   1.58286   1.58693
 Alpha virt. eigenvalues --    1.59544   1.60129   1.61485   1.61722   1.61779
 Alpha virt. eigenvalues --    1.63168   1.63491   1.64574   1.65029   1.65869
 Alpha virt. eigenvalues --    1.66185   1.66488   1.67248   1.68035   1.68568
 Alpha virt. eigenvalues --    1.68853   1.69572   1.70105   1.70267   1.70810
 Alpha virt. eigenvalues --    1.71259   1.72024   1.72545   1.73058   1.74522
 Alpha virt. eigenvalues --    1.74737   1.75106   1.75511   1.76013   1.76403
 Alpha virt. eigenvalues --    1.76629   1.76838   1.77499   1.78148   1.78515
 Alpha virt. eigenvalues --    1.78756   1.79563   1.79862   1.80921   1.81820
 Alpha virt. eigenvalues --    1.82039   1.82414   1.82963   1.83730   1.83860
 Alpha virt. eigenvalues --    1.84089   1.84557   1.84565   1.86623   1.87553
 Alpha virt. eigenvalues --    1.87940   1.88322   1.89431   1.89736   1.90189
 Alpha virt. eigenvalues --    1.91990   1.92029   1.92660   1.93056   1.93958
 Alpha virt. eigenvalues --    1.94139   1.94529   1.95137   1.95648   1.96422
 Alpha virt. eigenvalues --    1.96959   1.97440   1.98455   1.99533   1.99705
 Alpha virt. eigenvalues --    2.00405   2.01011   2.01731   2.02098   2.03287
 Alpha virt. eigenvalues --    2.04059   2.05074   2.05913   2.06755   2.07633
 Alpha virt. eigenvalues --    2.08608   2.09449   2.09834   2.11020   2.11951
 Alpha virt. eigenvalues --    2.12361   2.12655   2.12969   2.13851   2.14380
 Alpha virt. eigenvalues --    2.14773   2.14861   2.15715   2.16147   2.17120
 Alpha virt. eigenvalues --    2.17685   2.18171   2.18893   2.19543   2.20478
 Alpha virt. eigenvalues --    2.21219   2.21621   2.22147   2.22928   2.23501
 Alpha virt. eigenvalues --    2.23690   2.24094   2.24747   2.25194   2.25570
 Alpha virt. eigenvalues --    2.25926   2.26223   2.27017   2.27337   2.27903
 Alpha virt. eigenvalues --    2.28258   2.28628   2.29049   2.31166   2.31536
 Alpha virt. eigenvalues --    2.32077   2.33274   2.34126   2.34609   2.35536
 Alpha virt. eigenvalues --    2.35981   2.37373   2.38500   2.38891   2.40233
 Alpha virt. eigenvalues --    2.40604   2.41943   2.42473   2.43356   2.45348
 Alpha virt. eigenvalues --    2.45561   2.48514   2.48840   2.50336   2.52165
 Alpha virt. eigenvalues --    2.55941   2.56478   2.56982   2.57181   2.57976
 Alpha virt. eigenvalues --    2.58835   2.59483   2.60351   2.60784   2.61174
 Alpha virt. eigenvalues --    2.61763   2.63765   2.63979   2.64975   2.65038
 Alpha virt. eigenvalues --    2.66505   2.67125   2.67490   2.68102   2.68415
 Alpha virt. eigenvalues --    2.69115   2.69750   2.71148   2.71926   2.72426
 Alpha virt. eigenvalues --    2.72475   2.73884   2.74486   2.75461   2.76371
 Alpha virt. eigenvalues --    2.76555   2.78425   2.80033   2.80608   2.81029
 Alpha virt. eigenvalues --    2.81810   2.82885   2.84283   2.84858   2.86297
 Alpha virt. eigenvalues --    2.87431   2.87934   2.89275   2.89400   2.89653
 Alpha virt. eigenvalues --    2.90485   2.91518   2.92569   2.93096   2.94400
 Alpha virt. eigenvalues --    2.95172   2.96150   2.96197   2.96603   2.96861
 Alpha virt. eigenvalues --    2.97690   2.98207   2.98988   3.00530   3.01213
 Alpha virt. eigenvalues --    3.03263   3.03457   3.03920   3.06523   3.07324
 Alpha virt. eigenvalues --    3.08024   3.08857   3.09749   3.10521   3.10970
 Alpha virt. eigenvalues --    3.11663   3.12342   3.13100   3.13706   3.14092
 Alpha virt. eigenvalues --    3.14351   3.14664   3.15896   3.16270   3.16761
 Alpha virt. eigenvalues --    3.17097   3.18093   3.18941   3.19624   3.19869
 Alpha virt. eigenvalues --    3.20729   3.22119   3.22831   3.23867   3.26485
 Alpha virt. eigenvalues --    3.27636   3.28444   3.29912   3.31353   3.32039
 Alpha virt. eigenvalues --    3.32926   3.34543   3.35684   3.37578   3.38298
 Alpha virt. eigenvalues --    3.39069   3.39814   3.40173   3.40978   3.41260
 Alpha virt. eigenvalues --    3.43062   3.44952   3.45656   3.47440   3.48605
 Alpha virt. eigenvalues --    3.50412   3.52194   3.53951   3.54626   3.56521
 Alpha virt. eigenvalues --    3.57929   3.58662   3.59236   3.59447   3.59524
 Alpha virt. eigenvalues --    3.60930   3.62568   3.62894   3.65070   3.66566
 Alpha virt. eigenvalues --    3.67330   3.69073   3.69620   3.70944   3.72634
 Alpha virt. eigenvalues --    3.73996   3.75286   3.79423   3.82681   3.83717
 Alpha virt. eigenvalues --    3.84900   3.86421   3.88881   3.89749   3.90571
 Alpha virt. eigenvalues --    3.91067   3.91951   3.92656   3.93003   3.93615
 Alpha virt. eigenvalues --    3.93759   3.96062   3.97385   4.00513   4.05884
 Alpha virt. eigenvalues --    4.07077   4.08321   4.14807   4.15884   4.16438
 Alpha virt. eigenvalues --    4.17695   4.17888   4.19942   4.22467   4.25029
 Alpha virt. eigenvalues --    4.26047   4.26775   4.29172   4.30853   4.37568
 Alpha virt. eigenvalues --    4.38959   4.42195   4.49314   4.51226   4.60852
 Alpha virt. eigenvalues --    4.61525   4.65839   4.73806   4.86749   5.10324
 Alpha virt. eigenvalues --    5.10553   5.12925   5.13925   5.18204   5.19967
 Alpha virt. eigenvalues --    5.28533   5.30023   5.30432   5.33157   5.35953
 Alpha virt. eigenvalues --    5.37638   5.49440   5.51430   5.53404   5.55509
 Alpha virt. eigenvalues --    5.59179   5.60832   5.93408   5.97118   6.00358
 Alpha virt. eigenvalues --    6.04916   6.06608   6.10477   8.18886   8.25832
 Alpha virt. eigenvalues --   17.45830  17.54163  17.66525  17.69701  17.77006
 Alpha virt. eigenvalues --   17.83113  23.71511  23.78918  23.91595  23.99373
 Alpha virt. eigenvalues --   24.04780  24.05390  24.06470  24.08184  24.09339
 Alpha virt. eigenvalues --   24.10322  24.12464  24.12924  24.14017  24.15547
 Alpha virt. eigenvalues --   24.16631  24.19918  24.20551  24.21385  24.22461
 Alpha virt. eigenvalues --   24.25150  24.26520  24.30877  24.31850  24.33395
 Alpha virt. eigenvalues --   24.39724  24.40778  35.79755  35.82731  50.12777
 Alpha virt. eigenvalues --   50.14472  50.27272  50.29212  50.31163  50.32849
 Alpha virt. eigenvalues --  189.36197 189.44060
          Condensed to atoms (all electrons):
 Mulliken charges:
               1
     1  C    0.279029
     2  C   -0.113359
     3  C    0.105868
     4  C    0.148294
     5  C    0.140293
     6  C   -0.761343
     7  C    0.208013
     8  C    0.099088
     9  C    0.712005
    10  C   -0.532113
    11  C    0.228345
    12  C    0.083115
    13  C   -0.544118
    14  C   -0.644951
    15  H    0.097725
    16  H    0.102112
    17  H    0.122978
    18  N   -0.143231
    19  N   -0.139198
    20  O   -0.411027
    21  O   -0.400416
    22  O   -0.408515
    23  O   -0.272476
    24  C   -0.185756
    25  H    0.139387
    26  H    0.133845
    27  H    0.154872
    28  C   -0.182607
    29  H    0.136054
    30  H    0.134400
    31  H    0.155452
    32  C    0.240772
    33  C   -0.608736
    34  S   -0.404583
    35  C   -0.371991
    36  H    0.089506
    37  C    0.539660
    38  O   -0.125546
    39  C    0.936769
    40  C   -0.246976
    41  C    0.006576
    42  S   -0.315597
    43  H    0.132045
    44  H    0.133579
    45  H    0.154580
    46  C   -0.513843
    47  O   -0.109610
    48  C   -0.350409
    49  H    0.097495
    50  C   -0.242355
    51  H    0.117433
    52  H    0.120082
    53  H    0.159063
    54  H    0.120322
 Sum of Mulliken charges =  -2.00000
 Mulliken charges with hydrogens summed into heavy atoms:
               1
     1  C    0.279029
     2  C   -0.113359
     3  C    0.105868
     4  C    0.148294
     5  C    0.140293
     6  C   -0.638364
     7  C    0.208013
     8  C    0.099088
     9  C    0.712005
    10  C   -0.532113
    11  C    0.228345
    12  C    0.083115
    13  C   -0.442006
    14  C   -0.547226
    18  N   -0.143231
    19  N   -0.139198
    20  O   -0.411027
    21  O   -0.400416
    22  O   -0.408515
    23  O   -0.272476
    24  C    0.242348
    28  C    0.243299
    32  C    0.240772
    33  C   -0.519231
    34  S   -0.404583
    35  C   -0.371991
    37  C    0.539660
    38  O   -0.125546
    39  C    0.936769
    40  C    0.173227
    41  C    0.006576
    42  S   -0.315597
    46  C   -0.416348
    47  O   -0.109610
    48  C   -0.232977
    50  C    0.157113
 Electronic spatial extent (au):  <R**2>=          22639.1265
 Charge=             -2.0000 electrons
 Dipole moment (field-independent basis, Debye):
    X=            -17.7770    Y=             -1.2234    Z=              0.8875  Tot=             17.8412
 Quadrupole moment (field-independent basis, Debye-Ang):
   XX=           -421.2399   YY=           -308.7481   ZZ=           -224.9021
   XY=              0.2850   XZ=             10.2823   YZ=             21.9444
 Traceless Quadrupole moment (field-independent basis, Debye-Ang):
   XX=           -102.9432   YY=              9.5486   ZZ=             93.3946
   XY=              0.2850   XZ=             10.2823   YZ=             21.9444
 Octapole moment (field-independent basis, Debye-Ang**2):
  XXX=           -584.0574  YYY=            -50.1060  ZZZ=              3.0644  XYY=           -252.1131
  XXY=             20.6625  XXZ=             -1.1780  XZZ=            -54.7150  YZZ=             -4.8444
  YYZ=             10.2909  XYZ=              7.7802
 Hexadecapole moment (field-independent basis, Debye-Ang**3):
 XXXX=         -29273.9426 YYYY=          -8042.7468 ZZZZ=          -2216.8433 XXXY=            437.1611
 XXXZ=            320.4057 YYYX=           -385.5616 YYYZ=            283.9474 ZZZX=             50.4847
 ZZZY=            127.3361 XXYY=          -6177.6095 XXZZ=          -4180.8377 YYZZ=          -1521.9479
 XXYZ=            316.6953 YYXZ=            121.1857 ZZXY=            -26.5546
 N-N= 4.075250602298D+03 E-N=-1.374945797457D+04  KE= 2.352422122127D+03
 Calling FoFJK, ICntrl=      2127 FMM=F ISym2X=0 I1Cent= 0 IOpClX= 0 NMat=1 NMatS=1 NMatT=0.
 ***** Axes restored to original set *****
 -------------------------------------------------------------------
 Center     Atomic                   Forces (Hartrees/Bohr)
 Number     Number              X              Y              Z
 -------------------------------------------------------------------
      1        6          -0.002142457    0.046314985    0.005624123
      2        6          -0.029556442   -0.031724264   -0.004262889
      3        6          -0.002145258   -0.008357893   -0.001012512
      4        6           0.013451521   -0.037652720   -0.005564030
      5        6           0.025817437    0.039238140    0.005040170
      6        6           0.039292228    0.033043887    0.005792168
      7        6           0.001029529    0.007886624   -0.000499691
      8        6          -0.011922057    0.037581874    0.006609689
      9        6          -0.004460764   -0.045707387   -0.003568989
     10        6          -0.015597793   -0.037416671   -0.009415233
     11        6           0.008167138   -0.043814233   -0.007080105
     12        6           0.025928280    0.029621606    0.004655557
     13        6          -0.030504429   -0.029225057   -0.003808211
     14        6          -0.015094450    0.039413733    0.005965957
     15        1          -0.000160795    0.000842747    0.000154294
     16        1          -0.000081730   -0.000947596   -0.000063696
     17        1           0.001883898    0.001548617    0.000575583
     18        7          -0.001967477    0.004213874    0.000318480
     19        7          -0.002291217   -0.004234992   -0.000468500
     20        8           0.017119321   -0.026942885   -0.003941508
     21        8          -0.029897361   -0.017651481   -0.002018638
     22        8          -0.019269504    0.026419657    0.004211282
     23        8           0.028790588    0.011459397    0.001950719
     24        6          -0.001273347   -0.005178467   -0.002125301
     25        1           0.001214836    0.000622646    0.000288336
     26        1           0.000687994    0.000373236    0.000808030
     27        1          -0.001012113   -0.000337841   -0.000050141
     28        6           0.000692649    0.006294071    0.000373197
     29        1           0.000596697   -0.001063244    0.000193476
     30        1           0.000731166   -0.001292930   -0.000062220
     31        1          -0.000709895    0.000764344    0.000197855
     32        6           0.005284623    0.001145066    0.001517032
     33        6          -0.002409591    0.003304014    0.003344121
     34       16          -0.011561488    0.001375957   -0.005529530
     35        6          -0.005492587   -0.003996973    0.015291641
     36        1          -0.002893044   -0.000279495   -0.000228651
     37        6           0.009667142    0.002890468   -0.005854598
     38        8           0.006332877    0.005689602   -0.012034867
     39        6          -0.007960371   -0.001635178   -0.002278420
     40        6           0.000154405   -0.001997890    0.004815900
     41        6           0.012053657    0.003419736   -0.004774391
     42       16          -0.001725801   -0.000024567   -0.000939324
     43        1           0.000679487    0.000216040   -0.000358575
     44        1          -0.000128722    0.000428658    0.000421589
     45        1           0.000485037   -0.001106448   -0.000198949
     46        6          -0.006535134   -0.000379298   -0.000787195
     47        8          -0.004180222   -0.007336206    0.013071574
     48        6           0.013542947    0.000505688    0.002037887
     49        1           0.000384264   -0.000019922    0.000271790
     50        6          -0.001612497    0.004500318   -0.006393558
     51        1          -0.001491751    0.000071583    0.000315305
     52        1           0.000027194   -0.000387882   -0.000168750
     53        1          -0.000471211    0.000036253   -0.000267319
     54        1           0.000534594   -0.000511300   -0.000089964
 -------------------------------------------------------------------
 Cartesian Forces:  Max     0.046314985 RMS     0.013505436

 GradGradGradGradGradGradGradGradGradGradGradGradGradGradGradGradGradGrad
 Berny optimization.
 FormGI is forming the generalized inverse of G from B-inverse, IUseBI=4.
 Internal  Forces:  Max     0.034019662 RMS     0.006603549
 Search for a local minimum.
 Step number   1 out of a maximum of  307
 All quantities printed in internal units (Hartrees-Bohrs-Radians)
 Mixed Optimization -- RFO/linear search
 Second derivative matrix not updated -- first step.
 ITU=  0
     Eigenvalues ---    0.00803   0.00803   0.01176   0.01203   0.01245
     Eigenvalues ---    0.01292   0.01308   0.01311   0.01364   0.01389
     Eigenvalues ---    0.01419   0.01429   0.01456   0.01496   0.01515
     Eigenvalues ---    0.01568   0.01576   0.01577   0.01623   0.01651
     Eigenvalues ---    0.01696   0.01709   0.01711   0.01719   0.01754
     Eigenvalues ---    0.01783   0.01803   0.01847   0.01962   0.02040
     Eigenvalues ---    0.02046   0.02069   0.02077   0.02083   0.02135
     Eigenvalues ---    0.02149   0.02163   0.02180   0.02197   0.02220
     Eigenvalues ---    0.02238   0.02252   0.07556   0.07572   0.07690
     Eigenvalues ---    0.07700   0.10062   0.10076   0.10628   0.10634
     Eigenvalues ---    0.15983   0.15999   0.15999   0.16000   0.16000
     Eigenvalues ---    0.16000   0.16000   0.16000   0.16000   0.16000
     Eigenvalues ---    0.16000   0.16000   0.16000   0.16000   0.16000
     Eigenvalues ---    0.16000   0.16000   0.16000   0.22530   0.22583
     Eigenvalues ---    0.23518   0.23581   0.24516   0.24747   0.24865
     Eigenvalues ---    0.24931   0.24952   0.24985   0.24987   0.24988
     Eigenvalues ---    0.24991   0.24994   0.24997   0.24997   0.24998
     Eigenvalues ---    0.24998   0.25000   0.25000   0.25000   0.25000
     Eigenvalues ---    0.25000   0.25000   0.25000   0.25000   0.25000
     Eigenvalues ---    0.25000   0.28785   0.28907   0.30116   0.32113
     Eigenvalues ---    0.32582   0.32774   0.33111   0.33787   0.33858
     Eigenvalues ---    0.33987   0.34028   0.34082   0.34354   0.34466
     Eigenvalues ---    0.34577   0.34629   0.34693   0.34857   0.34923
     Eigenvalues ---    0.35198   0.35218   0.35468   0.35553   0.35582
     Eigenvalues ---    0.35768   0.35887   0.36078   0.36083   0.36179
     Eigenvalues ---    0.36396   0.36662   0.39352   0.40194   0.40245
     Eigenvalues ---    0.40633   0.40651   0.41524   0.41748   0.42029
     Eigenvalues ---    0.42300   0.42821   0.43455   0.43809   0.44092
     Eigenvalues ---    0.44594   0.44655   0.45014   0.45406   0.46251
     Eigenvalues ---    0.47305   0.47554   0.49310   0.49664   0.52935
     Eigenvalues ---    0.53216   0.93281   0.93432   0.93989   0.94585
     Eigenvalues --- 1000.000001000.000001000.000001000.000001000.00000
     Eigenvalues --- 1000.000001000.000001000.000001000.000001000.00000
     Eigenvalues --- 1000.000001000.000001000.000001000.000001000.00000
     Eigenvalues --- 1000.000001000.000001000.000001000.000001000.00000
     Eigenvalues --- 1000.000001000.000001000.000001000.000001000.00000
     Eigenvalues --- 1000.000001000.000001000.000001000.000001000.00000
     Eigenvalues --- 1000.000001000.000001000.000001000.000001000.00000
     Eigenvalues --- 1000.000001000.000001000.000001000.000001000.00000
     Eigenvalues --- 1000.000001000.000001000.000001000.000001000.00000
     Eigenvalues --- 1000.000001000.000001000.000001000.000001000.00000
     Eigenvalues --- 1000.000001000.000001000.000001000.000001000.00000
     Eigenvalues --- 1000.000001000.000001000.000001000.000001000.00000
     Eigenvalues --- 1000.000001000.000001000.000001000.000001000.00000
     Eigenvalues --- 1000.000001000.000001000.000001000.000001000.00000
     Eigenvalues --- 1000.000001000.000001000.000001000.000001000.00000
     Eigenvalues --- 1000.000001000.000001000.000001000.000001000.00000
     Eigenvalues --- 1000.000001000.000001000.000001000.000001000.00000
     Eigenvalues --- 1000.000001000.000001000.000001000.000001000.00000
     Eigenvalues --- 1000.000001000.000001000.000001000.000001000.00000
     Eigenvalues --- 1000.000001000.000001000.000001000.000001000.00000
     Eigenvalues --- 1000.000001000.000001000.000001000.000001000.00000
     Eigenvalues --- 1000.000001000.000001000.000001000.000001000.00000
     Eigenvalues --- 1000.000001000.000001000.000001000.000001000.00000
     Eigenvalues --- 1000.000001000.000001000.000001000.000001000.00000
     Eigenvalues --- 1000.000001000.000001000.000001000.000001000.00000
     Eigenvalues --- 1000.000001000.000001000.000001000.000001000.00000
     Eigenvalues --- 1000.000001000.000001000.000001000.000001000.00000
     Eigenvalues --- 1000.000001000.000001000.000001000.000001000.00000
     Eigenvalues --- 1000.000001000.00000
 RFO step:  Lambda=-2.73311882D-02 EMin= 8.02933640D-03
 Linear search not attempted -- first point.
 Iteration  1 RMS(Cart)=  0.09591650 RMS(Int)=  0.00091903
 Iteration  2 RMS(Cart)=  0.00450448 RMS(Int)=  0.00014342
 Iteration  3 RMS(Cart)=  0.00000481 RMS(Int)=  0.00014341
 Iteration  4 RMS(Cart)=  0.00000000 RMS(Int)=  0.00014341
 Iteration  1 RMS(Cart)=  0.00003023 RMS(Int)=  0.00000484
 Iteration  2 RMS(Cart)=  0.00001726 RMS(Int)=  0.00000540
 Iteration  3 RMS(Cart)=  0.00000985 RMS(Int)=  0.00000613
 Iteration  4 RMS(Cart)=  0.00000562 RMS(Int)=  0.00000663
 Iteration  5 RMS(Cart)=  0.00000321 RMS(Int)=  0.00000695
 Iteration  6 RMS(Cart)=  0.00000183 RMS(Int)=  0.00000713
 Iteration  7 RMS(Cart)=  0.00000105 RMS(Int)=  0.00000724
 Iteration  8 RMS(Cart)=  0.00000060 RMS(Int)=  0.00000730
 Variable       Old X    -DE/DX   Delta X   Delta X   Delta X     New X
                                 (Linear)    (Quad)   (Total)
    R1        2.80935  -0.02209   0.00000  -0.06004  -0.06004   2.74931
    R2        2.64584   0.00637   0.00000   0.01282   0.01284   2.65868
    R3        2.31147   0.03133   0.00000   0.03240   0.03240   2.34386
    R4        2.67311   0.00985   0.00000   0.02432   0.02417   2.69728
    R5        2.59267   0.03166   0.00000   0.06057   0.06045   2.65312
    R6        2.66894   0.00422   0.00000   0.01007   0.01008   2.67902
    R7        2.69164   0.00855   0.00000   0.02051   0.02055   2.71220
    R8        2.81049  -0.02071   0.00000  -0.05714  -0.05714   2.75335
    R9        2.62173   0.02928   0.00000   0.05814   0.05812   2.67984
   R10        2.65570   0.00521   0.00000   0.01035   0.01036   2.66606
   R11        2.30889   0.03402   0.00000   0.03496   0.03496   2.34385
   R12        2.70248  -0.02985   0.00000  -0.06910  -0.06909   2.63339
   R13        2.04786   0.00015   0.00000   0.00040   0.00040   2.04826
   R14        2.70495  -0.00021   0.00000  -0.00275  -0.00253   2.70243
   R15        2.68322   0.00428   0.00000   0.00904   0.00912   2.69234
   R16        2.68655   0.01376   0.00000   0.02831   0.02842   2.71497
   R17        2.81233  -0.02709   0.00000  -0.07522  -0.07518   2.73715
   R18        2.76359   0.00356   0.00000   0.00904   0.00904   2.77264
   R19        2.66221   0.00656   0.00000   0.01423   0.01416   2.67637
   R20        2.31391   0.03098   0.00000   0.03222   0.03222   2.34612
   R21        2.79415  -0.01725   0.00000  -0.04538  -0.04542   2.74873
   R22        2.63842   0.00698   0.00000   0.01498   0.01488   2.65330
   R23        2.31456   0.03231   0.00000   0.03365   0.03365   2.34822
   R24        2.62448   0.02697   0.00000   0.05310   0.05308   2.67757
   R25        2.64561  -0.02085   0.00000  -0.04354  -0.04358   2.60204
   R26        2.04921  -0.00060   0.00000  -0.00157  -0.00157   2.04764
   R27        2.04741  -0.00012   0.00000  -0.00031  -0.00031   2.04710
   R28        2.77259  -0.00462   0.00000  -0.01190  -0.01190   2.76070
   R29        2.77252  -0.00492   0.00000  -0.01267  -0.01267   2.75985
   R30        2.06176   0.00091   0.00000   0.00244   0.00244   2.06420
   R31        2.06551  -0.00006   0.00000  -0.00017  -0.00017   2.06534
   R32        2.05322   0.00070   0.00000   0.00185   0.00185   2.05507
   R33        2.06368   0.00042   0.00000   0.00112   0.00112   2.06479
   R34        2.06281   0.00092   0.00000   0.00247   0.00247   2.06529
   R35        2.05355   0.00062   0.00000   0.00163   0.00163   2.05518
   R36        2.61075  -0.00425   0.00000  -0.00843  -0.00842   2.60233
   R37        3.33414  -0.00574   0.00000  -0.01799  -0.01800   3.31614
   R38        2.66060   0.00404   0.00000   0.00843   0.00844   2.66904
   R39        2.03803   0.00127   0.00000   0.00326   0.00326   2.04129
   R40        3.30358   0.00928   0.00000   0.02809   0.02807   3.33165
   R41        2.64455  -0.00437   0.00000  -0.00894  -0.00894   2.63562
   R42        2.57015   0.01098   0.00000   0.01972   0.01972   2.58987
   R43        2.71222   0.00252   0.00000   0.00588   0.00588   2.71810
   R44        2.69245  -0.00540   0.00000  -0.01215  -0.01215   2.68030
   R45        2.63308   0.00336   0.00000   0.00653   0.00652   2.63960
   R46        3.32865   0.00347   0.00000   0.01076   0.01075   3.33940
   R47        2.05908   0.00080   0.00000   0.00212   0.00212   2.06121
   R48        2.07283  -0.00046   0.00000  -0.00125  -0.00125   2.07159
   R49        2.07352  -0.00119   0.00000  -0.00325  -0.00325   2.07026
   R50        2.69170  -0.00010   0.00000  -0.00040  -0.00041   2.69129
   R51        2.56753   0.00910   0.00000   0.01626   0.01626   2.58378
   R52        3.26284   0.00451   0.00000   0.01302   0.01303   3.27587
   R53        2.58583   0.00246   0.00000   0.00467   0.00468   2.59051
   R54        2.04258   0.00040   0.00000   0.00102   0.00102   2.04361
   R55        2.68886  -0.00793   0.00000  -0.01771  -0.01771   2.67114
   R56        2.04445  -0.00149   0.00000  -0.00386  -0.00386   2.04059
   R57        2.07570  -0.00034   0.00000  -0.00094  -0.00094   2.07476
   R58        2.05800   0.00027   0.00000   0.00071   0.00071   2.05870
   R59        2.07193   0.00074   0.00000   0.00200   0.00200   2.07393
    A1        2.03797  -0.00438   0.00000  -0.01454  -0.01454   2.02343
    A2        2.14521   0.01058   0.00000   0.03752   0.03752   2.18273
    A3        2.10001  -0.00620   0.00000  -0.02298  -0.02298   2.07703
    A4        2.10395  -0.00241   0.00000  -0.00896  -0.00889   2.09506
    A5        2.08282   0.00262   0.00000   0.00454   0.00465   2.08747
    A6        2.09624  -0.00021   0.00000   0.00450   0.00430   2.10054
    A7        2.10093   0.00536   0.00000   0.01838   0.01834   2.11926
    A8        2.07104  -0.00124   0.00000  -0.00143  -0.00152   2.06952
    A9        2.11118  -0.00412   0.00000  -0.01695  -0.01681   2.09437
   A10        2.10296  -0.00277   0.00000  -0.00944  -0.00948   2.09348
   A11        2.09911   0.00066   0.00000   0.00355   0.00359   2.10270
   A12        2.08110   0.00211   0.00000   0.00588   0.00589   2.08699
   A13        2.03739  -0.00318   0.00000  -0.01175  -0.01175   2.02564
   A14        2.12972   0.00993   0.00000   0.03594   0.03594   2.16566
   A15        2.11607  -0.00675   0.00000  -0.02419  -0.02419   2.09188
   A16        2.15098  -0.00494   0.00000  -0.01827  -0.01832   2.13266
   A17        2.04399   0.00498   0.00000   0.02253   0.02256   2.06655
   A18        2.08722  -0.00005   0.00000  -0.00447  -0.00446   2.08276
   A19        2.11101  -0.00465   0.00000  -0.01681  -0.01675   2.09426
   A20        2.04385   0.00336   0.00000   0.01437   0.01427   2.05812
   A21        2.12832   0.00129   0.00000   0.00244   0.00248   2.13080
   A22        2.08678   0.00370   0.00000   0.00925   0.00936   2.09614
   A23        2.04738   0.00636   0.00000   0.02367   0.02362   2.07100
   A24        2.14662  -0.01000   0.00000  -0.03118  -0.03155   2.11507
   A25        2.04892   0.00737   0.00000   0.02235   0.02239   2.07131
   A26        2.00754   0.00727   0.00000   0.02870   0.02851   2.03605
   A27        2.22643  -0.01466   0.00000  -0.05041  -0.05060   2.17582
   A28        2.06022  -0.00668   0.00000  -0.02499  -0.02502   2.03520
   A29        2.17370   0.00195   0.00000   0.00758   0.00753   2.18123
   A30        2.04919   0.00473   0.00000   0.01762   0.01757   2.06676
   A31        2.01621  -0.00220   0.00000  -0.00583  -0.00597   2.01024
   A32        2.14188   0.00869   0.00000   0.03036   0.03039   2.17227
   A33        2.12500  -0.00648   0.00000  -0.02435  -0.02432   2.10068
   A34        2.10943  -0.00325   0.00000  -0.01103  -0.01099   2.09843
   A35        2.11468  -0.00149   0.00000  -0.00622  -0.00622   2.10846
   A36        2.05896   0.00474   0.00000   0.01730   0.01727   2.07623
   A37        2.11176   0.00005   0.00000  -0.00111  -0.00116   2.11060
   A38        2.05670   0.00073   0.00000   0.00459   0.00461   2.06131
   A39        2.11471  -0.00078   0.00000  -0.00346  -0.00344   2.11127
   A40        2.08567   0.00154   0.00000   0.00641   0.00637   2.09205
   A41        2.07549   0.00011   0.00000   0.00151   0.00153   2.07703
   A42        2.12199  -0.00165   0.00000  -0.00792  -0.00790   2.11409
   A43        2.20043   0.00459   0.00000   0.01796   0.01784   2.21827
   A44        2.02023  -0.00214   0.00000  -0.00842  -0.00836   2.01188
   A45        2.06252  -0.00245   0.00000  -0.00954  -0.00948   2.05304
   A46        2.18316   0.00738   0.00000   0.02632   0.02633   2.20948
   A47        2.02959  -0.00291   0.00000  -0.01035  -0.01035   2.01924
   A48        2.07044  -0.00447   0.00000  -0.01597  -0.01598   2.05447
   A49        1.91737   0.00087   0.00000   0.00435   0.00435   1.92172
[...]
 Alpha  occ. eigenvalues --   -0.29624  -0.29034  -0.26933  -0.26742  -0.26427
 Alpha  occ. eigenvalues --   -0.26320  -0.25804  -0.24921  -0.24857  -0.24447
 Alpha  occ. eigenvalues --   -0.23886  -0.23004  -0.22313  -0.22189  -0.21549
 Alpha  occ. eigenvalues --   -0.20906  -0.20802  -0.20559  -0.20319  -0.20078
 Alpha  occ. eigenvalues --   -0.19509  -0.19152  -0.18749  -0.18597  -0.17774
 Alpha  occ. eigenvalues --   -0.17675  -0.17215  -0.16924  -0.16368  -0.16031
 Alpha  occ. eigenvalues --   -0.15564  -0.14676  -0.14585  -0.12823  -0.11946
 Alpha  occ. eigenvalues --   -0.11229  -0.10073  -0.09497  -0.06618  -0.06377
 Alpha  occ. eigenvalues --   -0.06102  -0.05730  -0.05405  -0.05082  -0.04186
 Alpha  occ. eigenvalues --   -0.03967  -0.03447  -0.01552  -0.00463   0.07089
 Alpha virt. eigenvalues --    0.11581   0.12425   0.13419   0.13973   0.15367
 Alpha virt. eigenvalues --    0.16139   0.16346   0.16804   0.16902   0.17127
 Alpha virt. eigenvalues --    0.17201   0.17712   0.18205   0.18232   0.18536
 Alpha virt. eigenvalues --    0.18673   0.19367   0.19421   0.19803   0.19886
 Alpha virt. eigenvalues --    0.19981   0.20680   0.20912   0.21122   0.21367
 Alpha virt. eigenvalues --    0.21448   0.21698   0.21904   0.22338   0.22430
 Alpha virt. eigenvalues --    0.22697   0.22862   0.23672   0.24042   0.24097
 Alpha virt. eigenvalues --    0.24323   0.24501   0.24700   0.24988   0.25484
 Alpha virt. eigenvalues --    0.25560   0.25716   0.25956   0.26081   0.26301
 Alpha virt. eigenvalues --    0.26582   0.26707   0.26962   0.27086   0.27499
 Alpha virt. eigenvalues --    0.27693   0.28066   0.28299   0.28657   0.28838
 Alpha virt. eigenvalues --    0.29182   0.29404   0.29608   0.29882   0.30292
 Alpha virt. eigenvalues --    0.30650   0.30918   0.31016   0.31394   0.31735
 Alpha virt. eigenvalues --    0.31929   0.32001   0.32406   0.32586   0.32783
 Alpha virt. eigenvalues --    0.32903   0.33032   0.33243   0.33627   0.33952
 Alpha virt. eigenvalues --    0.34001   0.34150   0.34716   0.34765   0.34870
 Alpha virt. eigenvalues --    0.35453   0.35628   0.35818   0.35964   0.36196
 Alpha virt. eigenvalues --    0.36446   0.36565   0.37099   0.37387   0.37618
 Alpha virt. eigenvalues --    0.37841   0.38091   0.38262   0.38359   0.38565
 Alpha virt. eigenvalues --    0.38909   0.39071   0.39325   0.39725   0.39826
 Alpha virt. eigenvalues --    0.39909   0.40210   0.40543   0.40680   0.41087
 Alpha virt. eigenvalues --    0.41127   0.41398   0.41633   0.41772   0.42016
 Alpha virt. eigenvalues --    0.42289   0.42495   0.42686   0.42851   0.43196
 Alpha virt. eigenvalues --    0.43314   0.44009   0.44084   0.44182   0.44365
 Alpha virt. eigenvalues --    0.44689   0.44851   0.45152   0.45286   0.45470
 Alpha virt. eigenvalues --    0.45624   0.45829   0.45909   0.46382   0.46501
 Alpha virt. eigenvalues --    0.46746   0.46931   0.47015   0.47273   0.47361
 Alpha virt. eigenvalues --    0.47807   0.48021   0.48134   0.48274   0.48461
 Alpha virt. eigenvalues --    0.48645   0.48744   0.49073   0.49142   0.49444
 Alpha virt. eigenvalues --    0.49510   0.50030   0.50235   0.50384   0.50504
 Alpha virt. eigenvalues --    0.50787   0.51024   0.51472   0.51561   0.51720
 Alpha virt. eigenvalues --    0.51993   0.52285   0.52365   0.52495   0.52991
 Alpha virt. eigenvalues --    0.53296   0.53444   0.53733   0.54069   0.54348
 Alpha virt. eigenvalues --    0.54768   0.54947   0.55600   0.55817   0.56166
 Alpha virt. eigenvalues --    0.56483   0.57301   0.57729   0.57973   0.58180
 Alpha virt. eigenvalues --    0.58559   0.59044   0.59731   0.60077   0.60263
 Alpha virt. eigenvalues --    0.60678   0.60695   0.60848   0.61329   0.61621
 Alpha virt. eigenvalues --    0.62235   0.62312   0.62467   0.62937   0.63802
 Alpha virt. eigenvalues --    0.63860   0.64350   0.64832   0.65135   0.65432
 Alpha virt. eigenvalues --    0.65697   0.65947   0.66774   0.66946   0.67451
 Alpha virt. eigenvalues --    0.68151   0.69075   0.69614   0.70405   0.70672
 Alpha virt. eigenvalues --    0.70797   0.71039   0.71681   0.72023   0.72563
 Alpha virt. eigenvalues --    0.72799   0.73352   0.73592   0.74310   0.74703
 Alpha virt. eigenvalues --    0.75916   0.75966   0.76752   0.77049   0.77548
 Alpha virt. eigenvalues --    0.77940   0.78116   0.78327   0.78860   0.79078
 Alpha virt. eigenvalues --    0.79376   0.80048   0.80712   0.80900   0.80980
 Alpha virt. eigenvalues --    0.81288   0.82079   0.82492   0.82979   0.83318
 Alpha virt. eigenvalues --    0.83487   0.83785   0.84121   0.85006   0.85060
 Alpha virt. eigenvalues --    0.85367   0.85659   0.86103   0.86532   0.87094
 Alpha virt. eigenvalues --    0.87324   0.87771   0.87900   0.88231   0.88490
 Alpha virt. eigenvalues --    0.88697   0.89003   0.89594   0.89808   0.90301
 Alpha virt. eigenvalues --    0.90715   0.91046   0.91410   0.91571   0.92168
 Alpha virt. eigenvalues --    0.92259   0.92880   0.93061   0.93403   0.93619
 Alpha virt. eigenvalues --    0.94294   0.94458   0.94869   0.95218   0.95685
 Alpha virt. eigenvalues --    0.95910   0.96108   0.96532   0.96892   0.97346
 Alpha virt. eigenvalues --    0.97863   0.97911   0.98495   0.99008   0.99201
 Alpha virt. eigenvalues --    0.99481   0.99864   1.00834   1.00940   1.01689
 Alpha virt. eigenvalues --    1.02348   1.02714   1.03290   1.04404   1.04628
 Alpha virt. eigenvalues --    1.05044   1.06115   1.06215   1.07409   1.08090
 Alpha virt. eigenvalues --    1.08643   1.09159   1.09537   1.09859   1.10553
 Alpha virt. eigenvalues --    1.11094   1.11701   1.12374   1.13197   1.13959
 Alpha virt. eigenvalues --    1.15047   1.15318   1.15499   1.15889   1.16290
 Alpha virt. eigenvalues --    1.16827   1.17086   1.17528   1.17822   1.18465
 Alpha virt. eigenvalues --    1.19054   1.19212   1.19784   1.19914   1.20242
 Alpha virt. eigenvalues --    1.21014   1.21428   1.21665   1.22173   1.22335
 Alpha virt. eigenvalues --    1.23179   1.23740   1.23895   1.24599   1.24901
 Alpha virt. eigenvalues --    1.25228   1.25392   1.26199   1.26359   1.26654
 Alpha virt. eigenvalues --    1.26977   1.27700   1.27940   1.28527   1.29310
 Alpha virt. eigenvalues --    1.29713   1.30154   1.30754   1.31693   1.32031
 Alpha virt. eigenvalues --    1.32435   1.32869   1.33086   1.34007   1.35471
 Alpha virt. eigenvalues --    1.36004   1.36709   1.37755   1.38306   1.39213
 Alpha virt. eigenvalues --    1.39263   1.40349   1.40892   1.41347   1.41839
 Alpha virt. eigenvalues --    1.42454   1.42997   1.43483   1.43967   1.44821
 Alpha virt. eigenvalues --    1.45799   1.46307   1.47084   1.48569   1.48660
 Alpha virt. eigenvalues --    1.49573   1.50123   1.50872   1.51292   1.51531
 Alpha virt. eigenvalues --    1.52210   1.52361   1.52756   1.54051   1.54980
 Alpha virt. eigenvalues --    1.55198   1.56327   1.56888   1.57388   1.59056
 Alpha virt. eigenvalues --    1.59963   1.60005   1.60998   1.61958   1.63152
 Alpha virt. eigenvalues --    1.63967   1.64142   1.64528   1.65427   1.65676
 Alpha virt. eigenvalues --    1.66022   1.66240   1.67002   1.67319   1.68377
 Alpha virt. eigenvalues --    1.69332   1.69745   1.70073   1.70638   1.70826
 Alpha virt. eigenvalues --    1.71079   1.71470   1.72267   1.72781   1.73481
 Alpha virt. eigenvalues --    1.73768   1.74147   1.74816   1.75233   1.75771
 Alpha virt. eigenvalues --    1.76226   1.76392   1.76598   1.77233   1.77928
 Alpha virt. eigenvalues --    1.78309   1.78726   1.78965   1.79416   1.79755
 Alpha virt. eigenvalues --    1.81559   1.81848   1.82316   1.82876   1.83311
 Alpha virt. eigenvalues --    1.83643   1.84186   1.84454   1.85679   1.86844
 Alpha virt. eigenvalues --    1.87079   1.87512   1.88360   1.89841   1.90068
 Alpha virt. eigenvalues --    1.90719   1.91653   1.91728   1.91811   1.92680
 Alpha virt. eigenvalues --    1.92849   1.93393   1.94079   1.94419   1.95074
 Alpha virt. eigenvalues --    1.96653   1.96717   1.97193   1.98076   1.98565
 Alpha virt. eigenvalues --    2.00012   2.00424   2.00609   2.00953   2.01866
 Alpha virt. eigenvalues --    2.02636   2.03509   2.04527   2.05090   2.06445
 Alpha virt. eigenvalues --    2.07894   2.08929   2.09170   2.09669   2.10618
 Alpha virt. eigenvalues --    2.10787   2.10950   2.11695   2.12227   2.12929
 Alpha virt. eigenvalues --    2.13076   2.14121   2.14451   2.14620   2.15891
 Alpha virt. eigenvalues --    2.16052   2.17232   2.17876   2.18805   2.19482
 Alpha virt. eigenvalues --    2.20124   2.20411   2.21246   2.22164   2.22531
 Alpha virt. eigenvalues --    2.23071   2.23547   2.23939   2.24566   2.24898
 Alpha virt. eigenvalues --    2.25005   2.26000   2.26201   2.26410   2.26475
 Alpha virt. eigenvalues --    2.27396   2.27843   2.28474   2.29860   2.30405
 Alpha virt. eigenvalues --    2.30846   2.32135   2.33135   2.33447   2.33962
 Alpha virt. eigenvalues --    2.35366   2.35682   2.38068   2.38450   2.39757
 Alpha virt. eigenvalues --    2.39989   2.40937   2.42486   2.42945   2.43717
 Alpha virt. eigenvalues --    2.45400   2.46105   2.47847   2.47924   2.51016
 Alpha virt. eigenvalues --    2.52542   2.56275   2.56389   2.56815   2.57453
 Alpha virt. eigenvalues --    2.57748   2.58719   2.59194   2.59412   2.60392
 Alpha virt. eigenvalues --    2.61428   2.62426   2.63453   2.64112   2.64918
 Alpha virt. eigenvalues --    2.66431   2.66874   2.67396   2.67933   2.68582
 Alpha virt. eigenvalues --    2.69256   2.69967   2.71192   2.72181   2.72273
 Alpha virt. eigenvalues --    2.73220   2.74113   2.74316   2.74834   2.75565
 Alpha virt. eigenvalues --    2.76226   2.76858   2.78570   2.80277   2.81375
 Alpha virt. eigenvalues --    2.81465   2.81994   2.82310   2.84181   2.85302
 Alpha virt. eigenvalues --    2.86959   2.87122   2.87683   2.88293   2.88710
 Alpha virt. eigenvalues --    2.89648   2.89803   2.90047   2.90946   2.92108
 Alpha virt. eigenvalues --    2.93333   2.94839   2.95424   2.95623   2.96372
 Alpha virt. eigenvalues --    2.96501   2.96752   2.97872   2.98091   3.00493
 Alpha virt. eigenvalues --    3.00634   3.01543   3.02385   3.03806   3.06129
 Alpha virt. eigenvalues --    3.06980   3.07619   3.07849   3.09034   3.10150
 Alpha virt. eigenvalues --    3.10782   3.11716   3.12025   3.12493   3.13565
 Alpha virt. eigenvalues --    3.13748   3.13970   3.14475   3.14871   3.15166
 Alpha virt. eigenvalues --    3.15741   3.16827   3.17353   3.18179   3.18654
 Alpha virt. eigenvalues --    3.20006   3.21361   3.22434   3.22827   3.25385
 Alpha virt. eigenvalues --    3.26689   3.27762   3.28718   3.29924   3.31103
 Alpha virt. eigenvalues --    3.31933   3.33352   3.34723   3.36050   3.37030
 Alpha virt. eigenvalues --    3.38212   3.39697   3.40414   3.40558   3.42225
 Alpha virt. eigenvalues --    3.42922   3.43220   3.45131   3.45647   3.47050
 Alpha virt. eigenvalues --    3.47909   3.48685   3.51680   3.52918   3.53730
 Alpha virt. eigenvalues --    3.55743   3.56162   3.56483   3.56896   3.57102
 Alpha virt. eigenvalues --    3.58155   3.59371   3.60172   3.62157   3.62933
 Alpha virt. eigenvalues --    3.63598   3.64741   3.65987   3.66652   3.69389
 Alpha virt. eigenvalues --    3.70930   3.72797   3.73261   3.75743   3.81026
 Alpha virt. eigenvalues --    3.82323   3.83395   3.84422   3.87819   3.89024
 Alpha virt. eigenvalues --    3.89551   3.91622   3.92067   3.92499   3.92823
 Alpha virt. eigenvalues --    3.93398   3.94751   3.95871   3.97073   3.99450
 Alpha virt. eigenvalues --    4.05003   4.07685   4.09297   4.13564   4.15376
 Alpha virt. eigenvalues --    4.15974   4.16909   4.17000   4.17239   4.18941
 Alpha virt. eigenvalues --    4.21548   4.25026   4.26342   4.29350   4.30444
 Alpha virt. eigenvalues --    4.36671   4.38236   4.41368   4.49464   4.51686
 Alpha virt. eigenvalues --    4.59995   4.61482   4.66922   4.71976   4.82976
 Alpha virt. eigenvalues --    5.06737   5.10645   5.11053   5.14607   5.20417
 Alpha virt. eigenvalues --    5.28633   5.30017   5.30516   5.33254   5.34180
 Alpha virt. eigenvalues --    5.36694   5.38594   5.49101   5.51253   5.53269
 Alpha virt. eigenvalues --    5.54547   5.57068   5.59771   5.90170   5.94725
 Alpha virt. eigenvalues --    5.99192   6.03994   6.05566   6.10178   8.16771
 Alpha virt. eigenvalues --    8.23786  17.45509  17.54462  17.65120  17.68528
 Alpha virt. eigenvalues --   17.77649  17.81218  23.68932  23.78057  23.89169
 Alpha virt. eigenvalues --   23.98994  24.03245  24.05986  24.06435  24.06476
 Alpha virt. eigenvalues --   24.07962  24.11174  24.12438  24.13984  24.14900
 Alpha virt. eigenvalues --   24.14954  24.16557  24.17452  24.20035  24.20104
 Alpha virt. eigenvalues --   24.21865  24.23448  24.25251  24.26302  24.31227
 Alpha virt. eigenvalues --   24.31688  24.38253  24.42989  35.79214  35.82274
 Alpha virt. eigenvalues --   50.11497  50.13263  50.26238  50.28158  50.29579
 Alpha virt. eigenvalues --   50.31477 189.34022 189.41910
          Condensed to atoms (all electrons):
 Mulliken charges:
               1
     1  C    0.315116
     2  C   -0.079514
     3  C    0.061171
     4  C    0.221236
     5  C    0.130596
     6  C   -0.806212
     7  C    0.201711
     8  C    0.077809
     9  C    0.683281
    10  C   -0.385931
    11  C    0.197549
    12  C    0.180094
    13  C   -0.555548
    14  C   -0.638051
    15  H    0.102005
    16  H    0.104440
    17  H    0.129233
    18  N   -0.158256
    19  N   -0.137069
    20  O   -0.433648
    21  O   -0.420016
    22  O   -0.427072
    23  O   -0.288537
    24  C   -0.197640
    25  H    0.139753
    26  H    0.128805
    27  H    0.158454
    28  C   -0.180142
    29  H    0.131624
    30  H    0.133767
    31  H    0.157216
    32  C    0.007622
    33  C   -0.389834
    34  S   -0.368104
    35  C   -0.486162
    36  H    0.101836
    37  C    0.461315
    38  O   -0.130974
    39  C    0.408712
    40  C   -0.265093
    41  C    0.178986
    42  S   -0.357372
    43  H    0.130490
    44  H    0.129857
    45  H    0.163526
    46  C   -0.147315
    47  O   -0.136159
    48  C   -0.177549
    49  H    0.096357
    50  C   -0.317544
    51  H    0.122499
    52  H    0.106949
    53  H    0.150245
    54  H    0.171486
 Sum of Mulliken charges =  -2.00000
 Mulliken charges with hydrogens summed into heavy atoms:
               1
     1  C    0.315116
     2  C   -0.079514
     3  C    0.061171
     4  C    0.221236
     5  C    0.130596
     6  C   -0.676979
     7  C    0.201711
     8  C    0.077809
     9  C    0.683281
    10  C   -0.385931
    11  C    0.197549
    12  C    0.180094
    13  C   -0.451107
    14  C   -0.536046
    18  N   -0.158256
    19  N   -0.137069
    20  O   -0.433648
    21  O   -0.420016
    22  O   -0.427072
    23  O   -0.288537
    24  C    0.229372
    28  C    0.242465
    32  C    0.007622
    33  C   -0.287998
    34  S   -0.368104
    35  C   -0.486162
    37  C    0.461315
    38  O   -0.130974
    39  C    0.408712
    40  C    0.158780
    41  C    0.178986
    42  S   -0.357372
    46  C   -0.050958
    47  O   -0.136159
    48  C   -0.055050
    50  C    0.111136
 Electronic spatial extent (au):  <R**2>=          22380.7538
 Charge=             -2.0000 electrons
 Dipole moment (field-independent basis, Debye):
    X=            -17.6822    Y=             -0.8339    Z=              2.6764  Tot=             17.9031
 Quadrupole moment (field-independent basis, Debye-Ang):
   XX=           -424.0692   YY=           -309.9896   ZZ=           -236.5946
   XY=              1.5178   XZ=             -1.3951   YZ=             20.1083
 Traceless Quadrupole moment (field-independent basis, Debye-Ang):
   XX=           -100.5181   YY=             13.5616   ZZ=             86.9565
   XY=              1.5178   XZ=             -1.3951   YZ=             20.1083
 Octapole moment (field-independent basis, Debye-Ang**2):
  XXX=           -589.0125  YYY=            -55.0725  ZZZ=             30.0211  XYY=           -288.0331
  XXY=             41.0447  XXZ=             41.0379  XZZ=             -7.9379  YZZ=             13.2179
  YYZ=             16.6191  XYZ=             33.8232
 Hexadecapole moment (field-independent basis, Debye-Ang**3):
 XXXX=         -28882.5286 YYYY=          -8626.9719 ZZZZ=          -1646.0111 XXXY=            466.2760
 XXXZ=             39.1521 YYYX=           -325.2878 YYYZ=            328.6271 ZZZX=            -80.0458
 ZZZY=             58.4583 XXYY=          -6298.1502 XXZZ=          -4254.7465 YYZZ=          -1522.4075
 XXYZ=            279.2606 YYXZ=             80.7607 ZZXY=           -101.5038
 N-N= 4.090252716688D+03 E-N=-1.377857285463D+04  KE= 2.352081234518D+03
 Unable to Open any file for archive entry.
 1\1\GINC-CX3-12-29\FOpt\RB3LYP\6-311+G(d,p)\C26H18N2O6S2(2-)\NS5018\07
 -Oct-2021\0\\# opt=modredundant b3lyp/6-311+g(d,p)\\NDI_-75.pdb\\-2,1\
 C,-2.408017487,-2.9602274673,0.013462068\C,-2.1599431937,-1.5450059912
 ,0.0542904487\C,-3.2430584222,-0.6240054009,0.0425496738\C,-4.58410353
 24,-1.0723968641,0.0035035072\C,-4.8804475131,-2.482079014,-0.03449450
 51\C,-0.8248463334,-1.0673279319,0.0960936806\C,-2.9559299744,0.794010
 7403,0.077617887\C,-1.6029362226,1.2500718227,0.1054436777\C,-0.522876
 6248,0.2762530297,0.0712314505\C,-1.3435190388,2.660787067,0.169754366
 2\C,-3.8239031201,3.1186637006,0.1519991815\C,-4.0492417844,1.70007556
 79,0.0935363935\C,-5.3943887776,1.2121972792,0.0564213362\C,-5.6569668
 149,-0.1250267099,0.0089633287\H,-6.6699721029,-0.5080431548,-0.019427
 1059\H,-6.1896134492,1.9480733122,0.0697893075\H,-0.03270034,-1.805863
 0162,0.0923352892\N,-2.4732619327,3.5137081756,0.2054629508\N,-3.76413
 02705,-3.3500739751,-0.0253521765\O,-1.532878886,-3.8514524163,0.01132
 35223\O,-6.0331175086,-2.9621887287,-0.0741750521\O,-4.7268759808,3.98
 45342182,0.1620198814\O,-0.215798489,3.1991901505,0.204553992\C,-2.182
 1942315,4.9401613399,0.2897283947\H,-1.5419108734,5.1398885421,1.15192
 60182\H,-1.6405777419,5.2745017029,-0.6004989737\H,-3.1327763594,5.461
 1652011,0.3740581519\C,-4.0119856675,-4.7862569206,-0.0627599282\H,-3.
 5540546467,-5.2272239931,-0.9527583749\H,-3.5601457115,-5.2692618831,0
 .8077059641\H,-5.0894834174,-4.9313067832,-0.0720451979\C,0.9045038576
 ,0.6412402096,0.0656118946\C,1.6780044604,1.1495834288,-0.9548386501\S
 ,1.925121618,0.1208642264,1.388050963\C,3.058204527,1.1524511986,-0.67
 08828929\H,1.2342291958,1.528384182,-1.8628072229\C,3.4104969286,0.607
 6731722,0.5608224064\O,4.0453173795,1.6072493553,-1.5119319008\C,4.719
 1657492,0.4477152358,1.1241608735\C,3.6324866159,2.3820431391,-2.62577
 58621\C,5.1074850373,-0.2379365913,2.2713918749\S,6.1575167382,1.19741
 51967,0.4111604649\H,4.5463637389,2.7564804466,-3.0899079517\H,3.08145
 9964,1.7748967427,-3.3536762188\H,3.0035121187,3.2218585091,-2.3124153
 893\C,6.4917066462,-0.1523967783,2.5796163356\O,4.2192321385,-0.910483
 7575,3.0863003608\C,7.1956951529,0.5875931142,1.6734695708\H,6.9225404
 222,-0.6276848313,3.4525256858\C,4.0235482674,-2.2849965753,2.74379532
 42\H,8.252028293,0.8079370748,1.6555621558\H,4.9567431718,-2.851493942
 ,2.8604358293\H,3.2693417916,-2.6721462527,3.4297052856\H,3.6579526356
 ,-2.3887881027,1.7183679058\\Version=ES64L-G16RevC.01\State=1-A\HF=-23
 59.395613\RMSD=5.612e-09\RMSF=1.300e-03\Dipole=7.0331089,0.2694928,-0.
 2742724\Quadrupole=-71.9916821,5.5959932,66.3956889,-9.3587536,-14.540
 6842,-6.9797376\PG=C01 [X(C26H18N2O6S2)]\\@
 The archive entry for this job was punched.


 WHAT, THEN, IS TIME?  IF NO ONE ASKS ME, I KNOW WHAT IT IS.
 IF I WISH TO EXPLAIN WHAT IT IS TO HIM WHO ASKS ME, I DO NOT KNOW.
                                   -- ST. AUGUSTINE (FIFTH CENTURY)
 Job cpu time:       3 days  6 hours 54 minutes 53.9 seconds.
 Elapsed time:       0 days  9 hours 57 minutes 11.9 seconds.
 File lengths (MBytes):  RWF=    531 Int=      0 D2E=      0 Chk=     77 Scr=      1
 Normal termination of Gaussian 16 at Thu Oct  7 20:16:37 2021.
