 Entering Gaussian System, Link 0=g16
 Input=NDI_135.gjf
 Output=NDI_135.log
 Initial command:
 /apps/gaussian/g16-c01-avx/g16/l1.exe "/tmp/pbs.4768648[310].pbs/Gau-4051037.inp" -scrdir="/tmp/pbs.4768648[310].pbs/"
 Entering Link 1 = /apps/gaussian/g16-c01-avx/g16/l1.exe PID=   4051039.
  
 Copyright (c) 1988-2019, Gaussian, Inc.  All Rights Reserved.
  
 This is part of the Gaussian(R) 16 program.  It is based on
 the Gaussian(R) 09 system (copyright 2009, Gaussian, Inc.),
 the Gaussian(R) 03 system (copyright 2003, Gaussian, Inc.),
 the Gaussian(R) 98 system (copyright 1998, Gaussian, Inc.),
 the Gaussian(R) 94 system (copyright 1995, Gaussian, Inc.),
 the Gaussian 92(TM) system (copyright 1992, Gaussian, Inc.),
 the Gaussian 90(TM) system (copyright 1990, Gaussian, Inc.),
 the Gaussian 88(TM) system (copyright 1988, Gaussian, Inc.),
 the Gaussian 86(TM) system (copyright 1986, Carnegie Mellon
 University), and the Gaussian 82(TM) system (copyright 1983,
 Carnegie Mellon University). Gaussian is a federally registered
 trademark of Gaussian, Inc.
  
 This software contains proprietary and confidential information,
 including trade secrets, belonging to Gaussian, Inc.
  
 This software is provided under written license and may be
 used, copied, transmitted, or stored only in accord with that
 written license.
  
 The following legend is applicable only to US Government
 contracts under FAR:
  
                    RESTRICTED RIGHTS LEGEND
  
 Use, reproduction and disclosure by the US Government is
 subject to restrictions as set forth in subparagraphs (a)
 and (c) of the Commercial Computer Software - Restricted
 Rights clause in FAR 52.227-19.
  
 Gaussian, Inc.
 340 Quinnipiac St., Bldg. 40, Wallingford CT 06492
  
  
 ---------------------------------------------------------------
 Warning -- This program may not be used in any manner that
 competes with the business of Gaussian, Inc. or will provide
 assistance to any competitor of Gaussian, Inc.  The licensee
 of this program is prohibited from giving any competitor of
 Gaussian, Inc. access to this program.  By using this program,
 the user acknowledges that Gaussian, Inc. is engaged in the
 business of creating and licensing software in the field of
 computational chemistry and represents and warrants to the
 licensee that it is not a competitor of Gaussian, Inc. and that
 it will not use this program in any manner prohibited above.
 ---------------------------------------------------------------
  

 Cite this work as:
 Gaussian 16, Revision C.01,
 M. J. Frisch, G. W. Trucks, H. B. Schlegel, G. E. Scuseria, 
 M. A. Robb, J. R. Cheeseman, G. Scalmani, V. Barone, 
 G. A. Petersson, H. Nakatsuji, X. Li, M. Caricato, A. V. Marenich, 
 J. Bloino, B. G. Janesko, R. Gomperts, B. Mennucci, H. P. Hratchian, 
 J. V. Ortiz, A. F. Izmaylov, J. L. Sonnenberg, D. Williams-Young, 
 F. Ding, F. Lipparini, F. Egidi, J. Goings, B. Peng, A. Petrone, 
 T. Henderson, D. Ranasinghe, V. G. Zakrzewski, J. Gao, N. Rega, 
 G. Zheng, W. Liang, M. Hada, M. Ehara, K. Toyota, R. Fukuda, 
 J. Hasegawa, M. Ishida, T. Nakajima, Y. Honda, O. Kitao, H. Nakai, 
 T. Vreven, K. Throssell, J. A. Montgomery, Jr., J. E. Peralta, 
 F. Ogliaro, M. J. Bearpark, J. J. Heyd, E. N. Brothers, K. N. Kudin, 
 V. N. Staroverov, T. A. Keith, R. Kobayashi, J. Normand, 
 K. Raghavachari, A. P. Rendell, J. C. Burant, S. S. Iyengar, 
 J. Tomasi, M. Cossi, J. M. Millam, M. Klene, C. Adamo, R. Cammi, 
 J. W. Ochterski, R. L. Martin, K. Morokuma, O. Farkas, 
 J. B. Foresman, and D. J. Fox, Gaussian, Inc., Wallingford CT, 2019.
 
 ******************************************
 Gaussian 16:  ES64L-G16RevC.01  3-Jul-2019
                28-Oct-2021 
 ******************************************
 %mem=100GB
 %nprocshared=16
 Will use up to   16 processors via shared memory.
 ---------------------------------------------------------------
 # opt=modredundant b3lyp/6-311+g(d,p) scrf=(pcm, solvent=water)
 ---------------------------------------------------------------
 1/18=120,19=15,26=3,38=1/1,3;
 2/9=110,12=2,17=6,18=5,40=1/2;
 3/5=4,6=6,7=111,11=2,25=1,30=1,70=2201,71=1,72=1,74=-5/1,2,3;
 4//1;
 5/5=2,38=5,53=1/2;
 6/7=2,8=2,9=2,10=2,28=1/1;
 7//1,2,3,16;
 1/18=20,19=15,26=3/3(2);
 2/9=110/2;
 99//99;
 2/9=110/2;
 3/5=4,6=6,7=111,11=2,25=1,30=1,70=2205,71=1,72=1,74=-5/1,2,3;
 4/5=5,16=3,69=1/1;
 5/5=2,38=5,53=1/2;
 7//1,2,3,16;
 1/18=20,19=15,26=3/3(-5);
 2/9=110/2;
 6/7=2,8=2,9=2,10=2,19=2,28=1/1;
 99/9=1/99;
 -----------
 NDI_135.pdb
 -----------
 Symbolic Z-matrix:
 Charge = -1 Multiplicity = 2
 C                    -2.563    -2.994    -0.409 
 C                    -2.257    -1.551    -0.224 
 C                    -3.301    -0.607    -0.083 
 C                    -4.65     -1.024    -0.115 
 C                    -4.992    -2.459    -0.304 
 C                    -0.949    -1.137    -0.215 
 C                    -2.962     0.764     0.102 
 C                    -1.595     1.188     0.123 
 C                    -0.561     0.232    -0.072 
 C                    -1.328     2.616     0.446 
 C                    -3.777     3.115     0.508 
 C                    -4.035     1.679     0.268 
 C                    -5.356     1.252     0.23 
 C                    -5.672    -0.098     0.036 
 H                    -6.699    -0.442     0.008 
 H                    -6.133     1.997     0.361 
 H                    -0.19     -1.895    -0.369 
 N                    -2.432     3.476     0.608 
 N                    -3.916    -3.353    -0.438 
 O                    -1.695    -3.847    -0.532 
 O                    -6.149    -2.85     -0.34 
 O                    -4.676     3.938     0.629 
 O                    -0.212     3.097     0.596 
 C                    -2.111     4.875     0.912 
 H                    -1.54      4.931     1.84 
 H                    -1.5       5.299     0.111 
 H                    -3.05      5.414     1.003 
 C                    -4.206    -4.779    -0.625 
 H                    -3.759    -5.126    -1.559 
 H                    -3.775    -5.355     0.196 
 H                    -5.286    -4.897    -0.649 
 C                     0.876     0.482    -0.178 
 C                     1.951    -0.164     0.401 
 S                     1.428     1.911    -1.052 
 C                     3.187     0.464     0.15 
 H                     1.847    -1.066     0.982 
 C                     3.101     1.614    -0.641 
 O                     4.406     0.058     0.594 
 C                     4.177     2.444    -1.103 
 C                     4.475    -1.193     1.275 
 C                     4.088     3.603    -1.872 
 S                     5.87      2.107    -0.751 
 H                     5.532    -1.369     1.472 
 H                     3.929    -1.157     2.225 
 H                     4.073    -2.004     0.655 
 C                     5.344     4.203    -2.17 
 O                     2.865     4.048    -2.262 
 C                     6.387     3.501    -1.628 
 H                     5.469     5.106    -2.753 
 C                     2.803     5.254    -3.016 
 H                     7.441     3.732    -1.697 
 H                     3.335     5.154    -3.971 
 H                     1.746     5.434    -3.209 
 H                     3.221     6.097    -2.453 
 
 The following ModRedundant input section has been read:
 D       8       9      32      33 F                                           
 

 GradGradGradGradGradGradGradGradGradGradGradGradGradGradGradGradGradGrad
 Berny optimization.
 Initialization pass.
                           ----------------------------
                           !    Initial Parameters    !
                           ! (Angstroms and Degrees)  !
 --------------------------                            --------------------------
 ! Name  Definition              Value          Derivative Info.                !
 --------------------------------------------------------------------------------
 ! R1    R(1,2)                  1.4866         estimate D2E/DX2                !
 ! R2    R(1,19)                 1.4001         estimate D2E/DX2                !
 ! R3    R(1,20)                 1.2232         estimate D2E/DX2                !
 ! R4    R(2,3)                  1.4146         estimate D2E/DX2                !
 ! R5    R(2,6)                  1.372          estimate D2E/DX2                !
 ! R6    R(3,4)                  1.4123         estimate D2E/DX2                !
 ! R7    R(3,7)                  1.4244         estimate D2E/DX2                !
 ! R8    R(4,5)                  1.4872         estimate D2E/DX2                !
 ! R9    R(4,14)                 1.3874         estimate D2E/DX2                !
 ! R10   R(5,19)                 1.4053         estimate D2E/DX2                !
 ! R11   R(5,21)                 1.2218         estimate D2E/DX2                !
 ! R12   R(6,9)                  1.4301         estimate D2E/DX2                !
 ! R13   R(6,17)                 1.0837         estimate D2E/DX2                !
 ! R14   R(7,8)                  1.4314         estimate D2E/DX2                !
 ! R15   R(7,12)                 1.4199         estimate D2E/DX2                !
 ! R16   R(8,9)                  1.4217         estimate D2E/DX2                !
 ! R17   R(8,10)                 1.4882         estimate D2E/DX2                !
 ! R18   R(9,32)                 1.4624         estimate D2E/DX2                !
 ! R19   R(10,18)                1.4088         estimate D2E/DX2                !
 ! R20   R(10,23)                1.2245         estimate D2E/DX2                !
 ! R21   R(11,12)                1.4786         estimate D2E/DX2                !
 ! R22   R(11,18)                1.3962         estimate D2E/DX2                !
 ! R23   R(11,22)                1.2248         estimate D2E/DX2                !
 ! R24   R(12,13)                1.3888         estimate D2E/DX2                !
 ! R25   R(13,14)                1.4            estimate D2E/DX2                !
 ! R26   R(13,16)                1.0844         estimate D2E/DX2                !
 ! R27   R(14,15)                1.0834         estimate D2E/DX2                !
 ! R28   R(18,24)                1.4672         estimate D2E/DX2                !
 ! R29   R(19,28)                1.4672         estimate D2E/DX2                !
 ! R30   R(24,25)                1.091          estimate D2E/DX2                !
 ! R31   R(24,26)                1.093          estimate D2E/DX2                !
 ! R32   R(24,27)                1.0865         estimate D2E/DX2                !
 ! R33   R(28,29)                1.0921         estimate D2E/DX2                !
 ! R34   R(28,30)                1.0916         estimate D2E/DX2                !
 ! R35   R(28,31)                1.0867         estimate D2E/DX2                !
 ! R36   R(32,33)                1.3814         estimate D2E/DX2                !
 ! R37   R(32,34)                1.7637         estimate D2E/DX2                !
 ! R38   R(33,35)                1.4089         estimate D2E/DX2                !
 ! R39   R(33,36)                1.078          estimate D2E/DX2                !
 ! R40   R(34,37)                1.7482         estimate D2E/DX2                !
 ! R41   R(35,37)                1.3984         estimate D2E/DX2                !
 ! R42   R(35,38)                1.3594         estimate D2E/DX2                !
 ! R43   R(37,39)                1.4353         estimate D2E/DX2                !
 ! R44   R(38,40)                1.426          estimate D2E/DX2                !
 ! R45   R(39,41)                1.3938         estimate D2E/DX2                !
 ! R46   R(39,42)                1.7617         estimate D2E/DX2                !
 ! R47   R(40,43)                1.0895         estimate D2E/DX2                !
 ! R48   R(40,44)                1.0963         estimate D2E/DX2                !
 ! R49   R(40,45)                1.0971         estimate D2E/DX2                !
 ! R50   R(41,46)                1.4235         estimate D2E/DX2                !
 ! R51   R(41,47)                1.3586         estimate D2E/DX2                !
 ! R52   R(42,48)                1.7262         estimate D2E/DX2                !
 ! R53   R(46,48)                1.3691         estimate D2E/DX2                !
 ! R54   R(46,49)                1.0821         estimate D2E/DX2                !
 ! R55   R(47,50)                1.4237         estimate D2E/DX2                !
 ! R56   R(48,51)                1.0812         estimate D2E/DX2                !
 ! R57   R(50,52)                1.0977         estimate D2E/DX2                !
 ! R58   R(50,53)                1.0894         estimate D2E/DX2                !
 ! R59   R(50,54)                1.0965         estimate D2E/DX2                !
 ! A1    A(2,1,19)             116.767          estimate D2E/DX2                !
 ! A2    A(2,1,20)             122.9113         estimate D2E/DX2                !
 ! A3    A(19,1,20)            120.3217         estimate D2E/DX2                !
 ! A4    A(1,2,3)              120.5473         estimate D2E/DX2                !
 ! A5    A(1,2,6)              119.3369         estimate D2E/DX2                !
 ! A6    A(3,2,6)              120.1056         estimate D2E/DX2                !
 ! A7    A(2,3,4)              120.3743         estimate D2E/DX2                !
 ! A8    A(2,3,7)              118.662          estimate D2E/DX2                !
 ! A9    A(4,3,7)              120.9617         estimate D2E/DX2                !
 ! A10   A(3,4,5)              120.4909         estimate D2E/DX2                !
 ! A11   A(3,4,14)             120.2702         estimate D2E/DX2                !
 ! A12   A(5,4,14)             119.2382         estimate D2E/DX2                !
 ! A13   A(4,5,19)             116.7341         estimate D2E/DX2                !
 ! A14   A(4,5,21)             122.024          estimate D2E/DX2                !
 ! A15   A(19,5,21)            121.2418         estimate D2E/DX2                !
 ! A16   A(2,6,9)              123.2421         estimate D2E/DX2                !
 ! A17   A(2,6,17)             117.1119         estimate D2E/DX2                !
 ! A18   A(9,6,17)             119.589          estimate D2E/DX2                !
 ! A19   A(3,7,8)              120.9519         estimate D2E/DX2                !
 ! A20   A(3,7,12)             117.1037         estimate D2E/DX2                !
 ! A21   A(8,7,12)             121.944          estimate D2E/DX2                !
 ! A22   A(7,8,9)              119.5639         estimate D2E/DX2                !
 ! A23   A(7,8,10)             117.3064         estimate D2E/DX2                !
 ! A24   A(9,8,10)             122.9922         estimate D2E/DX2                !
 ! A25   A(6,9,8)              117.3944         estimate D2E/DX2                !
 ! A26   A(6,9,32)             115.0236         estimate D2E/DX2                !
 ! A27   A(8,9,32)             127.5648         estimate D2E/DX2                !
 ! A28   A(8,10,18)            118.042          estimate D2E/DX2                !
 ! A29   A(8,10,23)            124.5436         estimate D2E/DX2                !
 ! A30   A(18,10,23)           117.4097         estimate D2E/DX2                !
 ! A31   A(12,11,18)           115.5202         estimate D2E/DX2                !
 ! A32   A(12,11,22)           122.7205         estimate D2E/DX2                !
 ! A33   A(18,11,22)           121.7534         estimate D2E/DX2                !
 ! A34   A(7,12,11)            120.8614         estimate D2E/DX2                !
 ! A35   A(7,12,13)            121.162          estimate D2E/DX2                !
 ! A36   A(11,12,13)           117.9699         estimate D2E/DX2                !
 ! A37   A(12,13,14)           120.9948         estimate D2E/DX2                !
 ! A38   A(12,13,16)           117.8401         estimate D2E/DX2                !
 ! A39   A(14,13,16)           121.1642         estimate D2E/DX2                !
 ! A40   A(4,14,13)            119.5003         estimate D2E/DX2                !
 ! A41   A(4,14,15)            118.9169         estimate D2E/DX2                !
 ! A42   A(13,14,15)           121.5811         estimate D2E/DX2                !
 ! A43   A(10,18,11)           126.0753         estimate D2E/DX2                !
 ! A44   A(10,18,24)           115.7508         estimate D2E/DX2                !
 ! A45   A(11,18,24)           118.1737         estimate D2E/DX2                !
 ! A46   A(1,19,5)             125.0856         estimate D2E/DX2                !
 ! A47   A(1,19,28)            116.2868         estimate D2E/DX2                !
 ! A48   A(5,19,28)            118.6276         estimate D2E/DX2                !
 ! A49   A(18,24,25)           109.8574         estimate D2E/DX2                !
 ! A50   A(18,24,26)           109.8979         estimate D2E/DX2                !
 ! A51   A(18,24,27)           107.5355         estimate D2E/DX2                !
 ! A52   A(25,24,26)           108.1108         estimate D2E/DX2                !
 ! A53   A(25,24,27)           110.8301         estimate D2E/DX2                !
 ! A54   A(26,24,27)           110.6124         estimate D2E/DX2                !
 ! A55   A(19,28,29)           109.6906         estimate D2E/DX2                !
 ! A56   A(19,28,30)           109.8136         estimate D2E/DX2                !
 ! A57   A(19,28,31)           107.7461         estimate D2E/DX2                !
 ! A58   A(29,28,30)           108.2991         estimate D2E/DX2                !
 ! A59   A(29,28,31)           110.6959         estimate D2E/DX2                !
 ! A60   A(30,28,31)           110.5924         estimate D2E/DX2                !
 ! A61   A(9,32,33)            130.8708         estimate D2E/DX2                !
 ! A62   A(9,32,34)            118.8137         estimate D2E/DX2                !
 ! A63   A(33,32,34)           110.0629         estimate D2E/DX2                !
 ! A64   A(32,33,35)           113.5519         estimate D2E/DX2                !
 ! A65   A(32,33,36)           122.8302         estimate D2E/DX2                !
 ! A66   A(35,33,36)           123.6164         estimate D2E/DX2                !
 ! A67   A(32,34,37)            92.6001         estimate D2E/DX2                !
 ! A68   A(33,35,37)           114.4165         estimate D2E/DX2                !
 ! A69   A(33,35,38)           126.538          estimate D2E/DX2                !
 ! A70   A(37,35,38)           119.0454         estimate D2E/DX2                !
 ! A71   A(34,37,35)           109.3629         estimate D2E/DX2                !
 ! A72   A(34,37,39)           122.9231         estimate D2E/DX2                !
 ! A73   A(35,37,39)           127.6989         estimate D2E/DX2                !
 ! A74   A(35,38,40)           117.4759         estimate D2E/DX2                !
 ! A75   A(37,39,41)           127.6326         estimate D2E/DX2                !
 ! A76   A(37,39,42)           123.0577         estimate D2E/DX2                !
 ! A77   A(41,39,42)           109.3097         estimate D2E/DX2                !
 ! A78   A(38,40,43)           105.9624         estimate D2E/DX2                !
 ! A79   A(38,40,44)           111.1563         estimate D2E/DX2                !
 ! A80   A(38,40,45)           111.1539         estimate D2E/DX2                !
 ! A81   A(43,40,44)           109.3775         estimate D2E/DX2                !
 ! A82   A(43,40,45)           109.7698         estimate D2E/DX2                !
 ! A83   A(44,40,45)           109.3583         estimate D2E/DX2                !
 ! A84   A(39,41,46)           114.1838         estimate D2E/DX2                !
 ! A85   A(39,41,47)           119.2244         estimate D2E/DX2                !
 ! A86   A(46,41,47)           126.5916         estimate D2E/DX2                !
 ! A87   A(39,42,48)            91.8241         estimate D2E/DX2                !
 ! A88   A(41,46,48)           111.9119         estimate D2E/DX2                !
 ! A89   A(41,46,49)           124.5031         estimate D2E/DX2                !
 ! A90   A(48,46,49)           123.5849         estimate D2E/DX2                !
 ! A91   A(41,47,50)           117.9497         estimate D2E/DX2                !
 ! A92   A(42,48,46)           112.7706         estimate D2E/DX2                !
 ! A93   A(42,48,51)           119.7968         estimate D2E/DX2                !
 ! A94   A(46,48,51)           127.4326         estimate D2E/DX2                !
 ! A95   A(47,50,52)           111.2525         estimate D2E/DX2                !
 ! A96   A(47,50,53)           106.0239         estimate D2E/DX2                !
 ! A97   A(47,50,54)           111.2678         estimate D2E/DX2                !
 ! A98   A(52,50,53)           109.3373         estimate D2E/DX2                !
 ! A99   A(52,50,54)           109.3883         estimate D2E/DX2                !
 ! A100  A(53,50,54)           109.499          estimate D2E/DX2                !
 ! D1    D(19,1,2,3)             0.1578         estimate D2E/DX2                !
 ! D2    D(19,1,2,6)          -178.6792         estimate D2E/DX2                !
 ! D3    D(20,1,2,3)          -179.8231         estimate D2E/DX2                !
 ! D4    D(20,1,2,6)             1.3399         estimate D2E/DX2                !
 ! D5    D(2,1,19,5)            -0.124          estimate D2E/DX2                !
 ! D6    D(2,1,19,28)          179.8267         estimate D2E/DX2                !
 ! D7    D(20,1,19,5)          179.8575         estimate D2E/DX2                !
 ! D8    D(20,1,19,28)          -0.1919         estimate D2E/DX2                !
 ! D9    D(1,2,3,4)              0.0571         estimate D2E/DX2                !
 ! D10   D(1,2,3,7)            179.5453         estimate D2E/DX2                !
 ! D11   D(6,2,3,4)            178.8851         estimate D2E/DX2                !
 ! D12   D(6,2,3,7)             -1.6266         estimate D2E/DX2                !
 ! D13   D(1,2,6,9)            178.625          estimate D2E/DX2                !
 ! D14   D(1,2,6,17)             1.3881         estimate D2E/DX2                !
 ! D15   D(3,2,6,9)             -0.2173         estimate D2E/DX2                !
 ! D16   D(3,2,6,17)          -177.4541         estimate D2E/DX2                !
 ! D17   D(2,3,4,5)             -0.3074         estimate D2E/DX2                !
 ! D18   D(2,3,4,14)           179.3968         estimate D2E/DX2                !
 ! D19   D(7,3,4,5)           -179.7837         estimate D2E/DX2                !
 ! D20   D(7,3,4,14)            -0.0795         estimate D2E/DX2                !
 ! D21   D(2,3,7,8)              1.0523         estimate D2E/DX2                !
 ! D22   D(2,3,7,12)          -178.712          estimate D2E/DX2                !
 ! D23   D(4,3,7,8)           -179.4626         estimate D2E/DX2                !
 ! D24   D(4,3,7,12)             0.7731         estimate D2E/DX2                !
 ! D25   D(3,4,5,19)             0.3343         estimate D2E/DX2                !
 ! D26   D(3,4,5,21)          -179.7799         estimate D2E/DX2                !
 ! D27   D(14,4,5,19)         -179.3729         estimate D2E/DX2                !
 ! D28   D(14,4,5,21)            0.5129         estimate D2E/DX2                !
 ! D29   D(3,4,14,13)           -0.4559         estimate D2E/DX2                !
 ! D30   D(3,4,14,15)         -179.9937         estimate D2E/DX2                !
 ! D31   D(5,4,14,13)          179.252          estimate D2E/DX2                !
 ! D32   D(5,4,14,15)           -0.2858         estimate D2E/DX2                !
 ! D33   D(4,5,19,1)            -0.1141         estimate D2E/DX2                !
 ! D34   D(4,5,19,28)          179.9364         estimate D2E/DX2                !
 ! D35   D(21,5,19,1)          179.9992         estimate D2E/DX2                !
 ! D36   D(21,5,19,28)           0.0496         estimate D2E/DX2                !
 ! D37   D(2,6,9,8)              2.5984         estimate D2E/DX2                !
 ! D38   D(2,6,9,32)          -176.0103         estimate D2E/DX2                !
 ! D39   D(17,6,9,8)           179.77           estimate D2E/DX2                !
 ! D40   D(17,6,9,32)            1.1613         estimate D2E/DX2                !
 ! D41   D(3,7,8,9)              1.3551         estimate D2E/DX2                !
 ! D42   D(3,7,8,10)          -174.5099         estimate D2E/DX2                !
 ! D43   D(12,7,8,9)          -178.8921         estimate D2E/DX2                !
 ! D44   D(12,7,8,10)            5.2428         estimate D2E/DX2                !
 ! D45   D(3,7,12,11)          178.0768         estimate D2E/DX2                !
 ! D46   D(3,7,12,13)           -0.9621         estimate D2E/DX2                !
 ! D47   D(8,7,12,11)           -1.685          estimate D2E/DX2                !
 ! D48   D(8,7,12,13)          179.2761         estimate D2E/DX2                !
 ! D49   D(7,8,9,6)             -3.0809         estimate D2E/DX2                !
 ! D50   D(7,8,9,32)           175.3285         estimate D2E/DX2                !
 ! D51   D(10,8,9,6)           172.5381         estimate D2E/DX2                !
 ! D52   D(10,8,9,32)           -9.0525         estimate D2E/DX2                !
 ! D53   D(7,8,10,18)           -4.7549         estimate D2E/DX2                !
 ! D54   D(7,8,10,23)          174.4235         estimate D2E/DX2                !
 ! D55   D(9,8,10,18)          179.5335         estimate D2E/DX2                !
 ! D56   D(9,8,10,23)           -1.2882         estimate D2E/DX2                !
 ! D57   D(6,9,32,33)          -46.5292         estimate D2E/DX2                !
 ! D58   D(6,9,32,34)          139.8787         estimate D2E/DX2                !
 ! D59   D(8,9,32,33)          135.0292         Frozen                          !
 ! D60   D(8,9,32,34)          -38.5628         estimate D2E/DX2                !
 ! D61   D(8,10,18,11)           0.7189         estimate D2E/DX2                !
 ! D62   D(8,10,18,24)        -179.4089         estimate D2E/DX2                !
 ! D63   D(23,10,18,11)       -178.5188         estimate D2E/DX2                !
 ! D64   D(23,10,18,24)          1.3535         estimate D2E/DX2                !
 ! D65   D(18,11,12,7)          -2.3856         estimate D2E/DX2                !
 ! D66   D(18,11,12,13)        176.6833         estimate D2E/DX2                !
 ! D67   D(22,11,12,7)         178.4862         estimate D2E/DX2                !
 ! D68   D(22,11,12,13)         -2.445          estimate D2E/DX2                !
 ! D69   D(12,11,18,10)          2.8444         estimate D2E/DX2                !
 ! D70   D(12,11,18,24)       -177.0251         estimate D2E/DX2                !
 ! D71   D(22,11,18,10)       -178.0181         estimate D2E/DX2                !
 ! D72   D(22,11,18,24)          2.1124         estimate D2E/DX2                !
 ! D73   D(7,12,13,14)           0.461          estimate D2E/DX2                !
 ! D74   D(7,12,13,16)        -179.8781         estimate D2E/DX2                !
 ! D75   D(11,12,13,14)       -178.6049         estimate D2E/DX2                !
 ! D76   D(11,12,13,16)          1.056          estimate D2E/DX2                !
 ! D77   D(12,13,14,4)           0.2708         estimate D2E/DX2                !
 ! D78   D(12,13,14,15)        179.7958         estimate D2E/DX2                !
 ! D79   D(16,13,14,4)        -179.3788         estimate D2E/DX2                !
 ! D80   D(16,13,14,15)          0.1463         estimate D2E/DX2                !
 ! D81   D(10,18,24,25)        -59.609          estimate D2E/DX2                !
 ! D82   D(10,18,24,26)         59.2209         estimate D2E/DX2                !
 ! D83   D(10,18,24,27)        179.6858         estimate D2E/DX2                !
 ! D84   D(11,18,24,25)        120.2739         estimate D2E/DX2                !
 ! D85   D(11,18,24,26)       -120.8962         estimate D2E/DX2                !
 ! D86   D(11,18,24,27)         -0.4313         estimate D2E/DX2                !
 ! D87   D(1,19,28,29)         -58.1407         estimate D2E/DX2                !
 ! D88   D(1,19,28,30)          60.7668         estimate D2E/DX2                !
 ! D89   D(1,19,28,31)        -178.7139         estimate D2E/DX2                !
 ! D90   D(5,19,28,29)         121.8132         estimate D2E/DX2                !
 ! D91   D(5,19,28,30)        -119.2792         estimate D2E/DX2                !
 ! D92   D(5,19,28,31)           1.2401         estimate D2E/DX2                !
 ! D93   D(9,32,33,35)        -174.2014         estimate D2E/DX2                !
 ! D94   D(9,32,33,36)           6.2171         estimate D2E/DX2                !
 ! D95   D(34,32,33,35)         -0.1771         estimate D2E/DX2                !
 ! D96   D(34,32,33,36)       -179.7586         estimate D2E/DX2                !
 ! D97   D(9,32,34,37)         175.3567         estimate D2E/DX2                !
 ! D98   D(33,32,34,37)          0.5116         estimate D2E/DX2                !
 ! D99   D(32,33,35,37)         -0.3775         estimate D2E/DX2                !
 ! D100  D(32,33,35,38)        179.748          estimate D2E/DX2                !
 ! D101  D(36,33,35,37)        179.2002         estimate D2E/DX2                !
 ! D102  D(36,33,35,38)         -0.6743         estimate D2E/DX2                !
 ! D103  D(32,34,37,35)         -0.7066         estimate D2E/DX2                !
 ! D104  D(32,34,37,39)        177.9774         estimate D2E/DX2                !
 ! D105  D(33,35,37,34)          0.7462         estimate D2E/DX2                !
 ! D106  D(33,35,37,39)       -177.8577         estimate D2E/DX2                !
 ! D107  D(38,35,37,34)       -179.3691         estimate D2E/DX2                !
 ! D108  D(38,35,37,39)          2.027          estimate D2E/DX2                !
 ! D109  D(33,35,38,40)          6.442          estimate D2E/DX2                !
 ! D110  D(37,35,38,40)       -173.4273         estimate D2E/DX2                !
 ! D111  D(34,37,39,41)          2.7847         estimate D2E/DX2                !
 ! D112  D(34,37,39,42)       -177.1714         estimate D2E/DX2                !
 ! D113  D(35,37,39,41)       -178.7845         estimate D2E/DX2                !
 ! D114  D(35,37,39,42)          1.2594         estimate D2E/DX2                !
 ! D115  D(35,38,40,43)        175.5216         estimate D2E/DX2                !
 ! D116  D(35,38,40,44)        -65.7451         estimate D2E/DX2                !
 ! D117  D(35,38,40,45)         56.3185         estimate D2E/DX2                !
 ! D118  D(37,39,41,46)       -179.9544         estimate D2E/DX2                !
 ! D119  D(37,39,41,47)         -0.0892         estimate D2E/DX2                !
 ! D120  D(42,39,41,46)          0.0067         estimate D2E/DX2                !
 ! D121  D(42,39,41,47)        179.8719         estimate D2E/DX2                !
 ! D122  D(37,39,42,48)        179.9593         estimate D2E/DX2                !
 ! D123  D(41,39,42,48)         -0.0039         estimate D2E/DX2                !
 ! D124  D(39,41,46,48)         -0.0068         estimate D2E/DX2                !
 ! D125  D(39,41,46,49)       -179.9356         estimate D2E/DX2                !
 ! D126  D(47,41,46,48)       -179.8603         estimate D2E/DX2                !
 ! D127  D(47,41,46,49)          0.2109         estimate D2E/DX2                !
 ! D128  D(39,41,47,50)        178.3381         estimate D2E/DX2                !
 ! D129  D(46,41,47,50)         -1.8151         estimate D2E/DX2                !
 ! D130  D(39,42,48,46)          0.0002         estimate D2E/DX2                !
 ! D131  D(39,42,48,51)        179.9101         estimate D2E/DX2                !
 ! D132  D(41,46,48,42)          0.0036         estimate D2E/DX2                !
 ! D133  D(41,46,48,51)       -179.8979         estimate D2E/DX2                !
 ! D134  D(49,46,48,42)        179.9332         estimate D2E/DX2                !
 ! D135  D(49,46,48,51)          0.0316         estimate D2E/DX2                !
 ! D136  D(41,47,50,52)         62.0201         estimate D2E/DX2                !
 ! D137  D(41,47,50,53)       -179.2061         estimate D2E/DX2                !
 ! D138  D(41,47,50,54)        -60.2295         estimate D2E/DX2                !
 --------------------------------------------------------------------------------
 Trust Radius=3.00D-01 FncErr=1.00D-07 GrdErr=1.00D-06 EigMax=2.50D+02 EigMin=1.00D-04
 Number of steps in this run=    307 maximum allowed number of steps=    324.
 GradGradGradGradGradGradGradGradGradGradGradGradGradGradGradGradGradGrad

 Stoichiometry    C26H18N2O6S2(1-,2)
 Framework group  C1[X(C26H18N2O6S2)]
 Deg. of freedom   156
 Full point group                 C1      NOp   1
 Largest Abelian subgroup         C1      NOp   1
 Largest concise Abelian subgroup C1      NOp   1
                         Standard orientation:                         
 ---------------------------------------------------------------------
 Center     Atomic      Atomic             Coordinates (Angstroms)
 Number     Number       Type             X           Y           Z
 ---------------------------------------------------------------------
      1          6           0        3.753864   -2.591024    0.457498
      2          6           0        2.904517   -1.402973    0.179547
      3          6           0        3.478022   -0.112492    0.097661
      4          6           0        4.867611    0.064210    0.278030
      5          6           0        5.745861   -1.101698    0.563067
      6          6           0        1.550856   -1.565470    0.026131
      7          6           0        2.628312    0.996357   -0.180248
      8          6           0        1.218379    0.818617   -0.351725
      9          6           0        0.653121   -0.478615   -0.214644
     10          6           0        0.425163    2.008952   -0.762470
     11          6           0        2.445476    3.473779   -0.610608
     12          6           0        3.242633    2.272359   -0.282904
     13          6           0        4.610322    2.428406   -0.098818
     14          6           0        5.429630    1.329207    0.184886
     15          1           0        6.498028    1.439563    0.327006
     16          1           0        5.022522    3.427470   -0.187573
     17          1           0        1.157851   -2.568927    0.140070
     18          7           0        1.089697    3.247646   -0.855703
     19          7           0        5.123608   -2.359840    0.632675
     20          8           0        3.304376   -3.726019    0.534365
     21          8           0        6.950443   -0.980517    0.727761
     22          8           0        2.935136    4.594238   -0.681160
     23          8           0       -0.767087    1.986554   -1.040597
     24          6           0        0.257442    4.389306   -1.251458
     25          1           0       -0.184231    4.203810   -2.231702
     26          1           0       -0.554952    4.524289   -0.532783
     27          1           0        0.896624    5.267592   -1.275627
     28          6           0        5.951276   -3.539004    0.910314
     29          1           0        5.589521   -4.038559    1.811508
     30          1           0        5.884255   -4.242345    0.078210
     31          1           0        6.975420   -3.200916    1.043453
     32          6           0       -0.762342   -0.843607   -0.258799
     33          6           0       -1.409702   -1.876150   -0.909154
     34         16           0       -1.941212    0.231279    0.493202
     35          6           0       -2.813513   -1.813739   -0.806677
     36          1           0       -0.883884   -2.655498   -1.436519
     37          6           0       -3.291227   -0.729882   -0.063294
     38          8           0       -3.704074   -2.686928   -1.347395
     39          6           0       -4.655351   -0.417240    0.255364
     40          6           0       -3.181217   -3.855665   -1.975246
     41          6           0       -5.131703    0.676032    0.976758
     42         16           0       -6.013342   -1.423029   -0.242603
     43          1           0       -4.045584   -4.452254   -2.265045
     44          1           0       -2.600538   -3.598584   -2.868909
     45          1           0       -2.550289   -4.427958   -1.283772
     46          6           0       -6.547137    0.704733    1.125296
     47          8           0       -4.247780    1.586342    1.462422
     48          6           0       -7.146472   -0.365583    0.517317
     49          1           0       -7.092599    1.476331    1.652582
     50          6           0       -4.766273    2.711273    2.164199
     51          1           0       -8.203281   -0.589914    0.474102
     52          1           0       -5.308553    2.401673    3.067044
     53          1           0       -3.903121    3.311502    2.449842
     54          1           0       -5.430869    3.306173    1.526431
 ---------------------------------------------------------------------
 Rotational constants (GHZ):           0.1703861           0.0569704           0.0456241
 Standard basis: 6-311+G(d,p) (5D, 7F)
 There are   952 symmetry adapted cartesian basis functions of A   symmetry.
 There are   916 symmetry adapted basis functions of A   symmetry.
   916 basis functions,  1468 primitive gaussians,   952 cartesian basis functions
   135 alpha electrons      134 beta electrons
       nuclear repulsion energy      4109.7267444050 Hartrees.
 NAtoms=   54 NActive=   54 NUniq=   54 SFac= 1.00D+00 NAtFMM=   60 NAOKFM=F Big=F
 Integral buffers will be    131072 words long.
 Raffenetti 2 integral format.
 Two-electron integral symmetry is turned on.
 ------------------------------------------------------------------------------
 Polarizable Continuum Model (PCM)
 =================================
 Model                : PCM.
 Atomic radii         : UFF (Universal Force Field).
 Polarization charges : Total charges.
 Charge compensation  : None.
 Solution method      : On-the-fly selection.
 Cavity type          : Scaled VdW (van der Waals Surface) (Alpha=1.100).
 Cavity algorithm     : GePol (No added spheres)
                        Default sphere list used, NSphG=   54.
                        Lebedev-Laikov grids with approx.  5.0 points / Ang**2.
                        Smoothing algorithm: York/Karplus (Gamma=1.0000).
                        Polarization charges: spherical gaussians, with
                                              point-specific exponents (IZeta= 3).
                        Self-potential: point-specific (ISelfS= 7).
                        Self-field    : sphere-specific E.n sum rule (ISelfD= 2).
 1st derivatives      : Analytical E(r).r(x)/FMM algorithm (CHGder, D1EAlg=3).
                        Cavity 1st derivative terms included.
 Solvent              : Water, Eps=  78.355300 Eps(inf)=   1.777849
 ------------------------------------------------------------------------------
 One-electron integrals computed using PRISM.
 NBasis=   916 RedAO= T EigKep=  1.55D-06  NBF=   916
 NBsUse=   901 1.00D-06 EigRej=  9.75D-07 NBFU=   901
 ExpMin= 4.05D-02 ExpMax= 9.34D+04 ExpMxC= 3.17D+03 IAcc=3 IRadAn=         5 AccDes= 0.00D+00
 Harris functional with IExCor=  402 and IRadAn=       5 diagonalized for initial guess.
 HarFok:  IExCor=  402 AccDes= 0.00D+00 IRadAn=         5 IDoV= 1 UseB2=F ITyADJ=14
 ICtDFT=  3500011 ScaDFX=  1.000000  1.000000  1.000000  1.000000
 FoFCou: FMM=F IPFlag=           0 FMFlag=      100000 FMFlg1=           0
         NFxFlg=           0 DoJE=T BraDBF=F KetDBF=T FulRan=T
         wScrn=  0.000000 ICntrl=       500 IOpCl=  0 I1Cent=   200000004 NGrid=           0
         NMat0=    1 NMatS0=      1 NMatT0=    0 NMatD0=    1 NMtDS0=    0 NMtDT0=    0
 Petite list used in FoFCou.
 Initial guess <Sx>= 0.0000 <Sy>= 0.0000 <Sz>= 0.5000 <S**2>= 0.7500 S= 0.5000
 Requested convergence on RMS density matrix=1.00D-08 within 128 cycles.
 Requested convergence on MAX density matrix=1.00D-06.
 Requested convergence on             energy=1.00D-06.
 No special actions if energy rises.
 Inv3:  Mode=1 IEnd=    51941763.
 Iteration    1 A*A^-1 deviation from unit magnitude is 5.66D-15 for   4141.
 Iteration    1 A*A^-1 deviation from orthogonality  is 2.33D-15 for   3046    209.
 Iteration    1 A^-1*A deviation from unit magnitude is 5.66D-15 for   4141.
 Iteration    1 A^-1*A deviation from orthogonality  is 4.41D-14 for   3434   3400.
 Restarting incremental Fock formation.
 Error on total polarization charges =  0.02641
 SCF Done:  E(UB3LYP) =  -2359.48814571     A.U. after   21 cycles
            NFock= 21  Conv=0.69D-08     -V/T= 2.0031
 <Sx>= 0.0000 <Sy>= 0.0000 <Sz>= 0.5000 <S**2>= 0.7582 S= 0.5041
 <L.S>=  0.00000000000    
 Annihilation of the first spin contaminant:
 S**2 before annihilation     0.7582,   after     0.7501

 **********************************************************************

            Population analysis using the SCF Density.

 **********************************************************************

 Orbital symmetries:
 Alpha Orbitals:
       Occupied  (A) (A) (A) (A) (A) (A) (A) (A) (A) (A) (A) (A)
                 (A) (A) (A) (A) (A) (A) (A) (A) (A) (A) (A) (A)
                 (A) (A) (A) (A) (A) (A) (A) (A) (A) (A) (A) (A)
                 (A) (A) (A) (A) (A) (A) (A) (A) (A) (A) (A) (A)
                 (A) (A) (A) (A) (A) (A) (A) (A) (A) (A) (A) (A)
                 (A) (A) (A) (A) (A) (A) (A) (A) (A) (A) (A) (A)
                 (A) (A) (A) (A) (A) (A) (A) (A) (A) (A) (A) (A)
                 (A) (A) (A) (A) (A) (A) (A) (A) (A) (A) (A) (A)
                 (A) (A) (A) (A) (A) (A) (A) (A) (A) (A) (A) (A)
                 (A) (A) (A) (A) (A) (A) (A) (A) (A) (A) (A) (A)
                 (A) (A) (A) (A) (A) (A) (A) (A) (A) (A) (A) (A)
                 (A) (A) (A)
       Virtual   (A) (A) (A) (A) (A) (A) (A) (A) (A) (A) (A) (A)
                 (A) (A) (A) (A) (A) (A) (A) (A) (A) (A) (A) (A)
                 (A) (A) (A) (A) (A) (A) (A) (A) (A) (A) (A) (A)
                 (A) (A) (A) (A) (A) (A) (A) (A) (A) (A) (A) (A)
                 (A) (A) (A) (A) (A) (A) (A) (A) (A) (A) (A) (A)
                 (A) (A) (A) (A) (A) (A) (A) (A) (A) (A) (A) (A)
                 (A) (A) (A) (A) (A) (A) (A) (A) (A) (A) (A) (A)
                 (A) (A) (A) (A) (A) (A) (A) (A) (A) (A) (A) (A)
                 (A) (A) (A) (A) (A) (A) (A) (A) (A) (A) (A) (A)
                 (A) (A) (A) (A) (A) (A) (A) (A) (A) (A) (A) (A)
                 (A) (A) (A) (A) (A) (A) (A) (A) (A) (A) (A) (A)
                 (A) (A) (A) (A) (A) (A) (A) (A) (A) (A) (A) (A)
                 (A) (A) (A) (A) (A) (A) (A) (A) (A) (A) (A) (A)
                 (A) (A) (A) (A) (A) (A) (A) (A) (A) (A) (A) (A)
                 (A) (A) (A) (A) (A) (A) (A) (A) (A) (A) (A) (A)
                 (A) (A) (A) (A) (A) (A) (A) (A) (A) (A) (A) (A)
                 (A) (A) (A) (A) (A) (A) (A) (A) (A) (A) (A) (A)
                 (A) (A) (A) (A) (A) (A) (A) (A) (A) (A) (A) (A)
                 (A) (A) (A) (A) (A) (A) (A) (A) (A) (A) (A) (A)
                 (A) (A) (A) (A) (A) (A) (A) (A) (A) (A) (A) (A)
                 (A) (A) (A) (A) (A) (A) (A) (A) (A) (A) (A) (A)
                 (A) (A) (A) (A) (A) (A) (A) (A) (A) (A) (A) (A)
                 (A) (A) (A) (A) (A) (A) (A) (A) (A) (A) (A) (A)
                 (A) (A) (A) (A) (A) (A) (A) (A) (A) (A) (A) (A)
                 (A) (A) (A) (A) (A) (A) (A) (A) (A) (A) (A) (A)
                 (A) (A) (A) (A) (A) (A) (A) (A) (A) (A) (A) (A)
                 (A) (A) (A) (A) (A) (A) (A) (A) (A) (A) (A) (A)
                 (A) (A) (A) (A) (A) (A) (A) (A) (A) (A) (A) (A)
                 (A) (A) (A) (A) (A) (A) (A) (A) (A) (A) (A) (A)
                 (A) (A) (A) (A) (A) (A) (A) (A) (A) (A) (A) (A)
                 (A) (A) (A) (A) (A) (A) (A) (A) (A) (A) (A) (A)
                 (A) (A) (A) (A) (A) (A) (A) (A) (A) (A) (A) (A)
                 (A) (A) (A) (A) (A) (A) (A) (A) (A) (A) (A) (A)
                 (A) (A) (A) (A) (A) (A) (A) (A) (A) (A) (A) (A)
                 (A) (A) (A) (A) (A) (A) (A) (A) (A) (A) (A) (A)
                 (A) (A) (A) (A) (A) (A) (A) (A) (A) (A) (A) (A)
                 (A) (A) (A) (A) (A) (A) (A) (A) (A) (A) (A) (A)
                 (A) (A) (A) (A) (A) (A) (A) (A) (A) (A) (A) (A)
                 (A) (A) (A) (A) (A) (A) (A) (A) (A) (A) (A) (A)
                 (A) (A) (A) (A) (A) (A) (A) (A) (A) (A) (A) (A)
                 (A) (A) (A) (A) (A) (A) (A) (A) (A) (A) (A) (A)
                 (A) (A) (A) (A) (A) (A) (A) (A) (A) (A) (A) (A)
                 (A) (A) (A) (A) (A) (A) (A) (A) (A) (A) (A) (A)
                 (A) (A) (A) (A) (A) (A) (A) (A) (A) (A) (A) (A)
                 (A) (A) (A) (A) (A) (A) (A) (A) (A) (A) (A) (A)
                 (A) (A) (A) (A) (A) (A) (A) (A) (A) (A) (A) (A)
                 (A) (A) (A) (A) (A) (A) (A) (A) (A) (A) (A) (A)
                 (A) (A) (A) (A) (A) (A) (A) (A) (A) (A) (A) (A)
                 (A) (A) (A) (A) (A) (A) (A) (A) (A) (A) (A) (A)
                 (A) (A) (A) (A) (A) (A) (A) (A) (A) (A) (A) (A)
                 (A) (A) (A) (A) (A) (A) (A) (A) (A) (A) (A) (A)
                 (A) (A) (A) (A) (A) (A) (A) (A) (A) (A) (A) (A)
                 (A) (A) (A) (A) (A) (A) (A) (A) (A) (A) (A) (A)
                 (A) (A) (A) (A) (A) (A) (A) (A) (A) (A) (A) (A)
                 (A) (A) (A) (A) (A) (A) (A) (A) (A) (A) (A) (A)
                 (A) (A) (A) (A) (A) (A) (A) (A) (A) (A) (A) (A)
                 (A) (A) (A) (A) (A) (A) (A) (A) (A) (A) (A) (A)
                 (A) (A) (A) (A) (A) (A) (A) (A) (A) (A) (A) (A)
                 (A) (A) (A) (A) (A) (A) (A) (A) (A) (A) (A) (A)
                 (A) (A) (A) (A) (A) (A) (A) (A) (A) (A) (A) (A)
                 (A) (A) (A) (A) (A) (A) (A) (A) (A) (A) (A) (A)
                 (A) (A) (A) (A) (A) (A) (A) (A) (A) (A) (A) (A)
                 (A) (A) (A) (A) (A) (A) (A) (A) (A) (A) (A) (A)
                 (A) (A) (A) (A) (A) (A) (A) (A) (A) (A)
 Beta  Orbitals:
       Occupied  (A) (A) (A) (A) (A) (A) (A) (A) (A) (A) (A) (A)
                 (A) (A) (A) (A) (A) (A) (A) (A) (A) (A) (A) (A)
                 (A) (A) (A) (A) (A) (A) (A) (A) (A) (A) (A) (A)
                 (A) (A) (A) (A) (A) (A) (A) (A) (A) (A) (A) (A)
                 (A) (A) (A) (A) (A) (A) (A) (A) (A) (A) (A) (A)
                 (A) (A) (A) (A) (A) (A) (A) (A) (A) (A) (A) (A)
                 (A) (A) (A) (A) (A) (A) (A) (A) (A) (A) (A) (A)
                 (A) (A) (A) (A) (A) (A) (A) (A) (A) (A) (A) (A)
                 (A) (A) (A) (A) (A) (A) (A) (A) (A) (A) (A) (A)
                 (A) (A) (A) (A) (A) (A) (A) (A) (A) (A) (A) (A)
                 (A) (A) (A) (A) (A) (A) (A) (A) (A) (A) (A) (A)
                 (A) (A)
       Virtual   (A) (A) (A) (A) (A) (A) (A) (A) (A) (A) (A) (A)
                 (A) (A) (A) (A) (A) (A) (A) (A) (A) (A) (A) (A)
                 (A) (A) (A) (A) (A) (A) (A) (A) (A) (A) (A) (A)
                 (A) (A) (A) (A) (A) (A) (A) (A) (A) (A) (A) (A)
                 (A) (A) (A) (A) (A) (A) (A) (A) (A) (A) (A) (A)
                 (A) (A) (A) (A) (A) (A) (A) (A) (A) (A) (A) (A)
                 (A) (A) (A) (A) (A) (A) (A) (A) (A) (A) (A) (A)
                 (A) (A) (A) (A) (A) (A) (A) (A) (A) (A) (A) (A)
                 (A) (A) (A) (A) (A) (A) (A) (A) (A) (A) (A) (A)
                 (A) (A) (A) (A) (A) (A) (A) (A) (A) (A) (A) (A)
                 (A) (A) (A) (A) (A) (A) (A) (A) (A) (A) (A) (A)
                 (A) (A) (A) (A) (A) (A) (A) (A) (A) (A) (A) (A)
                 (A) (A) (A) (A) (A) (A) (A) (A) (A) (A) (A) (A)
                 (A) (A) (A) (A) (A) (A) (A) (A) (A) (A) (A) (A)
                 (A) (A) (A) (A) (A) (A) (A) (A) (A) (A) (A) (A)
                 (A) (A) (A) (A) (A) (A) (A) (A) (A) (A) (A) (A)
                 (A) (A) (A) (A) (A) (A) (A) (A) (A) (A) (A) (A)
                 (A) (A) (A) (A) (A) (A) (A) (A) (A) (A) (A) (A)
                 (A) (A) (A) (A) (A) (A) (A) (A) (A) (A) (A) (A)
                 (A) (A) (A) (A) (A) (A) (A) (A) (A) (A) (A) (A)
                 (A) (A) (A) (A) (A) (A) (A) (A) (A) (A) (A) (A)
                 (A) (A) (A) (A) (A) (A) (A) (A) (A) (A) (A) (A)
                 (A) (A) (A) (A) (A) (A) (A) (A) (A) (A) (A) (A)
                 (A) (A) (A) (A) (A) (A) (A) (A) (A) (A) (A) (A)
                 (A) (A) (A) (A) (A) (A) (A) (A) (A) (A) (A) (A)
                 (A) (A) (A) (A) (A) (A) (A) (A) (A) (A) (A) (A)
                 (A) (A) (A) (A) (A) (A) (A) (A) (A) (A) (A) (A)
                 (A) (A) (A) (A) (A) (A) (A) (A) (A) (A) (A) (A)
                 (A) (A) (A) (A) (A) (A) (A) (A) (A) (A) (A) (A)
                 (A) (A) (A) (A) (A) (A) (A) (A) (A) (A) (A) (A)
                 (A) (A) (A) (A) (A) (A) (A) (A) (A) (A) (A) (A)
                 (A) (A) (A) (A) (A) (A) (A) (A) (A) (A) (A) (A)
                 (A) (A) (A) (A) (A) (A) (A) (A) (A) (A) (A) (A)
                 (A) (A) (A) (A) (A) (A) (A) (A) (A) (A) (A) (A)
                 (A) (A) (A) (A) (A) (A) (A) (A) (A) (A) (A) (A)
                 (A) (A) (A) (A) (A) (A) (A) (A) (A) (A) (A) (A)
                 (A) (A) (A) (A) (A) (A) (A) (A) (A) (A) (A) (A)
                 (A) (A) (A) (A) (A) (A) (A) (A) (A) (A) (A) (A)
                 (A) (A) (A) (A) (A) (A) (A) (A) (A) (A) (A) (A)
                 (A) (A) (A) (A) (A) (A) (A) (A) (A) (A) (A) (A)
                 (A) (A) (A) (A) (A) (A) (A) (A) (A) (A) (A) (A)
                 (A) (A) (A) (A) (A) (A) (A) (A) (A) (A) (A) (A)
                 (A) (A) (A) (A) (A) (A) (A) (A) (A) (A) (A) (A)
                 (A) (A) (A) (A) (A) (A) (A) (A) (A) (A) (A) (A)
                 (A) (A) (A) (A) (A) (A) (A) (A) (A) (A) (A) (A)
                 (A) (A) (A) (A) (A) (A) (A) (A) (A) (A) (A) (A)
                 (A) (A) (A) (A) (A) (A) (A) (A) (A) (A) (A) (A)
                 (A) (A) (A) (A) (A) (A) (A) (A) (A) (A) (A) (A)
                 (A) (A) (A) (A) (A) (A) (A) (A) (A) (A) (A) (A)
                 (A) (A) (A) (A) (A) (A) (A) (A) (A) (A) (A) (A)
                 (A) (A) (A) (A) (A) (A) (A) (A) (A) (A) (A) (A)
                 (A) (A) (A) (A) (A) (A) (A) (A) (A) (A) (A) (A)
                 (A) (A) (A) (A) (A) (A) (A) (A) (A) (A) (A) (A)
                 (A) (A) (A) (A) (A) (A) (A) (A) (A) (A) (A) (A)
                 (A) (A) (A) (A) (A) (A) (A) (A) (A) (A) (A) (A)
                 (A) (A) (A) (A) (A) (A) (A) (A) (A) (A) (A) (A)
                 (A) (A) (A) (A) (A) (A) (A) (A) (A) (A) (A) (A)
                 (A) (A) (A) (A) (A) (A) (A) (A) (A) (A) (A) (A)
                 (A) (A) (A) (A) (A) (A) (A) (A) (A) (A) (A) (A)
                 (A) (A) (A) (A) (A) (A) (A) (A) (A) (A) (A) (A)
                 (A) (A) (A) (A) (A) (A) (A) (A) (A) (A) (A) (A)
                 (A) (A) (A) (A) (A) (A) (A) (A) (A) (A) (A) (A)
                 (A) (A) (A) (A) (A) (A) (A) (A) (A) (A) (A) (A)
                 (A) (A) (A) (A) (A) (A) (A) (A) (A) (A) (A)
 The electronic state is 2-A.
 Alpha  occ. eigenvalues --  -88.87957 -88.86672 -19.16354 -19.16115 -19.10214
 Alpha  occ. eigenvalues --  -19.10165 -19.09720 -19.09201 -14.36746 -14.36261
 Alpha  occ. eigenvalues --  -10.28534 -10.28337 -10.27958 -10.27955 -10.23984
 Alpha  occ. eigenvalues --  -10.23447 -10.22499 -10.22403 -10.21114 -10.20815
 Alpha  occ. eigenvalues --  -10.20764 -10.20531 -10.20176 -10.20169 -10.19885
 Alpha  occ. eigenvalues --  -10.19727 -10.19571 -10.19342 -10.18684 -10.18546
 Alpha  occ. eigenvalues --  -10.18490 -10.18284 -10.18232 -10.17911 -10.17852
 Alpha  occ. eigenvalues --  -10.17831  -7.96522  -7.95265  -5.92827  -5.92445
 Alpha  occ. eigenvalues --   -5.92096  -5.91577  -5.91175  -5.90825  -1.07943
 Alpha  occ. eigenvalues --   -1.07649  -1.06529  -1.06121  -1.04728  -1.04242
 Alpha  occ. eigenvalues --   -0.94198  -0.93645  -0.89685  -0.89080  -0.87514
 Alpha  occ. eigenvalues --   -0.83902  -0.81449  -0.78540  -0.76217  -0.75582
 Alpha  occ. eigenvalues --   -0.75167  -0.74206  -0.73229  -0.72078  -0.70803
 Alpha  occ. eigenvalues --   -0.69648  -0.69102  -0.67188  -0.65034  -0.63663
 Alpha  occ. eigenvalues --   -0.63107  -0.62454  -0.59558  -0.58441  -0.56576
 Alpha  occ. eigenvalues --   -0.55459  -0.55318  -0.54751  -0.53848  -0.52672
 Alpha  occ. eigenvalues --   -0.51454  -0.49332  -0.48724  -0.48291  -0.47871
 Alpha  occ. eigenvalues --   -0.47786  -0.47698  -0.47356  -0.47279  -0.47048
 Alpha  occ. eigenvalues --   -0.46515  -0.45254  -0.45017  -0.44766  -0.44496
 Alpha  occ. eigenvalues --   -0.43692  -0.43427  -0.42989  -0.42498  -0.42004
 Alpha  occ. eigenvalues --   -0.41258  -0.40914  -0.40708  -0.40583  -0.40430
 Alpha  occ. eigenvalues --   -0.40052  -0.39851  -0.39819  -0.39153  -0.38518
 Alpha  occ. eigenvalues --   -0.37719  -0.37524  -0.37099  -0.36660  -0.35524
 Alpha  occ. eigenvalues --   -0.34913  -0.34447  -0.33498  -0.33236  -0.32520
 Alpha  occ. eigenvalues --   -0.32136  -0.29987  -0.29210  -0.28931  -0.28190
 Alpha  occ. eigenvalues --   -0.27941  -0.27361  -0.27120  -0.26586  -0.25929
 Alpha  occ. eigenvalues --   -0.24596  -0.24174  -0.22566  -0.18622  -0.14512
 Alpha virt. eigenvalues --   -0.06192  -0.04856  -0.03132  -0.02602  -0.00259
 Alpha virt. eigenvalues --    0.00393   0.00565   0.00714   0.00944   0.01473
 Alpha virt. eigenvalues --    0.01889   0.02355   0.02511   0.02687   0.02848
 Alpha virt. eigenvalues --    0.02936   0.03194   0.03335   0.03509   0.03984
 Alpha virt. eigenvalues --    0.04088   0.04211   0.04705   0.04892   0.05089
 Alpha virt. eigenvalues --    0.05190   0.05500   0.05925   0.06036   0.06496
 Alpha virt. eigenvalues --    0.06625   0.06985   0.07120   0.07669   0.07837
 Alpha virt. eigenvalues --    0.07962   0.08267   0.08459   0.08753   0.08791
 Alpha virt. eigenvalues --    0.09142   0.09293   0.09471   0.09910   0.10037
 Alpha virt. eigenvalues --    0.10461   0.10650   0.10874   0.11271   0.11463
 Alpha virt. eigenvalues --    0.11542   0.12038   0.12234   0.12385   0.12514
 Alpha virt. eigenvalues --    0.12939   0.13182   0.13839   0.13927   0.14177
 Alpha virt. eigenvalues --    0.14470   0.14588   0.14793   0.15027   0.15123
 Alpha virt. eigenvalues --    0.15303   0.15423   0.15588   0.15801   0.16367
 Alpha virt. eigenvalues --    0.16477   0.16544   0.16678   0.17132   0.17292
 Alpha virt. eigenvalues --    0.17497   0.17658   0.18153   0.18308   0.18577
 Alpha virt. eigenvalues --    0.18781   0.19031   0.19305   0.19375   0.19579
 Alpha virt. eigenvalues --    0.19818   0.19845   0.20200   0.20289   0.20496
 Alpha virt. eigenvalues --    0.20626   0.20918   0.20986   0.21305   0.21345
 Alpha virt. eigenvalues --    0.21505   0.21690   0.21827   0.22202   0.22407
 Alpha virt. eigenvalues --    0.22594   0.22802   0.22972   0.23228   0.23247
 Alpha virt. eigenvalues --    0.23525   0.23708   0.23915   0.24103   0.24282
 Alpha virt. eigenvalues --    0.24527   0.24640   0.25034   0.25141   0.25323
 Alpha virt. eigenvalues --    0.25673   0.25847   0.25995   0.26176   0.26410
 Alpha virt. eigenvalues --    0.26480   0.26601   0.26812   0.26935   0.27066
 Alpha virt. eigenvalues --    0.27170   0.27465   0.27781   0.28152   0.28248
 Alpha virt. eigenvalues --    0.28325   0.28493   0.28801   0.29112   0.29288
 Alpha virt. eigenvalues --    0.29328   0.29553   0.29973   0.30148   0.30360
 Alpha virt. eigenvalues --    0.30551   0.30809   0.30991   0.31238   0.31372
 Alpha virt. eigenvalues --    0.31762   0.31842   0.32150   0.32266   0.32485
 Alpha virt. eigenvalues --    0.32583   0.32741   0.32823   0.33398   0.33750
 Alpha virt. eigenvalues --    0.34063   0.34276   0.34392   0.34925   0.35238
 Alpha virt. eigenvalues --    0.35690   0.35995   0.36241   0.36679   0.36913
 Alpha virt. eigenvalues --    0.37370   0.37597   0.37882   0.38282   0.38466
 Alpha virt. eigenvalues --    0.38986   0.39271   0.39974   0.40119   0.40590
 Alpha virt. eigenvalues --    0.40938   0.41395   0.41883   0.42319   0.42821
 Alpha virt. eigenvalues --    0.43378   0.43551   0.43804   0.44471   0.44733
 Alpha virt. eigenvalues --    0.45011   0.45395   0.46046   0.46225   0.46280
 Alpha virt. eigenvalues --    0.46516   0.46829   0.47309   0.47449   0.48120
 Alpha virt. eigenvalues --    0.48533   0.49576   0.49799   0.49982   0.50372
 Alpha virt. eigenvalues --    0.50808   0.51086   0.51717   0.52139   0.53373
 Alpha virt. eigenvalues --    0.54046   0.54329   0.54526   0.55341   0.55457
 Alpha virt. eigenvalues --    0.55887   0.56068   0.56375   0.56578   0.56975
 Alpha virt. eigenvalues --    0.57548   0.57799   0.58104   0.58618   0.58866
 Alpha virt. eigenvalues --    0.59244   0.59991   0.60305   0.60578   0.61250
 Alpha virt. eigenvalues --    0.61670   0.61787   0.62214   0.62681   0.63064
 Alpha virt. eigenvalues --    0.63406   0.63742   0.63968   0.64408   0.64799
 Alpha virt. eigenvalues --    0.65139   0.65600   0.65652   0.65790   0.66594
 Alpha virt. eigenvalues --    0.66786   0.67212   0.67761   0.67907   0.68106
 Alpha virt. eigenvalues --    0.68334   0.68482   0.69142   0.69801   0.70263
 Alpha virt. eigenvalues --    0.70721   0.70924   0.71317   0.71788   0.72118
 Alpha virt. eigenvalues --    0.72340   0.72897   0.73332   0.73419   0.73922
 Alpha virt. eigenvalues --    0.74153   0.74396   0.74526   0.75308   0.75524
 Alpha virt. eigenvalues --    0.75850   0.76067   0.76335   0.76494   0.77024
 Alpha virt. eigenvalues --    0.77395   0.77681   0.78061   0.78366   0.78929
 Alpha virt. eigenvalues --    0.79387   0.79619   0.80229   0.80468   0.80529
 Alpha virt. eigenvalues --    0.81578   0.81852   0.82290   0.83441   0.83703
 Alpha virt. eigenvalues --    0.84170   0.84981   0.85492   0.86919   0.87479
 Alpha virt. eigenvalues --    0.88079   0.88660   0.89116   0.90087   0.90330
 Alpha virt. eigenvalues --    0.90773   0.91163   0.91678   0.92615   0.92866
 Alpha virt. eigenvalues --    0.93273   0.93721   0.94290   0.94535   0.94925
 Alpha virt. eigenvalues --    0.95556   0.95998   0.96294   0.96971   0.97162
 Alpha virt. eigenvalues --    0.97713   0.97823   0.98632   0.99066   0.99745
 Alpha virt. eigenvalues --    0.99855   1.00114   1.01035   1.01436   1.01914
 Alpha virt. eigenvalues --    1.02236   1.02884   1.03175   1.03648   1.03890
 Alpha virt. eigenvalues --    1.04284   1.04761   1.05949   1.06178   1.06460
 Alpha virt. eigenvalues --    1.06655   1.06737   1.07269   1.07628   1.08096
 Alpha virt. eigenvalues --    1.08609   1.08992   1.09245   1.09727   1.10024
 Alpha virt. eigenvalues --    1.10933   1.11254   1.11510   1.12365   1.12957
 Alpha virt. eigenvalues --    1.13275   1.14085   1.14925   1.15564   1.16645
 Alpha virt. eigenvalues --    1.17050   1.18137   1.18391   1.18814   1.19350
 Alpha virt. eigenvalues --    1.19992   1.21085   1.21434   1.22038   1.22500
 Alpha virt. eigenvalues --    1.22811   1.24557   1.25639   1.26163   1.26447
 Alpha virt. eigenvalues --    1.26875   1.28406   1.28553   1.29159   1.29413
 Alpha virt. eigenvalues --    1.29890   1.31445   1.31733   1.32449   1.32709
 Alpha virt. eigenvalues --    1.33556   1.34172   1.35579   1.35897   1.36340
 Alpha virt. eigenvalues --    1.38421   1.38726   1.39418   1.40531   1.41042
 Alpha virt. eigenvalues --    1.42442   1.43215   1.43843   1.44214   1.44342
 Alpha virt. eigenvalues --    1.44599   1.44772   1.44845   1.45724   1.46016
 Alpha virt. eigenvalues --    1.46465   1.47043   1.47081   1.47484   1.48013
 Alpha virt. eigenvalues --    1.48800   1.49642   1.50082   1.50734   1.51532
 Alpha virt. eigenvalues --    1.53038   1.53359   1.53498   1.54551   1.55061
 Alpha virt. eigenvalues --    1.55089   1.55538   1.55843   1.56033   1.56452
 Alpha virt. eigenvalues --    1.56869   1.56992   1.57821   1.58634   1.59414
 Alpha virt. eigenvalues --    1.60338   1.60550   1.62042   1.62718   1.63401
 Alpha virt. eigenvalues --    1.63909   1.64401   1.64882   1.65115   1.66046
 Alpha virt. eigenvalues --    1.67361   1.67559   1.68309   1.68588   1.69507
 Alpha virt. eigenvalues --    1.69909   1.70087   1.70444   1.71224   1.71426
 Alpha virt. eigenvalues --    1.72215   1.72536   1.72614   1.73756   1.74707
 Alpha virt. eigenvalues --    1.75013   1.76595   1.77055   1.77403   1.77593
 Alpha virt. eigenvalues --    1.78402   1.78563   1.79078   1.80278   1.80514
 Alpha virt. eigenvalues --    1.81235   1.81751   1.82748   1.83991   1.84777
 Alpha virt. eigenvalues --    1.85078   1.86740   1.87616   1.88001   1.88225
 Alpha virt. eigenvalues --    1.88515   1.89435   1.89944   1.90700   1.90869
 Alpha virt. eigenvalues --    1.91494   1.91768   1.92851   1.93237   1.93868
 Alpha virt. eigenvalues --    1.94197   1.94965   1.96114   1.96343   1.97453
 Alpha virt. eigenvalues --    1.98154   1.98246   2.00160   2.00995   2.01158
 Alpha virt. eigenvalues --    2.02002   2.02630   2.03047   2.03527   2.04010
 Alpha virt. eigenvalues --    2.04672   2.04917   2.05731   2.06112   2.06748
 Alpha virt. eigenvalues --    2.07766   2.07940   2.08527   2.09059   2.10408
 Alpha virt. eigenvalues --    2.10806   2.12005   2.12549   2.12987   2.13225
 Alpha virt. eigenvalues --    2.13361   2.14825   2.15932   2.16108   2.16675
 Alpha virt. eigenvalues --    2.18615   2.18926   2.19261   2.20408   2.21287
 Alpha virt. eigenvalues --    2.21767   2.22648   2.23239   2.23489   2.24222
 Alpha virt. eigenvalues --    2.27469   2.28297   2.28918   2.30680   2.34111
 Alpha virt. eigenvalues --    2.34772   2.35266   2.37045   2.38267   2.39831
 Alpha virt. eigenvalues --    2.41172   2.41402   2.43005   2.43710   2.44425
 Alpha virt. eigenvalues --    2.44650   2.45606   2.46854   2.47503   2.47823
 Alpha virt. eigenvalues --    2.49038   2.49216   2.50187   2.50392   2.51748
 Alpha virt. eigenvalues --    2.52627   2.53391   2.53565   2.54255   2.54662
 Alpha virt. eigenvalues --    2.55017   2.55281   2.55531   2.57713   2.57913
 Alpha virt. eigenvalues --    2.58870   2.60234   2.60447   2.62121   2.64356
 Alpha virt. eigenvalues --    2.64802   2.66135   2.66665   2.68358   2.68858
 Alpha virt. eigenvalues --    2.68918   2.69097   2.69536   2.70355   2.71382
 Alpha virt. eigenvalues --    2.71545   2.72298   2.72563   2.73015   2.73573
 Alpha virt. eigenvalues --    2.74403   2.74659   2.75062   2.77125   2.78044
 Alpha virt. eigenvalues --    2.78446   2.79177   2.79768   2.80736   2.83891
 Alpha virt. eigenvalues --    2.84130   2.84650   2.84961   2.85380   2.85941
 Alpha virt. eigenvalues --    2.86422   2.87626   2.88548   2.88897   2.89686
 Alpha virt. eigenvalues --    2.90086   2.90591   2.91500   2.91940   2.92996
 Alpha virt. eigenvalues --    2.93794   2.94476   2.94944   2.96137   2.96923
 Alpha virt. eigenvalues --    2.97227   2.97490   2.98001   3.00774   3.01212
 Alpha virt. eigenvalues --    3.04049   3.04419   3.05093   3.05688   3.07541
 Alpha virt. eigenvalues --    3.08596   3.09502   3.10778   3.11734   3.13105
 Alpha virt. eigenvalues --    3.14782   3.15512   3.16407   3.16791   3.17651
 Alpha virt. eigenvalues --    3.19617   3.20598   3.22421   3.22722   3.23936
 Alpha virt. eigenvalues --    3.24444   3.24849   3.27231   3.29779   3.30744
 Alpha virt. eigenvalues --    3.31378   3.32513   3.33015   3.35449   3.35770
 Alpha virt. eigenvalues --    3.36213   3.36243   3.37551   3.39154   3.40141
 Alpha virt. eigenvalues --    3.41995   3.42605   3.44552   3.45045   3.46537
 Alpha virt. eigenvalues --    3.46941   3.47683   3.50400   3.51215   3.52217
 Alpha virt. eigenvalues --    3.55542   3.56543   3.59841   3.61366   3.62336
 Alpha virt. eigenvalues --    3.63717   3.66920   3.67694   3.68820   3.71596
 Alpha virt. eigenvalues --    3.72259   3.73335   3.74027   3.76582   3.77281
 Alpha virt. eigenvalues --    3.77433   3.82670   3.84127   3.85466   3.86737
 Alpha virt. eigenvalues --    3.87697   3.91976   3.93410   3.94898   3.94996
 Alpha virt. eigenvalues --    3.96546   3.98881   4.03391   4.03919   4.06639
 Alpha virt. eigenvalues --    4.08832   4.11115   4.14964   4.15150   4.20886
 Alpha virt. eigenvalues --    4.24936   4.27308   4.28691   4.37671   4.40890
 Alpha virt. eigenvalues --    4.42782   4.53078   4.69426   4.86964   4.88356
 Alpha virt. eigenvalues --    4.89140   4.92272   5.02443   5.03248   5.05337
 Alpha virt. eigenvalues --    5.06873   5.07204   5.11483   5.13270   5.14929
 Alpha virt. eigenvalues --    5.26488   5.28477   5.30605   5.32943   5.42667
 Alpha virt. eigenvalues --    5.43892   5.76853   5.77686   5.80788   5.81844
 Alpha virt. eigenvalues --    5.83465   5.86683   8.02895   8.07666  17.29500
 Alpha virt. eigenvalues --   17.36535  17.50029  17.52876  17.59269  17.64498
 Alpha virt. eigenvalues --   23.51438  23.58285  23.73066  23.81427  23.83288
 Alpha virt. eigenvalues --   23.84765  23.86735  23.89112  23.89491  23.89846
 Alpha virt. eigenvalues --   23.91104  23.91253  23.92227  23.95454  23.95987
 Alpha virt. eigenvalues --   23.97685  23.98625  24.01052  24.02679  24.03339
 Alpha virt. eigenvalues --   24.03412  24.08108  24.13139  24.14913  24.16376
 Alpha virt. eigenvalues --   24.17145  35.57791  35.60729  49.96712  49.98284
 Alpha virt. eigenvalues --   50.04091  50.06064  50.07859  50.09541 189.20190
 Alpha virt. eigenvalues --  189.25754
  Beta  occ. eigenvalues --  -88.87956 -88.86666 -19.16337 -19.16124 -19.10041
  Beta  occ. eigenvalues --  -19.09984 -19.09553 -19.09011 -14.36798 -14.36315
  Beta  occ. eigenvalues --  -10.28470 -10.28274 -10.27897 -10.27887 -10.23949
  Beta  occ. eigenvalues --  -10.23478 -10.22500 -10.22403 -10.21137 -10.20814
  Beta  occ. eigenvalues --  -10.20742 -10.20396 -10.20215 -10.20142 -10.19885
  Beta  occ. eigenvalues --  -10.19782 -10.19570 -10.19198 -10.18542 -10.18386
  Beta  occ. eigenvalues --  -10.18352 -10.18297 -10.18183 -10.17832 -10.17775
  Beta  occ. eigenvalues --  -10.17766  -7.96521  -7.95259  -5.92826  -5.92445
  Beta  occ. eigenvalues --   -5.92093  -5.91571  -5.91170  -5.90810  -1.07909
  Beta  occ. eigenvalues --   -1.07666  -1.06292  -1.05884  -1.04422  -1.03934
  Beta  occ. eigenvalues --   -0.94111  -0.93556  -0.89576  -0.89002  -0.87461
  Beta  occ. eigenvalues --   -0.83600  -0.81168  -0.78408  -0.76120  -0.75264
  Beta  occ. eigenvalues --   -0.75038  -0.74150  -0.73161  -0.72013  -0.70761
  Beta  occ. eigenvalues --   -0.69521  -0.68846  -0.67039  -0.64875  -0.63478
  Beta  occ. eigenvalues --   -0.62983  -0.62295  -0.59490  -0.58370  -0.56501
  Beta  occ. eigenvalues --   -0.55397  -0.55228  -0.54636  -0.53826  -0.52530
  Beta  occ. eigenvalues --   -0.51337  -0.49179  -0.48655  -0.48022  -0.47732
  Beta  occ. eigenvalues --   -0.47650  -0.47601  -0.47349  -0.47187  -0.46927
  Beta  occ. eigenvalues --   -0.46479  -0.45192  -0.44923  -0.44653  -0.44437
  Beta  occ. eigenvalues --   -0.43586  -0.43256  -0.42836  -0.42355  -0.41738
  Beta  occ. eigenvalues --   -0.41229  -0.40799  -0.40573  -0.40037  -0.40009
  Beta  occ. eigenvalues --   -0.39804  -0.39702  -0.39132  -0.39079  -0.38356
  Beta  occ. eigenvalues --   -0.37453  -0.37432  -0.36911  -0.36598  -0.35500
  Beta  occ. eigenvalues --   -0.34822  -0.34136  -0.33364  -0.33141  -0.32478
  Beta  occ. eigenvalues --   -0.31688  -0.29145  -0.29034  -0.28527  -0.27907
  Beta  occ. eigenvalues --   -0.27601  -0.27119  -0.26904  -0.26381  -0.25433
  Beta  occ. eigenvalues --   -0.24301  -0.23028  -0.22385  -0.18329
  Beta virt. eigenvalues --   -0.10282  -0.05562  -0.03912  -0.02420  -0.02127
  Beta virt. eigenvalues --   -0.00244   0.00424   0.00673   0.00794   0.00963
  Beta virt. eigenvalues --    0.01486   0.01914   0.02371   0.02577   0.02933
  Beta virt. eigenvalues --    0.03106   0.03290   0.03433   0.03606   0.03797
  Beta virt. eigenvalues --    0.04023   0.04111   0.04219   0.04750   0.04917
  Beta virt. eigenvalues --    0.05112   0.05246   0.05518   0.05982   0.06100
  Beta virt. eigenvalues --    0.06538   0.06649   0.07025   0.07165   0.07703
  Beta virt. eigenvalues --    0.07896   0.07978   0.08381   0.08475   0.08782
  Beta virt. eigenvalues --    0.08881   0.09194   0.09365   0.09540   0.09974
  Beta virt. eigenvalues --    0.10059   0.10555   0.10723   0.11013   0.11344
  Beta virt. eigenvalues --    0.11622   0.11704   0.12171   0.12332   0.12452
  Beta virt. eigenvalues --    0.12585   0.12963   0.13221   0.13912   0.13947
  Beta virt. eigenvalues --    0.14255   0.14579   0.14620   0.14864   0.15129
  Beta virt. eigenvalues --    0.15169   0.15347   0.15491   0.15615   0.15825
  Beta virt. eigenvalues --    0.16381   0.16530   0.16584   0.16704   0.17157
  Beta virt. eigenvalues --    0.17367   0.17533   0.17708   0.18176   0.18345
  Beta virt. eigenvalues --    0.18611   0.18824   0.19065   0.19366   0.19405
  Beta virt. eigenvalues --    0.19625   0.19846   0.19896   0.20215   0.20341
  Beta virt. eigenvalues --    0.20543   0.20648   0.20948   0.21035   0.21351
  Beta virt. eigenvalues --    0.21391   0.21555   0.21728   0.21874   0.22261
  Beta virt. eigenvalues --    0.22467   0.22686   0.22913   0.23098   0.23255
  Beta virt. eigenvalues --    0.23373   0.23571   0.23767   0.24115   0.24154
  Beta virt. eigenvalues --    0.24367   0.24559   0.24681   0.25064   0.25224
  Beta virt. eigenvalues --    0.25393   0.25729   0.25884   0.26065   0.26196
  Beta virt. eigenvalues --    0.26450   0.26520   0.26642   0.26853   0.26976
  Beta virt. eigenvalues --    0.27128   0.27214   0.27513   0.27862   0.28204
  Beta virt. eigenvalues --    0.28332   0.28370   0.28549   0.28833   0.29145
  Beta virt. eigenvalues --    0.29350   0.29379   0.29603   0.30002   0.30177
  Beta virt. eigenvalues --    0.30438   0.30600   0.30852   0.31049   0.31278
  Beta virt. eigenvalues --    0.31425   0.31815   0.31884   0.32196   0.32297
  Beta virt. eigenvalues --    0.32543   0.32656   0.32827   0.32873   0.33464
  Beta virt. eigenvalues --    0.33795   0.34140   0.34319   0.34465   0.34964
  Beta virt. eigenvalues --    0.35306   0.35786   0.36030   0.36296   0.36756
  Beta virt. eigenvalues --    0.36963   0.37432   0.37645   0.37942   0.38327
  Beta virt. eigenvalues --    0.38526   0.39061   0.39330   0.40030   0.40159
  Beta virt. eigenvalues --    0.40638   0.41052   0.41454   0.41931   0.42386
  Beta virt. eigenvalues --    0.42876   0.43413   0.43610   0.43829   0.44546
  Beta virt. eigenvalues --    0.44763   0.45050   0.45457   0.46092   0.46263
  Beta virt. eigenvalues --    0.46318   0.46547   0.46866   0.47357   0.47495
  Beta virt. eigenvalues --    0.48181   0.48574   0.49639   0.49837   0.50045
  Beta virt. eigenvalues --    0.50408   0.50869   0.51175   0.51810   0.52201
  Beta virt. eigenvalues --    0.53445   0.54117   0.54360   0.54597   0.55454
  Beta virt. eigenvalues --    0.55518   0.55961   0.56130   0.56434   0.56704
  Beta virt. eigenvalues --    0.57022   0.57618   0.57861   0.58174   0.58673
  Beta virt. eigenvalues --    0.59024   0.59334   0.60090   0.60335   0.60693
  Beta virt. eigenvalues --    0.61309   0.61820   0.61923   0.62302   0.62777
  Beta virt. eigenvalues --    0.63164   0.63546   0.63848   0.64167   0.64456
  Beta virt. eigenvalues --    0.64888   0.65247   0.65708   0.65733   0.65878
  Beta virt. eigenvalues --    0.66714   0.66854   0.67281   0.67846   0.68009
  Beta virt. eigenvalues --    0.68149   0.68405   0.68572   0.69209   0.69876
  Beta virt. eigenvalues --    0.70339   0.70835   0.70981   0.71493   0.71881
  Beta virt. eigenvalues --    0.72246   0.72424   0.72978   0.73438   0.73555
  Beta virt. eigenvalues --    0.74006   0.74243   0.74600   0.74665   0.75358
  Beta virt. eigenvalues --    0.75599   0.75926   0.76161   0.76404   0.76557
  Beta virt. eigenvalues --    0.77059   0.77476   0.77718   0.78113   0.78432
  Beta virt. eigenvalues --    0.78998   0.79444   0.79667   0.80285   0.80555
  Beta virt. eigenvalues --    0.80652   0.81649   0.81898   0.82358   0.83498
  Beta virt. eigenvalues --    0.83784   0.84216   0.85014   0.85588   0.86990
  Beta virt. eigenvalues --    0.87521   0.88071   0.88741   0.89164   0.90104
  Beta virt. eigenvalues --    0.90370   0.90805   0.91246   0.91739   0.92722
  Beta virt. eigenvalues --    0.92924   0.93360   0.93799   0.94420   0.94695
  Beta virt. eigenvalues --    0.95046   0.95720   0.96121   0.96375   0.97189
  Beta virt. eigenvalues --    0.97273   0.97834   0.97882   0.98819   0.99158
  Beta virt. eigenvalues --    0.99840   0.99972   1.00225   1.01185   1.01559
  Beta virt. eigenvalues --    1.02032   1.02295   1.02972   1.03306   1.03738
  Beta virt. eigenvalues --    1.03981   1.04420   1.04839   1.06046   1.06323
  Beta virt. eigenvalues --    1.06581   1.06756   1.06943   1.07438   1.07746
  Beta virt. eigenvalues --    1.08204   1.08728   1.09170   1.09362   1.09893
  Beta virt. eigenvalues --    1.10159   1.11040   1.11404   1.11653   1.12531
  Beta virt. eigenvalues --    1.13125   1.13409   1.14323   1.15147   1.15839
  Beta virt. eigenvalues --    1.16807   1.17280   1.18271   1.18501   1.18966
  Beta virt. eigenvalues --    1.19592   1.20120   1.21281   1.21636   1.22228
  Beta virt. eigenvalues --    1.22634   1.22906   1.24657   1.25729   1.26234
  Beta virt. eigenvalues --    1.26527   1.26944   1.28486   1.28749   1.29308
  Beta virt. eigenvalues --    1.29551   1.30010   1.31554   1.31810   1.32476
  Beta virt. eigenvalues --    1.32769   1.33629   1.34276   1.35681   1.35958
  Beta virt. eigenvalues --    1.36388   1.38485   1.38821   1.39467   1.40601
  Beta virt. eigenvalues --    1.41153   1.42566   1.43322   1.43851   1.44314
  Beta virt. eigenvalues --    1.44383   1.44634   1.44825   1.45020   1.45769
  Beta virt. eigenvalues --    1.46081   1.46505   1.47169   1.47193   1.47573
  Beta virt. eigenvalues --    1.48171   1.48865   1.49749   1.50238   1.50807
  Beta virt. eigenvalues --    1.51640   1.53109   1.53477   1.53751   1.54616
  Beta virt. eigenvalues --    1.55126   1.55235   1.55546   1.55894   1.56094
  Beta virt. eigenvalues --    1.56508   1.56919   1.57073   1.57870   1.58760
  Beta virt. eigenvalues --    1.59588   1.60436   1.60652   1.62093   1.62753
  Beta virt. eigenvalues --    1.63420   1.63941   1.64466   1.64897   1.65236
  Beta virt. eigenvalues --    1.66143   1.67384   1.67596   1.68366   1.68682
  Beta virt. eigenvalues --    1.69672   1.69962   1.70215   1.70502   1.71330
  Beta virt. eigenvalues --    1.71529   1.72325   1.72669   1.72744   1.73946
  Beta virt. eigenvalues --    1.74764   1.75102   1.76738   1.77173   1.77530
  Beta virt. eigenvalues --    1.77678   1.78477   1.78623   1.79161   1.80353
  Beta virt. eigenvalues --    1.80578   1.81315   1.81851   1.82840   1.84063
  Beta virt. eigenvalues --    1.84843   1.85147   1.86807   1.87759   1.88088
  Beta virt. eigenvalues --    1.88318   1.88890   1.89613   1.90135   1.90813
  Beta virt. eigenvalues --    1.91098   1.91582   1.91873   1.92996   1.93392
  Beta virt. eigenvalues --    1.93971   1.94344   1.95095   1.96223   1.96449
  Beta virt. eigenvalues --    1.97713   1.98392   1.98449   2.00248   2.01243
  Beta virt. eigenvalues --    2.01361   2.02090   2.02701   2.03129   2.03621
  Beta virt. eigenvalues --    2.04086   2.04743   2.04964   2.05777   2.06209
  Beta virt. eigenvalues --    2.06796   2.07813   2.08007   2.08678   2.09132
  Beta virt. eigenvalues --    2.10481   2.10905   2.12098   2.12595   2.13106
  Beta virt. eigenvalues --    2.13245   2.13441   2.14876   2.15986   2.16205
  Beta virt. eigenvalues --    2.16736   2.18718   2.18989   2.19615   2.20459
  Beta virt. eigenvalues --    2.21371   2.21819   2.22792   2.23343   2.23561
  Beta virt. eigenvalues --    2.24291   2.27552   2.28557   2.29032   2.30801
  Beta virt. eigenvalues --    2.34270   2.34891   2.35433   2.37151   2.38470
  Beta virt. eigenvalues --    2.39905   2.41262   2.41508   2.43116   2.43740
  Beta virt. eigenvalues --    2.44435   2.44672   2.45645   2.46941   2.47517
  Beta virt. eigenvalues --    2.47856   2.49176   2.49225   2.50226   2.50475
  Beta virt. eigenvalues --    2.51806   2.52651   2.53428   2.53594   2.54279
  Beta virt. eigenvalues --    2.54678   2.55052   2.55294   2.55541   2.57753
  Beta virt. eigenvalues --    2.57951   2.58890   2.60260   2.60516   2.62182
  Beta virt. eigenvalues --    2.64383   2.64868   2.66404   2.66747   2.68406
  Beta virt. eigenvalues --    2.68920   2.68954   2.69151   2.69610   2.70398
  Beta virt. eigenvalues --    2.71527   2.71779   2.72419   2.72760   2.73172
  Beta virt. eigenvalues --    2.73884   2.74501   2.74711   2.75074   2.77209
  Beta virt. eigenvalues --    2.78423   2.78530   2.79191   2.79970   2.80930
  Beta virt. eigenvalues --    2.83957   2.84416   2.84703   2.85035   2.85458
  Beta virt. eigenvalues --    2.86221   2.86596   2.88021   2.88651   2.89127
  Beta virt. eigenvalues --    2.90070   2.90397   2.90930   2.91813   2.92370
  Beta virt. eigenvalues --    2.93313   2.94076   2.94763   2.95356   2.96489
  Beta virt. eigenvalues --    2.97167   2.97456   2.97740   2.98289   3.00798
  Beta virt. eigenvalues --    3.01582   3.04131   3.04823   3.05095   3.05846
  Beta virt. eigenvalues --    3.07649   3.09168   3.09536   3.10898   3.11784
  Beta virt. eigenvalues --    3.13227   3.14872   3.15714   3.16519   3.16896
  Beta virt. eigenvalues --    3.17724   3.19691   3.20645   3.22475   3.22757
  Beta virt. eigenvalues --    3.23956   3.24462   3.24887   3.27326   3.29878
  Beta virt. eigenvalues --    3.30780   3.31450   3.32536   3.33095   3.35908
  Beta virt. eigenvalues --    3.35958   3.36525   3.36698   3.38024   3.39236
  Beta virt. eigenvalues --    3.40229   3.42058   3.42664   3.44634   3.45133
  Beta virt. eigenvalues --    3.46582   3.46999   3.47794   3.50440   3.51317
  Beta virt. eigenvalues --    3.52331   3.55574   3.56592   3.59946   3.61456
  Beta virt. eigenvalues --    3.62412   3.63825   3.66978   3.67731   3.68892
  Beta virt. eigenvalues --    3.71649   3.72338   3.73309   3.74005   3.76612
  Beta virt. eigenvalues --    3.77285   3.77433   3.82702   3.84183   3.85474
  Beta virt. eigenvalues --    3.86777   3.87734   3.92161   3.93537   3.94821
  Beta virt. eigenvalues --    3.95103   3.96409   3.99040   4.03523   4.03948
  Beta virt. eigenvalues --    4.06768   4.08848   4.11127   4.14977   4.15334
  Beta virt. eigenvalues --    4.20935   4.25035   4.27489   4.28866   4.37872
  Beta virt. eigenvalues --    4.41040   4.43003   4.53192   4.69517   4.87098
  Beta virt. eigenvalues --    4.88576   4.89163   4.92276   5.02510   5.03217
  Beta virt. eigenvalues --    5.06063   5.07613   5.07898   5.12260   5.13388
  Beta virt. eigenvalues --    5.15047   5.26631   5.28624   5.30750   5.33101
  Beta virt. eigenvalues --    5.42663   5.43905   5.76919   5.77792   5.80796
  Beta virt. eigenvalues --    5.82003   5.83614   5.86838   8.02898   8.07678
  Beta virt. eigenvalues --   17.29504  17.36554  17.50029  17.52877  17.59280
  Beta virt. eigenvalues --   17.64501  23.51497  23.58331  23.73084  23.81517
  Beta virt. eigenvalues --   23.83335  23.84843  23.86813  23.89177  23.89577
  Beta virt. eigenvalues --   23.89898  23.91158  23.91305  23.92226  23.95501
  Beta virt. eigenvalues --   23.96015  23.97730  23.98701  24.01144  24.02698
  Beta virt. eigenvalues --   24.03338  24.03423  24.08225  24.13179  24.14922
  Beta virt. eigenvalues --   24.16475  24.17245  35.57738  35.60674  49.96725
  Beta virt. eigenvalues --   49.98279  50.04267  50.06239  50.08038  50.09722
  Beta virt. eigenvalues --  189.20191 189.25760
          Condensed to atoms (all electrons):
          Atomic-Atomic Spin Densities.
 Mulliken charges and spin densities:
               1          2
     1  C    0.364531   0.029129
     2  C   -0.134427   0.115383
     3  C    0.159027  -0.037700
     4  C    0.141134   0.097801
     5  C    0.278510   0.029712
     6  C   -0.252887   0.040172
     7  C    0.152372  -0.030299
     8  C    0.164262   0.112439
[...]
     8   Atom       -0.013480     -0.049499      0.050454
     9   Atom       -0.003198     -0.011431      0.027676
    10   Atom       -0.013112     -0.031854      0.014973
    11   Atom       -0.001169     -0.023137      0.007904
    12   Atom       -0.007683     -0.051443      0.019745
    13   Atom       -0.006644     -0.026739      0.012073
    14   Atom       -0.004487     -0.028619      0.012329
    15   Atom       -0.001472      0.002327     -0.000195
    16   Atom        0.002840     -0.000521     -0.000287
    17   Atom        0.002379      0.000273     -0.000192
    18   Atom        0.003202      0.026287     -0.009871
    19   Atom        0.001617      0.019150     -0.008218
    20   Atom       -0.012096     -0.103432      0.044093
    21   Atom       -0.012616     -0.108543      0.043592
    22   Atom       -0.014410     -0.121811      0.040437
    23   Atom       -0.058309     -0.195670      0.095452
    24   Atom        0.000024      0.000854     -0.000298
    25   Atom       -0.000044      0.000591     -0.001025
    26   Atom       -0.000628      0.000337      0.000135
    27   Atom       -0.001216      0.000745     -0.000507
    28   Atom       -0.000053      0.000706     -0.000325
    29   Atom       -0.000566      0.001022     -0.000781
    30   Atom       -0.000960      0.000035     -0.000001
    31   Atom       -0.000631      0.000333     -0.000499
    32   Atom        0.001505      0.000406      0.011309
    33   Atom        0.002310     -0.000907     -0.017241
    34   Atom       -0.034808      0.000375     -0.001413
    35   Atom        0.002395     -0.002923      0.006851
    36   Atom       -0.000144      0.000878      0.001330
    37   Atom       -0.004469      0.004609     -0.019690
    38   Atom        0.001935     -0.001096      0.004855
    39   Atom        0.000339     -0.001303      0.004622
    40   Atom        0.000460      0.000371      0.000096
    41   Atom       -0.001384      0.001113     -0.008918
    42   Atom        0.001923     -0.000065     -0.002974
    43   Atom        0.000268      0.000204      0.000119
    44   Atom        0.000403      0.000508      0.000299
    45   Atom        0.000526      0.000328      0.000244
    46   Atom        0.000556     -0.000469      0.002611
    47   Atom        0.000071     -0.001060     -0.009100
    48   Atom       -0.001174      0.001171     -0.008562
    49   Atom        0.000072     -0.000072      0.000083
    50   Atom       -0.000186     -0.000355      0.000303
    51   Atom        0.000268      0.000080     -0.000362
    52   Atom       -0.000087     -0.000288      0.000132
    53   Atom       -0.000143     -0.000313      0.000241
    54   Atom       -0.000204     -0.000239      0.000164
 --------------------------------------------------------


 ---------------------------------------------------------------------------------
              Anisotropic Spin Dipole Couplings in Principal Axis System
 ---------------------------------------------------------------------------------

       Atom             a.u.   MegaHertz   Gauss  10(-4) cm-1        Axes

              Baa    -0.0336    -4.506    -1.608    -1.503  0.9629 -0.1034  0.2494
     1 C(13)  Bbb    -0.0228    -3.056    -1.090    -1.019  0.1259  0.9891 -0.0761
              Bcc     0.0564     7.562     2.698     2.522 -0.2388  0.1047  0.9654
 
              Baa    -0.0740    -9.936    -3.545    -3.314  0.5246  0.8508  0.0309
     2 C(13)  Bbb    -0.0687    -9.220    -3.290    -3.075  0.8184 -0.5139  0.2572
              Bcc     0.1428    19.156     6.835     6.390 -0.2347  0.1096  0.9659
 
              Baa    -0.0391    -5.252    -1.874    -1.752 -0.2378  0.1071  0.9654
     3 C(13)  Bbb     0.0176     2.364     0.843     0.788 -0.5264  0.8211 -0.2207
              Bcc     0.0215     2.889     1.031     0.964  0.8163  0.5606  0.1389
 
              Baa    -0.0670    -8.993    -3.209    -3.000  0.9678  0.0353  0.2493
     4 C(13)  Bbb    -0.0618    -8.292    -2.959    -2.766 -0.0058  0.9930 -0.1178
              Bcc     0.1288    17.285     6.168     5.766 -0.2517  0.1125  0.9612
 
              Baa    -0.0333    -4.464    -1.593    -1.489  0.3021  0.9531 -0.0187
     5 C(13)  Bbb    -0.0230    -3.093    -1.104    -1.032  0.9193 -0.2861  0.2703
              Bcc     0.0563     7.557     2.696     2.521 -0.2522  0.0989  0.9626
 
              Baa    -0.0356    -4.774    -1.703    -1.592  0.5556  0.8303  0.0440
     6 C(13)  Bbb    -0.0276    -3.705    -1.322    -1.236  0.8076 -0.5516  0.2085
              Bcc     0.0632     8.479     3.026     2.828 -0.1974  0.0803  0.9770
 
              Baa    -0.0383    -5.138    -1.833    -1.714 -0.2364  0.1373  0.9619
     7 C(13)  Bbb     0.0167     2.247     0.802     0.749 -0.4110  0.8829 -0.2270
              Bcc     0.0215     2.891     1.032     0.964  0.8805  0.4490  0.1523
 
              Baa    -0.0746   -10.015    -3.574    -3.341  0.9701  0.0852  0.2274
     8 C(13)  Bbb    -0.0694    -9.313    -3.323    -3.107 -0.0223  0.9638 -0.2659
              Bcc     0.1440    19.328     6.897     6.447 -0.2418  0.2528  0.9368
 
              Baa    -0.0501    -6.716    -2.397    -2.240  0.9888  0.1388  0.0544
     9 C(13)  Bbb    -0.0439    -5.887    -2.100    -1.964 -0.1241  0.9686 -0.2155
              Bcc     0.0939    12.603     4.497     4.204 -0.0826  0.2064  0.9750
 
              Baa    -0.0313    -4.201    -1.499    -1.401  0.3576  0.9328 -0.0445
    10 C(13)  Bbb    -0.0212    -2.844    -1.015    -0.949  0.7625 -0.2642  0.5906
              Bcc     0.0525     7.045     2.514     2.350 -0.5392  0.2451  0.8057
 
              Baa    -0.0314    -4.217    -1.505    -1.407  0.9471 -0.1153  0.2997
    11 C(13)  Bbb    -0.0212    -2.845    -1.015    -0.949  0.1419  0.9875 -0.0686
              Bcc     0.0526     7.062     2.520     2.356 -0.2880  0.1075  0.9516
 
              Baa    -0.0691    -9.271    -3.308    -3.093  0.4539  0.8905  0.0311
    12 C(13)  Bbb    -0.0641    -8.600    -3.069    -2.869  0.8484 -0.4426  0.2903
              Bcc     0.1332    17.871     6.377     5.961 -0.2723  0.1054  0.9564
 
              Baa    -0.0397    -5.333    -1.903    -1.779  0.5798  0.8129  0.0550
    13 C(13)  Bbb    -0.0329    -4.409    -1.573    -1.471  0.7712 -0.5693  0.2847
              Bcc     0.0726     9.742     3.476     3.250 -0.2628  0.1227  0.9570
 
              Baa    -0.0424    -5.686    -2.029    -1.896  0.9546  0.1980  0.2227
    14 C(13)  Bbb    -0.0359    -4.811    -1.717    -1.605 -0.1648  0.9734 -0.1589
              Bcc     0.0782    10.497     3.745     3.501 -0.2482  0.1150  0.9619
 
              Baa    -0.0043    -2.301    -0.821    -0.767  0.1570  0.9850 -0.0720
    15 H(1)   Bbb    -0.0025    -1.342    -0.479    -0.448 -0.2444  0.1094  0.9635
              Bcc     0.0068     3.643     1.300     1.215  0.9569 -0.1336  0.2579
 
              Baa    -0.0040    -2.124    -0.758    -0.709  0.9142 -0.2593  0.3113
    16 H(1)   Bbb    -0.0026    -1.373    -0.490    -0.458 -0.2860  0.1314  0.9492
              Bcc     0.0066     3.497     1.248     1.166  0.2870  0.9568 -0.0459
 
              Baa    -0.0035    -1.887    -0.673    -0.629  0.8982 -0.2439 -0.3656
    17 H(1)   Bbb    -0.0026    -1.395    -0.498    -0.465  0.3565 -0.0823  0.9307
              Bcc     0.0062     3.282     1.171     1.095  0.2571  0.9663 -0.0130
 
              Baa    -0.0527    -2.034    -0.726    -0.679 -0.3591  0.1320  0.9239
    18 N(14)  Bbb     0.0258     0.994     0.355     0.332  0.7253  0.6625  0.1873
              Bcc     0.0270     1.040     0.371     0.347 -0.5873  0.7374 -0.3336
 
              Baa    -0.0541    -2.088    -0.745    -0.696 -0.2449  0.1033  0.9640
    19 N(14)  Bbb     0.0265     1.024     0.365     0.342  0.8394  0.5201  0.1575
              Bcc     0.0276     1.064     0.380     0.355 -0.4852  0.8478 -0.2140
 
              Baa    -0.1566    11.330     4.043     3.779  0.7101  0.6973  0.0976
    20 O(17)  Bbb    -0.1534    11.101     3.961     3.703 -0.6654  0.7099 -0.2305
              Bcc     0.3100   -22.431    -8.004    -7.482 -0.2301  0.0988  0.9682
 
              Baa    -0.1509    10.918     3.896     3.642  0.9098  0.3642  0.1991
    21 O(17)  Bbb    -0.1474    10.665     3.806     3.558 -0.3301  0.9257 -0.1846
              Bcc     0.2983   -21.583    -7.701    -7.199 -0.2516  0.1022  0.9624
 
              Baa    -0.1438    10.405     3.713     3.471  0.7378  0.6546  0.1645
    22 O(17)  Bbb    -0.1408    10.185     3.634     3.397 -0.6041  0.7492 -0.2717
              Bcc     0.2846   -20.590    -7.347    -6.868 -0.3011  0.1011  0.9482
 
              Baa    -0.1580    11.429     4.078     3.812  0.7352  0.6271  0.2573
    23 O(17)  Bbb    -0.1563    11.310     4.036     3.773 -0.4581  0.7395 -0.4933
              Bcc     0.3143   -22.740    -8.114    -7.585 -0.4996  0.2448  0.8309
 
              Baa    -0.0019    -0.260    -0.093    -0.087 -0.3152  0.0989  0.9439
    24 C(13)  Bbb     0.0009     0.118     0.042     0.039  0.8524  0.4668  0.2357
              Bcc     0.0011     0.141     0.050     0.047 -0.4173  0.8788 -0.2314
 
              Baa    -0.0014    -0.771    -0.275    -0.257 -0.3831  0.3611  0.8502
    25 H(1)   Bbb    -0.0000    -0.009    -0.003    -0.003  0.9046  0.3331  0.2661
              Bcc     0.0015     0.781     0.279     0.260 -0.1871  0.8710 -0.4543
 
              Baa    -0.0015    -0.794    -0.283    -0.265 -0.3462 -0.1064  0.9321
    26 H(1)   Bbb    -0.0004    -0.224    -0.080    -0.075  0.9008  0.2398  0.3620
              Bcc     0.0019     1.019     0.363     0.340 -0.2620  0.9650  0.0129
 
              Baa    -0.0016    -0.838    -0.299    -0.280 -0.2657  0.0770  0.9610
    27 H(1)   Bbb    -0.0005    -0.290    -0.104    -0.097  0.6388  0.7606  0.1157
              Bcc     0.0021     1.128     0.403     0.376  0.7220 -0.6446  0.2513
 
              Baa    -0.0019    -0.258    -0.092    -0.086 -0.2491  0.1053  0.9627
    28 C(13)  Bbb     0.0008     0.111     0.040     0.037  0.6831  0.7238  0.0976
              Bcc     0.0011     0.147     0.052     0.049  0.6866 -0.6819  0.2522
 
              Baa    -0.0014    -0.772    -0.275    -0.258 -0.4434  0.2244  0.8678
    29 H(1)   Bbb    -0.0002    -0.093    -0.033    -0.031  0.6464  0.7507  0.1362
              Bcc     0.0016     0.865     0.309     0.288 -0.6209  0.6214 -0.4779
 
              Baa    -0.0015    -0.779    -0.278    -0.260 -0.0188 -0.0084  0.9998
    30 H(1)   Bbb    -0.0002    -0.126    -0.045    -0.042  0.6631  0.7483  0.0188
              Bcc     0.0017     0.905     0.323     0.302  0.7483 -0.6633  0.0085
 
              Baa    -0.0016    -0.875    -0.312    -0.292 -0.2421  0.0892  0.9661
    31 H(1)   Bbb    -0.0006    -0.343    -0.122    -0.114  0.9421  0.2597  0.2121
              Bcc     0.0023     1.218     0.435     0.406 -0.2320  0.9616 -0.1469
 
              Baa    -0.0173    -2.316    -0.827    -0.773  0.0215 -0.6186  0.7854
    32 C(13)  Bbb     0.0057     0.760     0.271     0.253 -0.2493  0.7574  0.6034
              Bcc     0.0116     1.557     0.555     0.519  0.9682  0.2087  0.1379
 
              Baa    -0.0128    -1.715    -0.612    -0.572 -0.2905  0.6766  0.6767
    33 C(13)  Bbb    -0.0094    -1.261    -0.450    -0.421  0.9542  0.1514  0.2582
              Bcc     0.0222     2.976     1.062     0.993  0.0723  0.7206 -0.6895
 
              Baa    -0.0241    -0.990    -0.353    -0.330  0.6953  0.6175  0.3679
    34 S(33)  Bbb    -0.0222    -0.912    -0.325    -0.304 -0.2886 -0.2289  0.9297
              Bcc     0.0464     1.902     0.679     0.634 -0.6583  0.7525 -0.0190
 
              Baa    -0.0104    -1.399    -0.499    -0.467 -0.2316  0.6991 -0.6765
    35 C(13)  Bbb     0.0041     0.549     0.196     0.183  0.1990  0.7147  0.6705
              Bcc     0.0063     0.849     0.303     0.283  0.9522  0.0207 -0.3047
 
              Baa    -0.0020    -1.054    -0.376    -0.352 -0.3796 -0.4140  0.8273
    36 H(1)   Bbb     0.0004     0.198     0.071     0.066  0.8984 -0.3783  0.2229
              Bcc     0.0016     0.856     0.305     0.286  0.2207  0.8279  0.5156
 
              Baa    -0.0141    -1.887    -0.673    -0.629 -0.0362  0.7064  0.7069
    37 C(13)  Bbb    -0.0124    -1.658    -0.592    -0.553  0.9851  0.1441 -0.0936
              Bcc     0.0264     3.545     1.265     1.183  0.1679 -0.6930  0.7011
 
              Baa    -0.0071     0.512     0.183     0.171  0.1966 -0.6798  0.7065
    38 O(17)  Bbb     0.0027    -0.199    -0.071    -0.066 -0.4541  0.5755  0.6801
              Bcc     0.0043    -0.313    -0.112    -0.104  0.8690  0.4546  0.1955
 
              Baa    -0.0068    -0.916    -0.327    -0.305  0.1071 -0.6821  0.7234
    39 C(13)  Bbb     0.0023     0.314     0.112     0.105  0.3182  0.7128  0.6250
              Bcc     0.0045     0.602     0.215     0.201  0.9420 -0.1632 -0.2934
 
              Baa    -0.0005    -0.066    -0.024    -0.022  0.6202 -0.5810 -0.5270
    40 C(13)  Bbb    -0.0002    -0.031    -0.011    -0.010  0.0361 -0.6500  0.7590
              Bcc     0.0007     0.097     0.035     0.032  0.7836  0.4898  0.3822
 
              Baa    -0.0064    -0.855    -0.305    -0.285  0.1714  0.7037  0.6895
    41 C(13)  Bbb    -0.0053    -0.714    -0.255    -0.238  0.9797 -0.0476 -0.1949
              Bcc     0.0117     1.568     0.560     0.523 -0.1043  0.7089 -0.6975
 
              Baa    -0.0032    -0.132    -0.047    -0.044 -0.5328  0.5833  0.6131
    42 S(33)  Bbb    -0.0010    -0.042    -0.015    -0.014  0.7945  0.0956  0.5996
              Bcc     0.0042     0.174     0.062     0.058  0.2912  0.8066 -0.5144
 
              Baa    -0.0003    -0.137    -0.049    -0.046 -0.3406 -0.1000  0.9349
    43 H(1)   Bbb    -0.0002    -0.116    -0.041    -0.039 -0.4879  0.8688 -0.0848
              Bcc     0.0005     0.253     0.090     0.084  0.8037  0.4850  0.3447
 
              Baa    -0.0005    -0.255    -0.091    -0.085 -0.6015  0.0093  0.7988
    44 H(1)   Bbb    -0.0004    -0.197    -0.070    -0.066 -0.3680  0.8843 -0.2875
              Bcc     0.0008     0.452     0.161     0.151  0.7090  0.4669  0.5285
 
              Baa    -0.0005    -0.263    -0.094    -0.088 -0.4020 -0.0194  0.9154
    45 H(1)   Bbb    -0.0003    -0.186    -0.066    -0.062 -0.5779  0.7809 -0.2372
              Bcc     0.0008     0.448     0.160     0.150  0.7102  0.6244  0.3252
 
              Baa    -0.0038    -0.506    -0.180    -0.169 -0.1219  0.7026 -0.7010
    46 C(13)  Bbb     0.0015     0.206     0.074     0.069 -0.0888  0.6958  0.7128
              Bcc     0.0022     0.299     0.107     0.100  0.9886  0.1491 -0.0224
 
              Baa    -0.0067     0.487     0.174     0.162  0.5962  0.5741  0.5612
    47 O(17)  Bbb    -0.0053     0.387     0.138     0.129  0.8015 -0.4661 -0.3747
              Bcc     0.0121    -0.874    -0.312    -0.291 -0.0464 -0.6731  0.7381
 
              Baa    -0.0060    -0.807    -0.288    -0.269  0.0717  0.7305  0.6792
    48 C(13)  Bbb    -0.0053    -0.711    -0.254    -0.237  0.9924  0.0162 -0.1222
              Bcc     0.0113     1.518     0.542     0.506  0.1003 -0.6828  0.7237
 
              Baa    -0.0003    -0.153    -0.055    -0.051 -0.1521  0.7004 -0.6974
    49 H(1)   Bbb    -0.0001    -0.056    -0.020    -0.019  0.0012  0.7057  0.7085
              Bcc     0.0004     0.209     0.075     0.070  0.9884  0.1069 -0.1082
 
              Baa    -0.0004    -0.056    -0.020    -0.019 -0.1892  0.7016 -0.6870
    50 C(13)  Bbb    -0.0002    -0.024    -0.009    -0.008  0.6995  0.5873  0.4071
              Bcc     0.0006     0.080     0.029     0.027  0.6891 -0.4035 -0.6019
 
              Baa    -0.0009    -0.462    -0.165    -0.154 -0.1368  0.7163  0.6842
    51 H(1)   Bbb    -0.0001    -0.066    -0.023    -0.022  0.1152 -0.6745  0.7292
              Bcc     0.0010     0.527     0.188     0.176  0.9839  0.1786  0.0098
 
              Baa    -0.0003    -0.138    -0.049    -0.046 -0.1877  0.8382 -0.5120
    52 H(1)   Bbb    -0.0002    -0.090    -0.032    -0.030  0.6697  0.4906  0.5575
              Bcc     0.0004     0.228     0.081     0.076  0.7185 -0.2383 -0.6534
 
              Baa    -0.0003    -0.182    -0.065    -0.061  0.2462 -0.6810  0.6896
    53 H(1)   Bbb    -0.0002    -0.086    -0.031    -0.029  0.6846  0.6259  0.3737
              Bcc     0.0005     0.268     0.096     0.089  0.6861 -0.3801 -0.6203
 
              Baa    -0.0003    -0.154    -0.055    -0.051  0.2779 -0.3754  0.8842
    54 H(1)   Bbb    -0.0002    -0.087    -0.031    -0.029  0.5675  0.8068  0.1642
              Bcc     0.0005     0.240     0.086     0.080  0.7751 -0.4561 -0.4373
 

 ---------------------------------------------------------------------------------

 Unable to Open any file for archive entry.
 1\1\GINC-CX3-5-19\FOpt\UB3LYP\6-311+G(d,p)\C26H18N2O6S2(1-,2)\NS5018\2
 8-Oct-2021\0\\# opt=modredundant b3lyp/6-311+g(d,p) scrf=(pcm, solvent
 =water)\\NDI_135.pdb\\-1,2\C,-2.4501099102,-2.8631012459,-0.5788331203
 \C,-2.1953704926,-1.4662675103,-0.2522133949\C,-3.2742424308,-0.563387
 7042,-0.1068297518\C,-4.6096980468,-0.9926799439,-0.2830738096\C,-4.89
 47488118,-2.3837230621,-0.6195961179\C,-0.8781677083,-1.0025501173,-0.
 137781248\C,-2.9967359187,0.8009208541,0.2350336913\C,-1.6531042928,1.
 2323166362,0.4220074744\C,-0.5786160826,0.3229673798,0.1685183936\C,-1
 .4320000171,2.5576295103,0.9967999491\C,-3.8595413515,3.0796750962,0.7
 655348575\C,-4.0892967312,1.6903149047,0.3934404726\C,-5.4100454614,1.
 237850017,0.2006381485\C,-5.6689132292,-0.0766049737,-0.1309333206\H,-
 6.6842556809,-0.423344851,-0.2723142214\H,-6.2192024417,1.9460624787,0
 .3241962547\H,-0.0718662965,-1.6938823205,-0.3446403798\N,-2.534286988
 7,3.4329663583,1.0374310253\N,-3.7892910733,-3.2427822391,-0.739737612
 6\O,-1.5583299844,-3.709715877,-0.7177598067\O,-6.0413888144,-2.813863
 4485,-0.7926912431\O,-4.767427653,3.9154478974,0.8665773446\O,-0.35720
 86373,2.9487557768,1.4621363143\C,-2.2641411461,4.7941685757,1.5148762
 204\H,-2.0961997332,4.7979665419,2.5942524638\H,-1.3718723462,5.178332
 5413,1.0243536634\H,-3.1251794096,5.4110718085,1.279677005\C,-4.029170
 4754,-4.6533251259,-1.0671369328\H,-3.5633050839,-4.9005487535,-2.0220
 229428\H,-3.5974075646,-5.2912111111,-0.2957144249\H,-5.1012825779,-4.
 8076537267,-1.1254741967\C,0.8425886747,0.7061518335,0.0961452426\C,1.
 9054760233,0.0580232782,0.6750952904\S,1.3964541236,1.9527057279,-0.99
 57592972\C,3.1655985709,0.5835745225,0.2795810856\H,1.7797229519,-0.75
 38223128,1.3769427951\C,3.0904387741,1.6251225708,-0.6345568765\O,4.38
 43433454,0.1579410961,0.7165846171\C,4.1727400816,2.3694090534,-1.2316
 747838\C,4.4208913362,-0.9094908187,1.6690498773\C,4.0993000175,3.3944
 804749,-2.1661761398\S,5.8645816271,2.0697944116,-0.8357575776\H,5.474
 0847214,-1.0848292207,1.8791540628\H,3.9057910659,-0.6288009095,2.5919
 188788\H,3.9744410118,-1.8185480586,1.2567167444\C,5.3636273881,3.9274
 494245,-2.5528742348\O,2.8833037181,3.7990968342,-2.6285208256\C,6.401
 6440058,3.3093640813,-1.9157965809\H,5.4966570363,4.7268220183,-3.2672
 451527\C,2.8493098292,4.8653955093,-3.5822986103\H,7.4574432897,3.5080
 332483,-2.0186327944\H,3.3799883446,4.5894858931,-4.497799269\H,1.7974
 908426,5.0295842203,-3.8075313484\H,3.2804896122,5.779252756,-3.164285
 858\\Version=ES64L-G16RevC.01\State=2-A\HF=-2359.5038001\S2=0.757719\S
 2-1=0.\S2A=0.750051\RMSD=3.162e-09\RMSF=1.527e-04\Dipole=5.4356592,1.5
 21391,-1.0940939\Quadrupole=-30.2925318,1.5943196,28.6982122,-5.758959
 2,0.3006405,-21.5275006\PG=C01 [X(C26H18N2O6S2)]\\@
 The archive entry for this job was punched.


 TELEVISION IS CALLED A MEDIUM BECAUSE IT ISN'T
 RARE, AND IT ISN'T WELL DONE.
 Job cpu time:       5 days 12 hours 13 minutes 16.1 seconds.
 Elapsed time:       0 days  8 hours 20 minutes 53.5 seconds.
 File lengths (MBytes):  RWF=   1213 Int=      0 D2E=      0 Chk=    102 Scr=      1
 Normal termination of Gaussian 16 at Thu Oct 28 10:34:14 2021.
