 Entering Gaussian System, Link 0=g16
 Input=NDI_110.gjf
 Output=NDI_110.log
 Initial command:
 /apps/gaussian/g16-c01-avx/g16/l1.exe "/tmp/pbs.4768648[285].pbs/Gau-2151574.inp" -scrdir="/tmp/pbs.4768648[285].pbs/"
 Entering Link 1 = /apps/gaussian/g16-c01-avx/g16/l1.exe PID=   2151575.
  
 Copyright (c) 1988-2019, Gaussian, Inc.  All Rights Reserved.
  
 This is part of the Gaussian(R) 16 program.  It is based on
 the Gaussian(R) 09 system (copyright 2009, Gaussian, Inc.),
 the Gaussian(R) 03 system (copyright 2003, Gaussian, Inc.),
 the Gaussian(R) 98 system (copyright 1998, Gaussian, Inc.),
 the Gaussian(R) 94 system (copyright 1995, Gaussian, Inc.),
 the Gaussian 92(TM) system (copyright 1992, Gaussian, Inc.),
 the Gaussian 90(TM) system (copyright 1990, Gaussian, Inc.),
 the Gaussian 88(TM) system (copyright 1988, Gaussian, Inc.),
 the Gaussian 86(TM) system (copyright 1986, Carnegie Mellon
 University), and the Gaussian 82(TM) system (copyright 1983,
 Carnegie Mellon University). Gaussian is a federally registered
 trademark of Gaussian, Inc.
  
 This software contains proprietary and confidential information,
 including trade secrets, belonging to Gaussian, Inc.
  
 This software is provided under written license and may be
 used, copied, transmitted, or stored only in accord with that
 written license.
  
 The following legend is applicable only to US Government
 contracts under FAR:
  
                    RESTRICTED RIGHTS LEGEND
  
 Use, reproduction and disclosure by the US Government is
 subject to restrictions as set forth in subparagraphs (a)
 and (c) of the Commercial Computer Software - Restricted
 Rights clause in FAR 52.227-19.
  
 Gaussian, Inc.
 340 Quinnipiac St., Bldg. 40, Wallingford CT 06492
  
  
 ---------------------------------------------------------------
 Warning -- This program may not be used in any manner that
 competes with the business of Gaussian, Inc. or will provide
 assistance to any competitor of Gaussian, Inc.  The licensee
 of this program is prohibited from giving any competitor of
 Gaussian, Inc. access to this program.  By using this program,
 the user acknowledges that Gaussian, Inc. is engaged in the
 business of creating and licensing software in the field of
 computational chemistry and represents and warrants to the
 licensee that it is not a competitor of Gaussian, Inc. and that
 it will not use this program in any manner prohibited above.
 ---------------------------------------------------------------
  

 Cite this work as:
 Gaussian 16, Revision C.01,
 M. J. Frisch, G. W. Trucks, H. B. Schlegel, G. E. Scuseria, 
 M. A. Robb, J. R. Cheeseman, G. Scalmani, V. Barone, 
 G. A. Petersson, H. Nakatsuji, X. Li, M. Caricato, A. V. Marenich, 
 J. Bloino, B. G. Janesko, R. Gomperts, B. Mennucci, H. P. Hratchian, 
 J. V. Ortiz, A. F. Izmaylov, J. L. Sonnenberg, D. Williams-Young, 
 F. Ding, F. Lipparini, F. Egidi, J. Goings, B. Peng, A. Petrone, 
 T. Henderson, D. Ranasinghe, V. G. Zakrzewski, J. Gao, N. Rega, 
 G. Zheng, W. Liang, M. Hada, M. Ehara, K. Toyota, R. Fukuda, 
 J. Hasegawa, M. Ishida, T. Nakajima, Y. Honda, O. Kitao, H. Nakai, 
 T. Vreven, K. Throssell, J. A. Montgomery, Jr., J. E. Peralta, 
 F. Ogliaro, M. J. Bearpark, J. J. Heyd, E. N. Brothers, K. N. Kudin, 
 V. N. Staroverov, T. A. Keith, R. Kobayashi, J. Normand, 
 K. Raghavachari, A. P. Rendell, J. C. Burant, S. S. Iyengar, 
 J. Tomasi, M. Cossi, J. M. Millam, M. Klene, C. Adamo, R. Cammi, 
 J. W. Ochterski, R. L. Martin, K. Morokuma, O. Farkas, 
 J. B. Foresman, and D. J. Fox, Gaussian, Inc., Wallingford CT, 2019.
 
 ******************************************
 Gaussian 16:  ES64L-G16RevC.01  3-Jul-2019
                28-Oct-2021 
 ******************************************
 %mem=100GB
 %nprocshared=16
 Will use up to   16 processors via shared memory.
 ---------------------------------------------------------------
 # opt=modredundant b3lyp/6-311+g(d,p) scrf=(pcm, solvent=water)
 ---------------------------------------------------------------
 1/18=120,19=15,26=3,38=1/1,3;
 2/9=110,12=2,17=6,18=5,40=1/2;
 3/5=4,6=6,7=111,11=2,25=1,30=1,70=2201,71=1,72=1,74=-5/1,2,3;
 4//1;
 5/5=2,38=5,53=1/2;
 6/7=2,8=2,9=2,10=2,28=1/1;
 7//1,2,3,16;
 1/18=20,19=15,26=3/3(2);
 2/9=110/2;
 99//99;
 2/9=110/2;
 3/5=4,6=6,7=111,11=2,25=1,30=1,70=2205,71=1,72=1,74=-5/1,2,3;
 4/5=5,16=3,69=1/1;
 5/5=2,38=5,53=1/2;
 7//1,2,3,16;
 1/18=20,19=15,26=3/3(-5);
 2/9=110/2;
 6/7=2,8=2,9=2,10=2,19=2,28=1/1;
 99/9=1/99;
 -----------
 NDI_110.pdb
 -----------
 Symbolic Z-matrix:
 Charge = -1 Multiplicity = 2
 C                    -2.563    -2.994    -0.409 
 C                    -2.257    -1.551    -0.224 
 C                    -3.301    -0.607    -0.083 
 C                    -4.65     -1.024    -0.115 
 C                    -4.992    -2.459    -0.304 
 C                    -0.949    -1.137    -0.215 
 C                    -2.962     0.764     0.102 
 C                    -1.595     1.188     0.123 
 C                    -0.561     0.232    -0.072 
 C                    -1.328     2.616     0.446 
 C                    -3.777     3.115     0.508 
 C                    -4.035     1.679     0.268 
 C                    -5.356     1.252     0.23 
 C                    -5.672    -0.098     0.036 
 H                    -6.699    -0.442     0.008 
 H                    -6.133     1.997     0.361 
 H                    -0.19     -1.895    -0.369 
 N                    -2.432     3.476     0.608 
 N                    -3.916    -3.353    -0.438 
 O                    -1.695    -3.847    -0.532 
 O                    -6.149    -2.85     -0.34 
 O                    -4.676     3.938     0.629 
 O                    -0.212     3.097     0.596 
 C                    -2.111     4.875     0.912 
 H                    -1.54      4.931     1.84 
 H                    -1.5       5.299     0.111 
 H                    -3.05      5.414     1.003 
 C                    -4.206    -4.779    -0.625 
 H                    -3.759    -5.126    -1.559 
 H                    -3.775    -5.355     0.196 
 H                    -5.286    -4.897    -0.649 
 C                     0.876     0.482    -0.178 
 C                     1.912     0.185     0.687 
 S                     1.474     1.445    -1.529 
 C                     3.154     0.708     0.278 
 H                     1.775    -0.4       1.582 
 C                     3.114     1.423    -0.923 
 O                     4.34      0.58      0.931 
 C                     4.211     2.035    -1.617 
 C                     4.373    -0.272     2.073 
 C                     4.165     2.767    -2.803 
 S                     5.875     1.953    -1.047 
 H                     5.414    -0.302     2.394 
 H                     3.754     0.129     2.884 
 H                     4.034    -1.284     1.822 
 C                     5.432     3.247    -3.241 
 O                     2.97      2.953    -3.423 
 C                     6.439     2.882    -2.389 
 H                     5.588     3.832    -4.137 
 C                     2.95      3.734    -4.612 
 H                     7.492     3.112    -2.478 
 H                     3.557     3.272    -5.402 
 H                     1.909     3.769    -4.932 
 H                     3.309     4.753    -4.425 
 
 The following ModRedundant input section has been read:
 D       8       9      32      33 F                                           
 

 GradGradGradGradGradGradGradGradGradGradGradGradGradGradGradGradGradGrad
 Berny optimization.
 Initialization pass.
                           ----------------------------
                           !    Initial Parameters    !
                           ! (Angstroms and Degrees)  !
 --------------------------                            --------------------------
 ! Name  Definition              Value          Derivative Info.                !
 --------------------------------------------------------------------------------
 ! R1    R(1,2)                  1.4866         estimate D2E/DX2                !
 ! R2    R(1,19)                 1.4001         estimate D2E/DX2                !
 ! R3    R(1,20)                 1.2232         estimate D2E/DX2                !
 ! R4    R(2,3)                  1.4146         estimate D2E/DX2                !
 ! R5    R(2,6)                  1.372          estimate D2E/DX2                !
 ! R6    R(3,4)                  1.4123         estimate D2E/DX2                !
 ! R7    R(3,7)                  1.4244         estimate D2E/DX2                !
 ! R8    R(4,5)                  1.4872         estimate D2E/DX2                !
 ! R9    R(4,14)                 1.3874         estimate D2E/DX2                !
 ! R10   R(5,19)                 1.4053         estimate D2E/DX2                !
 ! R11   R(5,21)                 1.2218         estimate D2E/DX2                !
 ! R12   R(6,9)                  1.4301         estimate D2E/DX2                !
 ! R13   R(6,17)                 1.0837         estimate D2E/DX2                !
 ! R14   R(7,8)                  1.4314         estimate D2E/DX2                !
 ! R15   R(7,12)                 1.4199         estimate D2E/DX2                !
 ! R16   R(8,9)                  1.4217         estimate D2E/DX2                !
 ! R17   R(8,10)                 1.4882         estimate D2E/DX2                !
 ! R18   R(9,32)                 1.4624         estimate D2E/DX2                !
 ! R19   R(10,18)                1.4088         estimate D2E/DX2                !
 ! R20   R(10,23)                1.2245         estimate D2E/DX2                !
 ! R21   R(11,12)                1.4786         estimate D2E/DX2                !
 ! R22   R(11,18)                1.3962         estimate D2E/DX2                !
 ! R23   R(11,22)                1.2248         estimate D2E/DX2                !
 ! R24   R(12,13)                1.3888         estimate D2E/DX2                !
 ! R25   R(13,14)                1.4            estimate D2E/DX2                !
 ! R26   R(13,16)                1.0844         estimate D2E/DX2                !
 ! R27   R(14,15)                1.0834         estimate D2E/DX2                !
 ! R28   R(18,24)                1.4672         estimate D2E/DX2                !
 ! R29   R(19,28)                1.4672         estimate D2E/DX2                !
 ! R30   R(24,25)                1.091          estimate D2E/DX2                !
 ! R31   R(24,26)                1.093          estimate D2E/DX2                !
 ! R32   R(24,27)                1.0865         estimate D2E/DX2                !
 ! R33   R(28,29)                1.0921         estimate D2E/DX2                !
 ! R34   R(28,30)                1.0916         estimate D2E/DX2                !
 ! R35   R(28,31)                1.0867         estimate D2E/DX2                !
 ! R36   R(32,33)                1.3819         estimate D2E/DX2                !
 ! R37   R(32,34)                1.7636         estimate D2E/DX2                !
 ! R38   R(33,35)                1.4083         estimate D2E/DX2                !
 ! R39   R(33,36)                1.078          estimate D2E/DX2                !
 ! R40   R(34,37)                1.7485         estimate D2E/DX2                !
 ! R41   R(35,37)                1.3983         estimate D2E/DX2                !
 ! R42   R(35,38)                1.3599         estimate D2E/DX2                !
 ! R43   R(37,39)                1.4351         estimate D2E/DX2                !
 ! R44   R(38,40)                1.4252         estimate D2E/DX2                !
 ! R45   R(39,41)                1.3945         estimate D2E/DX2                !
 ! R46   R(39,42)                1.7608         estimate D2E/DX2                !
 ! R47   R(40,43)                1.0898         estimate D2E/DX2                !
 ! R48   R(40,44)                1.0962         estimate D2E/DX2                !
 ! R49   R(40,45)                1.0964         estimate D2E/DX2                !
 ! R50   R(41,46)                1.4239         estimate D2E/DX2                !
 ! R51   R(41,47)                1.3591         estimate D2E/DX2                !
 ! R52   R(42,48)                1.7269         estimate D2E/DX2                !
 ! R53   R(46,48)                1.3686         estimate D2E/DX2                !
 ! R54   R(46,49)                1.0814         estimate D2E/DX2                !
 ! R55   R(47,50)                1.4227         estimate D2E/DX2                !
 ! R56   R(48,51)                1.0815         estimate D2E/DX2                !
 ! R57   R(50,52)                1.0982         estimate D2E/DX2                !
 ! R58   R(50,53)                1.0896         estimate D2E/DX2                !
 ! R59   R(50,54)                1.0965         estimate D2E/DX2                !
 ! A1    A(2,1,19)             116.767          estimate D2E/DX2                !
 ! A2    A(2,1,20)             122.9113         estimate D2E/DX2                !
 ! A3    A(19,1,20)            120.3217         estimate D2E/DX2                !
 ! A4    A(1,2,3)              120.5473         estimate D2E/DX2                !
 ! A5    A(1,2,6)              119.3369         estimate D2E/DX2                !
 ! A6    A(3,2,6)              120.1056         estimate D2E/DX2                !
 ! A7    A(2,3,4)              120.3743         estimate D2E/DX2                !
 ! A8    A(2,3,7)              118.662          estimate D2E/DX2                !
 ! A9    A(4,3,7)              120.9617         estimate D2E/DX2                !
 ! A10   A(3,4,5)              120.4909         estimate D2E/DX2                !
 ! A11   A(3,4,14)             120.2702         estimate D2E/DX2                !
 ! A12   A(5,4,14)             119.2382         estimate D2E/DX2                !
 ! A13   A(4,5,19)             116.7341         estimate D2E/DX2                !
 ! A14   A(4,5,21)             122.024          estimate D2E/DX2                !
 ! A15   A(19,5,21)            121.2418         estimate D2E/DX2                !
 ! A16   A(2,6,9)              123.2421         estimate D2E/DX2                !
 ! A17   A(2,6,17)             117.1119         estimate D2E/DX2                !
 ! A18   A(9,6,17)             119.589          estimate D2E/DX2                !
 ! A19   A(3,7,8)              120.9519         estimate D2E/DX2                !
 ! A20   A(3,7,12)             117.1037         estimate D2E/DX2                !
 ! A21   A(8,7,12)             121.944          estimate D2E/DX2                !
 ! A22   A(7,8,9)              119.5639         estimate D2E/DX2                !
 ! A23   A(7,8,10)             117.3064         estimate D2E/DX2                !
 ! A24   A(9,8,10)             122.9922         estimate D2E/DX2                !
 ! A25   A(6,9,8)              117.3944         estimate D2E/DX2                !
 ! A26   A(6,9,32)             115.0236         estimate D2E/DX2                !
 ! A27   A(8,9,32)             127.5648         estimate D2E/DX2                !
 ! A28   A(8,10,18)            118.042          estimate D2E/DX2                !
 ! A29   A(8,10,23)            124.5436         estimate D2E/DX2                !
 ! A30   A(18,10,23)           117.4097         estimate D2E/DX2                !
 ! A31   A(12,11,18)           115.5202         estimate D2E/DX2                !
 ! A32   A(12,11,22)           122.7205         estimate D2E/DX2                !
 ! A33   A(18,11,22)           121.7534         estimate D2E/DX2                !
 ! A34   A(7,12,11)            120.8614         estimate D2E/DX2                !
 ! A35   A(7,12,13)            121.162          estimate D2E/DX2                !
 ! A36   A(11,12,13)           117.9699         estimate D2E/DX2                !
 ! A37   A(12,13,14)           120.9948         estimate D2E/DX2                !
 ! A38   A(12,13,16)           117.8401         estimate D2E/DX2                !
 ! A39   A(14,13,16)           121.1642         estimate D2E/DX2                !
 ! A40   A(4,14,13)            119.5003         estimate D2E/DX2                !
 ! A41   A(4,14,15)            118.9169         estimate D2E/DX2                !
 ! A42   A(13,14,15)           121.5811         estimate D2E/DX2                !
 ! A43   A(10,18,11)           126.0753         estimate D2E/DX2                !
 ! A44   A(10,18,24)           115.7508         estimate D2E/DX2                !
 ! A45   A(11,18,24)           118.1737         estimate D2E/DX2                !
 ! A46   A(1,19,5)             125.0856         estimate D2E/DX2                !
 ! A47   A(1,19,28)            116.2868         estimate D2E/DX2                !
 ! A48   A(5,19,28)            118.6276         estimate D2E/DX2                !
 ! A49   A(18,24,25)           109.8574         estimate D2E/DX2                !
 ! A50   A(18,24,26)           109.8979         estimate D2E/DX2                !
 ! A51   A(18,24,27)           107.5355         estimate D2E/DX2                !
 ! A52   A(25,24,26)           108.1108         estimate D2E/DX2                !
 ! A53   A(25,24,27)           110.8301         estimate D2E/DX2                !
 ! A54   A(26,24,27)           110.6124         estimate D2E/DX2                !
 ! A55   A(19,28,29)           109.6906         estimate D2E/DX2                !
 ! A56   A(19,28,30)           109.8136         estimate D2E/DX2                !
 ! A57   A(19,28,31)           107.7461         estimate D2E/DX2                !
 ! A58   A(29,28,30)           108.2991         estimate D2E/DX2                !
 ! A59   A(29,28,31)           110.6959         estimate D2E/DX2                !
 ! A60   A(30,28,31)           110.5924         estimate D2E/DX2                !
 ! A61   A(9,32,33)            130.8841         estimate D2E/DX2                !
 ! A62   A(9,32,34)            118.8201         estimate D2E/DX2                !
 ! A63   A(33,32,34)           110.0388         estimate D2E/DX2                !
 ! A64   A(32,33,35)           113.5497         estimate D2E/DX2                !
 ! A65   A(32,33,36)           122.755          estimate D2E/DX2                !
 ! A66   A(35,33,36)           123.6927         estimate D2E/DX2                !
 ! A67   A(32,34,37)            92.6176         estimate D2E/DX2                !
 ! A68   A(33,35,37)           114.4629         estimate D2E/DX2                !
 ! A69   A(33,35,38)           126.4918         estimate D2E/DX2                !
 ! A70   A(37,35,38)           119.0452         estimate D2E/DX2                !
 ! A71   A(34,37,35)           109.326          estimate D2E/DX2                !
 ! A72   A(34,37,39)           122.9555         estimate D2E/DX2                !
 ! A73   A(35,37,39)           127.7009         estimate D2E/DX2                !
 ! A74   A(35,38,40)           117.4662         estimate D2E/DX2                !
 ! A75   A(37,39,41)           127.5842         estimate D2E/DX2                !
 ! A76   A(37,39,42)           123.0902         estimate D2E/DX2                !
 ! A77   A(41,39,42)           109.3256         estimate D2E/DX2                !
 ! A78   A(38,40,43)           105.9383         estimate D2E/DX2                !
 ! A79   A(38,40,44)           111.1652         estimate D2E/DX2                !
 ! A80   A(38,40,45)           111.1739         estimate D2E/DX2                !
 ! A81   A(43,40,44)           109.3628         estimate D2E/DX2                !
 ! A82   A(43,40,45)           109.7174         estimate D2E/DX2                !
 ! A83   A(44,40,45)           109.416          estimate D2E/DX2                !
 ! A84   A(39,41,46)           114.1558         estimate D2E/DX2                !
 ! A85   A(39,41,47)           119.2649         estimate D2E/DX2                !
 ! A86   A(46,41,47)           126.5789         estimate D2E/DX2                !
 ! A87   A(39,42,48)            91.8352         estimate D2E/DX2                !
 ! A88   A(41,46,48)           111.9191         estimate D2E/DX2                !
 ! A89   A(41,46,49)           124.4438         estimate D2E/DX2                !
 ! A90   A(48,46,49)           123.637          estimate D2E/DX2                !
 ! A91   A(41,47,50)           117.9534         estimate D2E/DX2                !
 ! A92   A(42,48,46)           112.7642         estimate D2E/DX2                !
 ! A93   A(42,48,51)           119.7593         estimate D2E/DX2                !
 ! A94   A(46,48,51)           127.4765         estimate D2E/DX2                !
 ! A95   A(47,50,52)           111.2532         estimate D2E/DX2                !
 ! A96   A(47,50,53)           106.0513         estimate D2E/DX2                !
 ! A97   A(47,50,54)           111.287          estimate D2E/DX2                !
 ! A98   A(52,50,53)           109.2878         estimate D2E/DX2                !
 ! A99   A(52,50,54)           109.4323         estimate D2E/DX2                !
 ! A100  A(53,50,54)           109.4534         estimate D2E/DX2                !
 ! D1    D(19,1,2,3)             0.1578         estimate D2E/DX2                !
 ! D2    D(19,1,2,6)          -178.6792         estimate D2E/DX2                !
 ! D3    D(20,1,2,3)          -179.8231         estimate D2E/DX2                !
 ! D4    D(20,1,2,6)             1.3399         estimate D2E/DX2                !
 ! D5    D(2,1,19,5)            -0.124          estimate D2E/DX2                !
 ! D6    D(2,1,19,28)          179.8267         estimate D2E/DX2                !
 ! D7    D(20,1,19,5)          179.8575         estimate D2E/DX2                !
 ! D8    D(20,1,19,28)          -0.1919         estimate D2E/DX2                !
 ! D9    D(1,2,3,4)              0.0571         estimate D2E/DX2                !
 ! D10   D(1,2,3,7)            179.5453         estimate D2E/DX2                !
 ! D11   D(6,2,3,4)            178.8851         estimate D2E/DX2                !
 ! D12   D(6,2,3,7)             -1.6266         estimate D2E/DX2                !
 ! D13   D(1,2,6,9)            178.625          estimate D2E/DX2                !
 ! D14   D(1,2,6,17)             1.3881         estimate D2E/DX2                !
 ! D15   D(3,2,6,9)             -0.2173         estimate D2E/DX2                !
 ! D16   D(3,2,6,17)          -177.4541         estimate D2E/DX2                !
 ! D17   D(2,3,4,5)             -0.3074         estimate D2E/DX2                !
 ! D18   D(2,3,4,14)           179.3968         estimate D2E/DX2                !
 ! D19   D(7,3,4,5)           -179.7837         estimate D2E/DX2                !
 ! D20   D(7,3,4,14)            -0.0795         estimate D2E/DX2                !
 ! D21   D(2,3,7,8)              1.0523         estimate D2E/DX2                !
 ! D22   D(2,3,7,12)          -178.712          estimate D2E/DX2                !
 ! D23   D(4,3,7,8)           -179.4626         estimate D2E/DX2                !
 ! D24   D(4,3,7,12)             0.7731         estimate D2E/DX2                !
 ! D25   D(3,4,5,19)             0.3343         estimate D2E/DX2                !
 ! D26   D(3,4,5,21)          -179.7799         estimate D2E/DX2                !
 ! D27   D(14,4,5,19)         -179.3729         estimate D2E/DX2                !
 ! D28   D(14,4,5,21)            0.5129         estimate D2E/DX2                !
 ! D29   D(3,4,14,13)           -0.4559         estimate D2E/DX2                !
 ! D30   D(3,4,14,15)         -179.9937         estimate D2E/DX2                !
 ! D31   D(5,4,14,13)          179.252          estimate D2E/DX2                !
 ! D32   D(5,4,14,15)           -0.2858         estimate D2E/DX2                !
 ! D33   D(4,5,19,1)            -0.1141         estimate D2E/DX2                !
 ! D34   D(4,5,19,28)          179.9364         estimate D2E/DX2                !
 ! D35   D(21,5,19,1)          179.9992         estimate D2E/DX2                !
 ! D36   D(21,5,19,28)           0.0496         estimate D2E/DX2                !
 ! D37   D(2,6,9,8)              2.5984         estimate D2E/DX2                !
 ! D38   D(2,6,9,32)          -176.0103         estimate D2E/DX2                !
 ! D39   D(17,6,9,8)           179.77           estimate D2E/DX2                !
 ! D40   D(17,6,9,32)            1.1613         estimate D2E/DX2                !
 ! D41   D(3,7,8,9)              1.3551         estimate D2E/DX2                !
 ! D42   D(3,7,8,10)          -174.5099         estimate D2E/DX2                !
 ! D43   D(12,7,8,9)          -178.8921         estimate D2E/DX2                !
 ! D44   D(12,7,8,10)            5.2428         estimate D2E/DX2                !
 ! D45   D(3,7,12,11)          178.0768         estimate D2E/DX2                !
 ! D46   D(3,7,12,13)           -0.9621         estimate D2E/DX2                !
 ! D47   D(8,7,12,11)           -1.685          estimate D2E/DX2                !
 ! D48   D(8,7,12,13)          179.2761         estimate D2E/DX2                !
 ! D49   D(7,8,9,6)             -3.0809         estimate D2E/DX2                !
 ! D50   D(7,8,9,32)           175.3285         estimate D2E/DX2                !
 ! D51   D(10,8,9,6)           172.5381         estimate D2E/DX2                !
 ! D52   D(10,8,9,32)           -9.0525         estimate D2E/DX2                !
 ! D53   D(7,8,10,18)           -4.7549         estimate D2E/DX2                !
 ! D54   D(7,8,10,23)          174.4235         estimate D2E/DX2                !
 ! D55   D(9,8,10,18)          179.5335         estimate D2E/DX2                !
 ! D56   D(9,8,10,23)           -1.2882         estimate D2E/DX2                !
 ! D57   D(6,9,32,33)          -71.5673         estimate D2E/DX2                !
 ! D58   D(6,9,32,34)          114.8965         estimate D2E/DX2                !
 ! D59   D(8,9,32,33)          109.9911         Frozen                          !
 ! D60   D(8,9,32,34)          -63.545          estimate D2E/DX2                !
 ! D61   D(8,10,18,11)           0.7189         estimate D2E/DX2                !
 ! D62   D(8,10,18,24)        -179.4089         estimate D2E/DX2                !
 ! D63   D(23,10,18,11)       -178.5188         estimate D2E/DX2                !
 ! D64   D(23,10,18,24)          1.3535         estimate D2E/DX2                !
 ! D65   D(18,11,12,7)          -2.3856         estimate D2E/DX2                !
 ! D66   D(18,11,12,13)        176.6833         estimate D2E/DX2                !
 ! D67   D(22,11,12,7)         178.4862         estimate D2E/DX2                !
 ! D68   D(22,11,12,13)         -2.445          estimate D2E/DX2                !
 ! D69   D(12,11,18,10)          2.8444         estimate D2E/DX2                !
 ! D70   D(12,11,18,24)       -177.0251         estimate D2E/DX2                !
 ! D71   D(22,11,18,10)       -178.0181         estimate D2E/DX2                !
 ! D72   D(22,11,18,24)          2.1124         estimate D2E/DX2                !
 ! D73   D(7,12,13,14)           0.461          estimate D2E/DX2                !
 ! D74   D(7,12,13,16)        -179.8781         estimate D2E/DX2                !
 ! D75   D(11,12,13,14)       -178.6049         estimate D2E/DX2                !
 ! D76   D(11,12,13,16)          1.056          estimate D2E/DX2                !
 ! D77   D(12,13,14,4)           0.2708         estimate D2E/DX2                !
 ! D78   D(12,13,14,15)        179.7958         estimate D2E/DX2                !
 ! D79   D(16,13,14,4)        -179.3788         estimate D2E/DX2                !
 ! D80   D(16,13,14,15)          0.1463         estimate D2E/DX2                !
 ! D81   D(10,18,24,25)        -59.609          estimate D2E/DX2                !
 ! D82   D(10,18,24,26)         59.2209         estimate D2E/DX2                !
 ! D83   D(10,18,24,27)        179.6858         estimate D2E/DX2                !
 ! D84   D(11,18,24,25)        120.2739         estimate D2E/DX2                !
 ! D85   D(11,18,24,26)       -120.8962         estimate D2E/DX2                !
 ! D86   D(11,18,24,27)         -0.4313         estimate D2E/DX2                !
 ! D87   D(1,19,28,29)         -58.1407         estimate D2E/DX2                !
 ! D88   D(1,19,28,30)          60.7668         estimate D2E/DX2                !
 ! D89   D(1,19,28,31)        -178.7139         estimate D2E/DX2                !
 ! D90   D(5,19,28,29)         121.8132         estimate D2E/DX2                !
 ! D91   D(5,19,28,30)        -119.2792         estimate D2E/DX2                !
 ! D92   D(5,19,28,31)           1.2401         estimate D2E/DX2                !
 ! D93   D(9,32,33,35)        -174.2522         estimate D2E/DX2                !
 ! D94   D(9,32,33,36)           6.3127         estimate D2E/DX2                !
 ! D95   D(34,32,33,35)         -0.2787         estimate D2E/DX2                !
 ! D96   D(34,32,33,36)       -179.7137         estimate D2E/DX2                !
 ! D97   D(9,32,34,37)         175.3469         estimate D2E/DX2                !
 ! D98   D(33,32,34,37)          0.5447         estimate D2E/DX2                !
 ! D99   D(32,33,35,37)         -0.2374         estimate D2E/DX2                !
 ! D100  D(32,33,35,38)        179.6926         estimate D2E/DX2                !
 ! D101  D(36,33,35,37)        179.1916         estimate D2E/DX2                !
 ! D102  D(36,33,35,38)         -0.8784         estimate D2E/DX2                !
 ! D103  D(32,34,37,35)         -0.6642         estimate D2E/DX2                !
 ! D104  D(32,34,37,39)        177.9143         estimate D2E/DX2                !
 ! D105  D(33,35,37,34)          0.637          estimate D2E/DX2                !
 ! D106  D(33,35,37,39)       -177.8554         estimate D2E/DX2                !
 ! D107  D(38,35,37,34)       -179.2986         estimate D2E/DX2                !
 ! D108  D(38,35,37,39)          2.2089         estimate D2E/DX2                !
 ! D109  D(33,35,38,40)          6.6037         estimate D2E/DX2                !
 ! D110  D(37,35,38,40)       -173.4692         estimate D2E/DX2                !
 ! D111  D(34,37,39,41)          2.8853         estimate D2E/DX2                !
 ! D112  D(34,37,39,42)       -177.1636         estimate D2E/DX2                !
 ! D113  D(35,37,39,41)       -178.8101         estimate D2E/DX2                !
 ! D114  D(35,37,39,42)          1.141          estimate D2E/DX2                !
 ! D115  D(35,38,40,43)        175.4173         estimate D2E/DX2                !
 ! D116  D(35,38,40,44)        -65.8767         estimate D2E/DX2                !
 ! D117  D(35,38,40,45)         56.2809         estimate D2E/DX2                !
 ! D118  D(37,39,41,46)       -179.9943         estimate D2E/DX2                !
 ! D119  D(37,39,41,47)         -0.2159         estimate D2E/DX2                !
 ! D120  D(42,39,41,46)          0.0491         estimate D2E/DX2                !
 ! D121  D(42,39,41,47)        179.8275         estimate D2E/DX2                !
 ! D122  D(37,39,42,48)       -179.9733         estimate D2E/DX2                !
 ! D123  D(41,39,42,48)         -0.0144         estimate D2E/DX2                !
 ! D124  D(39,41,46,48)         -0.0688         estimate D2E/DX2                !
 ! D125  D(39,41,46,49)       -179.9547         estimate D2E/DX2                !
 ! D126  D(47,41,46,48)       -179.8281         estimate D2E/DX2                !
 ! D127  D(47,41,46,49)          0.2861         estimate D2E/DX2                !
 ! D128  D(39,41,47,50)        178.3621         estimate D2E/DX2                !
 ! D129  D(46,41,47,50)         -1.8897         estimate D2E/DX2                !
 ! D130  D(39,42,48,46)         -0.0244         estimate D2E/DX2                !
 ! D131  D(39,42,48,51)        179.917          estimate D2E/DX2                !
 ! D132  D(41,46,48,42)          0.0561         estimate D2E/DX2                !
 ! D133  D(41,46,48,51)       -179.8797         estimate D2E/DX2                !
 ! D134  D(49,46,48,42)        179.943          estimate D2E/DX2                !
 ! D135  D(49,46,48,51)          0.0072         estimate D2E/DX2                !
 ! D136  D(41,47,50,52)         62.0917         estimate D2E/DX2                !
 ! D137  D(41,47,50,53)       -179.1772         estimate D2E/DX2                !
 ! D138  D(41,47,50,54)        -60.2285         estimate D2E/DX2                !
 --------------------------------------------------------------------------------
 Trust Radius=3.00D-01 FncErr=1.00D-07 GrdErr=1.00D-06 EigMax=2.50D+02 EigMin=1.00D-04
 Number of steps in this run=    307 maximum allowed number of steps=    324.
 GradGradGradGradGradGradGradGradGradGradGradGradGradGradGradGradGradGrad

 Stoichiometry    C26H18N2O6S2(1-,2)
 Framework group  C1[X(C26H18N2O6S2)]
 Deg. of freedom   156
 Full point group                 C1      NOp   1
 Largest Abelian subgroup         C1      NOp   1
 Largest concise Abelian subgroup C1      NOp   1
                         Standard orientation:                         
 ---------------------------------------------------------------------
 Center     Atomic      Atomic             Coordinates (Angstroms)
 Number     Number       Type             X           Y           Z
 ---------------------------------------------------------------------
      1          6           0        3.536094   -2.717671    0.400302
      2          6           0        2.783551   -1.467087    0.117762
      3          6           0        3.443623   -0.215989    0.114419
      4          6           0        4.828856   -0.138677    0.378746
      5          6           0        5.611220   -1.369342    0.670772
      6          6           0        1.433459   -1.533504   -0.117146
      7          6           0        2.685560    0.955634   -0.170932
      8          6           0        1.279476    0.878366   -0.427566
      9          6           0        0.623955   -0.381782   -0.368931
     10          6           0        0.590751    2.131712   -0.839372
     11          6           0        2.689786    3.452231   -0.521999
     12          6           0        3.386564    2.190222   -0.193223
     13          6           0        4.748420    2.248286    0.072843
     14          6           0        5.476487    1.088138    0.362615
     15          1           0        6.539674    1.122037    0.568366
     16          1           0        5.229242    3.219803    0.043166
     17          1           0        0.970002   -2.511493   -0.061420
     18          7           0        1.338797    3.325428   -0.850777
     19          7           0        4.905406   -2.584531    0.660283
     20          8           0        3.009975   -3.821864    0.411162
     21          8           0        6.809456   -1.334496    0.907084
     22          8           0        3.254609    4.539033   -0.524820
     23          8           0       -0.582147    2.198177   -1.184639
     24          6           0        0.607140    4.532370   -1.251559
     25          1           0        0.212334    4.408331   -2.261066
     26          1           0       -0.235328    4.698450   -0.575274
     27          1           0        1.302444    5.366163   -1.208366
     28          6           0        5.636952   -3.824789    0.941612
     29          1           0        5.191441   -4.327534    1.802624
     30          1           0        5.573011   -4.495090    0.082435
     31          1           0        6.671400   -3.560533    1.144063
     32          6           0       -0.807261   -0.649486   -0.505532
     33          6           0       -1.519482   -1.267539   -1.515720
     34         16           0       -1.914641    0.013322    0.696370
     35          6           0       -2.914857   -1.218735   -1.331541
     36          1           0       -1.043588   -1.747078   -2.355712
     37          6           0       -3.322454   -0.563056   -0.165704
     38          8           0       -3.858919   -1.735538   -2.162834
     39          6           0       -4.661434   -0.387168    0.319873
     40          6           0       -3.407028   -2.518596   -3.264548
     41          6           0       -5.066926    0.286887    1.471291
     42         16           0       -6.076509   -1.028980   -0.508473
     43          1           0       -4.305513   -2.900992   -3.748407
     44          1           0       -2.841523   -1.908355   -3.978336
     45          1           0       -2.784223   -3.355277   -2.926696
     46          6           0       -6.475233    0.286009    1.681536
     47          8           0       -4.129253    0.861966    2.269461
     48          6           0       -7.139227   -0.386010    0.691243
     49          1           0       -6.968839    0.758919    2.519442
     50          6           0       -4.576235    1.572841    3.417914
     51          1           0       -8.206069   -0.538572    0.600673
     52          1           0       -5.106072    0.910091    4.115071
     53          1           0       -3.679320    1.959947    3.900612
     54          1           0       -5.230420    2.407617    3.139701
 ---------------------------------------------------------------------
 Rotational constants (GHZ):           0.1642650           0.0550191           0.0473021
 Standard basis: 6-311+G(d,p) (5D, 7F)
 There are   952 symmetry adapted cartesian basis functions of A   symmetry.
 There are   916 symmetry adapted basis functions of A   symmetry.
   916 basis functions,  1468 primitive gaussians,   952 cartesian basis functions
   135 alpha electrons      134 beta electrons
       nuclear repulsion energy      4092.6942091775 Hartrees.
 NAtoms=   54 NActive=   54 NUniq=   54 SFac= 1.00D+00 NAtFMM=   60 NAOKFM=F Big=F
 Integral buffers will be    131072 words long.
 Raffenetti 2 integral format.
 Two-electron integral symmetry is turned on.
 ------------------------------------------------------------------------------
 Polarizable Continuum Model (PCM)
 =================================
 Model                : PCM.
 Atomic radii         : UFF (Universal Force Field).
 Polarization charges : Total charges.
 Charge compensation  : None.
 Solution method      : On-the-fly selection.
 Cavity type          : Scaled VdW (van der Waals Surface) (Alpha=1.100).
 Cavity algorithm     : GePol (No added spheres)
                        Default sphere list used, NSphG=   54.
                        Lebedev-Laikov grids with approx.  5.0 points / Ang**2.
                        Smoothing algorithm: York/Karplus (Gamma=1.0000).
                        Polarization charges: spherical gaussians, with
                                              point-specific exponents (IZeta= 3).
                        Self-potential: point-specific (ISelfS= 7).
                        Self-field    : sphere-specific E.n sum rule (ISelfD= 2).
 1st derivatives      : Analytical E(r).r(x)/FMM algorithm (CHGder, D1EAlg=3).
                        Cavity 1st derivative terms included.
 Solvent              : Water, Eps=  78.355300 Eps(inf)=   1.777849
 ------------------------------------------------------------------------------
 One-electron integrals computed using PRISM.
 NBasis=   916 RedAO= T EigKep=  1.00D-06  NBF=   916
 NBsUse=   902 1.00D-06 EigRej=  6.79D-07 NBFU=   902
 ExpMin= 4.05D-02 ExpMax= 9.34D+04 ExpMxC= 3.17D+03 IAcc=3 IRadAn=         5 AccDes= 0.00D+00
 Harris functional with IExCor=  402 and IRadAn=       5 diagonalized for initial guess.
 HarFok:  IExCor=  402 AccDes= 0.00D+00 IRadAn=         5 IDoV= 1 UseB2=F ITyADJ=14
 ICtDFT=  3500011 ScaDFX=  1.000000  1.000000  1.000000  1.000000
 FoFCou: FMM=F IPFlag=           0 FMFlag=      100000 FMFlg1=           0
         NFxFlg=           0 DoJE=T BraDBF=F KetDBF=T FulRan=T
         wScrn=  0.000000 ICntrl=       500 IOpCl=  0 I1Cent=   200000004 NGrid=           0
         NMat0=    1 NMatS0=      1 NMatT0=    0 NMatD0=    1 NMtDS0=    0 NMtDT0=    0
 Petite list used in FoFCou.
 Initial guess <Sx>= 0.0000 <Sy>= 0.0000 <Sz>= 0.5000 <S**2>= 0.7500 S= 0.5000
 Requested convergence on RMS density matrix=1.00D-08 within 128 cycles.
 Requested convergence on MAX density matrix=1.00D-06.
 Requested convergence on             energy=1.00D-06.
 No special actions if energy rises.
 Inv3:  Mode=1 IEnd=    53653323.
 Iteration    1 A*A^-1 deviation from unit magnitude is 6.44D-15 for   4226.
 Iteration    1 A*A^-1 deviation from orthogonality  is 2.44D-15 for   2485    547.
 Iteration    1 A^-1*A deviation from unit magnitude is 6.66D-15 for   4226.
 Iteration    1 A^-1*A deviation from orthogonality  is 2.16D-13 for   2537   2485.
 Restarting incremental Fock formation.
 Error on total polarization charges =  0.02612
 SCF Done:  E(UB3LYP) =  -2359.49568764     A.U. after   23 cycles
            NFock= 23  Conv=0.19D-08     -V/T= 2.0031
 <Sx>= 0.0000 <Sy>= 0.0000 <Sz>= 0.5000 <S**2>= 0.7571 S= 0.5036
 <L.S>=  0.00000000000    
 Annihilation of the first spin contaminant:
 S**2 before annihilation     0.7571,   after     0.7500

 **********************************************************************

            Population analysis using the SCF Density.

 **********************************************************************

 Orbital symmetries:
 Alpha Orbitals:
       Occupied  (A) (A) (A) (A) (A) (A) (A) (A) (A) (A) (A) (A)
                 (A) (A) (A) (A) (A) (A) (A) (A) (A) (A) (A) (A)
                 (A) (A) (A) (A) (A) (A) (A) (A) (A) (A) (A) (A)
                 (A) (A) (A) (A) (A) (A) (A) (A) (A) (A) (A) (A)
                 (A) (A) (A) (A) (A) (A) (A) (A) (A) (A) (A) (A)
                 (A) (A) (A) (A) (A) (A) (A) (A) (A) (A) (A) (A)
                 (A) (A) (A) (A) (A) (A) (A) (A) (A) (A) (A) (A)
                 (A) (A) (A) (A) (A) (A) (A) (A) (A) (A) (A) (A)
                 (A) (A) (A) (A) (A) (A) (A) (A) (A) (A) (A) (A)
                 (A) (A) (A) (A) (A) (A) (A) (A) (A) (A) (A) (A)
                 (A) (A) (A) (A) (A) (A) (A) (A) (A) (A) (A) (A)
                 (A) (A) (A)
       Virtual   (A) (A) (A) (A) (A) (A) (A) (A) (A) (A) (A) (A)
                 (A) (A) (A) (A) (A) (A) (A) (A) (A) (A) (A) (A)
                 (A) (A) (A) (A) (A) (A) (A) (A) (A) (A) (A) (A)
                 (A) (A) (A) (A) (A) (A) (A) (A) (A) (A) (A) (A)
                 (A) (A) (A) (A) (A) (A) (A) (A) (A) (A) (A) (A)
                 (A) (A) (A) (A) (A) (A) (A) (A) (A) (A) (A) (A)
                 (A) (A) (A) (A) (A) (A) (A) (A) (A) (A) (A) (A)
                 (A) (A) (A) (A) (A) (A) (A) (A) (A) (A) (A) (A)
                 (A) (A) (A) (A) (A) (A) (A) (A) (A) (A) (A) (A)
                 (A) (A) (A) (A) (A) (A) (A) (A) (A) (A) (A) (A)
                 (A) (A) (A) (A) (A) (A) (A) (A) (A) (A) (A) (A)
                 (A) (A) (A) (A) (A) (A) (A) (A) (A) (A) (A) (A)
                 (A) (A) (A) (A) (A) (A) (A) (A) (A) (A) (A) (A)
                 (A) (A) (A) (A) (A) (A) (A) (A) (A) (A) (A) (A)
                 (A) (A) (A) (A) (A) (A) (A) (A) (A) (A) (A) (A)
                 (A) (A) (A) (A) (A) (A) (A) (A) (A) (A) (A) (A)
                 (A) (A) (A) (A) (A) (A) (A) (A) (A) (A) (A) (A)
                 (A) (A) (A) (A) (A) (A) (A) (A) (A) (A) (A) (A)
                 (A) (A) (A) (A) (A) (A) (A) (A) (A) (A) (A) (A)
                 (A) (A) (A) (A) (A) (A) (A) (A) (A) (A) (A) (A)
                 (A) (A) (A) (A) (A) (A) (A) (A) (A) (A) (A) (A)
                 (A) (A) (A) (A) (A) (A) (A) (A) (A) (A) (A) (A)
                 (A) (A) (A) (A) (A) (A) (A) (A) (A) (A) (A) (A)
                 (A) (A) (A) (A) (A) (A) (A) (A) (A) (A) (A) (A)
                 (A) (A) (A) (A) (A) (A) (A) (A) (A) (A) (A) (A)
                 (A) (A) (A) (A) (A) (A) (A) (A) (A) (A) (A) (A)
                 (A) (A) (A) (A) (A) (A) (A) (A) (A) (A) (A) (A)
                 (A) (A) (A) (A) (A) (A) (A) (A) (A) (A) (A) (A)
                 (A) (A) (A) (A) (A) (A) (A) (A) (A) (A) (A) (A)
                 (A) (A) (A) (A) (A) (A) (A) (A) (A) (A) (A) (A)
                 (A) (A) (A) (A) (A) (A) (A) (A) (A) (A) (A) (A)
                 (A) (A) (A) (A) (A) (A) (A) (A) (A) (A) (A) (A)
                 (A) (A) (A) (A) (A) (A) (A) (A) (A) (A) (A) (A)
                 (A) (A) (A) (A) (A) (A) (A) (A) (A) (A) (A) (A)
                 (A) (A) (A) (A) (A) (A) (A) (A) (A) (A) (A) (A)
                 (A) (A) (A) (A) (A) (A) (A) (A) (A) (A) (A) (A)
                 (A) (A) (A) (A) (A) (A) (A) (A) (A) (A) (A) (A)
                 (A) (A) (A) (A) (A) (A) (A) (A) (A) (A) (A) (A)
                 (A) (A) (A) (A) (A) (A) (A) (A) (A) (A) (A) (A)
                 (A) (A) (A) (A) (A) (A) (A) (A) (A) (A) (A) (A)
                 (A) (A) (A) (A) (A) (A) (A) (A) (A) (A) (A) (A)
                 (A) (A) (A) (A) (A) (A) (A) (A) (A) (A) (A) (A)
                 (A) (A) (A) (A) (A) (A) (A) (A) (A) (A) (A) (A)
                 (A) (A) (A) (A) (A) (A) (A) (A) (A) (A) (A) (A)
                 (A) (A) (A) (A) (A) (A) (A) (A) (A) (A) (A) (A)
                 (A) (A) (A) (A) (A) (A) (A) (A) (A) (A) (A) (A)
                 (A) (A) (A) (A) (A) (A) (A) (A) (A) (A) (A) (A)
                 (A) (A) (A) (A) (A) (A) (A) (A) (A) (A) (A) (A)
                 (A) (A) (A) (A) (A) (A) (A) (A) (A) (A) (A) (A)
                 (A) (A) (A) (A) (A) (A) (A) (A) (A) (A) (A) (A)
                 (A) (A) (A) (A) (A) (A) (A) (A) (A) (A) (A) (A)
                 (A) (A) (A) (A) (A) (A) (A) (A) (A) (A) (A) (A)
                 (A) (A) (A) (A) (A) (A) (A) (A) (A) (A) (A) (A)
                 (A) (A) (A) (A) (A) (A) (A) (A) (A) (A) (A) (A)
                 (A) (A) (A) (A) (A) (A) (A) (A) (A) (A) (A) (A)
                 (A) (A) (A) (A) (A) (A) (A) (A) (A) (A) (A) (A)
                 (A) (A) (A) (A) (A) (A) (A) (A) (A) (A) (A) (A)
                 (A) (A) (A) (A) (A) (A) (A) (A) (A) (A) (A) (A)
                 (A) (A) (A) (A) (A) (A) (A) (A) (A) (A) (A) (A)
                 (A) (A) (A) (A) (A) (A) (A) (A) (A) (A) (A) (A)
                 (A) (A) (A) (A) (A) (A) (A) (A) (A) (A) (A) (A)
                 (A) (A) (A) (A) (A) (A) (A) (A) (A) (A) (A) (A)
                 (A) (A) (A) (A) (A) (A) (A) (A) (A) (A) (A) (A)
                 (A) (A) (A) (A) (A) (A) (A) (A) (A) (A) (A)
 Beta  Orbitals:
       Occupied  (A) (A) (A) (A) (A) (A) (A) (A) (A) (A) (A) (A)
                 (A) (A) (A) (A) (A) (A) (A) (A) (A) (A) (A) (A)
                 (A) (A) (A) (A) (A) (A) (A) (A) (A) (A) (A) (A)
                 (A) (A) (A) (A) (A) (A) (A) (A) (A) (A) (A) (A)
                 (A) (A) (A) (A) (A) (A) (A) (A) (A) (A) (A) (A)
                 (A) (A) (A) (A) (A) (A) (A) (A) (A) (A) (A) (A)
                 (A) (A) (A) (A) (A) (A) (A) (A) (A) (A) (A) (A)
                 (A) (A) (A) (A) (A) (A) (A) (A) (A) (A) (A) (A)
                 (A) (A) (A) (A) (A) (A) (A) (A) (A) (A) (A) (A)
                 (A) (A) (A) (A) (A) (A) (A) (A) (A) (A) (A) (A)
                 (A) (A) (A) (A) (A) (A) (A) (A) (A) (A) (A) (A)
                 (A) (A)
       Virtual   (A) (A) (A) (A) (A) (A) (A) (A) (A) (A) (A) (A)
                 (A) (A) (A) (A) (A) (A) (A) (A) (A) (A) (A) (A)
                 (A) (A) (A) (A) (A) (A) (A) (A) (A) (A) (A) (A)
                 (A) (A) (A) (A) (A) (A) (A) (A) (A) (A) (A) (A)
                 (A) (A) (A) (A) (A) (A) (A) (A) (A) (A) (A) (A)
                 (A) (A) (A) (A) (A) (A) (A) (A) (A) (A) (A) (A)
                 (A) (A) (A) (A) (A) (A) (A) (A) (A) (A) (A) (A)
                 (A) (A) (A) (A) (A) (A) (A) (A) (A) (A) (A) (A)
                 (A) (A) (A) (A) (A) (A) (A) (A) (A) (A) (A) (A)
                 (A) (A) (A) (A) (A) (A) (A) (A) (A) (A) (A) (A)
                 (A) (A) (A) (A) (A) (A) (A) (A) (A) (A) (A) (A)
                 (A) (A) (A) (A) (A) (A) (A) (A) (A) (A) (A) (A)
                 (A) (A) (A) (A) (A) (A) (A) (A) (A) (A) (A) (A)
                 (A) (A) (A) (A) (A) (A) (A) (A) (A) (A) (A) (A)
                 (A) (A) (A) (A) (A) (A) (A) (A) (A) (A) (A) (A)
                 (A) (A) (A) (A) (A) (A) (A) (A) (A) (A) (A) (A)
                 (A) (A) (A) (A) (A) (A) (A) (A) (A) (A) (A) (A)
                 (A) (A) (A) (A) (A) (A) (A) (A) (A) (A) (A) (A)
                 (A) (A) (A) (A) (A) (A) (A) (A) (A) (A) (A) (A)
                 (A) (A) (A) (A) (A) (A) (A) (A) (A) (A) (A) (A)
                 (A) (A) (A) (A) (A) (A) (A) (A) (A) (A) (A) (A)
                 (A) (A) (A) (A) (A) (A) (A) (A) (A) (A) (A) (A)
                 (A) (A) (A) (A) (A) (A) (A) (A) (A) (A) (A) (A)
                 (A) (A) (A) (A) (A) (A) (A) (A) (A) (A) (A) (A)
                 (A) (A) (A) (A) (A) (A) (A) (A) (A) (A) (A) (A)
                 (A) (A) (A) (A) (A) (A) (A) (A) (A) (A) (A) (A)
                 (A) (A) (A) (A) (A) (A) (A) (A) (A) (A) (A) (A)
                 (A) (A) (A) (A) (A) (A) (A) (A) (A) (A) (A) (A)
                 (A) (A) (A) (A) (A) (A) (A) (A) (A) (A) (A) (A)
                 (A) (A) (A) (A) (A) (A) (A) (A) (A) (A) (A) (A)
                 (A) (A) (A) (A) (A) (A) (A) (A) (A) (A) (A) (A)
                 (A) (A) (A) (A) (A) (A) (A) (A) (A) (A) (A) (A)
                 (A) (A) (A) (A) (A) (A) (A) (A) (A) (A) (A) (A)
                 (A) (A) (A) (A) (A) (A) (A) (A) (A) (A) (A) (A)
                 (A) (A) (A) (A) (A) (A) (A) (A) (A) (A) (A) (A)
                 (A) (A) (A) (A) (A) (A) (A) (A) (A) (A) (A) (A)
                 (A) (A) (A) (A) (A) (A) (A) (A) (A) (A) (A) (A)
                 (A) (A) (A) (A) (A) (A) (A) (A) (A) (A) (A) (A)
                 (A) (A) (A) (A) (A) (A) (A) (A) (A) (A) (A) (A)
                 (A) (A) (A) (A) (A) (A) (A) (A) (A) (A) (A) (A)
                 (A) (A) (A) (A) (A) (A) (A) (A) (A) (A) (A) (A)
                 (A) (A) (A) (A) (A) (A) (A) (A) (A) (A) (A) (A)
                 (A) (A) (A) (A) (A) (A) (A) (A) (A) (A) (A) (A)
                 (A) (A) (A) (A) (A) (A) (A) (A) (A) (A) (A) (A)
                 (A) (A) (A) (A) (A) (A) (A) (A) (A) (A) (A) (A)
                 (A) (A) (A) (A) (A) (A) (A) (A) (A) (A) (A) (A)
                 (A) (A) (A) (A) (A) (A) (A) (A) (A) (A) (A) (A)
                 (A) (A) (A) (A) (A) (A) (A) (A) (A) (A) (A) (A)
                 (A) (A) (A) (A) (A) (A) (A) (A) (A) (A) (A) (A)
                 (A) (A) (A) (A) (A) (A) (A) (A) (A) (A) (A) (A)
                 (A) (A) (A) (A) (A) (A) (A) (A) (A) (A) (A) (A)
                 (A) (A) (A) (A) (A) (A) (A) (A) (A) (A) (A) (A)
                 (A) (A) (A) (A) (A) (A) (A) (A) (A) (A) (A) (A)
                 (A) (A) (A) (A) (A) (A) (A) (A) (A) (A) (A) (A)
                 (A) (A) (A) (A) (A) (A) (A) (A) (A) (A) (A) (A)
                 (A) (A) (A) (A) (A) (A) (A) (A) (A) (A) (A) (A)
                 (A) (A) (A) (A) (A) (A) (A) (A) (A) (A) (A) (A)
                 (A) (A) (A) (A) (A) (A) (A) (A) (A) (A) (A) (A)
                 (A) (A) (A) (A) (A) (A) (A) (A) (A) (A) (A) (A)
                 (A) (A) (A) (A) (A) (A) (A) (A) (A) (A) (A) (A)
                 (A) (A) (A) (A) (A) (A) (A) (A) (A) (A) (A) (A)
                 (A) (A) (A) (A) (A) (A) (A) (A) (A) (A) (A) (A)
                 (A) (A) (A) (A) (A) (A) (A) (A) (A) (A) (A) (A)
                 (A) (A) (A) (A) (A) (A) (A) (A) (A) (A) (A) (A)
 The electronic state is 2-A.
 Alpha  occ. eigenvalues --  -88.87978 -88.87223 -19.16361 -19.16275 -19.10166
 Alpha  occ. eigenvalues --  -19.10133 -19.09787 -19.09482 -14.36725 -14.36328
 Alpha  occ. eigenvalues --  -10.28492 -10.28299 -10.28098 -10.28024 -10.23966
 Alpha  occ. eigenvalues --  -10.23706 -10.22508 -10.22450 -10.21151 -10.21090
 Alpha  occ. eigenvalues --  -10.20902 -10.20483 -10.20217 -10.20149 -10.19879
 Alpha  occ. eigenvalues --  -10.19846 -10.19626 -10.19605 -10.18674 -10.18560
 Alpha  occ. eigenvalues --  -10.18519 -10.18283 -10.18228 -10.17970 -10.17930
 Alpha  occ. eigenvalues --  -10.17914  -7.96542  -7.95794  -5.92847  -5.92465
 Alpha  occ. eigenvalues --   -5.92115  -5.92112  -5.91726  -5.91344  -1.07958
 Alpha  occ. eigenvalues --   -1.07799  -1.06501  -1.06134  -1.04698  -1.04232
 Alpha  occ. eigenvalues --   -0.94176  -0.93680  -0.89763  -0.89132  -0.87620
 Alpha  occ. eigenvalues --   -0.83947  -0.81503  -0.78590  -0.76284  -0.75612
 Alpha  occ. eigenvalues --   -0.75200  -0.74328  -0.73260  -0.72151  -0.70823
 Alpha  occ. eigenvalues --   -0.69738  -0.69122  -0.67221  -0.65117  -0.63655
 Alpha  occ. eigenvalues --   -0.63132  -0.62429  -0.59666  -0.58529  -0.56581
 Alpha  occ. eigenvalues --   -0.55464  -0.55383  -0.54808  -0.53918  -0.52729
 Alpha  occ. eigenvalues --   -0.51404  -0.49374  -0.48978  -0.48288  -0.47890
 Alpha  occ. eigenvalues --   -0.47802  -0.47750  -0.47429  -0.47323  -0.47056
 Alpha  occ. eigenvalues --   -0.46550  -0.45146  -0.45018  -0.44807  -0.44583
 Alpha  occ. eigenvalues --   -0.43886  -0.43403  -0.42882  -0.42546  -0.42062
 Alpha  occ. eigenvalues --   -0.41290  -0.40965  -0.40739  -0.40592  -0.40472
 Alpha  occ. eigenvalues --   -0.40057  -0.39840  -0.39778  -0.39117  -0.38480
 Alpha  occ. eigenvalues --   -0.37734  -0.37638  -0.37056  -0.36971  -0.35696
 Alpha  occ. eigenvalues --   -0.34928  -0.34044  -0.33493  -0.33275  -0.32675
 Alpha  occ. eigenvalues --   -0.32491  -0.30082  -0.29222  -0.28707  -0.28168
 Alpha  occ. eigenvalues --   -0.27846  -0.27423  -0.27035  -0.26242  -0.26099
 Alpha  occ. eigenvalues --   -0.24618  -0.24292  -0.23914  -0.18667  -0.14663
 Alpha virt. eigenvalues --   -0.05652  -0.04927  -0.03454  -0.02896  -0.00323
 Alpha virt. eigenvalues --   -0.00075   0.00386   0.00798   0.00962   0.01295
 Alpha virt. eigenvalues --    0.01555   0.02351   0.02452   0.02570   0.02737
 Alpha virt. eigenvalues --    0.02936   0.02989   0.03220   0.03496   0.03959
 Alpha virt. eigenvalues --    0.04035   0.04192   0.04470   0.04820   0.05126
 Alpha virt. eigenvalues --    0.05326   0.05415   0.05744   0.05855   0.06427
 Alpha virt. eigenvalues --    0.06612   0.06787   0.07136   0.07599   0.07691
 Alpha virt. eigenvalues --    0.07831   0.08151   0.08318   0.08616   0.08840
 Alpha virt. eigenvalues --    0.09022   0.09102   0.09478   0.09662   0.09959
 Alpha virt. eigenvalues --    0.10197   0.10538   0.10862   0.11081   0.11286
 Alpha virt. eigenvalues --    0.11455   0.11596   0.12017   0.12315   0.12558
 Alpha virt. eigenvalues --    0.12978   0.13188   0.13543   0.13901   0.14023
 Alpha virt. eigenvalues --    0.14355   0.14436   0.14664   0.14793   0.15020
 Alpha virt. eigenvalues --    0.15090   0.15343   0.15521   0.15696   0.16289
 Alpha virt. eigenvalues --    0.16299   0.16494   0.16641   0.16936   0.17146
 Alpha virt. eigenvalues --    0.17367   0.17679   0.17999   0.18159   0.18588
 Alpha virt. eigenvalues --    0.18701   0.18763   0.19106   0.19327   0.19466
 Alpha virt. eigenvalues --    0.19648   0.19883   0.20019   0.20092   0.20417
 Alpha virt. eigenvalues --    0.20526   0.20826   0.20966   0.21085   0.21304
 Alpha virt. eigenvalues --    0.21545   0.21739   0.21815   0.21997   0.22212
 Alpha virt. eigenvalues --    0.22455   0.22595   0.22903   0.23076   0.23248
 Alpha virt. eigenvalues --    0.23476   0.23512   0.23643   0.23813   0.23939
 Alpha virt. eigenvalues --    0.23993   0.24497   0.24740   0.24834   0.25229
 Alpha virt. eigenvalues --    0.25570   0.25756   0.26011   0.26079   0.26231
 Alpha virt. eigenvalues --    0.26361   0.26619   0.26732   0.26852   0.26914
 Alpha virt. eigenvalues --    0.27232   0.27418   0.27647   0.27907   0.27994
 Alpha virt. eigenvalues --    0.28260   0.28460   0.28600   0.28885   0.29008
 Alpha virt. eigenvalues --    0.29182   0.29487   0.29525   0.29841   0.29985
 Alpha virt. eigenvalues --    0.30086   0.30507   0.30752   0.30817   0.30943
 Alpha virt. eigenvalues --    0.31124   0.31592   0.31754   0.31997   0.32061
 Alpha virt. eigenvalues --    0.32414   0.32715   0.33138   0.33462   0.33621
 Alpha virt. eigenvalues --    0.33872   0.34063   0.34233   0.34442   0.34873
 Alpha virt. eigenvalues --    0.35220   0.35500   0.35798   0.36273   0.36355
 Alpha virt. eigenvalues --    0.36870   0.37039   0.37400   0.37910   0.38350
 Alpha virt. eigenvalues --    0.38839   0.39089   0.39401   0.39842   0.40524
 Alpha virt. eigenvalues --    0.40762   0.41273   0.41489   0.41675   0.42429
 Alpha virt. eigenvalues --    0.43045   0.43130   0.43517   0.44032   0.44345
 Alpha virt. eigenvalues --    0.45055   0.45315   0.45556   0.45730   0.46255
 Alpha virt. eigenvalues --    0.46342   0.46930   0.47056   0.47370   0.47519
 Alpha virt. eigenvalues --    0.47977   0.48720   0.49521   0.49954   0.50273
 Alpha virt. eigenvalues --    0.50492   0.50981   0.51448   0.51886   0.52261
 Alpha virt. eigenvalues --    0.53201   0.53348   0.54186   0.54692   0.55095
 Alpha virt. eigenvalues --    0.55767   0.55977   0.56200   0.56345   0.56550
 Alpha virt. eigenvalues --    0.56957   0.57200   0.58019   0.58217   0.58369
 Alpha virt. eigenvalues --    0.58949   0.59057   0.59592   0.60317   0.60520
 Alpha virt. eigenvalues --    0.61240   0.61732   0.62242   0.62394   0.62715
 Alpha virt. eigenvalues --    0.63036   0.63390   0.63707   0.64205   0.64833
 Alpha virt. eigenvalues --    0.65020   0.65423   0.65573   0.65718   0.66375
 Alpha virt. eigenvalues --    0.66938   0.67144   0.67450   0.67529   0.67850
 Alpha virt. eigenvalues --    0.68379   0.68802   0.69045   0.69736   0.69827
 Alpha virt. eigenvalues --    0.70415   0.70792   0.70970   0.71387   0.71495
 Alpha virt. eigenvalues --    0.72370   0.72704   0.73076   0.73558   0.73813
 Alpha virt. eigenvalues --    0.73838   0.74152   0.74720   0.74801   0.75273
 Alpha virt. eigenvalues --    0.75423   0.75787   0.76303   0.76418   0.76803
 Alpha virt. eigenvalues --    0.77082   0.77342   0.77683   0.78132   0.78305
 Alpha virt. eigenvalues --    0.78702   0.78970   0.79270   0.79702   0.80609
 Alpha virt. eigenvalues --    0.80874   0.81678   0.81993   0.82362   0.82773
 Alpha virt. eigenvalues --    0.83605   0.84052   0.84834   0.85286   0.86316
 Alpha virt. eigenvalues --    0.87840   0.88373   0.88875   0.89363   0.89872
 Alpha virt. eigenvalues --    0.90198   0.90861   0.91078   0.91791   0.92377
 Alpha virt. eigenvalues --    0.92839   0.92876   0.93703   0.94368   0.94796
 Alpha virt. eigenvalues --    0.95320   0.95662   0.96292   0.96424   0.96609
 Alpha virt. eigenvalues --    0.97270   0.98018   0.98191   0.98426   0.98868
 Alpha virt. eigenvalues --    0.99767   1.00080   1.00619   1.01125   1.01976
 Alpha virt. eigenvalues --    1.02062   1.02378   1.03130   1.03151   1.03563
 Alpha virt. eigenvalues --    1.04024   1.04672   1.05295   1.05805   1.05993
 Alpha virt. eigenvalues --    1.06342   1.06502   1.06574   1.07421   1.07907
 Alpha virt. eigenvalues --    1.07959   1.08258   1.08685   1.08989   1.09345
 Alpha virt. eigenvalues --    1.10135   1.10636   1.11329   1.12338   1.12569
 Alpha virt. eigenvalues --    1.12993   1.13399   1.14380   1.15119   1.15282
 Alpha virt. eigenvalues --    1.16217   1.16754   1.17487   1.18207   1.18297
 Alpha virt. eigenvalues --    1.19463   1.19760   1.21081   1.21459   1.21776
 Alpha virt. eigenvalues --    1.22498   1.22707   1.24858   1.25534   1.26050
 Alpha virt. eigenvalues --    1.26669   1.27079   1.27633   1.28511   1.28854
 Alpha virt. eigenvalues --    1.29139   1.29659   1.30967   1.31226   1.32172
 Alpha virt. eigenvalues --    1.33066   1.34226   1.34633   1.34917   1.35859
 Alpha virt. eigenvalues --    1.37609   1.38052   1.38475   1.40238   1.40630
 Alpha virt. eigenvalues --    1.41995   1.42428   1.42909   1.43701   1.44254
 Alpha virt. eigenvalues --    1.44287   1.44574   1.44747   1.45012   1.45797
 Alpha virt. eigenvalues --    1.46021   1.46756   1.46935   1.47149   1.47765
 Alpha virt. eigenvalues --    1.48145   1.48801   1.49770   1.50160   1.51139
 Alpha virt. eigenvalues --    1.51371   1.53254   1.53432   1.53866   1.54357
 Alpha virt. eigenvalues --    1.54852   1.55299   1.55588   1.55881   1.56179
 Alpha virt. eigenvalues --    1.56538   1.56612   1.56847   1.57795   1.59225
 Alpha virt. eigenvalues --    1.60138   1.61080   1.61743   1.62224   1.62343
 Alpha virt. eigenvalues --    1.63479   1.63663   1.64214   1.64851   1.65302
 Alpha virt. eigenvalues --    1.66155   1.66283   1.67566   1.67875   1.68304
 Alpha virt. eigenvalues --    1.69264   1.70035   1.70454   1.70621   1.71305
 Alpha virt. eigenvalues --    1.71594   1.72338   1.72521   1.72938   1.73706
 Alpha virt. eigenvalues --    1.74670   1.75446   1.76074   1.76735   1.77275
 Alpha virt. eigenvalues --    1.77532   1.77853   1.78747   1.79238   1.79685
 Alpha virt. eigenvalues --    1.80845   1.81118   1.83096   1.83152   1.83640
 Alpha virt. eigenvalues --    1.84720   1.85110   1.86180   1.86690   1.87420
 Alpha virt. eigenvalues --    1.87945   1.88229   1.88545   1.90424   1.90890
 Alpha virt. eigenvalues --    1.91539   1.91621   1.91965   1.92360   1.93553
 Alpha virt. eigenvalues --    1.93759   1.93973   1.95196   1.96490   1.96862
 Alpha virt. eigenvalues --    1.97439   1.98026   1.98848   2.00049   2.00226
 Alpha virt. eigenvalues --    2.01253   2.01939   2.02455   2.03140   2.03538
 Alpha virt. eigenvalues --    2.03857   2.04296   2.05320   2.05565   2.06278
 Alpha virt. eigenvalues --    2.06921   2.07642   2.08144   2.08254   2.09579
 Alpha virt. eigenvalues --    2.10140   2.11098   2.11892   2.12449   2.12667
 Alpha virt. eigenvalues --    2.13176   2.13953   2.14873   2.15983   2.16067
 Alpha virt. eigenvalues --    2.16591   2.17721   2.19160   2.19354   2.19997
 Alpha virt. eigenvalues --    2.20997   2.21464   2.22401   2.23014   2.23265
 Alpha virt. eigenvalues --    2.24274   2.27251   2.27999   2.28951   2.30872
 Alpha virt. eigenvalues --    2.34055   2.34514   2.35048   2.36857   2.38489
 Alpha virt. eigenvalues --    2.39588   2.41466   2.41819   2.42285   2.43828
 Alpha virt. eigenvalues --    2.44315   2.44851   2.45491   2.47356   2.47700
 Alpha virt. eigenvalues --    2.48085   2.48926   2.49566   2.50395   2.51175
 Alpha virt. eigenvalues --    2.51475   2.52848   2.52979   2.53620   2.53819
 Alpha virt. eigenvalues --    2.54291   2.54889   2.55182   2.55308   2.57651
 Alpha virt. eigenvalues --    2.58475   2.59098   2.60198   2.60519   2.61644
 Alpha virt. eigenvalues --    2.63388   2.64509   2.66392   2.66593   2.67456
 Alpha virt. eigenvalues --    2.68217   2.68762   2.68967   2.69767   2.70226
 Alpha virt. eigenvalues --    2.70554   2.71807   2.72406   2.72854   2.73136
 Alpha virt. eigenvalues --    2.74136   2.74403   2.74948   2.75173   2.77999
 Alpha virt. eigenvalues --    2.78095   2.78716   2.79160   2.79502   2.82252
 Alpha virt. eigenvalues --    2.83901   2.84726   2.84801   2.85683   2.86107
 Alpha virt. eigenvalues --    2.86260   2.86866   2.87495   2.87898   2.88450
 Alpha virt. eigenvalues --    2.89317   2.90057   2.91042   2.91718   2.92224
 Alpha virt. eigenvalues --    2.93309   2.93901   2.94593   2.95005   2.95924
 Alpha virt. eigenvalues --    2.96620   2.97286   2.97633   2.99278   3.00744
 Alpha virt. eigenvalues --    3.01205   3.04076   3.04331   3.05127   3.07161
 Alpha virt. eigenvalues --    3.08011   3.08835   3.09345   3.10740   3.11004
 Alpha virt. eigenvalues --    3.12911   3.14962   3.15677   3.16365   3.16864
 Alpha virt. eigenvalues --    3.17413   3.19199   3.20784   3.22373   3.22705
 Alpha virt. eigenvalues --    3.23996   3.24372   3.25530   3.27041   3.29642
 Alpha virt. eigenvalues --    3.30629   3.31523   3.32662   3.32871   3.35410
 Alpha virt. eigenvalues --    3.35524   3.36000   3.36252   3.37460   3.39117
 Alpha virt. eigenvalues --    3.39611   3.41859   3.42514   3.44435   3.45499
 Alpha virt. eigenvalues --    3.46369   3.47125   3.47644   3.49816   3.51112
 Alpha virt. eigenvalues --    3.52304   3.55193   3.57282   3.59828   3.61338
 Alpha virt. eigenvalues --    3.62428   3.63802   3.66991   3.67548   3.68637
 Alpha virt. eigenvalues --    3.71491   3.72342   3.73398   3.73999   3.76857
 Alpha virt. eigenvalues --    3.77286   3.77569   3.83036   3.84504   3.85370
 Alpha virt. eigenvalues --    3.86706   3.87646   3.92086   3.94581   3.94895
 Alpha virt. eigenvalues --    3.95114   3.96298   3.98857   4.03399   4.04064
 Alpha virt. eigenvalues --    4.06680   4.08745   4.11186   4.14690   4.15165
 Alpha virt. eigenvalues --    4.20232   4.24227   4.27319   4.28524   4.37596
 Alpha virt. eigenvalues --    4.39587   4.42533   4.52324   4.67608   4.86915
 Alpha virt. eigenvalues --    4.88740   4.89217   4.92206   5.02539   5.03271
 Alpha virt. eigenvalues --    5.05393   5.06949   5.07174   5.10214   5.13271
 Alpha virt. eigenvalues --    5.14818   5.26460   5.28413   5.30531   5.33289
 Alpha virt. eigenvalues --    5.43128   5.44436   5.76806   5.77662   5.80775
 Alpha virt. eigenvalues --    5.81801   5.83478   5.87169   8.02631   8.06718
 Alpha virt. eigenvalues --   17.29415  17.36327  17.50143  17.52936  17.58878
 Alpha virt. eigenvalues --   17.63448  23.51524  23.58061  23.73483  23.81318
 Alpha virt. eigenvalues --   23.83607  23.84863  23.86296  23.89244  23.89295
 Alpha virt. eigenvalues --   23.90469  23.91143  23.91348  23.92428  23.95474
 Alpha virt. eigenvalues --   23.95944  23.97733  23.98532  24.00970  24.02657
 Alpha virt. eigenvalues --   24.03206  24.03305  24.08050  24.13220  24.15058
 Alpha virt. eigenvalues --   24.16454  24.17113  35.57703  35.60644  49.96741
 Alpha virt. eigenvalues --   49.97978  50.04073  50.05836  50.07821  50.09336
 Alpha virt. eigenvalues --  189.19913 189.25094
  Beta  occ. eigenvalues --  -88.87978 -88.87215 -19.16355 -19.16277 -19.09988
  Beta  occ. eigenvalues --  -19.09946 -19.09615 -19.09274 -14.36779 -14.36383
  Beta  occ. eigenvalues --  -10.28427 -10.28235 -10.28036 -10.27961 -10.23956
  Beta  occ. eigenvalues --  -10.23713 -10.22509 -10.22450 -10.21157 -10.21115
  Beta  occ. eigenvalues --  -10.20881 -10.20352 -10.20268 -10.20140 -10.19900
  Beta  occ. eigenvalues --  -10.19878 -10.19604 -10.19460 -10.18529 -10.18409
  Beta  occ. eigenvalues --  -10.18355 -10.18286 -10.18177 -10.17904 -10.17886
  Beta  occ. eigenvalues --  -10.17833  -7.96541  -7.95786  -5.92847  -5.92465
  Beta  occ. eigenvalues --   -5.92114  -5.92100  -5.91717  -5.91334  -1.07949
  Beta  occ. eigenvalues --   -1.07802  -1.06257  -1.05886  -1.04384  -1.03904
  Beta  occ. eigenvalues --   -0.94085  -0.93582  -0.89662  -0.89056  -0.87579
  Beta  occ. eigenvalues --   -0.83633  -0.81204  -0.78468  -0.76200  -0.75280
  Beta  occ. eigenvalues --   -0.75064  -0.74276  -0.73189  -0.72108  -0.70780
  Beta  occ. eigenvalues --   -0.69595  -0.68875  -0.67074  -0.64957  -0.63462
  Beta  occ. eigenvalues --   -0.63022  -0.62251  -0.59615  -0.58464  -0.56501
  Beta  occ. eigenvalues --   -0.55409  -0.55298  -0.54685  -0.53909  -0.52576
  Beta  occ. eigenvalues --   -0.51277  -0.49204  -0.48924  -0.48009  -0.47773
  Beta  occ. eigenvalues --   -0.47708  -0.47610  -0.47424  -0.47229  -0.46926
  Beta  occ. eigenvalues --   -0.46514  -0.45066  -0.44931  -0.44719  -0.44508
  Beta  occ. eigenvalues --   -0.43777  -0.43234  -0.42709  -0.42416  -0.41773
  Beta  occ. eigenvalues --   -0.41257  -0.40909  -0.40659  -0.40020  -0.40014
  Beta  occ. eigenvalues --   -0.39773  -0.39685  -0.39129  -0.38921  -0.38359
  Beta  occ. eigenvalues --   -0.37656  -0.37327  -0.36922  -0.36880  -0.35686
  Beta  occ. eigenvalues --   -0.34839  -0.33852  -0.33375  -0.33152  -0.32661
  Beta  occ. eigenvalues --   -0.31921  -0.29120  -0.29031  -0.28519  -0.27734
  Beta  occ. eigenvalues --   -0.27605  -0.27135  -0.26848  -0.26044  -0.25463
  Beta  occ. eigenvalues --   -0.24497  -0.23857  -0.22927  -0.18561
  Beta virt. eigenvalues --   -0.10197  -0.05193  -0.04014  -0.02803  -0.02125
  Beta virt. eigenvalues --   -0.00301  -0.00025   0.00397   0.00808   0.00979
  Beta virt. eigenvalues --    0.01307   0.01570   0.02364   0.02585   0.02915
  Beta virt. eigenvalues --    0.02945   0.03178   0.03397   0.03545   0.03604
  Beta virt. eigenvalues --    0.03974   0.04057   0.04210   0.04522   0.04834
  Beta virt. eigenvalues --    0.05143   0.05377   0.05445   0.05783   0.05918
  Beta virt. eigenvalues --    0.06443   0.06629   0.06823   0.07150   0.07626
  Beta virt. eigenvalues --    0.07758   0.07900   0.08222   0.08371   0.08717
  Beta virt. eigenvalues --    0.08851   0.09093   0.09195   0.09488   0.09685
  Beta virt. eigenvalues --    0.10017   0.10346   0.10568   0.10916   0.11239
  Beta virt. eigenvalues --    0.11315   0.11644   0.11767   0.12127   0.12381
  Beta virt. eigenvalues --    0.12610   0.13012   0.13257   0.13560   0.13961
  Beta virt. eigenvalues --    0.14145   0.14384   0.14553   0.14722   0.14854
  Beta virt. eigenvalues --    0.15072   0.15143   0.15391   0.15550   0.15720
  Beta virt. eigenvalues --    0.16336   0.16348   0.16548   0.16660   0.16964
  Beta virt. eigenvalues --    0.17169   0.17432   0.17719   0.18034   0.18196
  Beta virt. eigenvalues --    0.18618   0.18768   0.18791   0.19132   0.19374
  Beta virt. eigenvalues --    0.19497   0.19693   0.19947   0.20048   0.20137
  Beta virt. eigenvalues --    0.20457   0.20553   0.20867   0.20993   0.21120
  Beta virt. eigenvalues --    0.21354   0.21635   0.21781   0.21860   0.22030
  Beta virt. eigenvalues --    0.22268   0.22564   0.22641   0.23083   0.23141
  Beta virt. eigenvalues --    0.23316   0.23578   0.23596   0.23732   0.23887
  Beta virt. eigenvalues --    0.24006   0.24066   0.24563   0.24771   0.24902
  Beta virt. eigenvalues --    0.25275   0.25632   0.25795   0.26064   0.26129
  Beta virt. eigenvalues --    0.26287   0.26418   0.26655   0.26795   0.26906
  Beta virt. eigenvalues --    0.26981   0.27255   0.27461   0.27684   0.27956
  Beta virt. eigenvalues --    0.28075   0.28296   0.28514   0.28656   0.28922
  Beta virt. eigenvalues --    0.29044   0.29216   0.29520   0.29585   0.29884
  Beta virt. eigenvalues --    0.30031   0.30129   0.30563   0.30804   0.30880
  Beta virt. eigenvalues --    0.30993   0.31178   0.31635   0.31830   0.32050
  Beta virt. eigenvalues --    0.32101   0.32480   0.32773   0.33213   0.33538
  Beta virt. eigenvalues --    0.33666   0.33907   0.34108   0.34292   0.34561
  Beta virt. eigenvalues --    0.34919   0.35275   0.35582   0.35851   0.36306
  Beta virt. eigenvalues --    0.36433   0.36917   0.37137   0.37474   0.37957
  Beta virt. eigenvalues --    0.38388   0.38881   0.39184   0.39449   0.39912
  Beta virt. eigenvalues --    0.40577   0.40805   0.41361   0.41570   0.41721
  Beta virt. eigenvalues --    0.42478   0.43088   0.43197   0.43548   0.44073
  Beta virt. eigenvalues --    0.44390   0.45101   0.45344   0.45634   0.45785
  Beta virt. eigenvalues --    0.46311   0.46364   0.46954   0.47101   0.47414
  Beta virt. eigenvalues --    0.47552   0.48019   0.48771   0.49563   0.50004
  Beta virt. eigenvalues --    0.50348   0.50539   0.51090   0.51521   0.51945
  Beta virt. eigenvalues --    0.52311   0.53270   0.53409   0.54219   0.54746
  Beta virt. eigenvalues --    0.55203   0.55806   0.56060   0.56247   0.56462
  Beta virt. eigenvalues --    0.56670   0.56994   0.57263   0.58071   0.58262
  Beta virt. eigenvalues --    0.58437   0.59076   0.59212   0.59662   0.60400
  Beta virt. eigenvalues --    0.60575   0.61285   0.61838   0.62405   0.62470
  Beta virt. eigenvalues --    0.62816   0.63156   0.63481   0.63811   0.64366
  Beta virt. eigenvalues --    0.64927   0.65119   0.65523   0.65653   0.65875
  Beta virt. eigenvalues --    0.66444   0.67015   0.67240   0.67531   0.67590
  Beta virt. eigenvalues --    0.67951   0.68446   0.68898   0.69192   0.69774
  Beta virt. eigenvalues --    0.69937   0.70484   0.70846   0.71135   0.71478
  Beta virt. eigenvalues --    0.71578   0.72446   0.72812   0.73167   0.73630
  Beta virt. eigenvalues --    0.73930   0.74049   0.74194   0.74795   0.74891
  Beta virt. eigenvalues --    0.75355   0.75491   0.75829   0.76377   0.76473
  Beta virt. eigenvalues --    0.76915   0.77109   0.77384   0.77787   0.78173
  Beta virt. eigenvalues --    0.78338   0.78769   0.79115   0.79411   0.79770
  Beta virt. eigenvalues --    0.80698   0.80933   0.81718   0.82034   0.82450
  Beta virt. eigenvalues --    0.82806   0.83650   0.84081   0.84902   0.85353
  Beta virt. eigenvalues --    0.86388   0.87844   0.88381   0.88895   0.89450
  Beta virt. eigenvalues --    0.89891   0.90257   0.90910   0.91130   0.91932
  Beta virt. eigenvalues --    0.92406   0.92910   0.92962   0.93881   0.94484
  Beta virt. eigenvalues --    0.94873   0.95456   0.95839   0.96429   0.96550
  Beta virt. eigenvalues --    0.96701   0.97407   0.98127   0.98339   0.98511
  Beta virt. eigenvalues --    0.99003   0.99841   1.00332   1.00754   1.01224
  Beta virt. eigenvalues --    1.02052   1.02113   1.02457   1.03178   1.03276
  Beta virt. eigenvalues --    1.03740   1.04206   1.04800   1.05424   1.05895
  Beta virt. eigenvalues --    1.06123   1.06371   1.06675   1.06684   1.07522
  Beta virt. eigenvalues --    1.08039   1.08151   1.08444   1.08822   1.09104
  Beta virt. eigenvalues --    1.09426   1.10239   1.10796   1.11476   1.12537
  Beta virt. eigenvalues --    1.12722   1.13165   1.13543   1.14669   1.15316
  Beta virt. eigenvalues --    1.15476   1.16395   1.16957   1.17756   1.18234
  Beta virt. eigenvalues --    1.18467   1.19736   1.19895   1.21274   1.21716
  Beta virt. eigenvalues --    1.21959   1.22633   1.22846   1.24920   1.25596
  Beta virt. eigenvalues --    1.26104   1.26755   1.27122   1.27720   1.28759
  Beta virt. eigenvalues --    1.28913   1.29317   1.29759   1.31078   1.31316
  Beta virt. eigenvalues --    1.32217   1.33113   1.34322   1.34688   1.35015
  Beta virt. eigenvalues --    1.35877   1.37681   1.38101   1.38567   1.40301
  Beta virt. eigenvalues --    1.40781   1.42035   1.42528   1.43045   1.43713
  Beta virt. eigenvalues --    1.44306   1.44363   1.44610   1.44784   1.45176
  Beta virt. eigenvalues --    1.45836   1.46083   1.46774   1.47077   1.47275
  Beta virt. eigenvalues --    1.47893   1.48279   1.48892   1.49958   1.50249
  Beta virt. eigenvalues --    1.51254   1.51438   1.53382   1.53523   1.54112
  Beta virt. eigenvalues --    1.54372   1.54957   1.55380   1.55688   1.55903
  Beta virt. eigenvalues --    1.56238   1.56594   1.56665   1.56899   1.57848
  Beta virt. eigenvalues --    1.59389   1.60288   1.61164   1.61880   1.62251
  Beta virt. eigenvalues --    1.62388   1.63500   1.63696   1.64255   1.64880
  Beta virt. eigenvalues --    1.65445   1.66244   1.66336   1.67582   1.67937
  Beta virt. eigenvalues --    1.68357   1.69321   1.70068   1.70567   1.70749
  Beta virt. eigenvalues --    1.71420   1.71709   1.72468   1.72654   1.73045
  Beta virt. eigenvalues --    1.73908   1.74729   1.75553   1.76198   1.76870
  Beta virt. eigenvalues --    1.77312   1.77676   1.77877   1.78824   1.79309
  Beta virt. eigenvalues --    1.79741   1.80936   1.81185   1.83147   1.83312
  Beta virt. eigenvalues --    1.83742   1.84796   1.85256   1.86293   1.86852
  Beta virt. eigenvalues --    1.87465   1.88025   1.88466   1.88741   1.90630
  Beta virt. eigenvalues --    1.91046   1.91692   1.91757   1.92094   1.92479
  Beta virt. eigenvalues --    1.93659   1.93899   1.94165   1.95276   1.96586
  Beta virt. eigenvalues --    1.97034   1.97665   1.98241   1.99049   2.00138
  Beta virt. eigenvalues --    2.00480   2.01473   2.02002   2.02540   2.03268
  Beta virt. eigenvalues --    2.03626   2.03902   2.04393   2.05353   2.05607
  Beta virt. eigenvalues --    2.06317   2.06975   2.07678   2.08198   2.08409
  Beta virt. eigenvalues --    2.09669   2.10217   2.11192   2.11948   2.12531
  Beta virt. eigenvalues --    2.12738   2.13198   2.14014   2.14906   2.16007
  Beta virt. eigenvalues --    2.16175   2.16651   2.17820   2.19269   2.19634
  Beta virt. eigenvalues --    2.20064   2.21114   2.21511   2.22431   2.23172
  Beta virt. eigenvalues --    2.23425   2.24338   2.27336   2.28194   2.29168
  Beta virt. eigenvalues --    2.30974   2.34217   2.34687   2.35174   2.36972
  Beta virt. eigenvalues --    2.38722   2.39629   2.41565   2.41963   2.42380
  Beta virt. eigenvalues --    2.43836   2.44318   2.44859   2.45532   2.47359
  Beta virt. eigenvalues --    2.47729   2.48194   2.49019   2.49576   2.50456
  Beta virt. eigenvalues --    2.51267   2.51572   2.52868   2.53037   2.53635
  Beta virt. eigenvalues --    2.53841   2.54312   2.54922   2.55196   2.55312
  Beta virt. eigenvalues --    2.57691   2.58513   2.59124   2.60224   2.60588
  Beta virt. eigenvalues --    2.61702   2.63475   2.64521   2.66591   2.66775
  Beta virt. eigenvalues --    2.67527   2.68263   2.68778   2.69000   2.69816
  Beta virt. eigenvalues --    2.70251   2.70657   2.71954   2.72459   2.73246
  Beta virt. eigenvalues --    2.73317   2.74286   2.74548   2.75094   2.75195
  Beta virt. eigenvalues --    2.78145   2.78357   2.78827   2.79292   2.79648
  Beta virt. eigenvalues --    2.82389   2.83934   2.84750   2.85050   2.85760
  Beta virt. eigenvalues --    2.86212   2.86436   2.87217   2.87590   2.88269
  Beta virt. eigenvalues --    2.88632   2.89777   2.90345   2.91501   2.92176
  Beta virt. eigenvalues --    2.92536   2.93616   2.94272   2.94844   2.95353
  Beta virt. eigenvalues --    2.96310   2.96703   2.97697   2.97904   2.99499
  Beta virt. eigenvalues --    3.00756   3.01560   3.04125   3.04813   3.05135
  Beta virt. eigenvalues --    3.07299   3.08090   3.09337   3.09432   3.10852
  Beta virt. eigenvalues --    3.11051   3.13046   3.14976   3.15989   3.16475
  Beta virt. eigenvalues --    3.16981   3.17479   3.19257   3.20846   3.22425
  Beta virt. eigenvalues --    3.22738   3.24012   3.24386   3.25564   3.27135
  Beta virt. eigenvalues --    3.29750   3.30647   3.31598   3.32686   3.32964
  Beta virt. eigenvalues --    3.35532   3.35971   3.36468   3.36723   3.37921
  Beta virt. eigenvalues --    3.39183   3.39720   3.41919   3.42570   3.44520
  Beta virt. eigenvalues --    3.45598   3.46416   3.47171   3.47764   3.49833
  Beta virt. eigenvalues --    3.51217   3.52433   3.55217   3.57329   3.59937
  Beta virt. eigenvalues --    3.61430   3.62506   3.63907   3.67057   3.67584
  Beta virt. eigenvalues --    3.68708   3.71555   3.72416   3.73371   3.73976
  Beta virt. eigenvalues --    3.76875   3.77288   3.77569   3.83044   3.84578
  Beta virt. eigenvalues --    3.85373   3.86747   3.87685   3.92291   3.94630
  Beta virt. eigenvalues --    3.95013   3.95067   3.96188   3.99013   4.03519
  Beta virt. eigenvalues --    4.04107   4.06815   4.08753   4.11192   4.14721
  Beta virt. eigenvalues --    4.15336   4.20300   4.24303   4.27505   4.28685
  Beta virt. eigenvalues --    4.37807   4.39737   4.42767   4.52450   4.67673
  Beta virt. eigenvalues --    4.87066   4.88841   4.89361   4.92212   5.02562
  Beta virt. eigenvalues --    5.03275   5.06133   5.07700   5.07900   5.11072
  Beta virt. eigenvalues --    5.13392   5.14939   5.26607   5.28565   5.30683
  Beta virt. eigenvalues --    5.33459   5.43133   5.44438   5.76871   5.77770
  Beta virt. eigenvalues --    5.80782   5.81964   5.83631   5.87335   8.02632
  Beta virt. eigenvalues --    8.06733  17.29417  17.36340  17.50143  17.52937
  Beta virt. eigenvalues --   17.58897  17.63455  23.51581  23.58102  23.73498
  Beta virt. eigenvalues --   23.81386  23.83669  23.84944  23.86372  23.89322
  Beta virt. eigenvalues --   23.89388  23.90512  23.91170  23.91416  23.92430
  Beta virt. eigenvalues --   23.95526  23.95969  23.97780  23.98606  24.01061
  Beta virt. eigenvalues --   24.02671  24.03199  24.03320  24.08174  24.13246
  Beta virt. eigenvalues --   24.15063  24.16551  24.17220  35.57647  35.60588
  Beta virt. eigenvalues --   49.96745  49.97977  50.04255  50.06021  50.08009
  Beta virt. eigenvalues --   50.09526 189.19914 189.25101
          Condensed to atoms (all electrons):
          Atomic-Atomic Spin Densities.
 Mulliken charges and spin densities:
               1          2
     1  C    0.386114   0.029587
     2  C   -0.123831   0.123185
     3  C    0.111874  -0.039459
     4  C    0.205280   0.102136
     5  C    0.290860   0.029810
     6  C   -0.525743   0.046185
     7  C    0.185605  -0.030663
[...]
    10   Atom       -0.007600     -0.021692      0.009546
    11   Atom        0.000772     -0.017381      0.005756
    12   Atom       -0.005107     -0.039367      0.013855
    13   Atom       -0.005133     -0.020692      0.008038
    14   Atom       -0.002517     -0.022684      0.008559
    15   Atom       -0.002242      0.001823     -0.000315
    16   Atom        0.003406     -0.000322      0.000015
    17   Atom        0.002855      0.000016     -0.000056
    18   Atom        0.001118      0.018945     -0.006944
    19   Atom        0.000618      0.014979     -0.005581
    20   Atom       -0.007287     -0.082138      0.031439
    21   Atom       -0.006848     -0.085549      0.029839
    22   Atom       -0.007935     -0.090515      0.029309
    23   Atom       -0.022532     -0.144676      0.067250
    24   Atom        0.000059      0.000596     -0.000193
    25   Atom       -0.000084      0.000370     -0.001007
    26   Atom       -0.000470      0.000239      0.000456
    27   Atom       -0.001359      0.000550     -0.000399
    28   Atom       -0.000085      0.000548     -0.000223
    29   Atom       -0.000642      0.000894     -0.000745
    30   Atom       -0.000971     -0.000135      0.000165
    31   Atom       -0.000519      0.000227     -0.000302
    32   Atom       -0.000276      0.001528      0.001933
    33   Atom        0.004259      0.001445      0.000194
    34   Atom       -0.022794     -0.015703      0.013503
    35   Atom        0.001562     -0.000612      0.000164
    36   Atom        0.000315      0.001572      0.001126
    37   Atom       -0.001632      0.000957     -0.002753
    38   Atom        0.001523      0.000064      0.000599
    39   Atom        0.000107     -0.000393      0.000556
    40   Atom        0.000243      0.000467      0.000174
    41   Atom       -0.000143     -0.000168     -0.000863
    42   Atom        0.001230      0.000057      0.000049
    43   Atom        0.000163      0.000301      0.000119
    44   Atom        0.000181      0.000573      0.000186
    45   Atom        0.000321      0.000473      0.000279
    46   Atom        0.000090     -0.000126      0.000262
    47   Atom        0.000799     -0.000893     -0.001316
    48   Atom        0.000015     -0.000045     -0.001093
    49   Atom        0.000016     -0.000112      0.000004
    50   Atom       -0.000046     -0.000339      0.000049
    51   Atom        0.000053      0.000011     -0.000050
    52   Atom        0.000010     -0.000256     -0.000010
    53   Atom       -0.000055     -0.000360      0.000056
    54   Atom       -0.000080     -0.000252      0.000056
 --------------------------------------------------------


 ---------------------------------------------------------------------------------
              Anisotropic Spin Dipole Couplings in Principal Axis System
 ---------------------------------------------------------------------------------

       Atom             a.u.   MegaHertz   Gauss  10(-4) cm-1        Axes

              Baa    -0.0339    -4.549    -1.623    -1.517  0.9668 -0.1721  0.1890
     1 C(13)  Bbb    -0.0229    -3.068    -1.095    -1.023  0.1823  0.9825 -0.0374
              Bcc     0.0568     7.616     2.718     2.541 -0.1792  0.0706  0.9813
 
              Baa    -0.0747   -10.029    -3.579    -3.345  0.5643  0.8244  0.0437
     2 C(13)  Bbb    -0.0693    -9.301    -3.319    -3.103  0.8055 -0.5614  0.1895
              Bcc     0.1441    19.330     6.898     6.448 -0.1807  0.0718  0.9809
 
              Baa    -0.0390    -5.237    -1.869    -1.747 -0.1827  0.0713  0.9806
     3 C(13)  Bbb     0.0175     2.354     0.840     0.785 -0.4865  0.8601 -0.1532
              Bcc     0.0215     2.882     1.028     0.961  0.8543  0.5051  0.1225
 
              Baa    -0.0689    -9.245    -3.299    -3.084  0.9811 -0.0301  0.1911
     4 C(13)  Bbb    -0.0636    -8.531    -3.044    -2.846  0.0436  0.9968 -0.0667
              Bcc     0.1325    17.777     6.343     5.930 -0.1885  0.0737  0.9793
 
              Baa    -0.0339    -4.550    -1.623    -1.518  0.3614  0.9323  0.0091
     5 C(13)  Bbb    -0.0235    -3.147    -1.123    -1.050  0.9126 -0.3558  0.2014
              Bcc     0.0574     7.697     2.746     2.567 -0.1910  0.0645  0.9795
 
              Baa    -0.0364    -4.882    -1.742    -1.628  0.6183  0.7840  0.0556
     6 C(13)  Bbb    -0.0282    -3.778    -1.348    -1.260  0.7688 -0.6180  0.1647
              Bcc     0.0645     8.660     3.090     2.889 -0.1635  0.0591  0.9848
 
              Baa    -0.0396    -5.309    -1.894    -1.771 -0.1821  0.0844  0.9797
     7 C(13)  Bbb     0.0175     2.346     0.837     0.782 -0.3933  0.9069 -0.1512
              Bcc     0.0221     2.963     1.057     0.988  0.9012  0.4128  0.1320
 
              Baa    -0.0774   -10.383    -3.705    -3.463  0.9827 -0.0041  0.1852
     8 C(13)  Bbb    -0.0720    -9.657    -3.446    -3.221  0.0295  0.9904 -0.1349
              Bcc     0.1493    20.040     7.151     6.685 -0.1829  0.1380  0.9734
 
              Baa    -0.0492    -6.603    -2.356    -2.203  0.9909  0.0868  0.1028
     9 C(13)  Bbb    -0.0427    -5.735    -2.046    -1.913 -0.0741  0.9898 -0.1213
              Bcc     0.0919    12.338     4.403     4.116 -0.1123  0.1125  0.9873
 
              Baa    -0.0315    -4.221    -1.506    -1.408  0.4035  0.9150  0.0003
    10 C(13)  Bbb    -0.0199    -2.669    -0.952    -0.890  0.8550 -0.3772  0.3560
              Bcc     0.0513     6.890     2.458     2.298 -0.3259  0.1435  0.9345
 
              Baa    -0.0324    -4.345    -1.550    -1.449  0.9583 -0.1888  0.2147
    11 C(13)  Bbb    -0.0219    -2.943    -1.050    -0.982  0.1997  0.9794 -0.0300
              Bcc     0.0543     7.288     2.601     2.431 -0.2046  0.0716  0.9762
 
              Baa    -0.0711    -9.546    -3.406    -3.184  0.5115  0.8583  0.0414
    12 C(13)  Bbb    -0.0660    -8.852    -3.159    -2.953  0.8362 -0.5083  0.2059
              Bcc     0.1371    18.398     6.565     6.137 -0.1977  0.0707  0.9777
 
              Baa    -0.0408    -5.477    -1.954    -1.827  0.6304  0.7738  0.0617
    13 C(13)  Bbb    -0.0337    -4.520    -1.613    -1.508  0.7519 -0.6284  0.1992
              Bcc     0.0745     9.997     3.567     3.335 -0.1929  0.0792  0.9780
 
              Baa    -0.0437    -5.866    -2.093    -1.957  0.9757  0.1308  0.1759
    14 C(13)  Bbb    -0.0370    -4.966    -1.772    -1.656 -0.1148  0.9885 -0.0982
              Bcc     0.0807    10.832     3.865     3.613 -0.1867  0.0756  0.9795
 
              Baa    -0.0045    -2.380    -0.849    -0.794  0.2115  0.9768 -0.0345
    15 H(1)   Bbb    -0.0026    -1.374    -0.490    -0.458 -0.1846  0.0746  0.9800
              Bcc     0.0070     3.754     1.340     1.252  0.9598 -0.2009  0.1961
 
              Baa    -0.0041    -2.174    -0.776    -0.725  0.9186 -0.3273  0.2214
    16 H(1)   Bbb    -0.0026    -1.412    -0.504    -0.471 -0.2051  0.0840  0.9751
              Bcc     0.0067     3.585     1.279     1.196  0.3377  0.9412 -0.0101
 
              Baa    -0.0035    -1.854    -0.661    -0.618  0.9502 -0.3080 -0.0485
    17 H(1)   Bbb    -0.0028    -1.491    -0.532    -0.497  0.0477 -0.0099  0.9988
              Bcc     0.0063     3.345     1.194     1.116  0.3081  0.9514 -0.0053
 
              Baa    -0.0548    -2.113    -0.754    -0.705 -0.2379  0.0855  0.9675
    18 N(14)  Bbb     0.0268     1.034     0.369     0.345  0.7422  0.6586  0.1243
              Bcc     0.0280     1.079     0.385     0.360 -0.6265  0.7477 -0.2202
 
              Baa    -0.0553    -2.134    -0.761    -0.712 -0.1845  0.0673  0.9805
    19 N(14)  Bbb     0.0271     1.046     0.373     0.349  0.8869  0.4413  0.1365
              Bcc     0.0282     1.088     0.388     0.363 -0.4235  0.8949 -0.1411
 
              Baa    -0.1591    11.515     4.109     3.841  0.7540  0.6506  0.0907
    20 O(17)  Bbb    -0.1559    11.282     4.026     3.763 -0.6325  0.7563 -0.1668
              Bcc     0.3150   -22.797    -8.134    -7.604 -0.1772  0.0684  0.9818
 
              Baa    -0.1543    11.166     3.984     3.725  0.9397  0.3012  0.1620
    21 O(17)  Bbb    -0.1507    10.907     3.892     3.638 -0.2841  0.9512 -0.1205
              Bcc     0.3051   -22.074    -7.876    -7.363 -0.1904  0.0672  0.9794
 
              Baa    -0.1480    10.707     3.821     3.571  0.7847  0.6067  0.1271
    22 O(17)  Bbb    -0.1448    10.475     3.738     3.494 -0.5827  0.7919 -0.1827
              Bcc     0.2927   -21.182    -7.558    -7.066 -0.2115  0.0693  0.9749
 
              Baa    -0.1694    12.258     4.374     4.089  0.9299  0.2587  0.2613
    23 O(17)  Bbb    -0.1664    12.038     4.295     4.015 -0.2064  0.9554 -0.2114
              Bcc     0.3358   -24.295    -8.669    -8.104 -0.3044  0.1426  0.9418
 
              Baa    -0.0020    -0.264    -0.094    -0.088 -0.2173  0.0655  0.9739
    24 C(13)  Bbb     0.0009     0.114     0.041     0.038  0.9735 -0.0586  0.2211
              Bcc     0.0011     0.150     0.053     0.050  0.0716  0.9961 -0.0510
 
              Baa    -0.0015    -0.804    -0.287    -0.268 -0.2320  0.3312  0.9146
    25 H(1)   Bbb    -0.0001    -0.062    -0.022    -0.021  0.9655  0.1929  0.1750
              Bcc     0.0016     0.866     0.309     0.289 -0.1185  0.9236 -0.3646
 
              Baa    -0.0015    -0.818    -0.292    -0.273 -0.2560 -0.1706  0.9515
    26 H(1)   Bbb    -0.0003    -0.179    -0.064    -0.060  0.9469  0.1538  0.2824
              Bcc     0.0019     0.997     0.356     0.333 -0.1945  0.9733  0.1221
 
              Baa    -0.0016    -0.878    -0.313    -0.293 -0.1969  0.0510  0.9791
    27 H(1)   Bbb    -0.0006    -0.316    -0.113    -0.105  0.6899  0.7167  0.1015
              Bcc     0.0022     1.193     0.426     0.398  0.6966 -0.6955  0.1763
 
              Baa    -0.0020    -0.263    -0.094    -0.088 -0.1889  0.0687  0.9796
    28 C(13)  Bbb     0.0009     0.114     0.041     0.038  0.7689  0.6308  0.1041
              Bcc     0.0011     0.149     0.053     0.050 -0.6108  0.7729 -0.1720
 
              Baa    -0.0015    -0.784    -0.280    -0.261 -0.3822  0.2039  0.9013
    29 H(1)   Bbb    -0.0002    -0.089    -0.032    -0.030  0.7003  0.7003  0.1386
              Bcc     0.0016     0.873     0.311     0.291 -0.6029  0.6842 -0.4104
 
              Baa    -0.0015    -0.792    -0.283    -0.264  0.0348 -0.0590  0.9976
    30 H(1)   Bbb    -0.0002    -0.125    -0.045    -0.042  0.7090  0.7050  0.0170
              Bcc     0.0017     0.918     0.327     0.306 -0.7043  0.7067  0.0664
 
              Baa    -0.0017    -0.893    -0.318    -0.298 -0.1839  0.0517  0.9816
    31 H(1)   Bbb    -0.0007    -0.356    -0.127    -0.119  0.9665  0.1917  0.1710
              Bcc     0.0023     1.249     0.446     0.417 -0.1793  0.9801 -0.0852
 
              Baa    -0.0045    -0.609    -0.217    -0.203  0.1295  0.7383 -0.6619
    32 C(13)  Bbb    -0.0006    -0.084    -0.030    -0.028 -0.1670  0.6743  0.7194
              Bcc     0.0052     0.693     0.247     0.231  0.9774  0.0173  0.2106
 
              Baa    -0.0044    -0.591    -0.211    -0.197 -0.4255  0.2237  0.8769
    33 C(13)  Bbb    -0.0020    -0.264    -0.094    -0.088  0.6576 -0.5893  0.4694
              Bcc     0.0064     0.855     0.305     0.285  0.6217  0.7764  0.1036
 
              Baa    -0.0185    -0.759    -0.271    -0.253  0.5309  0.0338  0.8467
    34 S(33)  Bbb    -0.0184    -0.755    -0.269    -0.252  0.4908  0.8023 -0.3398
              Bcc     0.0369     1.515     0.540     0.505  0.6908 -0.5960 -0.4094
 
              Baa    -0.0025    -0.337    -0.120    -0.113 -0.3483  0.9261 -0.1449
    35 C(13)  Bbb    -0.0000    -0.006    -0.002    -0.002  0.1407  0.2045  0.9687
              Bcc     0.0026     0.344     0.123     0.115  0.9268  0.3170 -0.2015
 
              Baa    -0.0017    -0.900    -0.321    -0.300 -0.4781 -0.5370  0.6950
    36 H(1)   Bbb    -0.0005    -0.285    -0.102    -0.095 -0.6268  0.7629  0.1582
              Bcc     0.0022     1.185     0.423     0.395  0.6152  0.3600  0.7013
 
              Baa    -0.0031    -0.414    -0.148    -0.138 -0.0462  0.4507  0.8915
    37 C(13)  Bbb    -0.0013    -0.170    -0.061    -0.057  0.9319  0.3409 -0.1241
              Bcc     0.0044     0.585     0.209     0.195 -0.3598  0.8250 -0.4357
 
              Baa    -0.0017     0.123     0.044     0.041 -0.4250  0.8118 -0.4005
    38 O(17)  Bbb    -0.0004     0.028     0.010     0.009 -0.3161  0.2814  0.9060
              Bcc     0.0021    -0.151    -0.054    -0.050  0.8482  0.5117  0.1370
 
              Baa    -0.0015    -0.196    -0.070    -0.065 -0.0929  0.8966 -0.4329
    39 C(13)  Bbb    -0.0000    -0.005    -0.002    -0.002  0.2054  0.4427  0.8728
              Bcc     0.0015     0.201     0.072     0.067  0.9743 -0.0079 -0.2253
 
              Baa    -0.0004    -0.053    -0.019    -0.018 -0.5755 -0.0102  0.8178
    40 C(13)  Bbb    -0.0003    -0.040    -0.014    -0.013 -0.2664  0.9477 -0.1756
              Bcc     0.0007     0.093     0.033     0.031  0.7732  0.3189  0.5481
 
              Baa    -0.0013    -0.169    -0.060    -0.056  0.2324  0.3218  0.9178
    41 C(13)  Bbb    -0.0004    -0.047    -0.017    -0.016  0.9718 -0.0373 -0.2330
              Bcc     0.0016     0.216     0.077     0.072 -0.0407  0.9461 -0.3214
 
              Baa    -0.0009    -0.035    -0.013    -0.012 -0.1510  0.0963  0.9838
    42 S(33)  Bbb    -0.0008    -0.033    -0.012    -0.011  0.7298 -0.6605  0.1766
              Bcc     0.0017     0.068     0.024     0.023  0.6668  0.7446  0.0294
 
              Baa    -0.0003    -0.134    -0.048    -0.045 -0.5023 -0.1809  0.8455
    43 H(1)   Bbb    -0.0002    -0.114    -0.041    -0.038 -0.3603  0.9327 -0.0145
              Bcc     0.0005     0.248     0.089     0.083  0.7860  0.3120  0.5337
 
              Baa    -0.0004    -0.232    -0.083    -0.078 -0.6413 -0.1555  0.7514
    44 H(1)   Bbb    -0.0003    -0.184    -0.066    -0.061 -0.2797  0.9592 -0.0402
              Bcc     0.0008     0.417     0.149     0.139  0.7145  0.2360  0.6587
 
              Baa    -0.0004    -0.234    -0.084    -0.078 -0.4913 -0.2429  0.8364
    45 H(1)   Bbb    -0.0003    -0.172    -0.061    -0.057 -0.4932  0.8691 -0.0373
              Bcc     0.0008     0.406     0.145     0.135  0.7179  0.4309  0.5468
 
              Baa    -0.0007    -0.098    -0.035    -0.033 -0.0944  0.9351 -0.3415
    46 C(13)  Bbb     0.0001     0.013     0.005     0.004  0.1647  0.3530  0.9210
              Bcc     0.0006     0.085     0.030     0.029  0.9818  0.0307 -0.1873
 
              Baa    -0.0016     0.119     0.042     0.040  0.4580  0.2644  0.8487
    47 O(17)  Bbb    -0.0007     0.049     0.018     0.016  0.8039 -0.5307 -0.2685
              Bcc     0.0023    -0.168    -0.060    -0.056  0.3794  0.8053 -0.4556
 
              Baa    -0.0011    -0.146    -0.052    -0.049  0.0701  0.4377  0.8964
    48 C(13)  Bbb    -0.0006    -0.080    -0.029    -0.027  0.9974 -0.0440 -0.0565
              Bcc     0.0017     0.226     0.081     0.075  0.0147  0.8980 -0.4397
 
              Baa    -0.0002    -0.083    -0.030    -0.028 -0.1305  0.9291 -0.3462
    49 H(1)   Bbb    -0.0001    -0.070    -0.025    -0.024  0.2450  0.3685  0.8968
              Bcc     0.0003     0.154     0.055     0.051  0.9607  0.0322 -0.2757
 
              Baa    -0.0003    -0.035    -0.012    -0.012 -0.1216  0.9450 -0.3037
    50 C(13)  Bbb    -0.0002    -0.030    -0.011    -0.010  0.5937  0.3144  0.7407
              Bcc     0.0005     0.065     0.023     0.022  0.7954 -0.0902 -0.5993
 
              Baa    -0.0002    -0.123    -0.044    -0.041 -0.0616  0.4694  0.8808
    51 H(1)   Bbb    -0.0001    -0.058    -0.021    -0.019 -0.0941  0.8759 -0.4733
              Bcc     0.0003     0.181     0.065     0.060  0.9937  0.1120  0.0098
 
              Baa    -0.0002    -0.099    -0.035    -0.033  0.3106  0.8233  0.4752
    52 H(1)   Bbb    -0.0002    -0.095    -0.034    -0.032  0.4873 -0.5671  0.6640
              Bcc     0.0004     0.194     0.069     0.065  0.8161  0.0253 -0.5773
 
              Baa    -0.0003    -0.136    -0.048    -0.045 -0.1719  0.9236 -0.3426
    53 H(1)   Bbb    -0.0002    -0.127    -0.045    -0.042  0.6443  0.3684  0.6702
              Bcc     0.0005     0.263     0.094     0.088  0.7452 -0.1055 -0.6584
 
              Baa    -0.0002    -0.109    -0.039    -0.036  0.4175 -0.3868  0.8222
    54 H(1)   Bbb    -0.0002    -0.098    -0.035    -0.033  0.3390  0.9059  0.2540
              Bcc     0.0004     0.206     0.074     0.069  0.8431 -0.1727 -0.5093
 

 ---------------------------------------------------------------------------------

 Unable to Open any file for archive entry.
 1\1\GINC-CX3-6-8\FOpt\UB3LYP\6-311+G(d,p)\C26H18N2O6S2(1-,2)\NS5018\28
 -Oct-2021\0\\# opt=modredundant b3lyp/6-311+g(d,p) scrf=(pcm, solvent=
 water)\\NDI_110.pdb\\-1,2\C,-2.5048297188,-2.9020243403,-0.5780585603\
 C,-2.2351367269,-1.4953543032,-0.3131782667\C,-3.3016504279,-0.6001101
 642,-0.0724668521\C,-4.6432268378,-1.0497524799,-0.0879321986\C,-4.944
 5878634,-2.4520489339,-0.3536093867\C,-0.9154448272,-1.0207906214,-0.3
 188569947\C,-3.0078916002,0.7778345315,0.1953842708\C,-1.658008777,1.2
 309948522,0.2175492054\C,-0.6044602533,0.3117712456,-0.0733697247\C,-1
 .3942772759,2.6180856561,0.5978902913\C,-3.8464682289,3.066518728,0.72
 84596171\C,-4.0903060592,1.6599256222,0.4415658701\C,-5.4170701519,1.1
 854038511,0.4154203501\C,-5.6916946802,-0.1418034062,0.1559027994\H,-6
 .7114390357,-0.5039073054,0.1389737775\H,-6.2176842781,1.8880753507,0.
 6066621448\H,-0.1185752309,-1.7179367867,-0.5428779802\N,-2.5060458046
 ,3.4611473533,0.7830931181\N,-3.8477482453,-3.3011152864,-0.5780034614
 \O,-1.621834184,-3.7410031519,-0.7974718453\O,-6.0973411715,-2.9000294
 993,-0.3840179506\O,-4.7538995219,3.8851585918,0.926645629\O,-0.268794
 7322,3.0937895865,0.7735029909\C,-2.2042023708,4.8587754787,1.11485562
 26\H,-1.7315922571,4.9220852283,2.0966561258\H,-1.5201218879,5.2724481
 139,0.3749262135\H,-3.1375979223,5.4115694999,1.118499264\C,-4.1030141
 856,-4.7221581225,-0.8413760926\H,-3.7485348234,-4.9881132126,-1.83815
 61327\H,-3.5746244096,-5.3348085819,-0.1107121988\H,-5.1721343148,-4.8
 907395857,-0.769849846\C,0.8290718008,0.6772459454,-0.1623629972\C,1.8
 325995005,0.342635652,0.7050002911\S,1.458333478,1.5056891166,-1.56259
 58846\C,3.1160857481,0.7809365635,0.2677820217\H,1.6514442695,-0.18146
 35402,1.632340886\C,3.1124853891,1.4384681196,-0.9524028074\O,4.291823
 2837,0.602128198,0.9343428039\C,4.2344345575,1.9896213321,-1.675579707
 5\C,4.2534656962,-0.0784146464,2.1925401468\C,4.2320358882,2.637772373
 3,-2.903203656\S,5.8860499397,1.9200520894,-1.063136799\H,5.2821180093
 ,-0.1083167625,2.5462793629\H,3.6348486714,0.4639126705,2.9129169823\H
 ,3.8777447047,-1.0986536994,2.0753199655\C,5.5182823979,3.0694842567,-
 3.3416822152\O,3.0575885087,2.8071032729,-3.5743050569\C,6.502270964,2
 .7504376477,-2.4500369769\H,5.7039800731,3.5892540774,-4.2703747882\C,
 3.0952332537,3.5002905794,-4.8252988937\H,7.559468328,2.9538139167,-2.
 525434045\H,3.7173055043,2.9679268566,-5.5502526324\H,2.0671848901,3.5
 292152431,-5.1807779512\H,3.4663829479,4.5209728293,-4.697127848\\Vers
 ion=ES64L-G16RevC.01\State=2-A\HF=-2359.50378\S2=0.757721\S2-1=0.\S2A=
 0.75005\RMSD=3.488e-09\RMSF=1.308e-04\Dipole=5.2976609,1.2811138,-1.14
 60978\Quadrupole=-31.670503,-7.6725356,39.3430386,-5.7643357,4.9689475
 ,-17.8315766\PG=C01 [X(C26H18N2O6S2)]\\@
 The archive entry for this job was punched.


 THE DIFFICULTY IN SCIENCE IS OFTEN NOT SO MUCH HOW
 TO MAKE A DISCOVERY BUT RATHER TO KNOW ONE HAS MADE IT.

                                                   -- J. D. BERNAL
 Job cpu time:       4 days 14 hours 18 minutes 32.1 seconds.
 Elapsed time:       0 days  6 hours 57 minutes 22.9 seconds.
 File lengths (MBytes):  RWF=   1195 Int=      0 D2E=      0 Chk=    103 Scr=      1
 Normal termination of Gaussian 16 at Thu Oct 28 08:48:47 2021.
