 Entering Gaussian System, Link 0=g16
 Input=NDI_-30.gjf
 Output=NDI_-30.log
 Initial command:
 /apps/gaussian/g16-c01-avx/g16/l1.exe "/tmp/pbs.4768648[145].pbs/Gau-666988.inp" -scrdir="/tmp/pbs.4768648[145].pbs/"
 Entering Link 1 = /apps/gaussian/g16-c01-avx/g16/l1.exe PID=    666994.
  
 Copyright (c) 1988-2019, Gaussian, Inc.  All Rights Reserved.
  
 This is part of the Gaussian(R) 16 program.  It is based on
 the Gaussian(R) 09 system (copyright 2009, Gaussian, Inc.),
 the Gaussian(R) 03 system (copyright 2003, Gaussian, Inc.),
 the Gaussian(R) 98 system (copyright 1998, Gaussian, Inc.),
 the Gaussian(R) 94 system (copyright 1995, Gaussian, Inc.),
 the Gaussian 92(TM) system (copyright 1992, Gaussian, Inc.),
 the Gaussian 90(TM) system (copyright 1990, Gaussian, Inc.),
 the Gaussian 88(TM) system (copyright 1988, Gaussian, Inc.),
 the Gaussian 86(TM) system (copyright 1986, Carnegie Mellon
 University), and the Gaussian 82(TM) system (copyright 1983,
 Carnegie Mellon University). Gaussian is a federally registered
 trademark of Gaussian, Inc.
  
 This software contains proprietary and confidential information,
 including trade secrets, belonging to Gaussian, Inc.
  
 This software is provided under written license and may be
 used, copied, transmitted, or stored only in accord with that
 written license.
  
 The following legend is applicable only to US Government
 contracts under FAR:
  
                    RESTRICTED RIGHTS LEGEND
  
 Use, reproduction and disclosure by the US Government is
 subject to restrictions as set forth in subparagraphs (a)
 and (c) of the Commercial Computer Software - Restricted
 Rights clause in FAR 52.227-19.
  
 Gaussian, Inc.
 340 Quinnipiac St., Bldg. 40, Wallingford CT 06492
  
  
 ---------------------------------------------------------------
 Warning -- This program may not be used in any manner that
 competes with the business of Gaussian, Inc. or will provide
 assistance to any competitor of Gaussian, Inc.  The licensee
 of this program is prohibited from giving any competitor of
 Gaussian, Inc. access to this program.  By using this program,
 the user acknowledges that Gaussian, Inc. is engaged in the
 business of creating and licensing software in the field of
 computational chemistry and represents and warrants to the
 licensee that it is not a competitor of Gaussian, Inc. and that
 it will not use this program in any manner prohibited above.
 ---------------------------------------------------------------
  

 Cite this work as:
 Gaussian 16, Revision C.01,
 M. J. Frisch, G. W. Trucks, H. B. Schlegel, G. E. Scuseria, 
 M. A. Robb, J. R. Cheeseman, G. Scalmani, V. Barone, 
 G. A. Petersson, H. Nakatsuji, X. Li, M. Caricato, A. V. Marenich, 
 J. Bloino, B. G. Janesko, R. Gomperts, B. Mennucci, H. P. Hratchian, 
 J. V. Ortiz, A. F. Izmaylov, J. L. Sonnenberg, D. Williams-Young, 
 F. Ding, F. Lipparini, F. Egidi, J. Goings, B. Peng, A. Petrone, 
 T. Henderson, D. Ranasinghe, V. G. Zakrzewski, J. Gao, N. Rega, 
 G. Zheng, W. Liang, M. Hada, M. Ehara, K. Toyota, R. Fukuda, 
 J. Hasegawa, M. Ishida, T. Nakajima, Y. Honda, O. Kitao, H. Nakai, 
 T. Vreven, K. Throssell, J. A. Montgomery, Jr., J. E. Peralta, 
 F. Ogliaro, M. J. Bearpark, J. J. Heyd, E. N. Brothers, K. N. Kudin, 
 V. N. Staroverov, T. A. Keith, R. Kobayashi, J. Normand, 
 K. Raghavachari, A. P. Rendell, J. C. Burant, S. S. Iyengar, 
 J. Tomasi, M. Cossi, J. M. Millam, M. Klene, C. Adamo, R. Cammi, 
 J. W. Ochterski, R. L. Martin, K. Morokuma, O. Farkas, 
 J. B. Foresman, and D. J. Fox, Gaussian, Inc., Wallingford CT, 2019.
 
 ******************************************
 Gaussian 16:  ES64L-G16RevC.01  3-Jul-2019
                28-Oct-2021 
 ******************************************
 %mem=100GB
 %nprocshared=16
 Will use up to   16 processors via shared memory.
 ---------------------------------------------------------------
 # opt=modredundant b3lyp/6-311+g(d,p) scrf=(pcm, solvent=water)
 ---------------------------------------------------------------
 1/18=120,19=15,26=3,38=1/1,3;
 2/9=110,12=2,17=6,18=5,40=1/2;
 3/5=4,6=6,7=111,11=2,25=1,30=1,70=2201,71=1,72=1,74=-5/1,2,3;
 4//1;
 5/5=2,38=5,53=1/2;
 6/7=2,8=2,9=2,10=2,28=1/1;
 7//1,2,3,16;
 1/18=20,19=15,26=3/3(2);
 2/9=110/2;
 99//99;
 2/9=110/2;
 3/5=4,6=6,7=111,11=2,25=1,30=1,70=2205,71=1,72=1,74=-5/1,2,3;
 4/5=5,16=3,69=1/1;
 5/5=2,38=5,53=1/2;
 7//1,2,3,16;
 1/18=20,19=15,26=3/3(-5);
 2/9=110/2;
 6/7=2,8=2,9=2,10=2,19=2,28=1/1;
 99/9=1/99;
 -----------
 NDI_-30.pdb
 -----------
 Symbolic Z-matrix:
 Charge = -1 Multiplicity = 2
 C                    -2.563    -2.994    -0.409 
 C                    -2.257    -1.551    -0.224 
 C                    -3.301    -0.607    -0.083 
 C                    -4.65     -1.024    -0.115 
 C                    -4.992    -2.459    -0.304 
 C                    -0.949    -1.137    -0.215 
 C                    -2.962     0.764     0.102 
 C                    -1.595     1.188     0.123 
 C                    -0.561     0.232    -0.072 
 C                    -1.328     2.616     0.446 
 C                    -3.777     3.115     0.508 
 C                    -4.035     1.679     0.268 
 C                    -5.356     1.252     0.23 
 C                    -5.672    -0.098     0.036 
 H                    -6.699    -0.442     0.008 
 H                    -6.133     1.997     0.361 
 H                    -0.19     -1.895    -0.369 
 N                    -2.432     3.476     0.608 
 N                    -3.916    -3.353    -0.438 
 O                    -1.695    -3.847    -0.532 
 O                    -6.149    -2.85     -0.34 
 O                    -4.676     3.938     0.629 
 O                    -0.212     3.097     0.596 
 C                    -2.111     4.875     0.912 
 H                    -1.54      4.931     1.84 
 H                    -1.5       5.299     0.111 
 H                    -3.05      5.414     1.003 
 C                    -4.206    -4.779    -0.625 
 H                    -3.759    -5.126    -1.559 
 H                    -3.775    -5.355     0.196 
 H                    -5.286    -4.897    -0.649 
 C                     0.876     0.482    -0.178 
 C                     1.57      1.577    -0.655 
 S                     1.997    -0.825     0.206 
 C                     2.964     1.38     -0.707 
 H                     1.085     2.494    -0.948 
 C                     3.388     0.123    -0.264 
 O                     3.892     2.277    -1.136 
 C                     4.735    -0.361    -0.157 
 C                     3.442     3.593    -1.444 
 C                     5.155    -1.622     0.263 
 S                     6.143     0.617    -0.561 
 H                     4.336     4.168    -1.684 
 H                     2.769     3.589    -2.31 
 H                     2.929     4.047    -0.588 
 C                     6.568    -1.797     0.261 
 O                     4.225    -2.543     0.629 
 C                     7.221    -0.671    -0.161 
 H                     7.072    -2.708     0.554 
 C                     4.682    -3.833     1.02 
 H                     8.289    -0.529    -0.261 
 H                     5.322    -3.776     1.909 
 H                     3.788    -4.41      1.255 
 H                     5.23     -4.324     0.207 
 
 The following ModRedundant input section has been read:
 D       8       9      32      33 F                                           
 

 GradGradGradGradGradGradGradGradGradGradGradGradGradGradGradGradGradGrad
 Berny optimization.
 Initialization pass.
                           ----------------------------
                           !    Initial Parameters    !
                           ! (Angstroms and Degrees)  !
 --------------------------                            --------------------------
 ! Name  Definition              Value          Derivative Info.                !
 --------------------------------------------------------------------------------
 ! R1    R(1,2)                  1.4866         estimate D2E/DX2                !
 ! R2    R(1,19)                 1.4001         estimate D2E/DX2                !
 ! R3    R(1,20)                 1.2232         estimate D2E/DX2                !
 ! R4    R(2,3)                  1.4146         estimate D2E/DX2                !
 ! R5    R(2,6)                  1.372          estimate D2E/DX2                !
 ! R6    R(3,4)                  1.4123         estimate D2E/DX2                !
 ! R7    R(3,7)                  1.4244         estimate D2E/DX2                !
 ! R8    R(4,5)                  1.4872         estimate D2E/DX2                !
 ! R9    R(4,14)                 1.3874         estimate D2E/DX2                !
 ! R10   R(5,19)                 1.4053         estimate D2E/DX2                !
 ! R11   R(5,21)                 1.2218         estimate D2E/DX2                !
 ! R12   R(6,9)                  1.4301         estimate D2E/DX2                !
 ! R13   R(6,17)                 1.0837         estimate D2E/DX2                !
 ! R14   R(7,8)                  1.4314         estimate D2E/DX2                !
 ! R15   R(7,12)                 1.4199         estimate D2E/DX2                !
 ! R16   R(8,9)                  1.4217         estimate D2E/DX2                !
 ! R17   R(8,10)                 1.4882         estimate D2E/DX2                !
 ! R18   R(9,32)                 1.4624         estimate D2E/DX2                !
 ! R19   R(10,18)                1.4088         estimate D2E/DX2                !
 ! R20   R(10,23)                1.2245         estimate D2E/DX2                !
 ! R21   R(11,12)                1.4786         estimate D2E/DX2                !
 ! R22   R(11,18)                1.3962         estimate D2E/DX2                !
 ! R23   R(11,22)                1.2248         estimate D2E/DX2                !
 ! R24   R(12,13)                1.3888         estimate D2E/DX2                !
 ! R25   R(13,14)                1.4            estimate D2E/DX2                !
 ! R26   R(13,16)                1.0844         estimate D2E/DX2                !
 ! R27   R(14,15)                1.0834         estimate D2E/DX2                !
 ! R28   R(18,24)                1.4672         estimate D2E/DX2                !
 ! R29   R(19,28)                1.4672         estimate D2E/DX2                !
 ! R30   R(24,25)                1.091          estimate D2E/DX2                !
 ! R31   R(24,26)                1.093          estimate D2E/DX2                !
 ! R32   R(24,27)                1.0865         estimate D2E/DX2                !
 ! R33   R(28,29)                1.0921         estimate D2E/DX2                !
 ! R34   R(28,30)                1.0916         estimate D2E/DX2                !
 ! R35   R(28,31)                1.0867         estimate D2E/DX2                !
 ! R36   R(32,33)                1.3814         estimate D2E/DX2                !
 ! R37   R(32,34)                1.7642         estimate D2E/DX2                !
 ! R38   R(33,35)                1.4088         estimate D2E/DX2                !
 ! R39   R(33,36)                1.0779         estimate D2E/DX2                !
 ! R40   R(34,37)                1.7477         estimate D2E/DX2                !
 ! R41   R(35,37)                1.3986         estimate D2E/DX2                !
 ! R42   R(35,38)                1.3601         estimate D2E/DX2                !
 ! R43   R(37,39)                1.4353         estimate D2E/DX2                !
 ! R44   R(38,40)                1.4245         estimate D2E/DX2                !
 ! R45   R(39,41)                1.3939         estimate D2E/DX2                !
 ! R46   R(39,42)                1.7613         estimate D2E/DX2                !
 ! R47   R(40,43)                1.0897         estimate D2E/DX2                !
 ! R48   R(40,44)                1.0968         estimate D2E/DX2                !
 ! R49   R(40,45)                1.0964         estimate D2E/DX2                !
 ! R50   R(41,46)                1.4238         estimate D2E/DX2                !
 ! R51   R(41,47)                1.3591         estimate D2E/DX2                !
 ! R52   R(42,48)                1.7266         estimate D2E/DX2                !
 ! R53   R(46,48)                1.3683         estimate D2E/DX2                !
 ! R54   R(46,49)                1.0816         estimate D2E/DX2                !
 ! R55   R(47,50)                1.4233         estimate D2E/DX2                !
 ! R56   R(48,51)                1.082          estimate D2E/DX2                !
 ! R57   R(50,52)                1.0969         estimate D2E/DX2                !
 ! R58   R(50,53)                1.0897         estimate D2E/DX2                !
 ! R59   R(50,54)                1.0965         estimate D2E/DX2                !
 ! A1    A(2,1,19)             116.767          estimate D2E/DX2                !
 ! A2    A(2,1,20)             122.9113         estimate D2E/DX2                !
 ! A3    A(19,1,20)            120.3217         estimate D2E/DX2                !
 ! A4    A(1,2,3)              120.5473         estimate D2E/DX2                !
 ! A5    A(1,2,6)              119.3369         estimate D2E/DX2                !
 ! A6    A(3,2,6)              120.1056         estimate D2E/DX2                !
 ! A7    A(2,3,4)              120.3743         estimate D2E/DX2                !
 ! A8    A(2,3,7)              118.662          estimate D2E/DX2                !
 ! A9    A(4,3,7)              120.9617         estimate D2E/DX2                !
 ! A10   A(3,4,5)              120.4909         estimate D2E/DX2                !
 ! A11   A(3,4,14)             120.2702         estimate D2E/DX2                !
 ! A12   A(5,4,14)             119.2382         estimate D2E/DX2                !
 ! A13   A(4,5,19)             116.7341         estimate D2E/DX2                !
 ! A14   A(4,5,21)             122.024          estimate D2E/DX2                !
 ! A15   A(19,5,21)            121.2418         estimate D2E/DX2                !
 ! A16   A(2,6,9)              123.2421         estimate D2E/DX2                !
 ! A17   A(2,6,17)             117.1119         estimate D2E/DX2                !
 ! A18   A(9,6,17)             119.589          estimate D2E/DX2                !
 ! A19   A(3,7,8)              120.9519         estimate D2E/DX2                !
 ! A20   A(3,7,12)             117.1037         estimate D2E/DX2                !
 ! A21   A(8,7,12)             121.944          estimate D2E/DX2                !
 ! A22   A(7,8,9)              119.5639         estimate D2E/DX2                !
 ! A23   A(7,8,10)             117.3064         estimate D2E/DX2                !
 ! A24   A(9,8,10)             122.9922         estimate D2E/DX2                !
 ! A25   A(6,9,8)              117.3944         estimate D2E/DX2                !
 ! A26   A(6,9,32)             115.0236         estimate D2E/DX2                !
 ! A27   A(8,9,32)             127.5648         estimate D2E/DX2                !
 ! A28   A(8,10,18)            118.042          estimate D2E/DX2                !
 ! A29   A(8,10,23)            124.5436         estimate D2E/DX2                !
 ! A30   A(18,10,23)           117.4097         estimate D2E/DX2                !
 ! A31   A(12,11,18)           115.5202         estimate D2E/DX2                !
 ! A32   A(12,11,22)           122.7205         estimate D2E/DX2                !
 ! A33   A(18,11,22)           121.7534         estimate D2E/DX2                !
 ! A34   A(7,12,11)            120.8614         estimate D2E/DX2                !
 ! A35   A(7,12,13)            121.162          estimate D2E/DX2                !
 ! A36   A(11,12,13)           117.9699         estimate D2E/DX2                !
 ! A37   A(12,13,14)           120.9948         estimate D2E/DX2                !
 ! A38   A(12,13,16)           117.8401         estimate D2E/DX2                !
 ! A39   A(14,13,16)           121.1642         estimate D2E/DX2                !
 ! A40   A(4,14,13)            119.5003         estimate D2E/DX2                !
 ! A41   A(4,14,15)            118.9169         estimate D2E/DX2                !
 ! A42   A(13,14,15)           121.5811         estimate D2E/DX2                !
 ! A43   A(10,18,11)           126.0753         estimate D2E/DX2                !
 ! A44   A(10,18,24)           115.7508         estimate D2E/DX2                !
 ! A45   A(11,18,24)           118.1737         estimate D2E/DX2                !
 ! A46   A(1,19,5)             125.0856         estimate D2E/DX2                !
 ! A47   A(1,19,28)            116.2868         estimate D2E/DX2                !
 ! A48   A(5,19,28)            118.6276         estimate D2E/DX2                !
 ! A49   A(18,24,25)           109.8574         estimate D2E/DX2                !
 ! A50   A(18,24,26)           109.8979         estimate D2E/DX2                !
 ! A51   A(18,24,27)           107.5355         estimate D2E/DX2                !
 ! A52   A(25,24,26)           108.1108         estimate D2E/DX2                !
 ! A53   A(25,24,27)           110.8301         estimate D2E/DX2                !
 ! A54   A(26,24,27)           110.6124         estimate D2E/DX2                !
 ! A55   A(19,28,29)           109.6906         estimate D2E/DX2                !
 ! A56   A(19,28,30)           109.8136         estimate D2E/DX2                !
 ! A57   A(19,28,31)           107.7461         estimate D2E/DX2                !
 ! A58   A(29,28,30)           108.2991         estimate D2E/DX2                !
 ! A59   A(29,28,31)           110.6959         estimate D2E/DX2                !
 ! A60   A(30,28,31)           110.5924         estimate D2E/DX2                !
 ! A61   A(9,32,33)            130.859          estimate D2E/DX2                !
 ! A62   A(9,32,34)            118.8127         estimate D2E/DX2                !
 ! A63   A(33,32,34)           110.0715         estimate D2E/DX2                !
 ! A64   A(32,33,35)           113.5168         estimate D2E/DX2                !
 ! A65   A(32,33,36)           122.8302         estimate D2E/DX2                !
 ! A66   A(35,33,36)           123.6504         estimate D2E/DX2                !
 ! A67   A(32,34,37)            92.5987         estimate D2E/DX2                !
 ! A68   A(33,35,37)           114.4538         estimate D2E/DX2                !
 ! A69   A(33,35,38)           126.481          estimate D2E/DX2                !
 ! A70   A(37,35,38)           119.0652         estimate D2E/DX2                !
 ! A71   A(34,37,35)           109.354          estimate D2E/DX2                !
 ! A72   A(34,37,39)           122.9544         estimate D2E/DX2                !
 ! A73   A(35,37,39)           127.6757         estimate D2E/DX2                !
 ! A74   A(35,38,40)           117.5123         estimate D2E/DX2                !
 ! A75   A(37,39,41)           127.6113         estimate D2E/DX2                !
 ! A76   A(37,39,42)           123.085          estimate D2E/DX2                !
 ! A77   A(41,39,42)           109.3037         estimate D2E/DX2                !
 ! A78   A(38,40,43)           106.0173         estimate D2E/DX2                !
 ! A79   A(38,40,44)           111.1736         estimate D2E/DX2                !
 ! A80   A(38,40,45)           111.1956         estimate D2E/DX2                !
 ! A81   A(43,40,44)           109.3562         estimate D2E/DX2                !
 ! A82   A(43,40,45)           109.7142         estimate D2E/DX2                !
 ! A83   A(44,40,45)           109.3218         estimate D2E/DX2                !
 ! A84   A(39,41,46)           114.1923         estimate D2E/DX2                !
 ! A85   A(39,41,47)           119.2103         estimate D2E/DX2                !
 ! A86   A(46,41,47)           126.5971         estimate D2E/DX2                !
 ! A87   A(39,42,48)            91.8196         estimate D2E/DX2                !
 ! A88   A(41,46,48)           111.894          estimate D2E/DX2                !
 ! A89   A(41,46,49)           124.4442         estimate D2E/DX2                !
 ! A90   A(48,46,49)           123.6616         estimate D2E/DX2                !
 ! A91   A(41,47,50)           117.9343         estimate D2E/DX2                !
 ! A92   A(42,48,46)           112.7904         estimate D2E/DX2                !
 ! A93   A(42,48,51)           119.7987         estimate D2E/DX2                !
 ! A94   A(46,48,51)           127.4108         estimate D2E/DX2                !
 ! A95   A(47,50,52)           111.2777         estimate D2E/DX2                !
 ! A96   A(47,50,53)           106.006          estimate D2E/DX2                !
 ! A97   A(47,50,54)           111.2614         estimate D2E/DX2                !
 ! A98   A(52,50,53)           109.3551         estimate D2E/DX2                !
 ! A99   A(52,50,54)           109.4259         estimate D2E/DX2                !
 ! A100  A(53,50,54)           109.4395         estimate D2E/DX2                !
 ! D1    D(19,1,2,3)             0.1578         estimate D2E/DX2                !
 ! D2    D(19,1,2,6)          -178.6792         estimate D2E/DX2                !
 ! D3    D(20,1,2,3)          -179.8231         estimate D2E/DX2                !
 ! D4    D(20,1,2,6)             1.3399         estimate D2E/DX2                !
 ! D5    D(2,1,19,5)            -0.124          estimate D2E/DX2                !
 ! D6    D(2,1,19,28)          179.8267         estimate D2E/DX2                !
 ! D7    D(20,1,19,5)          179.8575         estimate D2E/DX2                !
 ! D8    D(20,1,19,28)          -0.1919         estimate D2E/DX2                !
 ! D9    D(1,2,3,4)              0.0571         estimate D2E/DX2                !
 ! D10   D(1,2,3,7)            179.5453         estimate D2E/DX2                !
 ! D11   D(6,2,3,4)            178.8851         estimate D2E/DX2                !
 ! D12   D(6,2,3,7)             -1.6266         estimate D2E/DX2                !
 ! D13   D(1,2,6,9)            178.625          estimate D2E/DX2                !
 ! D14   D(1,2,6,17)             1.3881         estimate D2E/DX2                !
 ! D15   D(3,2,6,9)             -0.2173         estimate D2E/DX2                !
 ! D16   D(3,2,6,17)          -177.4541         estimate D2E/DX2                !
 ! D17   D(2,3,4,5)             -0.3074         estimate D2E/DX2                !
 ! D18   D(2,3,4,14)           179.3968         estimate D2E/DX2                !
 ! D19   D(7,3,4,5)           -179.7837         estimate D2E/DX2                !
 ! D20   D(7,3,4,14)            -0.0795         estimate D2E/DX2                !
 ! D21   D(2,3,7,8)              1.0523         estimate D2E/DX2                !
 ! D22   D(2,3,7,12)          -178.712          estimate D2E/DX2                !
 ! D23   D(4,3,7,8)           -179.4626         estimate D2E/DX2                !
 ! D24   D(4,3,7,12)             0.7731         estimate D2E/DX2                !
 ! D25   D(3,4,5,19)             0.3343         estimate D2E/DX2                !
 ! D26   D(3,4,5,21)          -179.7799         estimate D2E/DX2                !
 ! D27   D(14,4,5,19)         -179.3729         estimate D2E/DX2                !
 ! D28   D(14,4,5,21)            0.5129         estimate D2E/DX2                !
 ! D29   D(3,4,14,13)           -0.4559         estimate D2E/DX2                !
 ! D30   D(3,4,14,15)         -179.9937         estimate D2E/DX2                !
 ! D31   D(5,4,14,13)          179.252          estimate D2E/DX2                !
 ! D32   D(5,4,14,15)           -0.2858         estimate D2E/DX2                !
 ! D33   D(4,5,19,1)            -0.1141         estimate D2E/DX2                !
 ! D34   D(4,5,19,28)          179.9364         estimate D2E/DX2                !
 ! D35   D(21,5,19,1)          179.9992         estimate D2E/DX2                !
 ! D36   D(21,5,19,28)           0.0496         estimate D2E/DX2                !
 ! D37   D(2,6,9,8)              2.5984         estimate D2E/DX2                !
 ! D38   D(2,6,9,32)          -176.0103         estimate D2E/DX2                !
 ! D39   D(17,6,9,8)           179.77           estimate D2E/DX2                !
 ! D40   D(17,6,9,32)            1.1613         estimate D2E/DX2                !
 ! D41   D(3,7,8,9)              1.3551         estimate D2E/DX2                !
 ! D42   D(3,7,8,10)          -174.5099         estimate D2E/DX2                !
 ! D43   D(12,7,8,9)          -178.8921         estimate D2E/DX2                !
 ! D44   D(12,7,8,10)            5.2428         estimate D2E/DX2                !
 ! D45   D(3,7,12,11)          178.0768         estimate D2E/DX2                !
 ! D46   D(3,7,12,13)           -0.9621         estimate D2E/DX2                !
 ! D47   D(8,7,12,11)           -1.685          estimate D2E/DX2                !
 ! D48   D(8,7,12,13)          179.2761         estimate D2E/DX2                !
 ! D49   D(7,8,9,6)             -3.0809         estimate D2E/DX2                !
 ! D50   D(7,8,9,32)           175.3285         estimate D2E/DX2                !
 ! D51   D(10,8,9,6)           172.5381         estimate D2E/DX2                !
 ! D52   D(10,8,9,32)           -9.0525         estimate D2E/DX2                !
 ! D53   D(7,8,10,18)           -4.7549         estimate D2E/DX2                !
 ! D54   D(7,8,10,23)          174.4235         estimate D2E/DX2                !
 ! D55   D(9,8,10,18)          179.5335         estimate D2E/DX2                !
 ! D56   D(9,8,10,23)           -1.2882         estimate D2E/DX2                !
 ! D57   D(6,9,32,33)          148.4276         estimate D2E/DX2                !
 ! D58   D(6,9,32,34)          -25.1132         estimate D2E/DX2                !
 ! D59   D(8,9,32,33)          -30.0139         Frozen                          !
 ! D60   D(8,9,32,34)          156.4453         estimate D2E/DX2                !
 ! D61   D(8,10,18,11)           0.7189         estimate D2E/DX2                !
 ! D62   D(8,10,18,24)        -179.4089         estimate D2E/DX2                !
 ! D63   D(23,10,18,11)       -178.5188         estimate D2E/DX2                !
 ! D64   D(23,10,18,24)          1.3535         estimate D2E/DX2                !
 ! D65   D(18,11,12,7)          -2.3856         estimate D2E/DX2                !
 ! D66   D(18,11,12,13)        176.6833         estimate D2E/DX2                !
 ! D67   D(22,11,12,7)         178.4862         estimate D2E/DX2                !
 ! D68   D(22,11,12,13)         -2.445          estimate D2E/DX2                !
 ! D69   D(12,11,18,10)          2.8444         estimate D2E/DX2                !
 ! D70   D(12,11,18,24)       -177.0251         estimate D2E/DX2                !
 ! D71   D(22,11,18,10)       -178.0181         estimate D2E/DX2                !
 ! D72   D(22,11,18,24)          2.1124         estimate D2E/DX2                !
 ! D73   D(7,12,13,14)           0.461          estimate D2E/DX2                !
 ! D74   D(7,12,13,16)        -179.8781         estimate D2E/DX2                !
 ! D75   D(11,12,13,14)       -178.6049         estimate D2E/DX2                !
 ! D76   D(11,12,13,16)          1.056          estimate D2E/DX2                !
 ! D77   D(12,13,14,4)           0.2708         estimate D2E/DX2                !
 ! D78   D(12,13,14,15)        179.7958         estimate D2E/DX2                !
 ! D79   D(16,13,14,4)        -179.3788         estimate D2E/DX2                !
 ! D80   D(16,13,14,15)          0.1463         estimate D2E/DX2                !
 ! D81   D(10,18,24,25)        -59.609          estimate D2E/DX2                !
 ! D82   D(10,18,24,26)         59.2209         estimate D2E/DX2                !
 ! D83   D(10,18,24,27)        179.6858         estimate D2E/DX2                !
 ! D84   D(11,18,24,25)        120.2739         estimate D2E/DX2                !
 ! D85   D(11,18,24,26)       -120.8962         estimate D2E/DX2                !
 ! D86   D(11,18,24,27)         -0.4313         estimate D2E/DX2                !
 ! D87   D(1,19,28,29)         -58.1407         estimate D2E/DX2                !
 ! D88   D(1,19,28,30)          60.7668         estimate D2E/DX2                !
 ! D89   D(1,19,28,31)        -178.7139         estimate D2E/DX2                !
 ! D90   D(5,19,28,29)         121.8132         estimate D2E/DX2                !
 ! D91   D(5,19,28,30)        -119.2792         estimate D2E/DX2                !
 ! D92   D(5,19,28,31)           1.2401         estimate D2E/DX2                !
 ! D93   D(9,32,33,35)        -174.2491         estimate D2E/DX2                !
 ! D94   D(9,32,33,36)           6.3238         estimate D2E/DX2                !
 ! D95   D(34,32,33,35)         -0.273          estimate D2E/DX2                !
 ! D96   D(34,32,33,36)       -179.7001         estimate D2E/DX2                !
 ! D97   D(9,32,34,37)         175.3565         estimate D2E/DX2                !
 ! D98   D(33,32,34,37)          0.5538         estimate D2E/DX2                !
 ! D99   D(32,33,35,37)         -0.2597         estimate D2E/DX2                !
 ! D100  D(32,33,35,38)        179.7249         estimate D2E/DX2                !
 ! D101  D(36,33,35,37)        179.162          estimate D2E/DX2                !
 ! D102  D(36,33,35,38)         -0.8534         estimate D2E/DX2                !
 ! D103  D(32,34,37,35)         -0.6849         estimate D2E/DX2                !
 ! D104  D(32,34,37,39)        177.9638         estimate D2E/DX2                !
 ! D105  D(33,35,37,34)          0.6653         estimate D2E/DX2                !
 ! D106  D(33,35,37,39)       -177.902          estimate D2E/DX2                !
 ! D107  D(38,35,37,34)       -179.3205         estimate D2E/DX2                !
 ! D108  D(38,35,37,39)          2.1121         estimate D2E/DX2                !
 ! D109  D(33,35,38,40)          6.5798         estimate D2E/DX2                !
 ! D110  D(37,35,38,40)       -173.4363         estimate D2E/DX2                !
 ! D111  D(34,37,39,41)          2.8111         estimate D2E/DX2                !
 ! D112  D(34,37,39,42)       -177.1524         estimate D2E/DX2                !
 ! D113  D(35,37,39,41)       -178.7998         estimate D2E/DX2                !
 ! D114  D(35,37,39,42)          1.2367         estimate D2E/DX2                !
 ! D115  D(35,38,40,43)        175.4395         estimate D2E/DX2                !
 ! D116  D(35,38,40,44)        -65.8107         estimate D2E/DX2                !
 ! D117  D(35,38,40,45)         56.2474         estimate D2E/DX2                !
 ! D118  D(37,39,41,46)       -179.9317         estimate D2E/DX2                !
 ! D119  D(37,39,41,47)         -0.1234         estimate D2E/DX2                !
 ! D120  D(42,39,41,46)          0.0359         estimate D2E/DX2                !
 ! D121  D(42,39,41,47)        179.8442         estimate D2E/DX2                !
 ! D122  D(37,39,42,48)        179.9599         estimate D2E/DX2                !
 ! D123  D(41,39,42,48)         -0.0095         estimate D2E/DX2                !
 ! D124  D(39,41,46,48)         -0.0517         estimate D2E/DX2                !
 ! D125  D(39,41,46,49)       -179.9091         estimate D2E/DX2                !
 ! D126  D(47,41,46,48)       -179.8433         estimate D2E/DX2                !
 ! D127  D(47,41,46,49)          0.2993         estimate D2E/DX2                !
 ! D128  D(39,41,47,50)        178.3947         estimate D2E/DX2                !
 ! D129  D(46,41,47,50)         -1.8231         estimate D2E/DX2                !
 ! D130  D(39,42,48,46)         -0.0197         estimate D2E/DX2                !
 ! D131  D(39,42,48,51)        179.8589         estimate D2E/DX2                !
 ! D132  D(41,46,48,42)          0.0432         estimate D2E/DX2                !
 ! D133  D(41,46,48,51)       -179.8242         estimate D2E/DX2                !
 ! D134  D(49,46,48,42)        179.9019         estimate D2E/DX2                !
 ! D135  D(49,46,48,51)          0.0345         estimate D2E/DX2                !
 ! D136  D(41,47,50,52)         62.0225         estimate D2E/DX2                !
 ! D137  D(41,47,50,53)       -179.1794         estimate D2E/DX2                !
 ! D138  D(41,47,50,54)        -60.2886         estimate D2E/DX2                !
 --------------------------------------------------------------------------------
 Trust Radius=3.00D-01 FncErr=1.00D-07 GrdErr=1.00D-06 EigMax=2.50D+02 EigMin=1.00D-04
 Number of steps in this run=    307 maximum allowed number of steps=    324.
 GradGradGradGradGradGradGradGradGradGradGradGradGradGradGradGradGradGrad

 Stoichiometry    C26H18N2O6S2(1-,2)
 Framework group  C1[X(C26H18N2O6S2)]
 Deg. of freedom   156
 Full point group                 C1      NOp   1
 Largest Abelian subgroup         C1      NOp   1
 Largest concise Abelian subgroup C1      NOp   1
                         Standard orientation:                         
 ---------------------------------------------------------------------
 Center     Atomic      Atomic             Coordinates (Angstroms)
 Number     Number       Type             X           Y           Z
 ---------------------------------------------------------------------
      1          6           0        2.528124   -3.011578    0.319836
      2          6           0        2.238159   -1.561359    0.168524
      3          6           0        3.292756   -0.623382    0.073768
      4          6           0        4.637255   -1.053323    0.120559
      5          6           0        4.963201   -2.495981    0.276788
      6          6           0        0.934173   -1.135415    0.145435
      7          6           0        2.969185    0.755166   -0.080159
      8          6           0        1.606534    1.191967   -0.116114
      9          6           0        0.560769    0.240435    0.032477
     10          6           0        1.358149    2.630596   -0.405001
     11          6           0        3.812067    3.108855   -0.405671
     12          6           0        4.053020    1.664571   -0.200131
     13          6           0        5.369321    1.224725   -0.148162
     14          6           0        5.669900   -0.132868    0.014888
     15          1           0        6.693175   -0.486808    0.053419
     16          1           0        6.155083    1.965934   -0.243568
     17          1           0        0.165843   -1.890408    0.263822
     18          7           0        2.472428    3.484634   -0.521879
     19          7           0        3.877176   -3.383497    0.365295
     20          8           0        1.650618   -3.859698    0.402518
     21          8           0        6.115886   -2.898299    0.324555
     22          8           0        4.720270    3.926652   -0.486572
     23          8           0        0.249467    3.125608   -0.563440
     24          6           0        2.169434    4.894247   -0.793622
     25          1           0        1.617314    4.980670   -1.730667
     26          1           0        1.546427    5.301810    0.006661
     27          1           0        3.114613    5.426981   -0.851543
     28          6           0        4.151250   -4.816632    0.518761
     29          1           0        3.683002   -5.184861    1.434035
     30          1           0        3.731593   -5.366133   -0.325937
     31          1           0        5.229521   -4.945037    0.560517
     32          6           0       -0.875852    0.500486    0.117322
     33          6           0       -1.569732    1.588347    0.610557
     34         16           0       -2.000196   -0.785349   -0.324068
     35          6           0       -2.966117    1.402662    0.630022
     36          1           0       -1.082781    2.492591    0.937946
     37          6           0       -3.392032    0.162088    0.144589
     38          8           0       -3.894689    2.296034    1.065308
     39          6           0       -4.740749   -0.306577   -0.001805
     40          6           0       -3.439618    3.599024    1.417940
     41          6           0       -5.163152   -1.551812   -0.464283
     42         16           0       -6.148026    0.672798    0.401380
     43          1           0       -4.333226    4.175365    1.656172
     44          1           0       -2.783856    3.565342    2.296429
     45          1           0       -2.906007    4.071486    0.584837
     46          6           0       -6.577361   -1.713972   -0.494557
     47          8           0       -4.234026   -2.470908   -0.837224
     48          6           0       -7.228903   -0.593999   -0.054645
     49          1           0       -7.083256   -2.612047   -0.822151
     50          6           0       -4.694240   -3.745584   -1.272232
     51          1           0       -8.297413   -0.445089    0.028421
     52          1           0       -5.316104   -3.658598   -2.171615
     53          1           0       -3.800747   -4.324062   -1.505523
     54          1           0       -5.262312   -4.253543   -0.483800
 ---------------------------------------------------------------------
 Rotational constants (GHZ):           0.1531452           0.0595661           0.0440652
 Standard basis: 6-311+G(d,p) (5D, 7F)
 There are   952 symmetry adapted cartesian basis functions of A   symmetry.
 There are   916 symmetry adapted basis functions of A   symmetry.
   916 basis functions,  1468 primitive gaussians,   952 cartesian basis functions
   135 alpha electrons      134 beta electrons
       nuclear repulsion energy      4085.9361873904 Hartrees.
 NAtoms=   54 NActive=   54 NUniq=   54 SFac= 1.00D+00 NAtFMM=   60 NAOKFM=F Big=F
 Integral buffers will be    131072 words long.
 Raffenetti 2 integral format.
 Two-electron integral symmetry is turned on.
 ------------------------------------------------------------------------------
 Polarizable Continuum Model (PCM)
 =================================
 Model                : PCM.
 Atomic radii         : UFF (Universal Force Field).
 Polarization charges : Total charges.
 Charge compensation  : None.
 Solution method      : On-the-fly selection.
 Cavity type          : Scaled VdW (van der Waals Surface) (Alpha=1.100).
 Cavity algorithm     : GePol (No added spheres)
                        Default sphere list used, NSphG=   54.
                        Lebedev-Laikov grids with approx.  5.0 points / Ang**2.
                        Smoothing algorithm: York/Karplus (Gamma=1.0000).
                        Polarization charges: spherical gaussians, with
                                              point-specific exponents (IZeta= 3).
                        Self-potential: point-specific (ISelfS= 7).
                        Self-field    : sphere-specific E.n sum rule (ISelfD= 2).
 1st derivatives      : Analytical E(r).r(x)/FMM algorithm (CHGder, D1EAlg=3).
                        Cavity 1st derivative terms included.
 Solvent              : Water, Eps=  78.355300 Eps(inf)=   1.777849
 ------------------------------------------------------------------------------
 One-electron integrals computed using PRISM.
 NBasis=   916 RedAO= T EigKep=  1.56D-06  NBF=   916
 NBsUse=   901 1.00D-06 EigRej=  8.90D-07 NBFU=   901
 ExpMin= 4.05D-02 ExpMax= 9.34D+04 ExpMxC= 3.17D+03 IAcc=3 IRadAn=         5 AccDes= 0.00D+00
 Harris functional with IExCor=  402 and IRadAn=       5 diagonalized for initial guess.
 HarFok:  IExCor=  402 AccDes= 0.00D+00 IRadAn=         5 IDoV= 1 UseB2=F ITyADJ=14
 ICtDFT=  3500011 ScaDFX=  1.000000  1.000000  1.000000  1.000000
 FoFCou: FMM=F IPFlag=           0 FMFlag=      100000 FMFlg1=           0
         NFxFlg=           0 DoJE=T BraDBF=F KetDBF=T FulRan=T
         wScrn=  0.000000 ICntrl=       500 IOpCl=  0 I1Cent=   200000004 NGrid=           0
         NMat0=    1 NMatS0=      1 NMatT0=    0 NMatD0=    1 NMtDS0=    0 NMtDT0=    0
 Petite list used in FoFCou.
 Initial guess <Sx>= 0.0000 <Sy>= 0.0000 <Sz>= 0.5000 <S**2>= 0.7500 S= 0.5000
 Requested convergence on RMS density matrix=1.00D-08 within 128 cycles.
 Requested convergence on MAX density matrix=1.00D-06.
 Requested convergence on             energy=1.00D-06.
 No special actions if energy rises.
 Inv3:  Mode=1 IEnd=    52643163.
 Iteration    1 A*A^-1 deviation from unit magnitude is 9.33D-15 for   4181.
 Iteration    1 A*A^-1 deviation from orthogonality  is 3.24D-15 for   4152   3278.
 Iteration    1 A^-1*A deviation from unit magnitude is 8.99D-15 for   4181.
 Iteration    1 A^-1*A deviation from orthogonality  is 1.41D-14 for   4161   4054.
 Restarting incremental Fock formation.
 Error on total polarization charges =  0.02649
 SCF Done:  E(UB3LYP) =  -2359.49533427     A.U. after   22 cycles
            NFock= 22  Conv=0.59D-08     -V/T= 2.0031
 <Sx>= 0.0000 <Sy>= 0.0000 <Sz>= 0.5000 <S**2>= 0.7586 S= 0.5043
 <L.S>=  0.00000000000    
 Annihilation of the first spin contaminant:
 S**2 before annihilation     0.7586,   after     0.7501

 **********************************************************************

            Population analysis using the SCF Density.

 **********************************************************************

 Orbital symmetries:
 Alpha Orbitals:
       Occupied  (A) (A) (A) (A) (A) (A) (A) (A) (A) (A) (A) (A)
                 (A) (A) (A) (A) (A) (A) (A) (A) (A) (A) (A) (A)
                 (A) (A) (A) (A) (A) (A) (A) (A) (A) (A) (A) (A)
                 (A) (A) (A) (A) (A) (A) (A) (A) (A) (A) (A) (A)
                 (A) (A) (A) (A) (A) (A) (A) (A) (A) (A) (A) (A)
                 (A) (A) (A) (A) (A) (A) (A) (A) (A) (A) (A) (A)
                 (A) (A) (A) (A) (A) (A) (A) (A) (A) (A) (A) (A)
                 (A) (A) (A) (A) (A) (A) (A) (A) (A) (A) (A) (A)
                 (A) (A) (A) (A) (A) (A) (A) (A) (A) (A) (A) (A)
                 (A) (A) (A) (A) (A) (A) (A) (A) (A) (A) (A) (A)
                 (A) (A) (A) (A) (A) (A) (A) (A) (A) (A) (A) (A)
                 (A) (A) (A)
       Virtual   (A) (A) (A) (A) (A) (A) (A) (A) (A) (A) (A) (A)
                 (A) (A) (A) (A) (A) (A) (A) (A) (A) (A) (A) (A)
                 (A) (A) (A) (A) (A) (A) (A) (A) (A) (A) (A) (A)
                 (A) (A) (A) (A) (A) (A) (A) (A) (A) (A) (A) (A)
                 (A) (A) (A) (A) (A) (A) (A) (A) (A) (A) (A) (A)
                 (A) (A) (A) (A) (A) (A) (A) (A) (A) (A) (A) (A)
                 (A) (A) (A) (A) (A) (A) (A) (A) (A) (A) (A) (A)
                 (A) (A) (A) (A) (A) (A) (A) (A) (A) (A) (A) (A)
                 (A) (A) (A) (A) (A) (A) (A) (A) (A) (A) (A) (A)
                 (A) (A) (A) (A) (A) (A) (A) (A) (A) (A) (A) (A)
                 (A) (A) (A) (A) (A) (A) (A) (A) (A) (A) (A) (A)
                 (A) (A) (A) (A) (A) (A) (A) (A) (A) (A) (A) (A)
                 (A) (A) (A) (A) (A) (A) (A) (A) (A) (A) (A) (A)
                 (A) (A) (A) (A) (A) (A) (A) (A) (A) (A) (A) (A)
                 (A) (A) (A) (A) (A) (A) (A) (A) (A) (A) (A) (A)
                 (A) (A) (A) (A) (A) (A) (A) (A) (A) (A) (A) (A)
                 (A) (A) (A) (A) (A) (A) (A) (A) (A) (A) (A) (A)
                 (A) (A) (A) (A) (A) (A) (A) (A) (A) (A) (A) (A)
                 (A) (A) (A) (A) (A) (A) (A) (A) (A) (A) (A) (A)
                 (A) (A) (A) (A) (A) (A) (A) (A) (A) (A) (A) (A)
                 (A) (A) (A) (A) (A) (A) (A) (A) (A) (A) (A) (A)
                 (A) (A) (A) (A) (A) (A) (A) (A) (A) (A) (A) (A)
                 (A) (A) (A) (A) (A) (A) (A) (A) (A) (A) (A) (A)
                 (A) (A) (A) (A) (A) (A) (A) (A) (A) (A) (A) (A)
                 (A) (A) (A) (A) (A) (A) (A) (A) (A) (A) (A) (A)
                 (A) (A) (A) (A) (A) (A) (A) (A) (A) (A) (A) (A)
                 (A) (A) (A) (A) (A) (A) (A) (A) (A) (A) (A) (A)
                 (A) (A) (A) (A) (A) (A) (A) (A) (A) (A) (A) (A)
                 (A) (A) (A) (A) (A) (A) (A) (A) (A) (A) (A) (A)
                 (A) (A) (A) (A) (A) (A) (A) (A) (A) (A) (A) (A)
                 (A) (A) (A) (A) (A) (A) (A) (A) (A) (A) (A) (A)
                 (A) (A) (A) (A) (A) (A) (A) (A) (A) (A) (A) (A)
                 (A) (A) (A) (A) (A) (A) (A) (A) (A) (A) (A) (A)
                 (A) (A) (A) (A) (A) (A) (A) (A) (A) (A) (A) (A)
                 (A) (A) (A) (A) (A) (A) (A) (A) (A) (A) (A) (A)
                 (A) (A) (A) (A) (A) (A) (A) (A) (A) (A) (A) (A)
                 (A) (A) (A) (A) (A) (A) (A) (A) (A) (A) (A) (A)
                 (A) (A) (A) (A) (A) (A) (A) (A) (A) (A) (A) (A)
                 (A) (A) (A) (A) (A) (A) (A) (A) (A) (A) (A) (A)
                 (A) (A) (A) (A) (A) (A) (A) (A) (A) (A) (A) (A)
                 (A) (A) (A) (A) (A) (A) (A) (A) (A) (A) (A) (A)
                 (A) (A) (A) (A) (A) (A) (A) (A) (A) (A) (A) (A)
                 (A) (A) (A) (A) (A) (A) (A) (A) (A) (A) (A) (A)
                 (A) (A) (A) (A) (A) (A) (A) (A) (A) (A) (A) (A)
                 (A) (A) (A) (A) (A) (A) (A) (A) (A) (A) (A) (A)
                 (A) (A) (A) (A) (A) (A) (A) (A) (A) (A) (A) (A)
                 (A) (A) (A) (A) (A) (A) (A) (A) (A) (A) (A) (A)
                 (A) (A) (A) (A) (A) (A) (A) (A) (A) (A) (A) (A)
                 (A) (A) (A) (A) (A) (A) (A) (A) (A) (A) (A) (A)
                 (A) (A) (A) (A) (A) (A) (A) (A) (A) (A) (A) (A)
                 (A) (A) (A) (A) (A) (A) (A) (A) (A) (A) (A) (A)
                 (A) (A) (A) (A) (A) (A) (A) (A) (A) (A) (A) (A)
                 (A) (A) (A) (A) (A) (A) (A) (A) (A) (A) (A) (A)
                 (A) (A) (A) (A) (A) (A) (A) (A) (A) (A) (A) (A)
                 (A) (A) (A) (A) (A) (A) (A) (A) (A) (A) (A) (A)
                 (A) (A) (A) (A) (A) (A) (A) (A) (A) (A) (A) (A)
                 (A) (A) (A) (A) (A) (A) (A) (A) (A) (A) (A) (A)
                 (A) (A) (A) (A) (A) (A) (A) (A) (A) (A) (A) (A)
                 (A) (A) (A) (A) (A) (A) (A) (A) (A) (A) (A) (A)
                 (A) (A) (A) (A) (A) (A) (A) (A) (A) (A) (A) (A)
                 (A) (A) (A) (A) (A) (A) (A) (A) (A) (A) (A) (A)
                 (A) (A) (A) (A) (A) (A) (A) (A) (A) (A) (A) (A)
                 (A) (A) (A) (A) (A) (A) (A) (A) (A) (A) (A) (A)
                 (A) (A) (A) (A) (A) (A) (A) (A) (A) (A)
 Beta  Orbitals:
       Occupied  (A) (A) (A) (A) (A) (A) (A) (A) (A) (A) (A) (A)
                 (A) (A) (A) (A) (A) (A) (A) (A) (A) (A) (A) (A)
                 (A) (A) (A) (A) (A) (A) (A) (A) (A) (A) (A) (A)
                 (A) (A) (A) (A) (A) (A) (A) (A) (A) (A) (A) (A)
                 (A) (A) (A) (A) (A) (A) (A) (A) (A) (A) (A) (A)
                 (A) (A) (A) (A) (A) (A) (A) (A) (A) (A) (A) (A)
                 (A) (A) (A) (A) (A) (A) (A) (A) (A) (A) (A) (A)
                 (A) (A) (A) (A) (A) (A) (A) (A) (A) (A) (A) (A)
                 (A) (A) (A) (A) (A) (A) (A) (A) (A) (A) (A) (A)
                 (A) (A) (A) (A) (A) (A) (A) (A) (A) (A) (A) (A)
                 (A) (A) (A) (A) (A) (A) (A) (A) (A) (A) (A) (A)
                 (A) (A)
       Virtual   (A) (A) (A) (A) (A) (A) (A) (A) (A) (A) (A) (A)
                 (A) (A) (A) (A) (A) (A) (A) (A) (A) (A) (A) (A)
                 (A) (A) (A) (A) (A) (A) (A) (A) (A) (A) (A) (A)
                 (A) (A) (A) (A) (A) (A) (A) (A) (A) (A) (A) (A)
                 (A) (A) (A) (A) (A) (A) (A) (A) (A) (A) (A) (A)
                 (A) (A) (A) (A) (A) (A) (A) (A) (A) (A) (A) (A)
                 (A) (A) (A) (A) (A) (A) (A) (A) (A) (A) (A) (A)
                 (A) (A) (A) (A) (A) (A) (A) (A) (A) (A) (A) (A)
                 (A) (A) (A) (A) (A) (A) (A) (A) (A) (A) (A) (A)
                 (A) (A) (A) (A) (A) (A) (A) (A) (A) (A) (A) (A)
                 (A) (A) (A) (A) (A) (A) (A) (A) (A) (A) (A) (A)
                 (A) (A) (A) (A) (A) (A) (A) (A) (A) (A) (A) (A)
                 (A) (A) (A) (A) (A) (A) (A) (A) (A) (A) (A) (A)
                 (A) (A) (A) (A) (A) (A) (A) (A) (A) (A) (A) (A)
                 (A) (A) (A) (A) (A) (A) (A) (A) (A) (A) (A) (A)
                 (A) (A) (A) (A) (A) (A) (A) (A) (A) (A) (A) (A)
                 (A) (A) (A) (A) (A) (A) (A) (A) (A) (A) (A) (A)
                 (A) (A) (A) (A) (A) (A) (A) (A) (A) (A) (A) (A)
                 (A) (A) (A) (A) (A) (A) (A) (A) (A) (A) (A) (A)
                 (A) (A) (A) (A) (A) (A) (A) (A) (A) (A) (A) (A)
                 (A) (A) (A) (A) (A) (A) (A) (A) (A) (A) (A) (A)
                 (A) (A) (A) (A) (A) (A) (A) (A) (A) (A) (A) (A)
                 (A) (A) (A) (A) (A) (A) (A) (A) (A) (A) (A) (A)
                 (A) (A) (A) (A) (A) (A) (A) (A) (A) (A) (A) (A)
                 (A) (A) (A) (A) (A) (A) (A) (A) (A) (A) (A) (A)
                 (A) (A) (A) (A) (A) (A) (A) (A) (A) (A) (A) (A)
                 (A) (A) (A) (A) (A) (A) (A) (A) (A) (A) (A) (A)
                 (A) (A) (A) (A) (A) (A) (A) (A) (A) (A) (A) (A)
                 (A) (A) (A) (A) (A) (A) (A) (A) (A) (A) (A) (A)
                 (A) (A) (A) (A) (A) (A) (A) (A) (A) (A) (A) (A)
                 (A) (A) (A) (A) (A) (A) (A) (A) (A) (A) (A) (A)
                 (A) (A) (A) (A) (A) (A) (A) (A) (A) (A) (A) (A)
                 (A) (A) (A) (A) (A) (A) (A) (A) (A) (A) (A) (A)
                 (A) (A) (A) (A) (A) (A) (A) (A) (A) (A) (A) (A)
                 (A) (A) (A) (A) (A) (A) (A) (A) (A) (A) (A) (A)
                 (A) (A) (A) (A) (A) (A) (A) (A) (A) (A) (A) (A)
                 (A) (A) (A) (A) (A) (A) (A) (A) (A) (A) (A) (A)
                 (A) (A) (A) (A) (A) (A) (A) (A) (A) (A) (A) (A)
                 (A) (A) (A) (A) (A) (A) (A) (A) (A) (A) (A) (A)
                 (A) (A) (A) (A) (A) (A) (A) (A) (A) (A) (A) (A)
                 (A) (A) (A) (A) (A) (A) (A) (A) (A) (A) (A) (A)
                 (A) (A) (A) (A) (A) (A) (A) (A) (A) (A) (A) (A)
                 (A) (A) (A) (A) (A) (A) (A) (A) (A) (A) (A) (A)
                 (A) (A) (A) (A) (A) (A) (A) (A) (A) (A) (A) (A)
                 (A) (A) (A) (A) (A) (A) (A) (A) (A) (A) (A) (A)
                 (A) (A) (A) (A) (A) (A) (A) (A) (A) (A) (A) (A)
                 (A) (A) (A) (A) (A) (A) (A) (A) (A) (A) (A) (A)
                 (A) (A) (A) (A) (A) (A) (A) (A) (A) (A) (A) (A)
                 (A) (A) (A) (A) (A) (A) (A) (A) (A) (A) (A) (A)
                 (A) (A) (A) (A) (A) (A) (A) (A) (A) (A) (A) (A)
                 (A) (A) (A) (A) (A) (A) (A) (A) (A) (A) (A) (A)
                 (A) (A) (A) (A) (A) (A) (A) (A) (A) (A) (A) (A)
                 (A) (A) (A) (A) (A) (A) (A) (A) (A) (A) (A) (A)
                 (A) (A) (A) (A) (A) (A) (A) (A) (A) (A) (A) (A)
                 (A) (A) (A) (A) (A) (A) (A) (A) (A) (A) (A) (A)
                 (A) (A) (A) (A) (A) (A) (A) (A) (A) (A) (A) (A)
                 (A) (A) (A) (A) (A) (A) (A) (A) (A) (A) (A) (A)
                 (A) (A) (A) (A) (A) (A) (A) (A) (A) (A) (A) (A)
                 (A) (A) (A) (A) (A) (A) (A) (A) (A) (A) (A) (A)
                 (A) (A) (A) (A) (A) (A) (A) (A) (A) (A) (A) (A)
                 (A) (A) (A) (A) (A) (A) (A) (A) (A) (A) (A) (A)
                 (A) (A) (A) (A) (A) (A) (A) (A) (A) (A) (A) (A)
                 (A) (A) (A) (A) (A) (A) (A) (A) (A) (A) (A) (A)
                 (A) (A) (A) (A) (A) (A) (A) (A) (A) (A) (A)
 The electronic state is 2-A.
 Alpha  occ. eigenvalues --  -88.88051 -88.87454 -19.16477 -19.16260 -19.10198
 Alpha  occ. eigenvalues --  -19.10167 -19.09696 -19.09235 -14.36739 -14.36268
 Alpha  occ. eigenvalues --  -10.28509 -10.28333 -10.28013 -10.27943 -10.24115
 Alpha  occ. eigenvalues --  -10.23687 -10.22539 -10.22389 -10.21270 -10.21172
 Alpha  occ. eigenvalues --  -10.20925 -10.20653 -10.20280 -10.20143 -10.19883
 Alpha  occ. eigenvalues --  -10.19683 -10.19583 -10.19261 -10.18662 -10.18583
 Alpha  occ. eigenvalues --  -10.18439 -10.18356 -10.18216 -10.17879 -10.17805
 Alpha  occ. eigenvalues --  -10.17314  -7.96616  -7.96045  -5.92922  -5.92539
 Alpha  occ. eigenvalues --   -5.92360  -5.92188  -5.91977  -5.91597  -1.08052
 Alpha  occ. eigenvalues --   -1.07782  -1.06522  -1.06106  -1.04721  -1.04219
 Alpha  occ. eigenvalues --   -0.94189  -0.93639  -0.89854  -0.89159  -0.87728
 Alpha  occ. eigenvalues --   -0.83932  -0.81428  -0.78613  -0.76428  -0.75565
 Alpha  occ. eigenvalues --   -0.75235  -0.74315  -0.73231  -0.72201  -0.70749
 Alpha  occ. eigenvalues --   -0.69889  -0.69044  -0.67160  -0.65157  -0.63556
 Alpha  occ. eigenvalues --   -0.63285  -0.62375  -0.59765  -0.58511  -0.56501
 Alpha  occ. eigenvalues --   -0.55543  -0.55311  -0.54827  -0.53921  -0.52901
 Alpha  occ. eigenvalues --   -0.51304  -0.49431  -0.48962  -0.48278  -0.47847
 Alpha  occ. eigenvalues --   -0.47834  -0.47752  -0.47443  -0.47131  -0.47089
 Alpha  occ. eigenvalues --   -0.46544  -0.45225  -0.45050  -0.44702  -0.44428
 Alpha  occ. eigenvalues --   -0.43987  -0.43264  -0.42794  -0.42275  -0.41670
 Alpha  occ. eigenvalues --   -0.41334  -0.41059  -0.40975  -0.40631  -0.40421
 Alpha  occ. eigenvalues --   -0.40106  -0.39897  -0.39572  -0.39040  -0.38721
 Alpha  occ. eigenvalues --   -0.37887  -0.37482  -0.37279  -0.36619  -0.35771
 Alpha  occ. eigenvalues --   -0.35005  -0.34604  -0.33592  -0.33402  -0.32623
 Alpha  occ. eigenvalues --   -0.32358  -0.30131  -0.29389  -0.29006  -0.28132
 Alpha  occ. eigenvalues --   -0.27935  -0.27303  -0.27105  -0.26384  -0.25917
 Alpha  occ. eigenvalues --   -0.24661  -0.24203  -0.23736  -0.18862  -0.14408
 Alpha virt. eigenvalues --   -0.06537  -0.04985  -0.03171  -0.02405  -0.00272
 Alpha virt. eigenvalues --    0.00432   0.00585   0.00710   0.00917   0.01524
 Alpha virt. eigenvalues --    0.01867   0.02319   0.02466   0.02793   0.02904
 Alpha virt. eigenvalues --    0.02972   0.03092   0.03374   0.03602   0.03909
 Alpha virt. eigenvalues --    0.04104   0.04195   0.04613   0.04951   0.05156
 Alpha virt. eigenvalues --    0.05271   0.05474   0.05941   0.06307   0.06481
 Alpha virt. eigenvalues --    0.06638   0.06813   0.07286   0.07478   0.07616
 Alpha virt. eigenvalues --    0.07934   0.08042   0.08327   0.08852   0.08948
 Alpha virt. eigenvalues --    0.09108   0.09297   0.09648   0.09932   0.10173
 Alpha virt. eigenvalues --    0.10515   0.10649   0.10784   0.11176   0.11237
 Alpha virt. eigenvalues --    0.11572   0.11962   0.12075   0.12340   0.12624
 Alpha virt. eigenvalues --    0.13290   0.13459   0.13763   0.14084   0.14210
 Alpha virt. eigenvalues --    0.14288   0.14423   0.14612   0.14674   0.15142
 Alpha virt. eigenvalues --    0.15388   0.15610   0.15818   0.15951   0.16210
 Alpha virt. eigenvalues --    0.16397   0.16772   0.16840   0.17040   0.17104
 Alpha virt. eigenvalues --    0.17334   0.17817   0.18065   0.18401   0.18526
 Alpha virt. eigenvalues --    0.18633   0.19033   0.19146   0.19430   0.19506
 Alpha virt. eigenvalues --    0.19779   0.20132   0.20187   0.20409   0.20475
 Alpha virt. eigenvalues --    0.20615   0.20727   0.20876   0.20945   0.21280
 Alpha virt. eigenvalues --    0.21591   0.21912   0.22049   0.22370   0.22408
 Alpha virt. eigenvalues --    0.22836   0.22872   0.23029   0.23408   0.23573
 Alpha virt. eigenvalues --    0.23709   0.23954   0.24087   0.24175   0.24282
 Alpha virt. eigenvalues --    0.24513   0.24662   0.24895   0.25061   0.25345
 Alpha virt. eigenvalues --    0.25628   0.25664   0.26026   0.26300   0.26410
 Alpha virt. eigenvalues --    0.26536   0.26575   0.26703   0.27014   0.27137
 Alpha virt. eigenvalues --    0.27450   0.27547   0.27714   0.28153   0.28232
 Alpha virt. eigenvalues --    0.28399   0.28574   0.28806   0.29109   0.29219
 Alpha virt. eigenvalues --    0.29294   0.29676   0.29735   0.29870   0.30106
 Alpha virt. eigenvalues --    0.30443   0.30536   0.30712   0.31053   0.31428
 Alpha virt. eigenvalues --    0.31697   0.31982   0.32253   0.32649   0.32759
 Alpha virt. eigenvalues --    0.32929   0.33161   0.33592   0.33752   0.34083
 Alpha virt. eigenvalues --    0.34464   0.34503   0.34717   0.35049   0.35404
 Alpha virt. eigenvalues --    0.35812   0.35998   0.36183   0.36359   0.37090
 Alpha virt. eigenvalues --    0.37638   0.37942   0.38131   0.38450   0.38751
 Alpha virt. eigenvalues --    0.39241   0.39532   0.39793   0.39916   0.41013
 Alpha virt. eigenvalues --    0.41213   0.41460   0.41886   0.42301   0.42637
 Alpha virt. eigenvalues --    0.43060   0.43490   0.43727   0.44002   0.44322
 Alpha virt. eigenvalues --    0.44636   0.45489   0.45713   0.45927   0.46244
 Alpha virt. eigenvalues --    0.46384   0.47120   0.47341   0.47791   0.47968
 Alpha virt. eigenvalues --    0.48756   0.49281   0.49933   0.50367   0.50570
 Alpha virt. eigenvalues --    0.51041   0.51273   0.51680   0.52311   0.52675
 Alpha virt. eigenvalues --    0.53762   0.53940   0.54478   0.55064   0.55662
 Alpha virt. eigenvalues --    0.55797   0.56129   0.56366   0.56810   0.57228
 Alpha virt. eigenvalues --    0.57493   0.57659   0.57820   0.58386   0.58900
 Alpha virt. eigenvalues --    0.59604   0.59856   0.59977   0.60239   0.61059
 Alpha virt. eigenvalues --    0.61245   0.61685   0.62038   0.62217   0.62536
 Alpha virt. eigenvalues --    0.63188   0.63508   0.63811   0.64328   0.64817
 Alpha virt. eigenvalues --    0.65226   0.65417   0.66046   0.66267   0.66349
 Alpha virt. eigenvalues --    0.66692   0.66888   0.67125   0.67367   0.67703
 Alpha virt. eigenvalues --    0.68040   0.68489   0.68677   0.69878   0.70049
 Alpha virt. eigenvalues --    0.70679   0.70940   0.71245   0.71600   0.72047
 Alpha virt. eigenvalues --    0.72494   0.72804   0.73134   0.73662   0.74044
 Alpha virt. eigenvalues --    0.74195   0.74936   0.75067   0.75385   0.75736
 Alpha virt. eigenvalues --    0.76069   0.76210   0.76422   0.77018   0.77165
 Alpha virt. eigenvalues --    0.77664   0.77748   0.78338   0.78654   0.78765
 Alpha virt. eigenvalues --    0.79391   0.79936   0.80450   0.80906   0.81329
 Alpha virt. eigenvalues --    0.81363   0.82043   0.83040   0.83544   0.84202
 Alpha virt. eigenvalues --    0.84844   0.85076   0.85506   0.86751   0.87661
 Alpha virt. eigenvalues --    0.88227   0.88885   0.89410   0.90081   0.90192
 Alpha virt. eigenvalues --    0.90474   0.91448   0.91504   0.92079   0.92704
 Alpha virt. eigenvalues --    0.93784   0.93891   0.94111   0.94917   0.95206
 Alpha virt. eigenvalues --    0.95798   0.96007   0.96228   0.96761   0.96989
 Alpha virt. eigenvalues --    0.97663   0.97792   0.98191   0.98596   0.99309
 Alpha virt. eigenvalues --    0.99456   1.00256   1.00830   1.01563   1.02045
 Alpha virt. eigenvalues --    1.02694   1.02783   1.02987   1.03654   1.04441
 Alpha virt. eigenvalues --    1.04563   1.05015   1.05242   1.05750   1.05943
 Alpha virt. eigenvalues --    1.06365   1.06807   1.07275   1.07333   1.08013
 Alpha virt. eigenvalues --    1.08108   1.08630   1.09182   1.09614   1.09787
 Alpha virt. eigenvalues --    1.09966   1.10601   1.11123   1.11843   1.13154
 Alpha virt. eigenvalues --    1.13473   1.14073   1.15338   1.16062   1.16448
 Alpha virt. eigenvalues --    1.16658   1.17891   1.18227   1.18852   1.19377
 Alpha virt. eigenvalues --    1.19854   1.20333   1.21648   1.22314   1.22893
 Alpha virt. eigenvalues --    1.23113   1.24575   1.25132   1.25510   1.26264
 Alpha virt. eigenvalues --    1.26868   1.27806   1.28299   1.28782   1.30127
 Alpha virt. eigenvalues --    1.30497   1.31177   1.31423   1.32657   1.32710
 Alpha virt. eigenvalues --    1.33393   1.34492   1.35054   1.35718   1.36428
 Alpha virt. eigenvalues --    1.37359   1.38650   1.39713   1.40293   1.40978
 Alpha virt. eigenvalues --    1.42499   1.43323   1.43543   1.43758   1.44276
 Alpha virt. eigenvalues --    1.44812   1.44839   1.45031   1.45773   1.46328
 Alpha virt. eigenvalues --    1.46446   1.47063   1.47543   1.47967   1.48208
 Alpha virt. eigenvalues --    1.48543   1.49540   1.50217   1.50838   1.51077
 Alpha virt. eigenvalues --    1.52828   1.53427   1.53784   1.54253   1.54786
 Alpha virt. eigenvalues --    1.55306   1.55426   1.55869   1.56086   1.56387
 Alpha virt. eigenvalues --    1.56923   1.57082   1.57790   1.57995   1.59523
 Alpha virt. eigenvalues --    1.59991   1.61642   1.62261   1.62544   1.63525
 Alpha virt. eigenvalues --    1.63751   1.64488   1.64803   1.65586   1.66446
 Alpha virt. eigenvalues --    1.67440   1.67761   1.68053   1.68915   1.69505
 Alpha virt. eigenvalues --    1.69756   1.70462   1.71020   1.71179   1.71451
 Alpha virt. eigenvalues --    1.72304   1.73015   1.73389   1.73666   1.74150
 Alpha virt. eigenvalues --    1.74466   1.75896   1.76514   1.77291   1.77389
 Alpha virt. eigenvalues --    1.77826   1.78954   1.79424   1.79965   1.80165
 Alpha virt. eigenvalues --    1.80662   1.81271   1.82242   1.83551   1.84999
 Alpha virt. eigenvalues --    1.85715   1.86459   1.86727   1.87424   1.87832
 Alpha virt. eigenvalues --    1.88344   1.88841   1.89764   1.90874   1.91044
 Alpha virt. eigenvalues --    1.91335   1.92227   1.92782   1.93959   1.94055
 Alpha virt. eigenvalues --    1.94656   1.94961   1.96280   1.96871   1.98051
 Alpha virt. eigenvalues --    1.98569   1.99150   2.00055   2.00762   2.01190
 Alpha virt. eigenvalues --    2.01761   2.02365   2.03278   2.03808   2.04322
 Alpha virt. eigenvalues --    2.04627   2.05044   2.05736   2.06120   2.06956
 Alpha virt. eigenvalues --    2.07555   2.07903   2.08519   2.09029   2.10033
 Alpha virt. eigenvalues --    2.10419   2.11772   2.12186   2.12943   2.13366
 Alpha virt. eigenvalues --    2.14665   2.15470   2.15904   2.16387   2.18056
 Alpha virt. eigenvalues --    2.18589   2.19439   2.20124   2.20486   2.21050
 Alpha virt. eigenvalues --    2.21697   2.22821   2.22982   2.24207   2.25541
 Alpha virt. eigenvalues --    2.27257   2.28176   2.28574   2.30625   2.33127
 Alpha virt. eigenvalues --    2.34681   2.35305   2.37550   2.39353   2.39850
 Alpha virt. eigenvalues --    2.41177   2.41683   2.43053   2.43736   2.44300
 Alpha virt. eigenvalues --    2.45024   2.45733   2.45898   2.47380   2.48109
 Alpha virt. eigenvalues --    2.49080   2.49503   2.50259   2.50773   2.51951
 Alpha virt. eigenvalues --    2.52950   2.53448   2.53539   2.53898   2.54499
 Alpha virt. eigenvalues --    2.54786   2.55162   2.55533   2.56794   2.58019
 Alpha virt. eigenvalues --    2.58693   2.60247   2.60463   2.61430   2.64156
 Alpha virt. eigenvalues --    2.65134   2.65489   2.66512   2.68133   2.68568
 Alpha virt. eigenvalues --    2.68719   2.69247   2.69621   2.70538   2.70844
 Alpha virt. eigenvalues --    2.71762   2.72493   2.73094   2.73487   2.73657
 Alpha virt. eigenvalues --    2.74556   2.75109   2.75520   2.77111   2.78200
 Alpha virt. eigenvalues --    2.78368   2.78997   2.80197   2.82495   2.83029
 Alpha virt. eigenvalues --    2.83813   2.84625   2.84944   2.85549   2.85909
 Alpha virt. eigenvalues --    2.86364   2.87535   2.87801   2.88793   2.89609
 Alpha virt. eigenvalues --    2.90440   2.90776   2.91323   2.92044   2.92987
 Alpha virt. eigenvalues --    2.93518   2.94443   2.94794   2.95885   2.96495
 Alpha virt. eigenvalues --    2.97253   2.97624   2.99325   3.00532   3.00804
 Alpha virt. eigenvalues --    3.03968   3.04376   3.05109   3.07308   3.07758
 Alpha virt. eigenvalues --    3.08883   3.09583   3.10880   3.12370   3.13431
 Alpha virt. eigenvalues --    3.14786   3.15578   3.16454   3.16974   3.17443
 Alpha virt. eigenvalues --    3.20055   3.20345   3.22350   3.22910   3.23836
 Alpha virt. eigenvalues --    3.24283   3.25518   3.27280   3.28740   3.30418
 Alpha virt. eigenvalues --    3.31352   3.31613   3.32783   3.35456   3.35973
 Alpha virt. eigenvalues --    3.36237   3.36644   3.37704   3.38850   3.40663
 Alpha virt. eigenvalues --    3.41717   3.42444   3.44617   3.45655   3.46368
 Alpha virt. eigenvalues --    3.46968   3.47839   3.49845   3.51270   3.53086
 Alpha virt. eigenvalues --    3.55320   3.57105   3.59878   3.61442   3.62496
 Alpha virt. eigenvalues --    3.64083   3.67155   3.67960   3.68897   3.71487
 Alpha virt. eigenvalues --    3.72416   3.73349   3.73982   3.76598   3.77249
 Alpha virt. eigenvalues --    3.77575   3.82348   3.84018   3.85488   3.86763
 Alpha virt. eigenvalues --    3.87630   3.91709   3.93445   3.94901   3.95003
 Alpha virt. eigenvalues --    3.96311   3.98890   4.03463   4.03681   4.06549
 Alpha virt. eigenvalues --    4.08954   4.11062   4.14514   4.15114   4.20800
 Alpha virt. eigenvalues --    4.24913   4.27292   4.29186   4.37734   4.42536
 Alpha virt. eigenvalues --    4.42661   4.54155   4.71692   4.87069   4.88686
 Alpha virt. eigenvalues --    4.89186   4.92253   5.01820   5.03279   5.05280
 Alpha virt. eigenvalues --    5.06843   5.07130   5.11248   5.13340   5.15085
 Alpha virt. eigenvalues --    5.26616   5.28556   5.30856   5.32861   5.42634
 Alpha virt. eigenvalues --    5.43951   5.76890   5.77624   5.80749   5.81768
 Alpha virt. eigenvalues --    5.83755   5.86470   8.02672   8.05436  17.29310
 Alpha virt. eigenvalues --   17.32598  17.49865  17.52697  17.58482  17.63918
 Alpha virt. eigenvalues --   23.51025  23.58031  23.72702  23.81070  23.83424
 Alpha virt. eigenvalues --   23.84804  23.86317  23.89006  23.89340  23.90216
 Alpha virt. eigenvalues --   23.91032  23.91249  23.92158  23.95401  23.95954
 Alpha virt. eigenvalues --   23.97719  23.98543  24.01201  24.02269  24.03047
 Alpha virt. eigenvalues --   24.03394  24.08247  24.13352  24.15047  24.16449
 Alpha virt. eigenvalues --   24.17182  35.57920  35.60802  49.96646  49.98181
 Alpha virt. eigenvalues --   50.04136  50.06011  50.07890  50.09558 189.19970
 Alpha virt. eigenvalues --  189.23411
  Beta  occ. eigenvalues --  -88.88050 -88.87444 -19.16458 -19.16269 -19.10023
  Beta  occ. eigenvalues --  -19.09986 -19.09535 -19.09043 -14.36791 -14.36320
  Beta  occ. eigenvalues --  -10.28443 -10.28268 -10.27950 -10.27882 -10.24075
  Beta  occ. eigenvalues --  -10.23720 -10.22540 -10.22389 -10.21295 -10.21088
  Beta  occ. eigenvalues --  -10.20980 -10.20525 -10.20241 -10.20188 -10.19882
  Beta  occ. eigenvalues --  -10.19738 -10.19582 -10.19124 -10.18520 -10.18425
  Beta  occ. eigenvalues --  -10.18371 -10.18301 -10.18160 -10.17802 -10.17730
  Beta  occ. eigenvalues --  -10.17248  -7.96614  -7.96036  -5.92921  -5.92539
  Beta  occ. eigenvalues --   -5.92355  -5.92183  -5.91972  -5.91566  -1.08014
  Beta  occ. eigenvalues --   -1.07799  -1.06282  -1.05872  -1.04413  -1.03915
  Beta  occ. eigenvalues --   -0.94102  -0.93551  -0.89758  -0.89063  -0.87674
  Beta  occ. eigenvalues --   -0.83633  -0.81152  -0.78483  -0.76333  -0.75270
  Beta  occ. eigenvalues --   -0.75077  -0.74262  -0.73164  -0.72133  -0.70708
  Beta  occ. eigenvalues --   -0.69736  -0.68827  -0.67003  -0.64993  -0.63368
  Beta  occ. eigenvalues --   -0.63188  -0.62177  -0.59711  -0.58449  -0.56418
  Beta  occ. eigenvalues --   -0.55501  -0.55215  -0.54712  -0.53893  -0.52745
  Beta  occ. eigenvalues --   -0.51201  -0.49294  -0.48862  -0.48006  -0.47797
  Beta  occ. eigenvalues --   -0.47714  -0.47567  -0.47429  -0.47070  -0.46960
  Beta  occ. eigenvalues --   -0.46507  -0.45135  -0.44974  -0.44628  -0.44308
  Beta  occ. eigenvalues --   -0.43898  -0.43100  -0.42668  -0.42005  -0.41559
  Beta  occ. eigenvalues --   -0.41191  -0.40946  -0.40854  -0.40103  -0.40004
  Beta  occ. eigenvalues --   -0.39845  -0.39691  -0.39004  -0.38913  -0.38553
  Beta  occ. eigenvalues --   -0.37773  -0.37295  -0.37047  -0.36562  -0.35736
  Beta  occ. eigenvalues --   -0.34936  -0.34315  -0.33413  -0.33337  -0.32583
  Beta  occ. eigenvalues --   -0.31923  -0.29412  -0.29038  -0.28627  -0.27829
  Beta  occ. eigenvalues --   -0.27597  -0.27020  -0.26906  -0.26141  -0.25539
  Beta  occ. eigenvalues --   -0.24227  -0.23860  -0.22887  -0.18455
  Beta virt. eigenvalues --   -0.10233  -0.05980  -0.03983  -0.02232  -0.02133
  Beta virt. eigenvalues --   -0.00254   0.00451   0.00671   0.00786   0.01011
  Beta virt. eigenvalues --    0.01548   0.01889   0.02333   0.02689   0.02923
  Beta virt. eigenvalues --    0.03030   0.03177   0.03480   0.03608   0.03842
  Beta virt. eigenvalues --    0.03993   0.04152   0.04237   0.04651   0.04987
  Beta virt. eigenvalues --    0.05188   0.05320   0.05517   0.05960   0.06349
  Beta virt. eigenvalues --    0.06568   0.06683   0.06845   0.07343   0.07543
  Beta virt. eigenvalues --    0.07651   0.07959   0.08054   0.08411   0.08897
  Beta virt. eigenvalues --    0.08971   0.09163   0.09372   0.09672   0.09951
  Beta virt. eigenvalues --    0.10253   0.10644   0.10680   0.10846   0.11328
  Beta virt. eigenvalues --    0.11516   0.11795   0.12059   0.12119   0.12365
  Beta virt. eigenvalues --    0.12685   0.13316   0.13542   0.13800   0.14205
  Beta virt. eigenvalues --    0.14277   0.14316   0.14473   0.14672   0.14829
  Beta virt. eigenvalues --    0.15234   0.15410   0.15635   0.15850   0.15979
  Beta virt. eigenvalues --    0.16252   0.16427   0.16789   0.16879   0.17071
  Beta virt. eigenvalues --    0.17160   0.17362   0.17886   0.18099   0.18435
  Beta virt. eigenvalues --    0.18569   0.18654   0.19062   0.19190   0.19474
  Beta virt. eigenvalues --    0.19557   0.19821   0.20166   0.20231   0.20450
  Beta virt. eigenvalues --    0.20502   0.20642   0.20780   0.20938   0.20998
  Beta virt. eigenvalues --    0.21321   0.21602   0.21960   0.22134   0.22423
  Beta virt. eigenvalues --    0.22481   0.22896   0.22983   0.23074   0.23569
  Beta virt. eigenvalues --    0.23723   0.23738   0.24059   0.24158   0.24212
  Beta virt. eigenvalues --    0.24330   0.24555   0.24710   0.24928   0.25153
  Beta virt. eigenvalues --    0.25397   0.25670   0.25735   0.26081   0.26350
  Beta virt. eigenvalues --    0.26438   0.26581   0.26635   0.26754   0.27066
  Beta virt. eigenvalues --    0.27179   0.27502   0.27581   0.27765   0.28181
  Beta virt. eigenvalues --    0.28298   0.28459   0.28625   0.28879   0.29155
  Beta virt. eigenvalues --    0.29249   0.29352   0.29729   0.29801   0.29911
  Beta virt. eigenvalues --    0.30151   0.30500   0.30613   0.30754   0.31098
  Beta virt. eigenvalues --    0.31486   0.31751   0.32020   0.32313   0.32687
  Beta virt. eigenvalues --    0.32800   0.33005   0.33211   0.33673   0.33852
  Beta virt. eigenvalues --    0.34140   0.34506   0.34560   0.34762   0.35146
  Beta virt. eigenvalues --    0.35449   0.35844   0.36053   0.36214   0.36447
  Beta virt. eigenvalues --    0.37156   0.37684   0.37990   0.38213   0.38484
  Beta virt. eigenvalues --    0.38814   0.39310   0.39590   0.39838   0.39965
  Beta virt. eigenvalues --    0.41085   0.41285   0.41570   0.41916   0.42355
  Beta virt. eigenvalues --    0.42669   0.43112   0.43529   0.43760   0.44085
  Beta virt. eigenvalues --    0.44348   0.44687   0.45540   0.45753   0.45986
  Beta virt. eigenvalues --    0.46272   0.46419   0.47168   0.47372   0.47822
  Beta virt. eigenvalues --    0.48010   0.48780   0.49369   0.49982   0.50486
  Beta virt. eigenvalues --    0.50611   0.51096   0.51369   0.51732   0.52363
  Beta virt. eigenvalues --    0.52741   0.53818   0.53996   0.54530   0.55181
  Beta virt. eigenvalues --    0.55701   0.55902   0.56196   0.56421   0.56853
  Beta virt. eigenvalues --    0.57273   0.57546   0.57738   0.57855   0.58599
  Beta virt. eigenvalues --    0.58995   0.59704   0.59937   0.60044   0.60293
  Beta virt. eigenvalues --    0.61218   0.61438   0.61722   0.62113   0.62370
  Beta virt. eigenvalues --    0.62620   0.63259   0.63599   0.63950   0.64448
  Beta virt. eigenvalues --    0.64945   0.65303   0.65498   0.66148   0.66344
  Beta virt. eigenvalues --    0.66407   0.66803   0.66951   0.67200   0.67476
  Beta virt. eigenvalues --    0.67747   0.68118   0.68556   0.68775   0.69954
  Beta virt. eigenvalues --    0.70125   0.70938   0.71110   0.71291   0.71745
  Beta virt. eigenvalues --    0.72120   0.72603   0.72857   0.73317   0.73739
  Beta virt. eigenvalues --    0.74098   0.74364   0.75002   0.75183   0.75494
  Beta virt. eigenvalues --    0.75820   0.76149   0.76247   0.76512   0.77068
  Beta virt. eigenvalues --    0.77242   0.77757   0.77803   0.78406   0.78721
  Beta virt. eigenvalues --    0.78802   0.79449   0.80003   0.80516   0.80963
  Beta virt. eigenvalues --    0.81384   0.81422   0.82097   0.83085   0.83636
  Beta virt. eigenvalues --    0.84283   0.84870   0.85177   0.85588   0.86824
  Beta virt. eigenvalues --    0.87629   0.88316   0.88916   0.89486   0.90115
  Beta virt. eigenvalues --    0.90221   0.90565   0.91506   0.91553   0.92115
  Beta virt. eigenvalues --    0.92810   0.93921   0.94022   0.94180   0.95059
  Beta virt. eigenvalues --    0.95351   0.95972   0.96119   0.96342   0.96891
  Beta virt. eigenvalues --    0.97083   0.97789   0.97963   0.98268   0.98720
  Beta virt. eigenvalues --    0.99435   0.99565   1.00337   1.01076   1.01613
  Beta virt. eigenvalues --    1.02111   1.02820   1.02876   1.03099   1.03783
  Beta virt. eigenvalues --    1.04549   1.04647   1.05112   1.05355   1.05894
  Beta virt. eigenvalues --    1.06095   1.06468   1.06913   1.07343   1.07454
  Beta virt. eigenvalues --    1.08115   1.08283   1.08756   1.09331   1.09835
  Beta virt. eigenvalues --    1.09949   1.10047   1.10688   1.11366   1.11996
  Beta virt. eigenvalues --    1.13394   1.13708   1.14294   1.15552   1.16112
  Beta virt. eigenvalues --    1.16694   1.16955   1.18047   1.18325   1.18954
  Beta virt. eigenvalues --    1.19683   1.19988   1.20527   1.21847   1.22473
  Beta virt. eigenvalues --    1.22990   1.23257   1.24639   1.25195   1.25612
  Beta virt. eigenvalues --    1.26328   1.26949   1.27872   1.28504   1.28993
  Beta virt. eigenvalues --    1.30215   1.30609   1.31229   1.31530   1.32705
  Beta virt. eigenvalues --    1.32779   1.33489   1.34599   1.35106   1.35784
  Beta virt. eigenvalues --    1.36515   1.37443   1.38714   1.39817   1.40327
  Beta virt. eigenvalues --    1.41044   1.42580   1.43389   1.43594   1.43827
  Beta virt. eigenvalues --    1.44363   1.44859   1.44973   1.45116   1.45842
  Beta virt. eigenvalues --    1.46369   1.46544   1.47153   1.47657   1.48025
  Beta virt. eigenvalues --    1.48324   1.48656   1.49648   1.50338   1.50909
  Beta virt. eigenvalues --    1.51243   1.52907   1.53589   1.53955   1.54352
  Beta virt. eigenvalues --    1.54831   1.55381   1.55509   1.55914   1.56140
  Beta virt. eigenvalues --    1.56451   1.56958   1.57139   1.57875   1.58092
  Beta virt. eigenvalues --    1.59734   1.60112   1.61759   1.62298   1.62592
  Beta virt. eigenvalues --    1.63566   1.63798   1.64526   1.64826   1.65748
  Beta virt. eigenvalues --    1.66486   1.67470   1.67816   1.68111   1.68989
  Beta virt. eigenvalues --    1.69619   1.69820   1.70534   1.71081   1.71308
  Beta virt. eigenvalues --    1.71627   1.72422   1.73121   1.73531   1.73828
  Beta virt. eigenvalues --    1.74259   1.74552   1.75989   1.76579   1.77388
  Beta virt. eigenvalues --    1.77558   1.77890   1.79028   1.79512   1.80031
  Beta virt. eigenvalues --    1.80251   1.80731   1.81371   1.82347   1.83639
  Beta virt. eigenvalues --    1.85047   1.85771   1.86575   1.86831   1.87539
  Beta virt. eigenvalues --    1.88091   1.88418   1.89022   1.90059   1.91072
  Beta virt. eigenvalues --    1.91143   1.91428   1.92365   1.92919   1.94102
  Beta virt. eigenvalues --    1.94194   1.94720   1.95151   1.96359   1.97047
  Beta virt. eigenvalues --    1.98255   1.98764   1.99312   2.00243   2.00954
  Beta virt. eigenvalues --    2.01501   2.01819   2.02431   2.03384   2.03874
  Beta virt. eigenvalues --    2.04390   2.04693   2.05099   2.05789   2.06197
  Beta virt. eigenvalues --    2.07023   2.07631   2.07969   2.08579   2.09194
  Beta virt. eigenvalues --    2.10105   2.10514   2.11884   2.12219   2.12969
  Beta virt. eigenvalues --    2.13471   2.14713   2.15549   2.15958   2.16461
  Beta virt. eigenvalues --    2.18139   2.18915   2.19495   2.20171   2.20545
  Beta virt. eigenvalues --    2.21124   2.21827   2.22863   2.23122   2.24273
  Beta virt. eigenvalues --    2.25603   2.27346   2.28382   2.28819   2.30757
  Beta virt. eigenvalues --    2.33240   2.34797   2.35492   2.37640   2.39558
  Beta virt. eigenvalues --    2.39922   2.41237   2.41859   2.43130   2.43770
  Beta virt. eigenvalues --    2.44309   2.45067   2.45779   2.45950   2.47387
  Beta virt. eigenvalues --    2.48176   2.49197   2.49509   2.50289   2.50841
  Beta virt. eigenvalues --    2.52009   2.52983   2.53506   2.53574   2.53925
  Beta virt. eigenvalues --    2.54519   2.54795   2.55194   2.55548   2.56834
  Beta virt. eigenvalues --    2.58047   2.58714   2.60285   2.60522   2.61494
  Beta virt. eigenvalues --    2.64187   2.65205   2.65762   2.66547   2.68187
  Beta virt. eigenvalues --    2.68625   2.68758   2.69378   2.69683   2.70587
  Beta virt. eigenvalues --    2.71209   2.71857   2.72569   2.73257   2.73548
  Beta virt. eigenvalues --    2.74011   2.74619   2.75122   2.75627   2.77207
  Beta virt. eigenvalues --    2.78486   2.78557   2.79071   2.80471   2.82619
  Beta virt. eigenvalues --    2.83126   2.84031   2.84646   2.85099   2.85753
  Beta virt. eigenvalues --    2.86003   2.86441   2.87815   2.88060   2.89075
  Beta virt. eigenvalues --    2.89925   2.90675   2.91047   2.91650   2.92494
  Beta virt. eigenvalues --    2.93282   2.93756   2.94784   2.95178   2.96264
  Beta virt. eigenvalues --    2.96753   2.97422   2.98015   2.99611   3.00702
  Beta virt. eigenvalues --    3.00991   3.04029   3.04763   3.05215   3.07426
  Beta virt. eigenvalues --    3.07934   3.09298   3.09751   3.11001   3.12407
  Beta virt. eigenvalues --    3.13549   3.14823   3.15776   3.16577   3.17101
  Beta virt. eigenvalues --    3.17529   3.20089   3.20442   3.22388   3.22959
  Beta virt. eigenvalues --    3.23875   3.24290   3.25551   3.27359   3.28836
  Beta virt. eigenvalues --    3.30482   3.31431   3.31658   3.32815   3.35928
  Beta virt. eigenvalues --    3.36431   3.36650   3.36804   3.38097   3.38926
  Beta virt. eigenvalues --    3.40752   3.41771   3.42510   3.44699   3.45736
  Beta virt. eigenvalues --    3.46436   3.47025   3.47936   3.49888   3.51374
  Beta virt. eigenvalues --    3.53178   3.55364   3.57147   3.59983   3.61530
  Beta virt. eigenvalues --    3.62572   3.64181   3.67215   3.68000   3.68978
  Beta virt. eigenvalues --    3.71539   3.72494   3.73323   3.73960   3.76629
  Beta virt. eigenvalues --    3.77254   3.77574   3.82382   3.84069   3.85502
  Beta virt. eigenvalues --    3.86803   3.87667   3.91882   3.93563   3.94868
  Beta virt. eigenvalues --    3.95075   3.96186   3.99044   4.03597   4.03713
  Beta virt. eigenvalues --    4.06666   4.08980   4.11076   4.14550   4.15270
  Beta virt. eigenvalues --    4.20853   4.25000   4.27486   4.29358   4.37933
  Beta virt. eigenvalues --    4.42704   4.42861   4.54258   4.71794   4.87207
  Beta virt. eigenvalues --    4.88880   4.89222   4.92257   5.01894   5.03246
  Beta virt. eigenvalues --    5.06013   5.07583   5.07808   5.12037   5.13456
  Beta virt. eigenvalues --    5.15198   5.26759   5.28701   5.31001   5.33019
  Beta virt. eigenvalues --    5.42640   5.43954   5.76937   5.77749   5.80759
  Beta virt. eigenvalues --    5.81924   5.83906   5.86624   8.02675   8.05454
  Beta virt. eigenvalues --   17.29316  17.32637  17.49866  17.52697  17.58490
  Beta virt. eigenvalues --   17.63922  23.51083  23.58079  23.72720  23.81160
  Beta virt. eigenvalues --   23.83470  23.84884  23.86391  23.89068  23.89431
  Beta virt. eigenvalues --   23.90261  23.91135  23.91254  23.92158  23.95454
  Beta virt. eigenvalues --   23.95975  23.97761  23.98622  24.01288  24.02289
  Beta virt. eigenvalues --   24.03061  24.03391  24.08363  24.13389  24.15056
  Beta virt. eigenvalues --   24.16556  24.17281  35.57867  35.60748  49.96661
  Beta virt. eigenvalues --   49.98175  50.04313  50.06183  50.08070  50.09739
  Beta virt. eigenvalues --  189.19972 189.23420
          Condensed to atoms (all electrons):
          Atomic-Atomic Spin Densities.
 Mulliken charges and spin densities:
               1          2
     1  C    0.287958   0.031613
     2  C   -0.097832   0.110671
     3  C    0.171062  -0.035672
     4  C    0.114177   0.099131
     5  C    0.274894   0.030313
     6  C   -0.174849   0.037318
     7  C    0.221734  -0.030917
     8  C    0.316962   0.108669
[...]
     9   Atom        0.004172      0.021598      0.023116
    10   Atom       -0.014519     -0.024053      0.024119
    11   Atom        0.002525     -0.009954      0.009261
    12   Atom       -0.004562     -0.018856      0.021024
    13   Atom       -0.004327     -0.008605      0.013284
    14   Atom       -0.000316     -0.008068      0.012455
    15   Atom       -0.003967      0.000918     -0.000295
    16   Atom        0.004593     -0.000518     -0.000372
    17   Atom        0.003816      0.000443     -0.000324
    18   Atom        0.002157      0.014524     -0.012726
    19   Atom        0.000267      0.005190     -0.008042
    20   Atom       -0.003418     -0.021713      0.044479
    21   Atom       -0.003760     -0.033721      0.044140
    22   Atom       -0.007970     -0.055881      0.049124
    23   Atom       -0.052108     -0.116583      0.147050
    24   Atom       -0.000002      0.000438     -0.000375
    25   Atom        0.000091      0.000226     -0.001022
    26   Atom        0.000093      0.000242      0.000178
    27   Atom       -0.001097      0.000246     -0.000316
    28   Atom       -0.000103      0.000213     -0.000310
    29   Atom       -0.000564      0.000556     -0.000827
    30   Atom       -0.000865     -0.000268      0.000276
    31   Atom        0.000090      0.000063     -0.000270
    32   Atom       -0.000570     -0.003608      0.017961
    33   Atom       -0.005179      0.006543     -0.026960
    34   Atom        0.009333     -0.002814     -0.045564
    35   Atom        0.001287     -0.001477      0.009628
    36   Atom        0.000736     -0.000274      0.000288
    37   Atom        0.000032     -0.001188     -0.028745
    38   Atom       -0.001518      0.000134      0.005597
    39   Atom        0.001633     -0.000865      0.007382
    40   Atom       -0.000473     -0.000581     -0.000085
    41   Atom       -0.000789      0.001804     -0.015306
    42   Atom       -0.004217      0.001708     -0.004932
    43   Atom       -0.000284     -0.000278      0.000150
    44   Atom       -0.000431     -0.000572      0.000373
    45   Atom       -0.000707     -0.000542      0.000299
    46   Atom        0.000159     -0.000842      0.004427
    47   Atom       -0.000604      0.003047     -0.014849
    48   Atom       -0.001208      0.002566     -0.014028
    49   Atom       -0.000092     -0.000112      0.000158
    50   Atom        0.000381      0.000184      0.000377
    51   Atom       -0.000512     -0.000422     -0.000518
    52   Atom        0.000267      0.000229      0.000277
    53   Atom        0.000220      0.000140      0.000277
    54   Atom        0.000326      0.000065      0.000092
 --------------------------------------------------------


 ---------------------------------------------------------------------------------
              Anisotropic Spin Dipole Couplings in Principal Axis System
 ---------------------------------------------------------------------------------

       Atom             a.u.   MegaHertz   Gauss  10(-4) cm-1        Axes

              Baa    -0.0329    -4.419    -1.577    -1.474  0.9172 -0.3873  0.0941
     1 C(13)  Bbb    -0.0224    -3.007    -1.073    -1.003  0.3947  0.9153 -0.0801
              Bcc     0.0553     7.426     2.650     2.477 -0.0551  0.1106  0.9923
 
              Baa    -0.0731    -9.812    -3.501    -3.273  0.7504  0.6603 -0.0290
     2 C(13)  Bbb    -0.0678    -9.101    -3.247    -3.036 -0.6584  0.7430 -0.1201
              Bcc     0.1409    18.913     6.748     6.309 -0.0578  0.1092  0.9923
 
              Baa    -0.0402    -5.399    -1.927    -1.801 -0.0612  0.1015  0.9930
     3 C(13)  Bbb     0.0182     2.448     0.873     0.817 -0.2963  0.9481 -0.1151
              Bcc     0.0220     2.951     1.053     0.984  0.9531  0.3012  0.0280
 
              Baa    -0.0647    -8.685    -3.099    -2.897  0.9616 -0.2551  0.1015
     4 C(13)  Bbb    -0.0596    -8.002    -2.855    -2.669  0.2644  0.9601 -0.0912
              Bcc     0.1244    16.687     5.955     5.566 -0.0742  0.1146  0.9906
 
              Baa    -0.0323    -4.336    -1.547    -1.446  0.5521  0.8329 -0.0379
     5 C(13)  Bbb    -0.0224    -3.012    -1.075    -1.005  0.8298 -0.5444  0.1227
              Bcc     0.0548     7.348     2.622     2.451 -0.0816  0.0992  0.9917
 
              Baa    -0.0330    -4.423    -1.578    -1.475  0.7459  0.6660 -0.0041
     6 C(13)  Bbb    -0.0247    -3.310    -1.181    -1.104 -0.6652  0.7447 -0.0551
              Bcc     0.0576     7.733     2.759     2.580 -0.0336  0.0438  0.9985
 
              Baa    -0.0360    -4.827    -1.723    -1.610 -0.0489  0.1383  0.9892
     7 C(13)  Bbb     0.0155     2.084     0.744     0.695 -0.1426  0.9793 -0.1439
              Bcc     0.0204     2.743     0.979     0.915  0.9886  0.1481  0.0282
 
              Baa    -0.0701    -9.400    -3.354    -3.136  0.9737 -0.2149  0.0761
     8 C(13)  Bbb    -0.0649    -8.708    -3.107    -2.905  0.2275  0.9385 -0.2599
              Bcc     0.1349    18.108     6.461     6.040 -0.0155  0.2704  0.9626
 
              Baa    -0.0525    -7.045    -2.514    -2.350  0.9848 -0.1166 -0.1286
     9 C(13)  Bbb    -0.0466    -6.248    -2.230    -2.084  0.0928  0.9797 -0.1780
              Bcc     0.0991    13.293     4.743     4.434  0.1467  0.1633  0.9756
 
              Baa    -0.0318    -4.272    -1.525    -1.425  0.6104  0.7893 -0.0659
    10 C(13)  Bbb    -0.0227    -3.049    -1.088    -1.017  0.7015 -0.5001  0.5078
              Bcc     0.0546     7.322     2.612     2.442 -0.3679  0.3562  0.8590
 
              Baa    -0.0304    -4.081    -1.456    -1.361  0.9019 -0.4009  0.1608
    11 C(13)  Bbb    -0.0205    -2.750    -0.981    -0.917  0.4146  0.9079 -0.0620
              Bcc     0.0509     6.831     2.437     2.279 -0.1211  0.1226  0.9850
 
              Baa    -0.0657    -8.813    -3.145    -2.940  0.6863  0.7272 -0.0125
    12 C(13)  Bbb    -0.0609    -8.168    -2.915    -2.725  0.7201 -0.6770  0.1519
              Bcc     0.1265    16.981     6.059     5.664 -0.1020  0.1133  0.9883
 
              Baa    -0.0386    -5.174    -1.846    -1.726  0.7904  0.6124 -0.0125
    13 C(13)  Bbb    -0.0320    -4.293    -1.532    -1.432 -0.6065  0.7797 -0.1557
              Bcc     0.0705     9.467     3.378     3.158 -0.0856  0.1307  0.9877
 
              Baa    -0.0401    -5.385    -1.921    -1.796  0.9925 -0.0913  0.0816
    14 C(13)  Bbb    -0.0338    -4.540    -1.620    -1.515  0.1000  0.9890 -0.1088
              Bcc     0.0740     9.925     3.542     3.311 -0.0708  0.1162  0.9907
 
              Baa    -0.0041    -2.166    -0.773    -0.723  0.4230  0.9034 -0.0704
    15 H(1)   Bbb    -0.0024    -1.299    -0.463    -0.433 -0.0681  0.1092  0.9917
              Bcc     0.0065     3.465     1.236     1.156  0.9036 -0.4147  0.1078
 
              Baa    -0.0039    -2.057    -0.734    -0.686  0.8346 -0.5234  0.1719
    16 H(1)   Bbb    -0.0025    -1.321    -0.471    -0.440 -0.1090  0.1489  0.9828
              Bcc     0.0063     3.378     1.205     1.127  0.5400  0.8390 -0.0672
 
              Baa    -0.0035    -1.866    -0.666    -0.622 -0.5575  0.3323  0.7607
    17 H(1)   Bbb    -0.0024    -1.275    -0.455    -0.425  0.6583 -0.3812  0.6490
              Bcc     0.0059     3.141     1.121     1.048  0.5057  0.8627 -0.0062
 
              Baa    -0.0511    -1.970    -0.703    -0.657 -0.1963  0.1701  0.9657
    18 N(14)  Bbb     0.0250     0.964     0.344     0.322  0.8946  0.4342  0.1054
              Bcc     0.0261     1.006     0.359     0.336 -0.4014  0.8846 -0.2374
 
              Baa    -0.0523    -2.015    -0.719    -0.672 -0.0667  0.1026  0.9925
    19 N(14)  Bbb     0.0256     0.989     0.353     0.330  0.9561  0.2912  0.0342
              Bcc     0.0266     1.027     0.366     0.342 -0.2855  0.9512 -0.1175
 
              Baa    -0.1528    11.060     3.946     3.689  0.8849  0.4657 -0.0033
    20 O(17)  Bbb    -0.1498    10.839     3.868     3.616 -0.4632  0.8794 -0.1100
              Bcc     0.3026   -21.899    -7.814    -7.305 -0.0483  0.0989  0.9939
 
              Baa    -0.1460    10.568     3.771     3.525  0.9941  0.0827  0.0699
    21 O(17)  Bbb    -0.1427    10.326     3.685     3.445 -0.0748  0.9912 -0.1091
              Bcc     0.2888   -20.894    -7.456    -6.970 -0.0783  0.1032  0.9916
 
              Baa    -0.1387    10.035     3.581     3.347  0.9141  0.3976  0.0790
    22 O(17)  Bbb    -0.1358     9.824     3.506     3.277 -0.3811  0.9094 -0.1665
              Bcc     0.2744   -19.859    -7.086    -6.624 -0.1381  0.1221  0.9829
 
              Baa    -0.1468    10.620     3.790     3.542  0.8381  0.5429  0.0536
    23 O(17)  Bbb    -0.1457    10.541     3.761     3.516 -0.4520  0.7460 -0.4890
              Bcc     0.2924   -21.161    -7.551    -7.059 -0.3055  0.3856  0.8706
 
              Baa    -0.0019    -0.257    -0.092    -0.086 -0.1560  0.1272  0.9795
    24 C(13)  Bbb     0.0009     0.118     0.042     0.039  0.9087  0.4072  0.0918
              Bcc     0.0010     0.140     0.050     0.047 -0.3872  0.9044 -0.1791
 
              Baa    -0.0014    -0.748    -0.267    -0.249 -0.1743  0.4020  0.8989
    25 H(1)   Bbb     0.0000     0.011     0.004     0.004  0.9847  0.0774  0.1563
              Bcc     0.0014     0.737     0.263     0.246 -0.0067  0.9124 -0.4093
 
              Baa    -0.0015    -0.784    -0.280    -0.262 -0.2405 -0.0445  0.9696
    26 H(1)   Bbb    -0.0005    -0.244    -0.087    -0.081  0.9697 -0.0560  0.2379
              Bcc     0.0019     1.028     0.367     0.343  0.0437  0.9974  0.0566
 
              Baa    -0.0015    -0.806    -0.288    -0.269 -0.0948  0.0755  0.9926
    27 H(1)   Bbb    -0.0005    -0.260    -0.093    -0.087  0.8440  0.5348  0.0399
              Bcc     0.0020     1.066     0.380     0.356 -0.5279  0.8416 -0.1144
 
              Baa    -0.0019    -0.251    -0.089    -0.084 -0.0733  0.1063  0.9916
    28 C(13)  Bbb     0.0008     0.107     0.038     0.036  0.8341  0.5516  0.0026
              Bcc     0.0011     0.144     0.051     0.048 -0.5467  0.8273 -0.1291
 
              Baa    -0.0014    -0.749    -0.267    -0.250 -0.2260  0.2860  0.9312
    29 H(1)   Bbb    -0.0001    -0.077    -0.028    -0.026  0.8505  0.5240  0.0454
              Bcc     0.0015     0.827     0.295     0.276 -0.4750  0.8022 -0.3617
 
              Baa    -0.0014    -0.764    -0.273    -0.255  0.1227 -0.0657  0.9903
    30 H(1)   Bbb    -0.0003    -0.143    -0.051    -0.048  0.8395  0.5391 -0.0682
              Bcc     0.0017     0.907     0.324     0.303 -0.5294  0.8397  0.1212
 
              Baa    -0.0016    -0.848    -0.303    -0.283 -0.0705  0.0732  0.9948
    31 H(1)   Bbb    -0.0006    -0.322    -0.115    -0.108  0.9970 -0.0253  0.0725
              Bcc     0.0022     1.170     0.418     0.390  0.0305  0.9970 -0.0712
 
              Baa    -0.0320    -4.292    -1.532    -1.432  0.0597 -0.4364  0.8978
    32 C(13)  Bbb     0.0129     1.727     0.616     0.576  0.3589  0.8486  0.3886
              Bcc     0.0191     2.565     0.915     0.856  0.9315 -0.2990 -0.2073
 
              Baa    -0.0202    -2.716    -0.969    -0.906  0.1338  0.8140  0.5653
    33 C(13)  Bbb    -0.0176    -2.363    -0.843    -0.788  0.9793 -0.0211 -0.2014
              Bcc     0.0378     5.078     1.812     1.694  0.1520 -0.5805  0.7999
 
              Baa    -0.0386    -1.585    -0.565    -0.529  0.6724 -0.6366 -0.3776
    34 S(33)  Bbb    -0.0264    -1.084    -0.387    -0.362  0.7360  0.5206  0.4327
              Bcc     0.0651     2.669     0.952     0.890 -0.0789 -0.5689  0.8186
 
              Baa    -0.0154    -2.072    -0.739    -0.691  0.0820 -0.4843  0.8711
    35 C(13)  Bbb     0.0072     0.969     0.346     0.323 -0.4558  0.7590  0.4649
              Bcc     0.0082     1.104     0.394     0.368  0.8863  0.4352  0.1585
 
              Baa    -0.0010    -0.511    -0.182    -0.170  0.7691 -0.5034  0.3938
    36 H(1)   Bbb     0.0001     0.052     0.019     0.017 -0.3983  0.1044  0.9113
              Bcc     0.0009     0.459     0.164     0.153  0.4999  0.8577  0.1203
 
              Baa    -0.0276    -3.708    -1.323    -1.237  0.3093  0.8769  0.3679
    37 C(13)  Bbb    -0.0262    -3.514    -1.254    -1.172  0.9509 -0.2908 -0.1062
              Bcc     0.0538     7.221     2.577     2.409 -0.0138 -0.3826  0.9238
 
              Baa    -0.0109     0.787     0.281     0.262 -0.0424 -0.3843  0.9222
    38 O(17)  Bbb     0.0040    -0.291    -0.104    -0.097  0.5979  0.7298  0.3316
              Bcc     0.0068    -0.495    -0.177    -0.165  0.8005 -0.5654 -0.1989
 
              Baa    -0.0131    -1.762    -0.629    -0.588  0.0728 -0.4469  0.8916
    39 C(13)  Bbb     0.0051     0.680     0.243     0.227 -0.3894  0.8103  0.4379
              Bcc     0.0081     1.082     0.386     0.361  0.9182  0.3791  0.1151
 
              Baa    -0.0008    -0.102    -0.036    -0.034  0.5979  0.5422  0.5903
    40 C(13)  Bbb    -0.0000    -0.006    -0.002    -0.002 -0.0526  0.7614 -0.6461
              Bcc     0.0008     0.108     0.038     0.036  0.7998 -0.3553 -0.4838
 
              Baa    -0.0126    -1.686    -0.602    -0.562 -0.1522  0.8640  0.4799
    41 C(13)  Bbb    -0.0114    -1.536    -0.548    -0.512  0.9868  0.1601  0.0248
              Bcc     0.0240     3.222     1.150     1.075  0.0554 -0.4773  0.8770
 
              Baa    -0.0064    -0.261    -0.093    -0.087  0.5899  0.7535  0.2903
    42 S(33)  Bbb    -0.0014    -0.059    -0.021    -0.020  0.7119 -0.3156 -0.6273
              Bcc     0.0078     0.320     0.114     0.107  0.3811 -0.5767  0.7226
 
              Baa    -0.0003    -0.168    -0.060    -0.056  0.3143 -0.2333  0.9202
    43 H(1)   Bbb    -0.0003    -0.136    -0.048    -0.045  0.4853  0.8726  0.0555
              Bcc     0.0006     0.304     0.108     0.101  0.8159 -0.4291 -0.3874
 
              Baa    -0.0005    -0.262    -0.093    -0.087  0.4816 -0.3179  0.8167
    44 H(1)   Bbb    -0.0005    -0.249    -0.089    -0.083  0.5475  0.8368  0.0029
              Bcc     0.0010     0.511     0.182     0.170  0.6844 -0.4457 -0.5770
 
              Baa    -0.0007    -0.360    -0.128    -0.120  0.5592  0.2410  0.7932
    45 H(1)   Bbb    -0.0005    -0.265    -0.095    -0.089  0.3415  0.8049 -0.4853
              Bcc     0.0012     0.625     0.223     0.208  0.7555 -0.5422 -0.3678
 
              Baa    -0.0075    -1.002    -0.358    -0.334  0.0710 -0.4613  0.8844
    46 C(13)  Bbb     0.0033     0.441     0.157     0.147  0.2909  0.8577  0.4240
              Bcc     0.0042     0.561     0.200     0.187  0.9541 -0.2272 -0.1951
 
              Baa    -0.0130     0.944     0.337     0.315  0.7558 -0.5492 -0.3565
    47 O(17)  Bbb    -0.0113     0.816     0.291     0.272  0.6496  0.6970  0.3036
              Bcc     0.0243    -1.760    -0.628    -0.587  0.0817 -0.4611  0.8836
 
              Baa    -0.0121    -1.620    -0.578    -0.540 -0.0730  0.8887  0.4527
    48 C(13)  Bbb    -0.0111    -1.488    -0.531    -0.496  0.9939  0.1026 -0.0412
              Bcc     0.0232     3.108     1.109     1.037  0.0831 -0.4469  0.8907
 
              Baa    -0.0004    -0.234    -0.083    -0.078  0.0618 -0.4544  0.8887
    49 H(1)   Bbb    -0.0001    -0.047    -0.017    -0.016  0.2215  0.8744  0.4317
              Bcc     0.0005     0.281     0.100     0.094  0.9732 -0.1701 -0.1547
 
              Baa    -0.0006    -0.075    -0.027    -0.025 -0.0052 -0.4272  0.9041
    50 C(13)  Bbb    -0.0002    -0.022    -0.008    -0.007  0.8098 -0.5323 -0.2468
              Bcc     0.0007     0.097     0.035     0.032  0.5867  0.7309  0.3488
 
              Baa    -0.0016    -0.874    -0.312    -0.292  0.1926  0.8855  0.4228
    51 H(1)   Bbb    -0.0001    -0.076    -0.027    -0.025  0.0834 -0.4441  0.8921
              Bcc     0.0018     0.950     0.339     0.317  0.9777 -0.1365 -0.1594
 
              Baa    -0.0003    -0.182    -0.065    -0.061 -0.0107 -0.6393  0.7689
    52 H(1)   Bbb    -0.0002    -0.098    -0.035    -0.033  0.7554 -0.5090 -0.4127
              Bcc     0.0005     0.281     0.100     0.094  0.6552  0.5764  0.4884
 
              Baa    -0.0004    -0.214    -0.076    -0.071 -0.0728 -0.4131  0.9078
    53 H(1)   Bbb    -0.0001    -0.041    -0.015    -0.014  0.8254 -0.5359 -0.1776
              Bcc     0.0005     0.256     0.091     0.085  0.5598  0.7363  0.3800
 
              Baa    -0.0004    -0.194    -0.069    -0.065 -0.0451 -0.1303  0.9904
    54 H(1)   Bbb    -0.0002    -0.083    -0.030    -0.028  0.7668 -0.6399 -0.0493
              Bcc     0.0005     0.277     0.099     0.092  0.6402  0.7573  0.1288
 

 ---------------------------------------------------------------------------------

 Unable to Open any file for archive entry.
 1\1\GINC-CX3-2-22\FOpt\UB3LYP\6-311+G(d,p)\C26H18N2O6S2(1-,2)\NS5018\2
 8-Oct-2021\0\\# opt=modredundant b3lyp/6-311+g(d,p) scrf=(pcm, solvent
 =water)\\NDI_-30.pdb\\-1,2\C,-2.7141488804,-3.0089492838,-0.4560833532
 \C,-2.3438914808,-1.6191939043,-0.2199604184\C,-3.3436958777,-0.624197
 9202,-0.116150539\C,-4.7107593749,-0.9549058743,-0.2468529179\C,-5.112
 0338163,-2.3378176519,-0.489181883\C,-0.9952144054,-1.2580565793,-0.16
 76144315\C,-2.9458835932,0.7303977223,0.1343031854\C,-1.567057441,1.06
 30926546,0.2788696415\C,-0.568338028,0.0547341785,0.0483459968\C,-1.24
 73505555,2.388106146,0.8074647212\C,-3.62307059,3.0966442841,0.5373852
 556\C,-3.9644905059,1.7105975352,0.2519868879\C,-5.3204695421,1.356060
 9886,0.1034618531\C,-5.6918665783,0.0501541177,-0.1412284094\H,-6.7340
 083003,-0.221113079,-0.248175041\H,-6.0664958333,2.1351739447,0.192845
 5913\H,-0.2658566539,-2.0327965841,-0.3653255642\N,-2.2741141118,3.355
 1548503,0.7861672156\N,-4.0820184654,-3.2901955307,-0.5668481642\O,-1.
 8941085563,-3.9293412323,-0.5603515816\O,-6.2921448388,-2.6829796796,-
 0.61999838\O,-4.4600013318,4.0082002839,0.5912509216\O,-0.1575860097,2
 .7134063422,1.2884905572\C,-1.8980816663,4.7144642301,1.1918051421\H,-
 1.8022568283,4.783037145,2.2781724092\H,-0.9412798334,4.97086354,0.742
 6311523\H,-2.6744661429,5.3942654158,0.8554263345\C,-4.4401088149,-4.6
 950041113,-0.7965414862\H,-4.0522968668,-5.029609318,-1.7600385635\H,-
 4.0077760074,-5.3179650353,-0.0138077875\H,-5.5219006588,-4.7732088677
 ,-0.7859703296\C,0.8588961648,0.328500732,-0.1486275289\C,1.4751919641
 ,1.4296206084,-0.6943948777\S,2.0541787618,-0.8686310062,0.3217048848\
 C,2.8838042876,1.3088921648,-0.7671988567\H,0.9297438843,2.2909570912,
 -1.0449640245\C,3.3906624976,0.1191140662,-0.2550485569\O,3.7417382829
 ,2.2320448265,-1.2840134542\C,4.765203385,-0.3039377256,-0.1736874022\
 C,3.1905474416,3.4508283709,-1.7932208532\C,5.2697306011,-1.4945456579
 ,0.336589555\S,6.1039169143,0.6931617531,-0.7427222386\H,4.0381356193,
 4.0381307314,-2.1406213648\H,2.5139309258,3.2550185869,-2.6296278522\H
 ,2.6618947041,3.9990732993,-1.0087585735\C,6.6888823749,-1.6051007006,
 0.2724518607\O,4.4143916161,-2.4265545529,0.8398595543\C,7.2683588155,
 -0.5007068332,-0.2848690889\H,7.2512935676,-2.4588126254,0.6215009043\
 C,4.9710051076,-3.6434494215,1.3479236092\H,8.3179331907,-0.3161361415
 ,-0.4554876956\H,5.6427729865,-3.4459656269,2.1878112401\H,4.125685877
 8,-4.2369879134,1.6899908947\H,5.5058726184,-4.1865327527,0.5639318499
 \\Version=ES64L-G16RevC.01\State=2-A\HF=-2359.502924\S2=0.758294\S2-1=
 0.\S2A=0.750061\RMSD=3.430e-09\RMSF=6.925e-04\Dipole=6.0379146,-0.1576
 157,-0.5801597\Quadrupole=-28.2753989,6.7215536,21.5538453,-6.9680958,
 0.7160914,-15.7213137\PG=C01 [X(C26H18N2O6S2)]\\@
 The archive entry for this job was punched.


 IF YOU GET CONFUSED, LOGIC OUT YOUR DILEMMA

           --  PICKER X-RAY CORP.    DIGITAL PRINTER MANUAL CA. 1964
 Job cpu time:       6 days  2 hours  8 minutes 53.5 seconds.
 Elapsed time:       0 days  9 hours 14 minutes 16.5 seconds.
 File lengths (MBytes):  RWF=   1189 Int=      0 D2E=      0 Chk=     83 Scr=      1
 Normal termination of Gaussian 16 at Thu Oct 28 10:43:53 2021.
