 Entering Gaussian System, Link 0=g16
 Input=NDI_85.gjf
 Output=NDI_85.log
 Initial command:
 /apps/gaussian/g16-c01-avx/g16/l1.exe "/tmp/pbs.4768648[260].pbs/Gau-1968626.inp" -scrdir="/tmp/pbs.4768648[260].pbs/"
 Entering Link 1 = /apps/gaussian/g16-c01-avx/g16/l1.exe PID=   1968629.
  
 Copyright (c) 1988-2019, Gaussian, Inc.  All Rights Reserved.
  
 This is part of the Gaussian(R) 16 program.  It is based on
 the Gaussian(R) 09 system (copyright 2009, Gaussian, Inc.),
 the Gaussian(R) 03 system (copyright 2003, Gaussian, Inc.),
 the Gaussian(R) 98 system (copyright 1998, Gaussian, Inc.),
 the Gaussian(R) 94 system (copyright 1995, Gaussian, Inc.),
 the Gaussian 92(TM) system (copyright 1992, Gaussian, Inc.),
 the Gaussian 90(TM) system (copyright 1990, Gaussian, Inc.),
 the Gaussian 88(TM) system (copyright 1988, Gaussian, Inc.),
 the Gaussian 86(TM) system (copyright 1986, Carnegie Mellon
 University), and the Gaussian 82(TM) system (copyright 1983,
 Carnegie Mellon University). Gaussian is a federally registered
 trademark of Gaussian, Inc.
  
 This software contains proprietary and confidential information,
 including trade secrets, belonging to Gaussian, Inc.
  
 This software is provided under written license and may be
 used, copied, transmitted, or stored only in accord with that
 written license.
  
 The following legend is applicable only to US Government
 contracts under FAR:
  
                    RESTRICTED RIGHTS LEGEND
  
 Use, reproduction and disclosure by the US Government is
 subject to restrictions as set forth in subparagraphs (a)
 and (c) of the Commercial Computer Software - Restricted
 Rights clause in FAR 52.227-19.
  
 Gaussian, Inc.
 340 Quinnipiac St., Bldg. 40, Wallingford CT 06492
  
  
 ---------------------------------------------------------------
 Warning -- This program may not be used in any manner that
 competes with the business of Gaussian, Inc. or will provide
 assistance to any competitor of Gaussian, Inc.  The licensee
 of this program is prohibited from giving any competitor of
 Gaussian, Inc. access to this program.  By using this program,
 the user acknowledges that Gaussian, Inc. is engaged in the
 business of creating and licensing software in the field of
 computational chemistry and represents and warrants to the
 licensee that it is not a competitor of Gaussian, Inc. and that
 it will not use this program in any manner prohibited above.
 ---------------------------------------------------------------
  

 Cite this work as:
 Gaussian 16, Revision C.01,
 M. J. Frisch, G. W. Trucks, H. B. Schlegel, G. E. Scuseria, 
 M. A. Robb, J. R. Cheeseman, G. Scalmani, V. Barone, 
 G. A. Petersson, H. Nakatsuji, X. Li, M. Caricato, A. V. Marenich, 
 J. Bloino, B. G. Janesko, R. Gomperts, B. Mennucci, H. P. Hratchian, 
 J. V. Ortiz, A. F. Izmaylov, J. L. Sonnenberg, D. Williams-Young, 
 F. Ding, F. Lipparini, F. Egidi, J. Goings, B. Peng, A. Petrone, 
 T. Henderson, D. Ranasinghe, V. G. Zakrzewski, J. Gao, N. Rega, 
 G. Zheng, W. Liang, M. Hada, M. Ehara, K. Toyota, R. Fukuda, 
 J. Hasegawa, M. Ishida, T. Nakajima, Y. Honda, O. Kitao, H. Nakai, 
 T. Vreven, K. Throssell, J. A. Montgomery, Jr., J. E. Peralta, 
 F. Ogliaro, M. J. Bearpark, J. J. Heyd, E. N. Brothers, K. N. Kudin, 
 V. N. Staroverov, T. A. Keith, R. Kobayashi, J. Normand, 
 K. Raghavachari, A. P. Rendell, J. C. Burant, S. S. Iyengar, 
 J. Tomasi, M. Cossi, J. M. Millam, M. Klene, C. Adamo, R. Cammi, 
 J. W. Ochterski, R. L. Martin, K. Morokuma, O. Farkas, 
 J. B. Foresman, and D. J. Fox, Gaussian, Inc., Wallingford CT, 2019.
 
 ******************************************
 Gaussian 16:  ES64L-G16RevC.01  3-Jul-2019
                28-Oct-2021 
 ******************************************
 %mem=100GB
 %nprocshared=16
 Will use up to   16 processors via shared memory.
 ---------------------------------------------------------------
 # opt=modredundant b3lyp/6-311+g(d,p) scrf=(pcm, solvent=water)
 ---------------------------------------------------------------
 1/18=120,19=15,26=3,38=1/1,3;
 2/9=110,12=2,17=6,18=5,40=1/2;
 3/5=4,6=6,7=111,11=2,25=1,30=1,70=2201,71=1,72=1,74=-5/1,2,3;
 4//1;
 5/5=2,38=5,53=1/2;
 6/7=2,8=2,9=2,10=2,28=1/1;
 7//1,2,3,16;
 1/18=20,19=15,26=3/3(2);
 2/9=110/2;
 99//99;
 2/9=110/2;
 3/5=4,6=6,7=111,11=2,25=1,30=1,70=2205,71=1,72=1,74=-5/1,2,3;
 4/5=5,16=3,69=1/1;
 5/5=2,38=5,53=1/2;
 7//1,2,3,16;
 1/18=20,19=15,26=3/3(-5);
 2/9=110/2;
 6/7=2,8=2,9=2,10=2,19=2,28=1/1;
 99/9=1/99;
 ----------
 NDI_85.pdb
 ----------
 Symbolic Z-matrix:
 Charge = -1 Multiplicity = 2
 C                    -2.563    -2.994    -0.409 
 C                    -2.257    -1.551    -0.224 
 C                    -3.301    -0.607    -0.083 
 C                    -4.65     -1.024    -0.115 
 C                    -4.992    -2.459    -0.304 
 C                    -0.949    -1.137    -0.215 
 C                    -2.962     0.764     0.102 
 C                    -1.595     1.188     0.123 
 C                    -0.561     0.232    -0.072 
 C                    -1.328     2.616     0.446 
 C                    -3.777     3.115     0.508 
 C                    -4.035     1.679     0.268 
 C                    -5.356     1.252     0.23 
 C                    -5.672    -0.098     0.036 
 H                    -6.699    -0.442     0.008 
 H                    -6.133     1.997     0.361 
 H                    -0.19     -1.895    -0.369 
 N                    -2.432     3.476     0.608 
 N                    -3.916    -3.353    -0.438 
 O                    -1.695    -3.847    -0.532 
 O                    -6.149    -2.85     -0.34 
 O                    -4.676     3.938     0.629 
 O                    -0.212     3.097     0.596 
 C                    -2.111     4.875     0.912 
 H                    -1.54      4.931     1.84 
 H                    -1.5       5.299     0.111 
 H                    -3.05      5.414     1.003 
 C                    -4.206    -4.779    -0.625 
 H                    -3.759    -5.126    -1.559 
 H                    -3.775    -5.355     0.196 
 H                    -5.286    -4.897    -0.649 
 C                     0.876     0.482    -0.178 
 C                     1.844     0.618     0.798 
 S                     1.564     0.826    -1.765 
 C                     3.107     0.982     0.291 
 H                     1.646     0.45      1.844 
 C                     3.151     1.132    -1.099 
 O                     4.24      1.191     1.014 
 C                     4.29      1.453    -1.911 
 C                     4.196     0.891     2.406 
 C                     4.327     1.625    -3.294 
 S                     5.906     1.691    -1.251 
 H                     5.208     1.045     2.778 
 H                     3.508     1.562     2.935 
 H                     3.893    -0.149     2.578 
 C                     5.618     1.938    -3.808 
 O                     3.183     1.482    -4.012 
 C                     6.56      2.006    -2.817 
 H                     5.836     2.106    -4.854 
 C                     3.245     1.698    -5.417 
 H                     7.613     2.227    -2.925 
 H                     3.919     0.98     -5.901 
 H                     2.232     1.55     -5.79 
 H                     3.573     2.718    -5.649 
 
 The following ModRedundant input section has been read:
 D       8       9      32      33 F                                           
 

 GradGradGradGradGradGradGradGradGradGradGradGradGradGradGradGradGradGrad
 Berny optimization.
 Initialization pass.
                           ----------------------------
                           !    Initial Parameters    !
                           ! (Angstroms and Degrees)  !
 --------------------------                            --------------------------
 ! Name  Definition              Value          Derivative Info.                !
 --------------------------------------------------------------------------------
 ! R1    R(1,2)                  1.4866         estimate D2E/DX2                !
 ! R2    R(1,19)                 1.4001         estimate D2E/DX2                !
 ! R3    R(1,20)                 1.2232         estimate D2E/DX2                !
 ! R4    R(2,3)                  1.4146         estimate D2E/DX2                !
 ! R5    R(2,6)                  1.372          estimate D2E/DX2                !
 ! R6    R(3,4)                  1.4123         estimate D2E/DX2                !
 ! R7    R(3,7)                  1.4244         estimate D2E/DX2                !
 ! R8    R(4,5)                  1.4872         estimate D2E/DX2                !
 ! R9    R(4,14)                 1.3874         estimate D2E/DX2                !
 ! R10   R(5,19)                 1.4053         estimate D2E/DX2                !
 ! R11   R(5,21)                 1.2218         estimate D2E/DX2                !
 ! R12   R(6,9)                  1.4301         estimate D2E/DX2                !
 ! R13   R(6,17)                 1.0837         estimate D2E/DX2                !
 ! R14   R(7,8)                  1.4314         estimate D2E/DX2                !
 ! R15   R(7,12)                 1.4199         estimate D2E/DX2                !
 ! R16   R(8,9)                  1.4217         estimate D2E/DX2                !
 ! R17   R(8,10)                 1.4882         estimate D2E/DX2                !
 ! R18   R(9,32)                 1.4624         estimate D2E/DX2                !
 ! R19   R(10,18)                1.4088         estimate D2E/DX2                !
 ! R20   R(10,23)                1.2245         estimate D2E/DX2                !
 ! R21   R(11,12)                1.4786         estimate D2E/DX2                !
 ! R22   R(11,18)                1.3962         estimate D2E/DX2                !
 ! R23   R(11,22)                1.2248         estimate D2E/DX2                !
 ! R24   R(12,13)                1.3888         estimate D2E/DX2                !
 ! R25   R(13,14)                1.4            estimate D2E/DX2                !
 ! R26   R(13,16)                1.0844         estimate D2E/DX2                !
 ! R27   R(14,15)                1.0834         estimate D2E/DX2                !
 ! R28   R(18,24)                1.4672         estimate D2E/DX2                !
 ! R29   R(19,28)                1.4672         estimate D2E/DX2                !
 ! R30   R(24,25)                1.091          estimate D2E/DX2                !
 ! R31   R(24,26)                1.093          estimate D2E/DX2                !
 ! R32   R(24,27)                1.0865         estimate D2E/DX2                !
 ! R33   R(28,29)                1.0921         estimate D2E/DX2                !
 ! R34   R(28,30)                1.0916         estimate D2E/DX2                !
 ! R35   R(28,31)                1.0867         estimate D2E/DX2                !
 ! R36   R(32,33)                1.3813         estimate D2E/DX2                !
 ! R37   R(32,34)                1.7636         estimate D2E/DX2                !
 ! R38   R(33,35)                1.4088         estimate D2E/DX2                !
 ! R39   R(33,36)                1.0777         estimate D2E/DX2                !
 ! R40   R(34,37)                1.7481         estimate D2E/DX2                !
 ! R41   R(35,37)                1.3988         estimate D2E/DX2                !
 ! R42   R(35,38)                1.3602         estimate D2E/DX2                !
 ! R43   R(37,39)                1.4352         estimate D2E/DX2                !
 ! R44   R(38,40)                1.4246         estimate D2E/DX2                !
 ! R45   R(39,41)                1.3941         estimate D2E/DX2                !
 ! R46   R(39,42)                1.7617         estimate D2E/DX2                !
 ! R47   R(40,43)                1.0891         estimate D2E/DX2                !
 ! R48   R(40,44)                1.097          estimate D2E/DX2                !
 ! R49   R(40,45)                1.0968         estimate D2E/DX2                !
 ! R50   R(41,46)                1.4244         estimate D2E/DX2                !
 ! R51   R(41,47)                1.3582         estimate D2E/DX2                !
 ! R52   R(42,48)                1.7261         estimate D2E/DX2                !
 ! R53   R(46,48)                1.369          estimate D2E/DX2                !
 ! R54   R(46,49)                1.0816         estimate D2E/DX2                !
 ! R55   R(47,50)                1.4229         estimate D2E/DX2                !
 ! R56   R(48,51)                1.0813         estimate D2E/DX2                !
 ! R57   R(50,52)                1.0973         estimate D2E/DX2                !
 ! R58   R(50,53)                1.0896         estimate D2E/DX2                !
 ! R59   R(50,54)                1.0963         estimate D2E/DX2                !
 ! A1    A(2,1,19)             116.767          estimate D2E/DX2                !
 ! A2    A(2,1,20)             122.9113         estimate D2E/DX2                !
 ! A3    A(19,1,20)            120.3217         estimate D2E/DX2                !
 ! A4    A(1,2,3)              120.5473         estimate D2E/DX2                !
 ! A5    A(1,2,6)              119.3369         estimate D2E/DX2                !
 ! A6    A(3,2,6)              120.1056         estimate D2E/DX2                !
 ! A7    A(2,3,4)              120.3743         estimate D2E/DX2                !
 ! A8    A(2,3,7)              118.662          estimate D2E/DX2                !
 ! A9    A(4,3,7)              120.9617         estimate D2E/DX2                !
 ! A10   A(3,4,5)              120.4909         estimate D2E/DX2                !
 ! A11   A(3,4,14)             120.2702         estimate D2E/DX2                !
 ! A12   A(5,4,14)             119.2382         estimate D2E/DX2                !
 ! A13   A(4,5,19)             116.7341         estimate D2E/DX2                !
 ! A14   A(4,5,21)             122.024          estimate D2E/DX2                !
 ! A15   A(19,5,21)            121.2418         estimate D2E/DX2                !
 ! A16   A(2,6,9)              123.2421         estimate D2E/DX2                !
 ! A17   A(2,6,17)             117.1119         estimate D2E/DX2                !
 ! A18   A(9,6,17)             119.589          estimate D2E/DX2                !
 ! A19   A(3,7,8)              120.9519         estimate D2E/DX2                !
 ! A20   A(3,7,12)             117.1037         estimate D2E/DX2                !
 ! A21   A(8,7,12)             121.944          estimate D2E/DX2                !
 ! A22   A(7,8,9)              119.5639         estimate D2E/DX2                !
 ! A23   A(7,8,10)             117.3064         estimate D2E/DX2                !
 ! A24   A(9,8,10)             122.9922         estimate D2E/DX2                !
 ! A25   A(6,9,8)              117.3944         estimate D2E/DX2                !
 ! A26   A(6,9,32)             115.0236         estimate D2E/DX2                !
 ! A27   A(8,9,32)             127.5648         estimate D2E/DX2                !
 ! A28   A(8,10,18)            118.042          estimate D2E/DX2                !
 ! A29   A(8,10,23)            124.5436         estimate D2E/DX2                !
 ! A30   A(18,10,23)           117.4097         estimate D2E/DX2                !
 ! A31   A(12,11,18)           115.5202         estimate D2E/DX2                !
 ! A32   A(12,11,22)           122.7205         estimate D2E/DX2                !
 ! A33   A(18,11,22)           121.7534         estimate D2E/DX2                !
 ! A34   A(7,12,11)            120.8614         estimate D2E/DX2                !
 ! A35   A(7,12,13)            121.162          estimate D2E/DX2                !
 ! A36   A(11,12,13)           117.9699         estimate D2E/DX2                !
 ! A37   A(12,13,14)           120.9948         estimate D2E/DX2                !
 ! A38   A(12,13,16)           117.8401         estimate D2E/DX2                !
 ! A39   A(14,13,16)           121.1642         estimate D2E/DX2                !
 ! A40   A(4,14,13)            119.5003         estimate D2E/DX2                !
 ! A41   A(4,14,15)            118.9169         estimate D2E/DX2                !
 ! A42   A(13,14,15)           121.5811         estimate D2E/DX2                !
 ! A43   A(10,18,11)           126.0753         estimate D2E/DX2                !
 ! A44   A(10,18,24)           115.7508         estimate D2E/DX2                !
 ! A45   A(11,18,24)           118.1737         estimate D2E/DX2                !
 ! A46   A(1,19,5)             125.0856         estimate D2E/DX2                !
 ! A47   A(1,19,28)            116.2868         estimate D2E/DX2                !
 ! A48   A(5,19,28)            118.6276         estimate D2E/DX2                !
 ! A49   A(18,24,25)           109.8574         estimate D2E/DX2                !
 ! A50   A(18,24,26)           109.8979         estimate D2E/DX2                !
 ! A51   A(18,24,27)           107.5355         estimate D2E/DX2                !
 ! A52   A(25,24,26)           108.1108         estimate D2E/DX2                !
 ! A53   A(25,24,27)           110.8301         estimate D2E/DX2                !
 ! A54   A(26,24,27)           110.6124         estimate D2E/DX2                !
 ! A55   A(19,28,29)           109.6906         estimate D2E/DX2                !
 ! A56   A(19,28,30)           109.8136         estimate D2E/DX2                !
 ! A57   A(19,28,31)           107.7461         estimate D2E/DX2                !
 ! A58   A(29,28,30)           108.2991         estimate D2E/DX2                !
 ! A59   A(29,28,31)           110.6959         estimate D2E/DX2                !
 ! A60   A(30,28,31)           110.5924         estimate D2E/DX2                !
 ! A61   A(9,32,33)            130.8591         estimate D2E/DX2                !
 ! A62   A(9,32,34)            118.8095         estimate D2E/DX2                !
 ! A63   A(33,32,34)           110.0737         estimate D2E/DX2                !
 ! A64   A(32,33,35)           113.5411         estimate D2E/DX2                !
 ! A65   A(32,33,36)           122.7965         estimate D2E/DX2                !
 ! A66   A(35,33,36)           123.6596         estimate D2E/DX2                !
 ! A67   A(32,34,37)            92.6061         estimate D2E/DX2                !
 ! A68   A(33,35,37)           114.4271         estimate D2E/DX2                !
 ! A69   A(33,35,38)           126.5253         estimate D2E/DX2                !
 ! A70   A(37,35,38)           119.0476         estimate D2E/DX2                !
 ! A71   A(34,37,35)           109.3461         estimate D2E/DX2                !
 ! A72   A(34,37,39)           122.9632         estimate D2E/DX2                !
 ! A73   A(35,37,39)           127.6759         estimate D2E/DX2                !
 ! A74   A(35,38,40)           117.47           estimate D2E/DX2                !
 ! A75   A(37,39,41)           127.5838         estimate D2E/DX2                !
 ! A76   A(37,39,42)           123.1094         estimate D2E/DX2                !
 ! A77   A(41,39,42)           109.3067         estimate D2E/DX2                !
 ! A78   A(38,40,43)           105.9771         estimate D2E/DX2                !
 ! A79   A(38,40,44)           111.207          estimate D2E/DX2                !
 ! A80   A(38,40,45)           111.188          estimate D2E/DX2                !
 ! A81   A(43,40,44)           109.3627         estimate D2E/DX2                !
 ! A82   A(43,40,45)           109.7062         estimate D2E/DX2                !
 ! A83   A(44,40,45)           109.3358         estimate D2E/DX2                !
 ! A84   A(39,41,46)           114.1508         estimate D2E/DX2                !
 ! A85   A(39,41,47)           119.2795         estimate D2E/DX2                !
 ! A86   A(46,41,47)           126.5691         estimate D2E/DX2                !
 ! A87   A(39,42,48)            91.852          estimate D2E/DX2                !
 ! A88   A(41,46,48)           111.9233         estimate D2E/DX2                !
 ! A89   A(41,46,49)           124.4574         estimate D2E/DX2                !
 ! A90   A(48,46,49)           123.6191         estimate D2E/DX2                !
 ! A91   A(41,47,50)           117.9902         estimate D2E/DX2                !
 ! A92   A(42,48,46)           112.7671         estimate D2E/DX2                !
 ! A93   A(42,48,51)           119.7935         estimate D2E/DX2                !
 ! A94   A(46,48,51)           127.4395         estimate D2E/DX2                !
 ! A95   A(47,50,52)           111.2834         estimate D2E/DX2                !
 ! A96   A(47,50,53)           106.0755         estimate D2E/DX2                !
 ! A97   A(47,50,54)           111.3001         estimate D2E/DX2                !
 ! A98   A(52,50,53)           109.3408         estimate D2E/DX2                !
 ! A99   A(52,50,54)           109.3714         estimate D2E/DX2                !
 ! A100  A(53,50,54)           109.3963         estimate D2E/DX2                !
 ! D1    D(19,1,2,3)             0.1578         estimate D2E/DX2                !
 ! D2    D(19,1,2,6)          -178.6792         estimate D2E/DX2                !
 ! D3    D(20,1,2,3)          -179.8231         estimate D2E/DX2                !
 ! D4    D(20,1,2,6)             1.3399         estimate D2E/DX2                !
 ! D5    D(2,1,19,5)            -0.124          estimate D2E/DX2                !
 ! D6    D(2,1,19,28)          179.8267         estimate D2E/DX2                !
 ! D7    D(20,1,19,5)          179.8575         estimate D2E/DX2                !
 ! D8    D(20,1,19,28)          -0.1919         estimate D2E/DX2                !
 ! D9    D(1,2,3,4)              0.0571         estimate D2E/DX2                !
 ! D10   D(1,2,3,7)            179.5453         estimate D2E/DX2                !
 ! D11   D(6,2,3,4)            178.8851         estimate D2E/DX2                !
 ! D12   D(6,2,3,7)             -1.6266         estimate D2E/DX2                !
 ! D13   D(1,2,6,9)            178.625          estimate D2E/DX2                !
 ! D14   D(1,2,6,17)             1.3881         estimate D2E/DX2                !
 ! D15   D(3,2,6,9)             -0.2173         estimate D2E/DX2                !
 ! D16   D(3,2,6,17)          -177.4541         estimate D2E/DX2                !
 ! D17   D(2,3,4,5)             -0.3074         estimate D2E/DX2                !
 ! D18   D(2,3,4,14)           179.3968         estimate D2E/DX2                !
 ! D19   D(7,3,4,5)           -179.7837         estimate D2E/DX2                !
 ! D20   D(7,3,4,14)            -0.0795         estimate D2E/DX2                !
 ! D21   D(2,3,7,8)              1.0523         estimate D2E/DX2                !
 ! D22   D(2,3,7,12)          -178.712          estimate D2E/DX2                !
 ! D23   D(4,3,7,8)           -179.4626         estimate D2E/DX2                !
 ! D24   D(4,3,7,12)             0.7731         estimate D2E/DX2                !
 ! D25   D(3,4,5,19)             0.3343         estimate D2E/DX2                !
 ! D26   D(3,4,5,21)          -179.7799         estimate D2E/DX2                !
 ! D27   D(14,4,5,19)         -179.3729         estimate D2E/DX2                !
 ! D28   D(14,4,5,21)            0.5129         estimate D2E/DX2                !
 ! D29   D(3,4,14,13)           -0.4559         estimate D2E/DX2                !
 ! D30   D(3,4,14,15)         -179.9937         estimate D2E/DX2                !
 ! D31   D(5,4,14,13)          179.252          estimate D2E/DX2                !
 ! D32   D(5,4,14,15)           -0.2858         estimate D2E/DX2                !
 ! D33   D(4,5,19,1)            -0.1141         estimate D2E/DX2                !
 ! D34   D(4,5,19,28)          179.9364         estimate D2E/DX2                !
 ! D35   D(21,5,19,1)          179.9992         estimate D2E/DX2                !
 ! D36   D(21,5,19,28)           0.0496         estimate D2E/DX2                !
 ! D37   D(2,6,9,8)              2.5984         estimate D2E/DX2                !
 ! D38   D(2,6,9,32)          -176.0103         estimate D2E/DX2                !
 ! D39   D(17,6,9,8)           179.77           estimate D2E/DX2                !
 ! D40   D(17,6,9,32)            1.1613         estimate D2E/DX2                !
 ! D41   D(3,7,8,9)              1.3551         estimate D2E/DX2                !
 ! D42   D(3,7,8,10)          -174.5099         estimate D2E/DX2                !
 ! D43   D(12,7,8,9)          -178.8921         estimate D2E/DX2                !
 ! D44   D(12,7,8,10)            5.2428         estimate D2E/DX2                !
 ! D45   D(3,7,12,11)          178.0768         estimate D2E/DX2                !
 ! D46   D(3,7,12,13)           -0.9621         estimate D2E/DX2                !
 ! D47   D(8,7,12,11)           -1.685          estimate D2E/DX2                !
 ! D48   D(8,7,12,13)          179.2761         estimate D2E/DX2                !
 ! D49   D(7,8,9,6)             -3.0809         estimate D2E/DX2                !
 ! D50   D(7,8,9,32)           175.3285         estimate D2E/DX2                !
 ! D51   D(10,8,9,6)           172.5381         estimate D2E/DX2                !
 ! D52   D(10,8,9,32)           -9.0525         estimate D2E/DX2                !
 ! D53   D(7,8,10,18)           -4.7549         estimate D2E/DX2                !
 ! D54   D(7,8,10,23)          174.4235         estimate D2E/DX2                !
 ! D55   D(9,8,10,18)          179.5335         estimate D2E/DX2                !
 ! D56   D(9,8,10,23)           -1.2882         estimate D2E/DX2                !
 ! D57   D(6,9,32,33)          -96.561          estimate D2E/DX2                !
 ! D58   D(6,9,32,34)           89.9095         estimate D2E/DX2                !
 ! D59   D(8,9,32,33)           84.9974         Frozen                          !
 ! D60   D(8,9,32,34)          -88.532          estimate D2E/DX2                !
 ! D61   D(8,10,18,11)           0.7189         estimate D2E/DX2                !
 ! D62   D(8,10,18,24)        -179.4089         estimate D2E/DX2                !
 ! D63   D(23,10,18,11)       -178.5188         estimate D2E/DX2                !
 ! D64   D(23,10,18,24)          1.3535         estimate D2E/DX2                !
 ! D65   D(18,11,12,7)          -2.3856         estimate D2E/DX2                !
 ! D66   D(18,11,12,13)        176.6833         estimate D2E/DX2                !
 ! D67   D(22,11,12,7)         178.4862         estimate D2E/DX2                !
 ! D68   D(22,11,12,13)         -2.445          estimate D2E/DX2                !
 ! D69   D(12,11,18,10)          2.8444         estimate D2E/DX2                !
 ! D70   D(12,11,18,24)       -177.0251         estimate D2E/DX2                !
 ! D71   D(22,11,18,10)       -178.0181         estimate D2E/DX2                !
 ! D72   D(22,11,18,24)          2.1124         estimate D2E/DX2                !
 ! D73   D(7,12,13,14)           0.461          estimate D2E/DX2                !
 ! D74   D(7,12,13,16)        -179.8781         estimate D2E/DX2                !
 ! D75   D(11,12,13,14)       -178.6049         estimate D2E/DX2                !
 ! D76   D(11,12,13,16)          1.056          estimate D2E/DX2                !
 ! D77   D(12,13,14,4)           0.2708         estimate D2E/DX2                !
 ! D78   D(12,13,14,15)        179.7958         estimate D2E/DX2                !
 ! D79   D(16,13,14,4)        -179.3788         estimate D2E/DX2                !
 ! D80   D(16,13,14,15)          0.1463         estimate D2E/DX2                !
 ! D81   D(10,18,24,25)        -59.609          estimate D2E/DX2                !
 ! D82   D(10,18,24,26)         59.2209         estimate D2E/DX2                !
 ! D83   D(10,18,24,27)        179.6858         estimate D2E/DX2                !
 ! D84   D(11,18,24,25)        120.2739         estimate D2E/DX2                !
 ! D85   D(11,18,24,26)       -120.8962         estimate D2E/DX2                !
 ! D86   D(11,18,24,27)         -0.4313         estimate D2E/DX2                !
 ! D87   D(1,19,28,29)         -58.1407         estimate D2E/DX2                !
 ! D88   D(1,19,28,30)          60.7668         estimate D2E/DX2                !
 ! D89   D(1,19,28,31)        -178.7139         estimate D2E/DX2                !
 ! D90   D(5,19,28,29)         121.8132         estimate D2E/DX2                !
 ! D91   D(5,19,28,30)        -119.2792         estimate D2E/DX2                !
 ! D92   D(5,19,28,31)           1.2401         estimate D2E/DX2                !
 ! D93   D(9,32,33,35)        -174.2449         estimate D2E/DX2                !
 ! D94   D(9,32,33,36)           6.3455         estimate D2E/DX2                !
 ! D95   D(34,32,33,35)         -0.2797         estimate D2E/DX2                !
 ! D96   D(34,32,33,36)       -179.6892         estimate D2E/DX2                !
 ! D97   D(9,32,34,37)         175.372          estimate D2E/DX2                !
 ! D98   D(33,32,34,37)          0.5784         estimate D2E/DX2                !
 ! D99   D(32,33,35,37)         -0.2814         estimate D2E/DX2                !
 ! D100  D(32,33,35,38)        179.7024         estimate D2E/DX2                !
 ! D101  D(36,33,35,37)        179.1223         estimate D2E/DX2                !
 ! D102  D(36,33,35,38)         -0.8939         estimate D2E/DX2                !
 ! D103  D(32,34,37,35)         -0.7209         estimate D2E/DX2                !
 ! D104  D(32,34,37,39)        177.9776         estimate D2E/DX2                !
 ! D105  D(33,35,37,34)          0.7044         estimate D2E/DX2                !
 ! D106  D(33,35,37,39)       -177.9158         estimate D2E/DX2                !
 ! D107  D(38,35,37,34)       -179.2806         estimate D2E/DX2                !
 ! D108  D(38,35,37,39)          2.0991         estimate D2E/DX2                !
 ! D109  D(33,35,38,40)          6.5906         estimate D2E/DX2                !
 ! D110  D(37,35,38,40)       -173.4264         estimate D2E/DX2                !
 ! D111  D(34,37,39,41)          2.7729         estimate D2E/DX2                !
 ! D112  D(34,37,39,42)       -177.1659         estimate D2E/DX2                !
 ! D113  D(35,37,39,41)       -178.7788         estimate D2E/DX2                !
 ! D114  D(35,37,39,42)          1.2824         estimate D2E/DX2                !
 ! D115  D(35,38,40,43)        175.4401         estimate D2E/DX2                !
 ! D116  D(35,38,40,44)        -65.8083         estimate D2E/DX2                !
 ! D117  D(35,38,40,45)         56.2859         estimate D2E/DX2                !
 ! D118  D(37,39,41,46)       -179.8952         estimate D2E/DX2                !
 ! D119  D(37,39,41,47)         -0.1526         estimate D2E/DX2                !
 ! D120  D(42,39,41,46)          0.0505         estimate D2E/DX2                !
 ! D121  D(42,39,41,47)        179.7931         estimate D2E/DX2                !
 ! D122  D(37,39,42,48)        179.9587         estimate D2E/DX2                !
 ! D123  D(41,39,42,48)          0.0101         estimate D2E/DX2                !
 ! D124  D(39,41,46,48)         -0.1046         estimate D2E/DX2                !
 ! D125  D(39,41,46,49)       -179.9463         estimate D2E/DX2                !
 ! D126  D(47,41,46,48)       -179.8251         estimate D2E/DX2                !
 ! D127  D(47,41,46,49)          0.3332         estimate D2E/DX2                !
 ! D128  D(39,41,47,50)        178.3835         estimate D2E/DX2                !
 ! D129  D(46,41,47,50)         -1.909          estimate D2E/DX2                !
 ! D130  D(39,42,48,46)         -0.0704         estimate D2E/DX2                !
 ! D131  D(39,42,48,51)        179.8971         estimate D2E/DX2                !
 ! D132  D(41,46,48,42)          0.1105         estimate D2E/DX2                !
 ! D133  D(41,46,48,51)       -179.8539         estimate D2E/DX2                !
 ! D134  D(49,46,48,42)        179.9538         estimate D2E/DX2                !
 ! D135  D(49,46,48,51)         -0.0107         estimate D2E/DX2                !
 ! D136  D(41,47,50,52)         62.0496         estimate D2E/DX2                !
 ! D137  D(41,47,50,53)       -179.1246         estimate D2E/DX2                !
 ! D138  D(41,47,50,54)        -60.2229         estimate D2E/DX2                !
 --------------------------------------------------------------------------------
 Trust Radius=3.00D-01 FncErr=1.00D-07 GrdErr=1.00D-06 EigMax=2.50D+02 EigMin=1.00D-04
 Number of steps in this run=    307 maximum allowed number of steps=    324.
 GradGradGradGradGradGradGradGradGradGradGradGradGradGradGradGradGradGrad

 Stoichiometry    C26H18N2O6S2(1-,2)
 Framework group  C1[X(C26H18N2O6S2)]
 Deg. of freedom   156
 Full point group                 C1      NOp   1
 Largest Abelian subgroup         C1      NOp   1
 Largest concise Abelian subgroup C1      NOp   1
                         Standard orientation:                         
 ---------------------------------------------------------------------
 Center     Atomic      Atomic             Coordinates (Angstroms)
 Number     Number       Type             X           Y           Z
 ---------------------------------------------------------------------
      1          6           0       -3.261074   -2.821774    0.438105
      2          6           0       -2.631921   -1.478095    0.344292
      3          6           0       -3.399700   -0.348955   -0.025183
      4          6           0       -4.776658   -0.483483   -0.309091
      5          6           0       -5.436939   -1.813801   -0.230394
      6          6           0       -1.289918   -1.345127    0.596661
      7          6           0       -2.758170    0.920937   -0.093013
      8          6           0       -1.360198    1.055222    0.183660
      9          6           0       -0.594290   -0.099146    0.502935
     10          6           0       -0.799174    2.433352    0.212164
     11          6           0       -2.994805    3.398877   -0.493111
     12          6           0       -3.565876    2.036052   -0.439769
     13          6           0       -4.917803    1.884905   -0.719524
     14          6           0       -5.530336    0.627469   -0.659114
     15          1           0       -6.584827    0.499168   -0.872272
     16          1           0       -5.483316    2.772641   -0.980359
     17          1           0       -0.740243   -2.248286    0.834403
     18          7           0       -1.649734    3.501950   -0.133243
     19          7           0       -4.627262   -2.900407    0.142001
     20          8           0       -2.639376   -3.825971    0.756290
     21          8           0       -6.624928   -1.962890   -0.473867
     22          8           0       -3.653226    4.380521   -0.814091
     23          8           0        0.350971    2.708347    0.529749
     24          6           0       -1.041499    4.836750   -0.101336
     25          1           0       -0.671488    5.051516    0.902321
     26          1           0       -0.194712    4.876286   -0.791327
     27          1           0       -1.805909    5.551868   -0.392551
     28          6           0       -5.236464   -4.231926    0.234059
     29          1           0       -4.719538   -4.920326   -0.437853
     30          1           0       -5.142505   -4.612169    1.252963
     31          1           0       -6.282812   -4.137359   -0.043635
     32          6           0        0.849570   -0.178832    0.721167
     33          6           0        1.606002    0.046999    1.854704
     34         16           0        1.904097   -0.461686   -0.663830
     35          6           0        2.994774   -0.010570    1.625109
     36          1           0        1.167635    0.238194    2.820531
     37          6           0        3.351178   -0.290116    0.301717
     38          8           0        3.976321    0.176288    2.548010
     39          6           0        4.672066   -0.453760   -0.235108
     40          6           0        3.580356    0.316195    3.909347
     41          6           0        5.026213   -0.709294   -1.559088
     42         16           0        6.129980   -0.353228    0.748803
     43          1           0        4.502845    0.371563    4.485709
     44          1           0        3.000668    1.235004    4.061592
     45          1           0        2.988456   -0.545725    4.240619
     46          6           0        6.429509   -0.822108   -1.775605
     47          8           0        4.050515   -0.830812   -2.496080
     48          6           0        7.140650   -0.650308   -0.618526
     49          1           0        6.886771   -1.017229   -2.736180
     50          6           0        4.444131   -1.056627   -3.844635
     51          1           0        8.214562   -0.682327   -0.496041
     52          1           0        4.989397   -2.003316   -3.947203
     53          1           0        3.522463   -1.106486   -4.423637
     54          1           0        5.066327   -0.236058   -4.220597
 ---------------------------------------------------------------------
 Rotational constants (GHZ):           0.1585682           0.0546187           0.0478431
 Standard basis: 6-311+G(d,p) (5D, 7F)
 There are   952 symmetry adapted cartesian basis functions of A   symmetry.
 There are   916 symmetry adapted basis functions of A   symmetry.
   916 basis functions,  1468 primitive gaussians,   952 cartesian basis functions
   135 alpha electrons      134 beta electrons
       nuclear repulsion energy      4083.2247237783 Hartrees.
 NAtoms=   54 NActive=   54 NUniq=   54 SFac= 1.00D+00 NAtFMM=   60 NAOKFM=F Big=F
 Integral buffers will be    131072 words long.
 Raffenetti 2 integral format.
 Two-electron integral symmetry is turned on.
 ------------------------------------------------------------------------------
 Polarizable Continuum Model (PCM)
 =================================
 Model                : PCM.
 Atomic radii         : UFF (Universal Force Field).
 Polarization charges : Total charges.
 Charge compensation  : None.
 Solution method      : On-the-fly selection.
 Cavity type          : Scaled VdW (van der Waals Surface) (Alpha=1.100).
 Cavity algorithm     : GePol (No added spheres)
                        Default sphere list used, NSphG=   54.
                        Lebedev-Laikov grids with approx.  5.0 points / Ang**2.
                        Smoothing algorithm: York/Karplus (Gamma=1.0000).
                        Polarization charges: spherical gaussians, with
                                              point-specific exponents (IZeta= 3).
                        Self-potential: point-specific (ISelfS= 7).
                        Self-field    : sphere-specific E.n sum rule (ISelfD= 2).
 1st derivatives      : Analytical E(r).r(x)/FMM algorithm (CHGder, D1EAlg=3).
                        Cavity 1st derivative terms included.
 Solvent              : Water, Eps=  78.355300 Eps(inf)=   1.777849
 ------------------------------------------------------------------------------
 One-electron integrals computed using PRISM.
 NBasis=   916 RedAO= T EigKep=  1.37D-06  NBF=   916
 NBsUse=   901 1.00D-06 EigRej=  9.83D-07 NBFU=   901
 ExpMin= 4.05D-02 ExpMax= 9.34D+04 ExpMxC= 3.17D+03 IAcc=3 IRadAn=         5 AccDes= 0.00D+00
 Harris functional with IExCor=  402 and IRadAn=       5 diagonalized for initial guess.
 HarFok:  IExCor=  402 AccDes= 0.00D+00 IRadAn=         5 IDoV= 1 UseB2=F ITyADJ=14
 ICtDFT=  3500011 ScaDFX=  1.000000  1.000000  1.000000  1.000000
 FoFCou: FMM=F IPFlag=           0 FMFlag=      100000 FMFlg1=           0
         NFxFlg=           0 DoJE=T BraDBF=F KetDBF=T FulRan=T
         wScrn=  0.000000 ICntrl=       500 IOpCl=  0 I1Cent=   200000004 NGrid=           0
         NMat0=    1 NMatS0=      1 NMatT0=    0 NMatD0=    1 NMtDS0=    0 NMtDT0=    0
 Petite list used in FoFCou.
 Initial guess <Sx>= 0.0000 <Sy>= 0.0000 <Sz>= 0.5000 <S**2>= 0.7500 S= 0.5000
 Requested convergence on RMS density matrix=1.00D-08 within 128 cycles.
 Requested convergence on MAX density matrix=1.00D-06.
 Requested convergence on             energy=1.00D-06.
 No special actions if energy rises.
 Inv3:  Mode=1 IEnd=    54955200.
 Iteration    1 A*A^-1 deviation from unit magnitude is 6.44D-15 for   4270.
 Iteration    1 A*A^-1 deviation from orthogonality  is 2.78D-15 for   2742   2287.
 Iteration    1 A^-1*A deviation from unit magnitude is 6.66D-15 for   4270.
 Iteration    1 A^-1*A deviation from orthogonality  is 2.00D-15 for   3576   1071.
 Error on total polarization charges =  0.02612
 SCF Done:  E(UB3LYP) =  -2359.49470081     A.U. after   20 cycles
            NFock= 20  Conv=0.94D-08     -V/T= 2.0031
 <Sx>= 0.0000 <Sy>= 0.0000 <Sz>= 0.5000 <S**2>= 0.7572 S= 0.5036
 <L.S>=  0.00000000000    
 Annihilation of the first spin contaminant:
 S**2 before annihilation     0.7572,   after     0.7500

 **********************************************************************

            Population analysis using the SCF Density.

 **********************************************************************

 Orbital symmetries:
 Alpha Orbitals:
       Occupied  (A) (A) (A) (A) (A) (A) (A) (A) (A) (A) (A) (A)
                 (A) (A) (A) (A) (A) (A) (A) (A) (A) (A) (A) (A)
                 (A) (A) (A) (A) (A) (A) (A) (A) (A) (A) (A) (A)
                 (A) (A) (A) (A) (A) (A) (A) (A) (A) (A) (A) (A)
                 (A) (A) (A) (A) (A) (A) (A) (A) (A) (A) (A) (A)
                 (A) (A) (A) (A) (A) (A) (A) (A) (A) (A) (A) (A)
                 (A) (A) (A) (A) (A) (A) (A) (A) (A) (A) (A) (A)
                 (A) (A) (A) (A) (A) (A) (A) (A) (A) (A) (A) (A)
                 (A) (A) (A) (A) (A) (A) (A) (A) (A) (A) (A) (A)
                 (A) (A) (A) (A) (A) (A) (A) (A) (A) (A) (A) (A)
                 (A) (A) (A) (A) (A) (A) (A) (A) (A) (A) (A) (A)
                 (A) (A) (A)
       Virtual   (A) (A) (A) (A) (A) (A) (A) (A) (A) (A) (A) (A)
                 (A) (A) (A) (A) (A) (A) (A) (A) (A) (A) (A) (A)
                 (A) (A) (A) (A) (A) (A) (A) (A) (A) (A) (A) (A)
                 (A) (A) (A) (A) (A) (A) (A) (A) (A) (A) (A) (A)
                 (A) (A) (A) (A) (A) (A) (A) (A) (A) (A) (A) (A)
                 (A) (A) (A) (A) (A) (A) (A) (A) (A) (A) (A) (A)
                 (A) (A) (A) (A) (A) (A) (A) (A) (A) (A) (A) (A)
                 (A) (A) (A) (A) (A) (A) (A) (A) (A) (A) (A) (A)
                 (A) (A) (A) (A) (A) (A) (A) (A) (A) (A) (A) (A)
                 (A) (A) (A) (A) (A) (A) (A) (A) (A) (A) (A) (A)
                 (A) (A) (A) (A) (A) (A) (A) (A) (A) (A) (A) (A)
                 (A) (A) (A) (A) (A) (A) (A) (A) (A) (A) (A) (A)
                 (A) (A) (A) (A) (A) (A) (A) (A) (A) (A) (A) (A)
                 (A) (A) (A) (A) (A) (A) (A) (A) (A) (A) (A) (A)
                 (A) (A) (A) (A) (A) (A) (A) (A) (A) (A) (A) (A)
                 (A) (A) (A) (A) (A) (A) (A) (A) (A) (A) (A) (A)
                 (A) (A) (A) (A) (A) (A) (A) (A) (A) (A) (A) (A)
                 (A) (A) (A) (A) (A) (A) (A) (A) (A) (A) (A) (A)
                 (A) (A) (A) (A) (A) (A) (A) (A) (A) (A) (A) (A)
                 (A) (A) (A) (A) (A) (A) (A) (A) (A) (A) (A) (A)
                 (A) (A) (A) (A) (A) (A) (A) (A) (A) (A) (A) (A)
                 (A) (A) (A) (A) (A) (A) (A) (A) (A) (A) (A) (A)
                 (A) (A) (A) (A) (A) (A) (A) (A) (A) (A) (A) (A)
                 (A) (A) (A) (A) (A) (A) (A) (A) (A) (A) (A) (A)
                 (A) (A) (A) (A) (A) (A) (A) (A) (A) (A) (A) (A)
                 (A) (A) (A) (A) (A) (A) (A) (A) (A) (A) (A) (A)
                 (A) (A) (A) (A) (A) (A) (A) (A) (A) (A) (A) (A)
                 (A) (A) (A) (A) (A) (A) (A) (A) (A) (A) (A) (A)
                 (A) (A) (A) (A) (A) (A) (A) (A) (A) (A) (A) (A)
                 (A) (A) (A) (A) (A) (A) (A) (A) (A) (A) (A) (A)
                 (A) (A) (A) (A) (A) (A) (A) (A) (A) (A) (A) (A)
                 (A) (A) (A) (A) (A) (A) (A) (A) (A) (A) (A) (A)
                 (A) (A) (A) (A) (A) (A) (A) (A) (A) (A) (A) (A)
                 (A) (A) (A) (A) (A) (A) (A) (A) (A) (A) (A) (A)
                 (A) (A) (A) (A) (A) (A) (A) (A) (A) (A) (A) (A)
                 (A) (A) (A) (A) (A) (A) (A) (A) (A) (A) (A) (A)
                 (A) (A) (A) (A) (A) (A) (A) (A) (A) (A) (A) (A)
                 (A) (A) (A) (A) (A) (A) (A) (A) (A) (A) (A) (A)
                 (A) (A) (A) (A) (A) (A) (A) (A) (A) (A) (A) (A)
                 (A) (A) (A) (A) (A) (A) (A) (A) (A) (A) (A) (A)
                 (A) (A) (A) (A) (A) (A) (A) (A) (A) (A) (A) (A)
                 (A) (A) (A) (A) (A) (A) (A) (A) (A) (A) (A) (A)
                 (A) (A) (A) (A) (A) (A) (A) (A) (A) (A) (A) (A)
                 (A) (A) (A) (A) (A) (A) (A) (A) (A) (A) (A) (A)
                 (A) (A) (A) (A) (A) (A) (A) (A) (A) (A) (A) (A)
                 (A) (A) (A) (A) (A) (A) (A) (A) (A) (A) (A) (A)
                 (A) (A) (A) (A) (A) (A) (A) (A) (A) (A) (A) (A)
                 (A) (A) (A) (A) (A) (A) (A) (A) (A) (A) (A) (A)
                 (A) (A) (A) (A) (A) (A) (A) (A) (A) (A) (A) (A)
                 (A) (A) (A) (A) (A) (A) (A) (A) (A) (A) (A) (A)
                 (A) (A) (A) (A) (A) (A) (A) (A) (A) (A) (A) (A)
                 (A) (A) (A) (A) (A) (A) (A) (A) (A) (A) (A) (A)
                 (A) (A) (A) (A) (A) (A) (A) (A) (A) (A) (A) (A)
                 (A) (A) (A) (A) (A) (A) (A) (A) (A) (A) (A) (A)
                 (A) (A) (A) (A) (A) (A) (A) (A) (A) (A) (A) (A)
                 (A) (A) (A) (A) (A) (A) (A) (A) (A) (A) (A) (A)
                 (A) (A) (A) (A) (A) (A) (A) (A) (A) (A) (A) (A)
                 (A) (A) (A) (A) (A) (A) (A) (A) (A) (A) (A) (A)
                 (A) (A) (A) (A) (A) (A) (A) (A) (A) (A) (A) (A)
                 (A) (A) (A) (A) (A) (A) (A) (A) (A) (A) (A) (A)
                 (A) (A) (A) (A) (A) (A) (A) (A) (A) (A) (A) (A)
                 (A) (A) (A) (A) (A) (A) (A) (A) (A) (A) (A) (A)
                 (A) (A) (A) (A) (A) (A) (A) (A) (A) (A) (A) (A)
                 (A) (A) (A) (A) (A) (A) (A) (A) (A) (A)
 Beta  Orbitals:
       Occupied  (A) (A) (A) (A) (A) (A) (A) (A) (A) (A) (A) (A)
                 (A) (A) (A) (A) (A) (A) (A) (A) (A) (A) (A) (A)
                 (A) (A) (A) (A) (A) (A) (A) (A) (A) (A) (A) (A)
                 (A) (A) (A) (A) (A) (A) (A) (A) (A) (A) (A) (A)
                 (A) (A) (A) (A) (A) (A) (A) (A) (A) (A) (A) (A)
                 (A) (A) (A) (A) (A) (A) (A) (A) (A) (A) (A) (A)
                 (A) (A) (A) (A) (A) (A) (A) (A) (A) (A) (A) (A)
                 (A) (A) (A) (A) (A) (A) (A) (A) (A) (A) (A) (A)
                 (A) (A) (A) (A) (A) (A) (A) (A) (A) (A) (A) (A)
                 (A) (A) (A) (A) (A) (A) (A) (A) (A) (A) (A) (A)
                 (A) (A) (A) (A) (A) (A) (A) (A) (A) (A) (A) (A)
                 (A) (A)
       Virtual   (A) (A) (A) (A) (A) (A) (A) (A) (A) (A) (A) (A)
                 (A) (A) (A) (A) (A) (A) (A) (A) (A) (A) (A) (A)
                 (A) (A) (A) (A) (A) (A) (A) (A) (A) (A) (A) (A)
                 (A) (A) (A) (A) (A) (A) (A) (A) (A) (A) (A) (A)
                 (A) (A) (A) (A) (A) (A) (A) (A) (A) (A) (A) (A)
                 (A) (A) (A) (A) (A) (A) (A) (A) (A) (A) (A) (A)
                 (A) (A) (A) (A) (A) (A) (A) (A) (A) (A) (A) (A)
                 (A) (A) (A) (A) (A) (A) (A) (A) (A) (A) (A) (A)
                 (A) (A) (A) (A) (A) (A) (A) (A) (A) (A) (A) (A)
                 (A) (A) (A) (A) (A) (A) (A) (A) (A) (A) (A) (A)
                 (A) (A) (A) (A) (A) (A) (A) (A) (A) (A) (A) (A)
                 (A) (A) (A) (A) (A) (A) (A) (A) (A) (A) (A) (A)
                 (A) (A) (A) (A) (A) (A) (A) (A) (A) (A) (A) (A)
                 (A) (A) (A) (A) (A) (A) (A) (A) (A) (A) (A) (A)
                 (A) (A) (A) (A) (A) (A) (A) (A) (A) (A) (A) (A)
                 (A) (A) (A) (A) (A) (A) (A) (A) (A) (A) (A) (A)
                 (A) (A) (A) (A) (A) (A) (A) (A) (A) (A) (A) (A)
                 (A) (A) (A) (A) (A) (A) (A) (A) (A) (A) (A) (A)
                 (A) (A) (A) (A) (A) (A) (A) (A) (A) (A) (A) (A)
                 (A) (A) (A) (A) (A) (A) (A) (A) (A) (A) (A) (A)
                 (A) (A) (A) (A) (A) (A) (A) (A) (A) (A) (A) (A)
                 (A) (A) (A) (A) (A) (A) (A) (A) (A) (A) (A) (A)
                 (A) (A) (A) (A) (A) (A) (A) (A) (A) (A) (A) (A)
                 (A) (A) (A) (A) (A) (A) (A) (A) (A) (A) (A) (A)
                 (A) (A) (A) (A) (A) (A) (A) (A) (A) (A) (A) (A)
                 (A) (A) (A) (A) (A) (A) (A) (A) (A) (A) (A) (A)
                 (A) (A) (A) (A) (A) (A) (A) (A) (A) (A) (A) (A)
                 (A) (A) (A) (A) (A) (A) (A) (A) (A) (A) (A) (A)
                 (A) (A) (A) (A) (A) (A) (A) (A) (A) (A) (A) (A)
                 (A) (A) (A) (A) (A) (A) (A) (A) (A) (A) (A) (A)
                 (A) (A) (A) (A) (A) (A) (A) (A) (A) (A) (A) (A)
                 (A) (A) (A) (A) (A) (A) (A) (A) (A) (A) (A) (A)
                 (A) (A) (A) (A) (A) (A) (A) (A) (A) (A) (A) (A)
                 (A) (A) (A) (A) (A) (A) (A) (A) (A) (A) (A) (A)
                 (A) (A) (A) (A) (A) (A) (A) (A) (A) (A) (A) (A)
                 (A) (A) (A) (A) (A) (A) (A) (A) (A) (A) (A) (A)
                 (A) (A) (A) (A) (A) (A) (A) (A) (A) (A) (A) (A)
                 (A) (A) (A) (A) (A) (A) (A) (A) (A) (A) (A) (A)
                 (A) (A) (A) (A) (A) (A) (A) (A) (A) (A) (A) (A)
                 (A) (A) (A) (A) (A) (A) (A) (A) (A) (A) (A) (A)
                 (A) (A) (A) (A) (A) (A) (A) (A) (A) (A) (A) (A)
                 (A) (A) (A) (A) (A) (A) (A) (A) (A) (A) (A) (A)
                 (A) (A) (A) (A) (A) (A) (A) (A) (A) (A) (A) (A)
                 (A) (A) (A) (A) (A) (A) (A) (A) (A) (A) (A) (A)
                 (A) (A) (A) (A) (A) (A) (A) (A) (A) (A) (A) (A)
                 (A) (A) (A) (A) (A) (A) (A) (A) (A) (A) (A) (A)
                 (A) (A) (A) (A) (A) (A) (A) (A) (A) (A) (A) (A)
                 (A) (A) (A) (A) (A) (A) (A) (A) (A) (A) (A) (A)
                 (A) (A) (A) (A) (A) (A) (A) (A) (A) (A) (A) (A)
                 (A) (A) (A) (A) (A) (A) (A) (A) (A) (A) (A) (A)
                 (A) (A) (A) (A) (A) (A) (A) (A) (A) (A) (A) (A)
                 (A) (A) (A) (A) (A) (A) (A) (A) (A) (A) (A) (A)
                 (A) (A) (A) (A) (A) (A) (A) (A) (A) (A) (A) (A)
                 (A) (A) (A) (A) (A) (A) (A) (A) (A) (A) (A) (A)
                 (A) (A) (A) (A) (A) (A) (A) (A) (A) (A) (A) (A)
                 (A) (A) (A) (A) (A) (A) (A) (A) (A) (A) (A) (A)
                 (A) (A) (A) (A) (A) (A) (A) (A) (A) (A) (A) (A)
                 (A) (A) (A) (A) (A) (A) (A) (A) (A) (A) (A) (A)
                 (A) (A) (A) (A) (A) (A) (A) (A) (A) (A) (A) (A)
                 (A) (A) (A) (A) (A) (A) (A) (A) (A) (A) (A) (A)
                 (A) (A) (A) (A) (A) (A) (A) (A) (A) (A) (A) (A)
                 (A) (A) (A) (A) (A) (A) (A) (A) (A) (A) (A) (A)
                 (A) (A) (A) (A) (A) (A) (A) (A) (A) (A) (A) (A)
                 (A) (A) (A) (A) (A) (A) (A) (A) (A) (A) (A)
 The electronic state is 2-A.
 Alpha  occ. eigenvalues --  -88.87964 -88.87566 -19.16358 -19.16279 -19.10159
 Alpha  occ. eigenvalues --  -19.10127 -19.09810 -19.09543 -14.36721 -14.36354
 Alpha  occ. eigenvalues --  -10.28491 -10.28294 -10.28149 -10.28040 -10.23922
 Alpha  occ. eigenvalues --  -10.23702 -10.22504 -10.22447 -10.21141 -10.21009
 Alpha  occ. eigenvalues --  -10.20856 -10.20409 -10.20228 -10.20106 -10.19889
 Alpha  occ. eigenvalues --  -10.19874 -10.19712 -10.19617 -10.18677 -10.18586
 Alpha  occ. eigenvalues --  -10.18513 -10.18268 -10.18231 -10.17996 -10.17934
 Alpha  occ. eigenvalues --  -10.17768  -7.96527  -7.96119  -5.92833  -5.92451
 Alpha  occ. eigenvalues --   -5.92434  -5.92100  -5.92050  -5.91677  -1.07973
 Alpha  occ. eigenvalues --   -1.07803  -1.06497  -1.06158  -1.04694  -1.04254
 Alpha  occ. eigenvalues --   -0.94173  -0.93703  -0.89773  -0.89133  -0.87621
 Alpha  occ. eigenvalues --   -0.83951  -0.81520  -0.78565  -0.76299  -0.75614
 Alpha  occ. eigenvalues --   -0.75188  -0.74359  -0.73273  -0.72125  -0.70818
 Alpha  occ. eigenvalues --   -0.69802  -0.69105  -0.67203  -0.65145  -0.63639
 Alpha  occ. eigenvalues --   -0.63161  -0.62405  -0.59689  -0.58523  -0.56537
 Alpha  occ. eigenvalues --   -0.55466  -0.55394  -0.54834  -0.53896  -0.52777
 Alpha  occ. eigenvalues --   -0.51350  -0.49404  -0.48998  -0.48288  -0.47902
 Alpha  occ. eigenvalues --   -0.47800  -0.47752  -0.47422  -0.47314  -0.47068
 Alpha  occ. eigenvalues --   -0.46558  -0.45135  -0.45047  -0.44778  -0.44559
 Alpha  occ. eigenvalues --   -0.44013  -0.43401  -0.42849  -0.42540  -0.42058
 Alpha  occ. eigenvalues --   -0.41282  -0.40945  -0.40748  -0.40592  -0.40488
 Alpha  occ. eigenvalues --   -0.40060  -0.39839  -0.39805  -0.39096  -0.38402
 Alpha  occ. eigenvalues --   -0.37892  -0.37584  -0.37152  -0.36954  -0.35732
 Alpha  occ. eigenvalues --   -0.34928  -0.33770  -0.33574  -0.33286  -0.32730
 Alpha  occ. eigenvalues --   -0.32606  -0.30100  -0.29263  -0.28642  -0.28184
 Alpha  occ. eigenvalues --   -0.27753  -0.27462  -0.26996  -0.26185  -0.26145
 Alpha  occ. eigenvalues --   -0.24466  -0.24411  -0.24131  -0.18608  -0.14750
 Alpha virt. eigenvalues --   -0.05334  -0.04866  -0.03913  -0.02992  -0.00317
 Alpha virt. eigenvalues --   -0.00136   0.00346   0.00848   0.01062   0.01115
 Alpha virt. eigenvalues --    0.01526   0.02294   0.02385   0.02546   0.02721
 Alpha virt. eigenvalues --    0.02917   0.03064   0.03213   0.03574   0.03942
 Alpha virt. eigenvalues --    0.04100   0.04213   0.04526   0.04590   0.05133
 Alpha virt. eigenvalues --    0.05253   0.05388   0.05772   0.05871   0.06371
 Alpha virt. eigenvalues --    0.06680   0.06789   0.06957   0.07388   0.07593
 Alpha virt. eigenvalues --    0.07822   0.08254   0.08454   0.08562   0.08583
 Alpha virt. eigenvalues --    0.08988   0.09342   0.09417   0.09594   0.09978
 Alpha virt. eigenvalues --    0.10185   0.10628   0.10941   0.11033   0.11169
 Alpha virt. eigenvalues --    0.11509   0.11815   0.12118   0.12292   0.12634
 Alpha virt. eigenvalues --    0.12960   0.13061   0.13285   0.13753   0.14151
 Alpha virt. eigenvalues --    0.14290   0.14461   0.14527   0.14958   0.14993
 Alpha virt. eigenvalues --    0.15179   0.15227   0.15628   0.15748   0.16145
 Alpha virt. eigenvalues --    0.16399   0.16512   0.16595   0.16919   0.17159
 Alpha virt. eigenvalues --    0.17286   0.17634   0.17933   0.18224   0.18409
 Alpha virt. eigenvalues --    0.18616   0.18791   0.19136   0.19422   0.19568
 Alpha virt. eigenvalues --    0.19697   0.19999   0.20028   0.20130   0.20534
 Alpha virt. eigenvalues --    0.20565   0.20666   0.20843   0.21042   0.21305
 Alpha virt. eigenvalues --    0.21411   0.21614   0.21859   0.22127   0.22260
 Alpha virt. eigenvalues --    0.22422   0.22544   0.22919   0.23055   0.23279
 Alpha virt. eigenvalues --    0.23461   0.23612   0.23824   0.23873   0.24191
 Alpha virt. eigenvalues --    0.24335   0.24431   0.24627   0.24872   0.25364
 Alpha virt. eigenvalues --    0.25479   0.25660   0.25841   0.26174   0.26234
 Alpha virt. eigenvalues --    0.26349   0.26525   0.26768   0.26932   0.27166
 Alpha virt. eigenvalues --    0.27287   0.27474   0.27550   0.27753   0.27986
 Alpha virt. eigenvalues --    0.28304   0.28518   0.28712   0.28887   0.29116
 Alpha virt. eigenvalues --    0.29204   0.29446   0.29587   0.29790   0.29956
 Alpha virt. eigenvalues --    0.30213   0.30339   0.30547   0.30907   0.31127
 Alpha virt. eigenvalues --    0.31365   0.31445   0.31594   0.32134   0.32328
 Alpha virt. eigenvalues --    0.32452   0.32763   0.32851   0.33548   0.33595
 Alpha virt. eigenvalues --    0.33980   0.34274   0.34387   0.34925   0.35113
 Alpha virt. eigenvalues --    0.35310   0.35631   0.35976   0.36289   0.36602
 Alpha virt. eigenvalues --    0.36970   0.37456   0.37657   0.38227   0.38732
 Alpha virt. eigenvalues --    0.38781   0.39075   0.39494   0.39784   0.40324
 Alpha virt. eigenvalues --    0.40959   0.41546   0.41622   0.42073   0.42581
 Alpha virt. eigenvalues --    0.43077   0.43207   0.43543   0.44217   0.44438
 Alpha virt. eigenvalues --    0.44918   0.45312   0.45598   0.45976   0.46168
 Alpha virt. eigenvalues --    0.46598   0.46798   0.46870   0.47268   0.47634
 Alpha virt. eigenvalues --    0.48352   0.49169   0.49818   0.50197   0.50685
 Alpha virt. eigenvalues --    0.51206   0.51290   0.52179   0.52609   0.53125
 Alpha virt. eigenvalues --    0.53423   0.54135   0.54654   0.55107   0.55542
 Alpha virt. eigenvalues --    0.55605   0.56096   0.56487   0.56631   0.56867
 Alpha virt. eigenvalues --    0.57414   0.57708   0.58441   0.58641   0.58779
 Alpha virt. eigenvalues --    0.59158   0.60057   0.60574   0.60707   0.61117
 Alpha virt. eigenvalues --    0.61896   0.62231   0.62555   0.62795   0.62993
 Alpha virt. eigenvalues --    0.63356   0.63744   0.64163   0.64561   0.64817
 Alpha virt. eigenvalues --    0.65184   0.65333   0.66018   0.66393   0.66548
 Alpha virt. eigenvalues --    0.66947   0.67262   0.68010   0.68128   0.68203
 Alpha virt. eigenvalues --    0.68444   0.68869   0.69428   0.69775   0.70432
 Alpha virt. eigenvalues --    0.70725   0.70986   0.71672   0.71991   0.72298
 Alpha virt. eigenvalues --    0.72782   0.73430   0.73615   0.73973   0.74337
 Alpha virt. eigenvalues --    0.74536   0.74788   0.74988   0.75192   0.75585
 Alpha virt. eigenvalues --    0.75794   0.76107   0.76443   0.76774   0.77136
 Alpha virt. eigenvalues --    0.77341   0.77436   0.78000   0.78282   0.78669
 Alpha virt. eigenvalues --    0.78942   0.79411   0.79490   0.80234   0.80927
 Alpha virt. eigenvalues --    0.81438   0.81642   0.82292   0.83092   0.83788
 Alpha virt. eigenvalues --    0.84666   0.84979   0.85823   0.86065   0.88060
 Alpha virt. eigenvalues --    0.88346   0.88467   0.89574   0.89717   0.90187
 Alpha virt. eigenvalues --    0.90455   0.90846   0.91304   0.92518   0.92645
 Alpha virt. eigenvalues --    0.93407   0.93712   0.94171   0.94868   0.95245
 Alpha virt. eigenvalues --    0.95451   0.95651   0.96202   0.96772   0.97054
 Alpha virt. eigenvalues --    0.97199   0.97661   0.98615   0.99131   0.99744
 Alpha virt. eigenvalues --    0.99977   1.00848   1.01327   1.01852   1.02548
 Alpha virt. eigenvalues --    1.02748   1.03117   1.03377   1.03681   1.03783
 Alpha virt. eigenvalues --    1.04188   1.04547   1.05485   1.05839   1.06299
 Alpha virt. eigenvalues --    1.06550   1.06589   1.06851   1.07222   1.07737
 Alpha virt. eigenvalues --    1.08238   1.08879   1.09174   1.09610   1.10092
 Alpha virt. eigenvalues --    1.10388   1.11419   1.12260   1.12435   1.12968
 Alpha virt. eigenvalues --    1.13773   1.14392   1.15108   1.15612   1.16216
 Alpha virt. eigenvalues --    1.17218   1.17674   1.18271   1.19218   1.19607
 Alpha virt. eigenvalues --    1.20005   1.20572   1.21067   1.21529   1.22380
 Alpha virt. eigenvalues --    1.22874   1.25456   1.25906   1.26177   1.26450
 Alpha virt. eigenvalues --    1.27047   1.27617   1.28195   1.28651   1.28971
 Alpha virt. eigenvalues --    1.29545   1.30164   1.31239   1.32315   1.32801
 Alpha virt. eigenvalues --    1.33820   1.34097   1.35154   1.35883   1.37134
 Alpha virt. eigenvalues --    1.37537   1.38043   1.39286   1.40563   1.40673
 Alpha virt. eigenvalues --    1.42632   1.43332   1.43698   1.44030   1.44230
 Alpha virt. eigenvalues --    1.44465   1.44512   1.45145   1.45560   1.45948
 Alpha virt. eigenvalues --    1.46484   1.46860   1.47330   1.47727   1.47826
 Alpha virt. eigenvalues --    1.48992   1.49485   1.50225   1.51211   1.51989
 Alpha virt. eigenvalues --    1.53230   1.53319   1.54025   1.54347   1.54845
 Alpha virt. eigenvalues --    1.55203   1.55430   1.55810   1.56224   1.56545
 Alpha virt. eigenvalues --    1.56718   1.57198   1.58175   1.59305   1.60395
 Alpha virt. eigenvalues --    1.61268   1.61476   1.62307   1.62944   1.63529
 Alpha virt. eigenvalues --    1.63861   1.64131   1.64744   1.65210   1.65348
 Alpha virt. eigenvalues --    1.66112   1.67437   1.67710   1.68121   1.68847
 Alpha virt. eigenvalues --    1.69828   1.70288   1.71133   1.71277   1.71596
 Alpha virt. eigenvalues --    1.72253   1.72570   1.73247   1.73642   1.74257
 Alpha virt. eigenvalues --    1.75622   1.76502   1.76802   1.76869   1.77358
 Alpha virt. eigenvalues --    1.78031   1.78640   1.79231   1.79863   1.81342
 Alpha virt. eigenvalues --    1.81647   1.81776   1.83243   1.84638   1.84812
 Alpha virt. eigenvalues --    1.85300   1.85629   1.86792   1.87349   1.88018
 Alpha virt. eigenvalues --    1.88315   1.89248   1.90433   1.90986   1.91124
 Alpha virt. eigenvalues --    1.91899   1.92456   1.93091   1.93224   1.93801
 Alpha virt. eigenvalues --    1.94364   1.95371   1.96276   1.96450   1.97244
 Alpha virt. eigenvalues --    1.98278   1.99050   2.00029   2.00491   2.01471
 Alpha virt. eigenvalues --    2.02125   2.02329   2.02773   2.03533   2.04232
 Alpha virt. eigenvalues --    2.04552   2.05405   2.05792   2.05932   2.07027
 Alpha virt. eigenvalues --    2.07240   2.07658   2.08357   2.09809   2.10338
 Alpha virt. eigenvalues --    2.10937   2.11200   2.12344   2.12972   2.13217
 Alpha virt. eigenvalues --    2.14194   2.15310   2.16037   2.16559   2.17077
 Alpha virt. eigenvalues --    2.17236   2.18783   2.19951   2.20322   2.20479
 Alpha virt. eigenvalues --    2.21086   2.22520   2.22815   2.23671   2.23866
 Alpha virt. eigenvalues --    2.27460   2.27995   2.29348   2.30780   2.33672
 Alpha virt. eigenvalues --    2.34406   2.34906   2.36852   2.38817   2.39474
 Alpha virt. eigenvalues --    2.41304   2.41700   2.42879   2.43851   2.44299
 Alpha virt. eigenvalues --    2.45029   2.45425   2.47397   2.47517   2.48047
 Alpha virt. eigenvalues --    2.49060   2.49668   2.50117   2.51394   2.51962
 Alpha virt. eigenvalues --    2.52407   2.52881   2.53585   2.53862   2.54496
 Alpha virt. eigenvalues --    2.54724   2.54870   2.55410   2.57624   2.58223
 Alpha virt. eigenvalues --    2.58861   2.60294   2.60459   2.61296   2.62828
 Alpha virt. eigenvalues --    2.64856   2.66082   2.66410   2.66662   2.68085
 Alpha virt. eigenvalues --    2.68725   2.68963   2.69869   2.70168   2.70604
 Alpha virt. eigenvalues --    2.71674   2.72496   2.72945   2.73188   2.74244
 Alpha virt. eigenvalues --    2.74629   2.74861   2.75149   2.77667   2.78241
 Alpha virt. eigenvalues --    2.79025   2.79464   2.80199   2.82692   2.83616
 Alpha virt. eigenvalues --    2.84162   2.84732   2.85659   2.85859   2.86359
 Alpha virt. eigenvalues --    2.86991   2.87194   2.87854   2.88301   2.89076
 Alpha virt. eigenvalues --    2.89947   2.90792   2.91292   2.92190   2.93261
 Alpha virt. eigenvalues --    2.93806   2.94593   2.95275   2.95833   2.96572
 Alpha virt. eigenvalues --    2.97345   2.98209   2.99892   3.00797   3.01098
 Alpha virt. eigenvalues --    3.04097   3.04226   3.05157   3.06643   3.07673
 Alpha virt. eigenvalues --    3.08792   3.09308   3.10824   3.11389   3.12959
 Alpha virt. eigenvalues --    3.15093   3.16033   3.16481   3.16646   3.17124
 Alpha virt. eigenvalues --    3.19404   3.20402   3.21886   3.22869   3.23983
 Alpha virt. eigenvalues --    3.24402   3.25925   3.26847   3.29269   3.30589
 Alpha virt. eigenvalues --    3.31601   3.32315   3.32911   3.35471   3.35949
 Alpha virt. eigenvalues --    3.36122   3.36283   3.37329   3.39003   3.39341
 Alpha virt. eigenvalues --    3.41859   3.42154   3.44356   3.45865   3.46524
 Alpha virt. eigenvalues --    3.46995   3.47765   3.49780   3.51131   3.52519
 Alpha virt. eigenvalues --    3.55379   3.57822   3.59856   3.61338   3.62388
 Alpha virt. eigenvalues --    3.63596   3.67057   3.67667   3.68667   3.70993
 Alpha virt. eigenvalues --    3.72667   3.73404   3.73981   3.76871   3.77328
 Alpha virt. eigenvalues --    3.77466   3.82852   3.84326   3.85366   3.86696
 Alpha virt. eigenvalues --    3.87624   3.92123   3.94667   3.94991   3.95100
 Alpha virt. eigenvalues --    3.95997   3.98980   4.03367   4.04163   4.06478
 Alpha virt. eigenvalues --    4.08806   4.11196   4.14617   4.15052   4.20022
 Alpha virt. eigenvalues --    4.24289   4.27428   4.28776   4.37555   4.39392
 Alpha virt. eigenvalues --    4.42447   4.53071   4.67313   4.86851   4.88180
 Alpha virt. eigenvalues --    4.88978   4.92125   5.02124   5.03569   5.05381
 Alpha virt. eigenvalues --    5.06658   5.07068   5.09488   5.13267   5.14765
 Alpha virt. eigenvalues --    5.26450   5.28385   5.30496   5.32646   5.42438
 Alpha virt. eigenvalues --    5.43879   5.76921   5.77534   5.80821   5.81847
 Alpha virt. eigenvalues --    5.83553   5.87619   8.02612   8.06735  17.29383
 Alpha virt. eigenvalues --   17.34798  17.50038  17.52995  17.57324  17.63495
 Alpha virt. eigenvalues --   23.51742  23.58134  23.73582  23.81290  23.84022
 Alpha virt. eigenvalues --   23.84968  23.86280  23.89172  23.89297  23.90438
 Alpha virt. eigenvalues --   23.91162  23.91561  23.92302  23.95457  23.95886
 Alpha virt. eigenvalues --   23.97742  23.98486  24.01049  24.02783  24.03125
 Alpha virt. eigenvalues --   24.03363  24.08008  24.13671  24.14988  24.16479
 Alpha virt. eigenvalues --   24.17131  35.57752  35.60667  49.96829  49.97945
 Alpha virt. eigenvalues --   50.04135  50.05724  50.07844  50.09321 189.19868
 Alpha virt. eigenvalues --  189.25183
  Beta  occ. eigenvalues --  -88.87964 -88.87559 -19.16357 -19.16278 -19.09982
  Beta  occ. eigenvalues --  -19.09939 -19.09634 -19.09326 -14.36775 -14.36410
  Beta  occ. eigenvalues --  -10.28426 -10.28231 -10.28086 -10.27976 -10.23923
  Beta  occ. eigenvalues --  -10.23701 -10.22504 -10.22447 -10.21140 -10.21019
  Beta  occ. eigenvalues --  -10.20854 -10.20281 -10.20275 -10.20106 -10.19942
  Beta  occ. eigenvalues --  -10.19874 -10.19616 -10.19538 -10.18530 -10.18430
  Beta  occ. eigenvalues --  -10.18347 -10.18268 -10.18183 -10.17908 -10.17853
  Beta  occ. eigenvalues --  -10.17758  -7.96527  -7.96111  -5.92833  -5.92451
  Beta  occ. eigenvalues --   -5.92421  -5.92100  -5.92039  -5.91672  -1.07972
  Beta  occ. eigenvalues --   -1.07801  -1.06252  -1.05902  -1.04379  -1.03915
  Beta  occ. eigenvalues --   -0.94082  -0.93602  -0.89669  -0.89060  -0.87582
  Beta  occ. eigenvalues --   -0.83633  -0.81214  -0.78443  -0.76223  -0.75273
  Beta  occ. eigenvalues --   -0.75045  -0.74316  -0.73200  -0.72089  -0.70775
  Beta  occ. eigenvalues --   -0.69644  -0.68866  -0.67059  -0.64984  -0.63440
  Beta  occ. eigenvalues --   -0.63061  -0.62215  -0.59646  -0.58462  -0.56453
  Beta  occ. eigenvalues --   -0.55413  -0.55313  -0.54708  -0.53891  -0.52614
  Beta  occ. eigenvalues --   -0.51222  -0.49239  -0.48933  -0.48008  -0.47773
  Beta  occ. eigenvalues --   -0.47716  -0.47613  -0.47418  -0.47226  -0.46936
  Beta  occ. eigenvalues --   -0.46522  -0.45071  -0.44902  -0.44750  -0.44458
  Beta  occ. eigenvalues --   -0.43907  -0.43227  -0.42673  -0.42403  -0.41771
  Beta  occ. eigenvalues --   -0.41241  -0.40908  -0.40686  -0.40024  -0.40004
  Beta  occ. eigenvalues --   -0.39768  -0.39699  -0.39112  -0.38885  -0.38308
  Beta  occ. eigenvalues --   -0.37825  -0.37254  -0.37033  -0.36863  -0.35723
  Beta  occ. eigenvalues --   -0.34837  -0.33720  -0.33358  -0.33191  -0.32705
  Beta  occ. eigenvalues --   -0.31978  -0.29099  -0.29073  -0.28522  -0.27644
  Beta  occ. eigenvalues --   -0.27615  -0.27140  -0.26822  -0.25996  -0.25452
  Beta  occ. eigenvalues --   -0.24411  -0.24186  -0.22900  -0.18602
  Beta virt. eigenvalues --   -0.10166  -0.04868  -0.04119  -0.03165  -0.02150
  Beta virt. eigenvalues --   -0.00303  -0.00126   0.00355   0.00859   0.01071
  Beta virt. eigenvalues --    0.01128   0.01534   0.02389   0.02512   0.02879
  Beta virt. eigenvalues --    0.03016   0.03195   0.03330   0.03526   0.03642
  Beta virt. eigenvalues --    0.03963   0.04106   0.04257   0.04556   0.04666
  Beta virt. eigenvalues --    0.05162   0.05289   0.05413   0.05796   0.05893
  Beta virt. eigenvalues --    0.06392   0.06702   0.06821   0.06973   0.07545
  Beta virt. eigenvalues --    0.07600   0.07860   0.08313   0.08502   0.08579
  Beta virt. eigenvalues --    0.08768   0.09008   0.09352   0.09465   0.09614
  Beta virt. eigenvalues --    0.10086   0.10220   0.10688   0.11028   0.11112
  Beta virt. eigenvalues --    0.11291   0.11619   0.12087   0.12168   0.12341
  Beta virt. eigenvalues --    0.12728   0.13007   0.13079   0.13306   0.13862
  Beta virt. eigenvalues --    0.14239   0.14338   0.14511   0.14682   0.15000
  Beta virt. eigenvalues --    0.15041   0.15208   0.15258   0.15654   0.15773
  Beta virt. eigenvalues --    0.16207   0.16433   0.16548   0.16666   0.16941
  Beta virt. eigenvalues --    0.17184   0.17331   0.17684   0.17978   0.18256
  Beta virt. eigenvalues --    0.18436   0.18639   0.18847   0.19209   0.19467
  Beta virt. eigenvalues --    0.19597   0.19723   0.20028   0.20080   0.20159
  Beta virt. eigenvalues --    0.20579   0.20608   0.20694   0.20867   0.21083
  Beta virt. eigenvalues --    0.21356   0.21456   0.21661   0.21911   0.22177
  Beta virt. eigenvalues --    0.22323   0.22529   0.22608   0.23069   0.23149
  Beta virt. eigenvalues --    0.23394   0.23531   0.23708   0.23875   0.23977
  Beta virt. eigenvalues --    0.24253   0.24371   0.24498   0.24666   0.24934
  Beta virt. eigenvalues --    0.25399   0.25547   0.25700   0.25911   0.26216
  Beta virt. eigenvalues --    0.26283   0.26384   0.26564   0.26819   0.26996
  Beta virt. eigenvalues --    0.27206   0.27360   0.27519   0.27598   0.27805
  Beta virt. eigenvalues --    0.28039   0.28366   0.28561   0.28737   0.28933
  Beta virt. eigenvalues --    0.29152   0.29233   0.29506   0.29668   0.29843
  Beta virt. eigenvalues --    0.29976   0.30272   0.30372   0.30632   0.30947
  Beta virt. eigenvalues --    0.31179   0.31400   0.31491   0.31657   0.32180
  Beta virt. eigenvalues --    0.32377   0.32546   0.32818   0.32927   0.33618
  Beta virt. eigenvalues --    0.33632   0.34049   0.34361   0.34464   0.34991
  Beta virt. eigenvalues --    0.35189   0.35403   0.35673   0.36013   0.36365
  Beta virt. eigenvalues --    0.36679   0.37041   0.37525   0.37683   0.38283
  Beta virt. eigenvalues --    0.38782   0.38832   0.39119   0.39566   0.39876
  Beta virt. eigenvalues --    0.40366   0.41034   0.41583   0.41690   0.42125
  Beta virt. eigenvalues --    0.42603   0.43134   0.43261   0.43599   0.44256
  Beta virt. eigenvalues --    0.44507   0.44983   0.45333   0.45633   0.46039
  Beta virt. eigenvalues --    0.46210   0.46642   0.46829   0.46905   0.47309
  Beta virt. eigenvalues --    0.47682   0.48382   0.49243   0.49872   0.50234
  Beta virt. eigenvalues --    0.50739   0.51310   0.51360   0.52258   0.52659
  Beta virt. eigenvalues --    0.53197   0.53465   0.54189   0.54767   0.55151
  Beta virt. eigenvalues --    0.55592   0.55691   0.56111   0.56539   0.56851
  Beta virt. eigenvalues --    0.56969   0.57437   0.57775   0.58546   0.58666
  Beta virt. eigenvalues --    0.58883   0.59288   0.60093   0.60682   0.60759
  Beta virt. eigenvalues --    0.61200   0.61944   0.62403   0.62616   0.62877
  Beta virt. eigenvalues --    0.63155   0.63463   0.63868   0.64254   0.64684
  Beta virt. eigenvalues --    0.64855   0.65297   0.65466   0.66081   0.66476
  Beta virt. eigenvalues --    0.66650   0.67072   0.67337   0.68090   0.68164
  Beta virt. eigenvalues --    0.68275   0.68491   0.68931   0.69541   0.70012
  Beta virt. eigenvalues --    0.70524   0.70780   0.71098   0.71739   0.72123
  Beta virt. eigenvalues --    0.72386   0.73035   0.73538   0.73684   0.74046
  Beta virt. eigenvalues --    0.74406   0.74674   0.74909   0.75060   0.75230
  Beta virt. eigenvalues --    0.75620   0.75911   0.76151   0.76505   0.76805
  Beta virt. eigenvalues --    0.77165   0.77434   0.77524   0.78044   0.78313
  Beta virt. eigenvalues --    0.78735   0.78978   0.79510   0.79610   0.80319
  Beta virt. eigenvalues --    0.80984   0.81486   0.81683   0.82357   0.83119
  Beta virt. eigenvalues --    0.83833   0.84707   0.85074   0.85849   0.86111
  Beta virt. eigenvalues --    0.88068   0.88337   0.88480   0.89663   0.89780
  Beta virt. eigenvalues --    0.90224   0.90461   0.90922   0.91396   0.92627
  Beta virt. eigenvalues --    0.92810   0.93537   0.93844   0.94268   0.94998
  Beta virt. eigenvalues --    0.95323   0.95558   0.95817   0.96398   0.96884
  Beta virt. eigenvalues --    0.97177   0.97351   0.97761   0.98746   0.99310
  Beta virt. eigenvalues --    0.99874   1.00005   1.00974   1.01447   1.01906
  Beta virt. eigenvalues --    1.02593   1.02845   1.03278   1.03605   1.03814
  Beta virt. eigenvalues --    1.03853   1.04248   1.04718   1.05571   1.05970
  Beta virt. eigenvalues --    1.06421   1.06686   1.06709   1.06965   1.07277
  Beta virt. eigenvalues --    1.07903   1.08293   1.08994   1.09389   1.09728
  Beta virt. eigenvalues --    1.10266   1.10535   1.11528   1.12439   1.12603
  Beta virt. eigenvalues --    1.13186   1.14018   1.14585   1.15329   1.15790
  Beta virt. eigenvalues --    1.16478   1.17436   1.17875   1.18354   1.19464
  Beta virt. eigenvalues --    1.19749   1.20149   1.20847   1.21316   1.21630
  Beta virt. eigenvalues --    1.22479   1.22988   1.25531   1.25967   1.26241
  Beta virt. eigenvalues --    1.26513   1.27106   1.27692   1.28387   1.28846
  Beta virt. eigenvalues --    1.29064   1.29632   1.30284   1.31368   1.32340
  Beta virt. eigenvalues --    1.32827   1.33892   1.34186   1.35260   1.35884
  Beta virt. eigenvalues --    1.37244   1.37610   1.38090   1.39420   1.40578
  Beta virt. eigenvalues --    1.40808   1.42749   1.43434   1.43729   1.44042
  Beta virt. eigenvalues --    1.44312   1.44502   1.44561   1.45285   1.45599
  Beta virt. eigenvalues --    1.46033   1.46512   1.46967   1.47433   1.47801
  Beta virt. eigenvalues --    1.48012   1.49126   1.49665   1.50310   1.51302
  Beta virt. eigenvalues --    1.52090   1.53364   1.53529   1.54109   1.54415
  Beta virt. eigenvalues --    1.54887   1.55287   1.55540   1.55854   1.56278
  Beta virt. eigenvalues --    1.56593   1.56761   1.57310   1.58219   1.59467
  Beta virt. eigenvalues --    1.60544   1.61330   1.61628   1.62341   1.62992
  Beta virt. eigenvalues --    1.63555   1.63921   1.64176   1.64809   1.65291
  Beta virt. eigenvalues --    1.65459   1.66152   1.67452   1.67742   1.68198
  Beta virt. eigenvalues --    1.68902   1.69853   1.70348   1.71369   1.71408
  Beta virt. eigenvalues --    1.71686   1.72376   1.72696   1.73347   1.73834
  Beta virt. eigenvalues --    1.74305   1.75739   1.76603   1.76857   1.77041
  Beta virt. eigenvalues --    1.77448   1.78064   1.78731   1.79271   1.79912
  Beta virt. eigenvalues --    1.81402   1.81703   1.81877   1.83395   1.84771
  Beta virt. eigenvalues --    1.84915   1.85397   1.85857   1.86858   1.87418
  Beta virt. eigenvalues --    1.88120   1.88430   1.89453   1.90624   1.91087
  Beta virt. eigenvalues --    1.91360   1.92051   1.92567   1.93265   1.93349
  Beta virt. eigenvalues --    1.94000   1.94466   1.95449   1.96342   1.96641
  Beta virt. eigenvalues --    1.97479   1.98461   1.99287   2.00224   2.00580
  Beta virt. eigenvalues --    2.01675   2.02198   2.02437   2.02869   2.03639
  Beta virt. eigenvalues --    2.04289   2.04630   2.05413   2.05829   2.06036
  Beta virt. eigenvalues --    2.07079   2.07266   2.07750   2.08519   2.09945
  Beta virt. eigenvalues --    2.10361   2.11015   2.11253   2.12424   2.12996
  Beta virt. eigenvalues --    2.13271   2.14259   2.15372   2.16048   2.16672
  Beta virt. eigenvalues --    2.17137   2.17346   2.18943   2.19999   2.20382
  Beta virt. eigenvalues --    2.20709   2.21186   2.22544   2.22950   2.23738
  Beta virt. eigenvalues --    2.23995   2.27587   2.28227   2.29549   2.30928
  Beta virt. eigenvalues --    2.33817   2.34534   2.35063   2.36963   2.39027
  Beta virt. eigenvalues --    2.39506   2.41347   2.41911   2.42992   2.43855
  Beta virt. eigenvalues --    2.44300   2.45047   2.45468   2.47402   2.47565
  Beta virt. eigenvalues --    2.48134   2.49106   2.49697   2.50212   2.51485
  Beta virt. eigenvalues --    2.52025   2.52502   2.52896   2.53610   2.53868
  Beta virt. eigenvalues --    2.54512   2.54742   2.54908   2.55413   2.57668
  Beta virt. eigenvalues --    2.58294   2.58871   2.60329   2.60524   2.61362
  Beta virt. eigenvalues --    2.62893   2.64879   2.66264   2.66569   2.66786
  Beta virt. eigenvalues --    2.68105   2.68745   2.68997   2.69944   2.70253
  Beta virt. eigenvalues --    2.70636   2.71739   2.72560   2.73267   2.73452
  Beta virt. eigenvalues --    2.74318   2.74739   2.74921   2.75424   2.77886
  Beta virt. eigenvalues --    2.78473   2.79101   2.79486   2.80539   2.82743
  Beta virt. eigenvalues --    2.83678   2.84429   2.84734   2.85727   2.85976
  Beta virt. eigenvalues --    2.86526   2.87030   2.87532   2.88334   2.88401
  Beta virt. eigenvalues --    2.89571   2.90249   2.91292   2.91635   2.92486
  Beta virt. eigenvalues --    2.93562   2.94253   2.94771   2.95688   2.96203
  Beta virt. eigenvalues --    2.96735   2.97769   2.98463   2.99987   3.00805
  Beta virt. eigenvalues --    3.01550   3.04099   3.04721   3.05218   3.06714
  Beta virt. eigenvalues --    3.07848   3.09228   3.09376   3.10957   3.11441
  Beta virt. eigenvalues --    3.13096   3.15111   3.16233   3.16658   3.16716
  Beta virt. eigenvalues --    3.17287   3.19474   3.20443   3.21949   3.22908
  Beta virt. eigenvalues --    3.23989   3.24403   3.25972   3.26937   3.29371
  Beta virt. eigenvalues --    3.30607   3.31664   3.32396   3.32965   3.35954
  Beta virt. eigenvalues --    3.36314   3.36468   3.36706   3.37745   3.39050
  Beta virt. eigenvalues --    3.39462   3.41878   3.42242   3.44442   3.45937
  Beta virt. eigenvalues --    3.46607   3.47040   3.47877   3.49799   3.51230
  Beta virt. eigenvalues --    3.52645   3.55410   3.57858   3.59966   3.61430
  Beta virt. eigenvalues --    3.62466   3.63709   3.67128   3.67699   3.68739
  Beta virt. eigenvalues --    3.71053   3.72738   3.73378   3.73959   3.76882
  Beta virt. eigenvalues --    3.77329   3.77466   3.82863   3.84398   3.85367
  Beta virt. eigenvalues --    3.86738   3.87663   3.92330   3.94682   3.95038
  Beta virt. eigenvalues --    3.95149   3.95896   3.99131   4.03466   4.04229
  Beta virt. eigenvalues --    4.06606   4.08817   4.11199   4.14645   4.15227
  Beta virt. eigenvalues --    4.20096   4.24353   4.27632   4.28926   4.37770
  Beta virt. eigenvalues --    4.39542   4.42684   4.53203   4.67370   4.86997
  Beta virt. eigenvalues --    4.88440   4.88978   4.92129   5.02133   5.03591
  Beta virt. eigenvalues --    5.06115   5.07395   5.07832   5.10375   5.13387
  Beta virt. eigenvalues --    5.14888   5.26599   5.28538   5.30650   5.32823
  Beta virt. eigenvalues --    5.42440   5.43880   5.76980   5.77647   5.80825
  Beta virt. eigenvalues --    5.82013   5.83706   5.87792   8.02612   8.06749
  Beta virt. eigenvalues --   17.29384  17.34804  17.50039  17.52996  17.57344
  Beta virt. eigenvalues --   17.63502  23.51798  23.58173  23.73597  23.81353
  Beta virt. eigenvalues --   23.84083  23.85051  23.86357  23.89263  23.89382
  Beta virt. eigenvalues --   23.90490  23.91216  23.91595  23.92303  23.95509
  Beta virt. eigenvalues --   23.95911  23.97793  23.98558  24.01142  24.02798
  Beta virt. eigenvalues --   24.03118  24.03376  24.08134  24.13688  24.14991
  Beta virt. eigenvalues --   24.16577  24.17241  35.57696  35.60610  49.96830
  Beta virt. eigenvalues --   49.97946  50.04318  50.05915  50.08035  50.09515
  Beta virt. eigenvalues --  189.19868 189.25190
          Condensed to atoms (all electrons):
          Atomic-Atomic Spin Densities.
 Mulliken charges and spin densities:
               1          2
     1  C    0.394656   0.028576
     2  C   -0.028669   0.124942
     3  C    0.176749  -0.038030
     4  C    0.184730   0.102412
     5  C    0.302231   0.029910
     6  C   -0.774700   0.039380
     7  C    0.170322  -0.033331
     8  C    0.004473   0.127705
     9  C    0.678146   0.100915
[...]
    19   Atom        0.001674      0.009686     -0.011009
    20   Atom       -0.006171     -0.056852      0.061996
    21   Atom       -0.006634     -0.054377      0.060241
    22   Atom       -0.004641     -0.045657      0.057732
    23   Atom       -0.004752     -0.028532      0.089119
    24   Atom       -0.000019      0.000287     -0.000404
    25   Atom        0.000097      0.000065      0.000378
    26   Atom        0.000256      0.000063     -0.001124
    27   Atom        0.001431      0.000068     -0.000182
    28   Atom        0.000161      0.000324     -0.000385
    29   Atom        0.000835      0.000606      0.000339
    30   Atom        0.000835     -0.000425     -0.000716
    31   Atom        0.000309      0.000080     -0.000508
    32   Atom        0.000773      0.001389      0.000595
    33   Atom        0.003154      0.003700      0.001781
    34   Atom       -0.005973     -0.015522      0.003883
    35   Atom       -0.000586      0.000417      0.000398
    36   Atom        0.000256      0.001614      0.000324
    37   Atom       -0.001438      0.001304     -0.001629
    38   Atom       -0.000440      0.001121      0.000114
    39   Atom       -0.000333     -0.000201      0.000262
    40   Atom        0.000037      0.000548     -0.000000
    41   Atom       -0.000127     -0.000181     -0.000155
    42   Atom        0.000902      0.000455      0.000255
    43   Atom        0.000030      0.000352      0.000013
    44   Atom        0.000146      0.000627      0.000105
    45   Atom       -0.000013      0.000582     -0.000061
    46   Atom       -0.000103     -0.000078      0.000099
    47   Atom        0.000262     -0.000532     -0.000179
    48   Atom        0.000146     -0.000121     -0.000431
    49   Atom       -0.000061     -0.000095      0.000020
    50   Atom       -0.000119     -0.000281      0.000083
    51   Atom       -0.000035      0.000013     -0.000023
    52   Atom       -0.000127     -0.000199      0.000076
    53   Atom       -0.000121     -0.000326      0.000108
    54   Atom       -0.000056     -0.000234      0.000036
 --------------------------------------------------------


 ---------------------------------------------------------------------------------
              Anisotropic Spin Dipole Couplings in Principal Axis System
 ---------------------------------------------------------------------------------

       Atom             a.u.   MegaHertz   Gauss  10(-4) cm-1        Axes

              Baa    -0.0339    -4.550    -1.624    -1.518  0.9575  0.2779  0.0777
     1 C(13)  Bbb    -0.0229    -3.067    -1.094    -1.023 -0.2628  0.9511 -0.1624
              Bcc     0.0568     7.618     2.718     2.541 -0.1190  0.1351  0.9837
 
              Baa    -0.0746   -10.008    -3.571    -3.338 -0.6316  0.7538 -0.1814
     2 C(13)  Bbb    -0.0692    -9.280    -3.311    -3.095  0.7657  0.6431  0.0062
              Bcc     0.1437    19.287     6.882     6.434 -0.1213  0.1350  0.9834
 
              Baa    -0.0390    -5.233    -1.867    -1.746 -0.1200  0.1343  0.9837
     3 C(13)  Bbb     0.0175     2.354     0.840     0.785  0.4165  0.9062 -0.0729
              Bcc     0.0215     2.879     1.027     0.960  0.9012 -0.4009  0.1646
 
              Baa    -0.0693    -9.298    -3.318    -3.101  0.9857  0.1370  0.0983
     4 C(13)  Bbb    -0.0639    -8.580    -3.061    -2.862 -0.1215  0.9814 -0.1489
              Bcc     0.1332    17.878     6.379     5.963 -0.1169  0.1348  0.9840
 
              Baa    -0.0340    -4.568    -1.630    -1.524 -0.4408  0.8808 -0.1730
     5 C(13)  Bbb    -0.0236    -3.161    -1.128    -1.054  0.8896  0.4543  0.0465
              Bcc     0.0576     7.729     2.758     2.578 -0.1196  0.1334  0.9838
 
              Baa    -0.0364    -4.884    -1.743    -1.629 -0.6855  0.7047 -0.1833
     6 C(13)  Bbb    -0.0282    -3.780    -1.349    -1.261  0.7162  0.6979  0.0047
              Bcc     0.0646     8.664     3.091     2.890 -0.1312  0.1280  0.9831
 
              Baa    -0.0398    -5.343    -1.906    -1.782 -0.1207  0.1394  0.9829
     7 C(13)  Bbb     0.0176     2.365     0.844     0.789  0.3298  0.9395 -0.0927
              Bcc     0.0222     2.978     1.063     0.993  0.9363 -0.3130  0.1594
 
              Baa    -0.0779   -10.450    -3.729    -3.486  0.9875  0.1187  0.1033
     8 C(13)  Bbb    -0.0724    -9.718    -3.468    -3.242 -0.0989  0.9788 -0.1792
              Bcc     0.1503    20.168     7.196     6.727 -0.1224  0.1668  0.9784
 
              Baa    -0.0489    -6.559    -2.340    -2.188  0.9882  0.0223  0.1513
     9 C(13)  Bbb    -0.0424    -5.684    -2.028    -1.896  0.0004  0.9889 -0.1484
              Bcc     0.0912    12.243     4.369     4.084 -0.1530  0.1468  0.9773
 
              Baa    -0.0316    -4.243    -1.514    -1.415 -0.4772  0.8610 -0.1762
    10 C(13)  Bbb    -0.0198    -2.652    -0.946    -0.885  0.8775  0.4777 -0.0423
              Bcc     0.0514     6.895     2.460     2.300 -0.0478  0.1748  0.9834
 
              Baa    -0.0327    -4.391    -1.567    -1.465  0.9539  0.2930  0.0642
    11 C(13)  Bbb    -0.0222    -2.979    -1.063    -0.994 -0.2802  0.9468 -0.1580
              Bcc     0.0549     7.370     2.630     2.458 -0.1071  0.1327  0.9853
 
              Baa    -0.0717    -9.627    -3.435    -3.211 -0.5870  0.7908 -0.1733
    12 C(13)  Bbb    -0.0665    -8.927    -3.185    -2.978  0.8018  0.5975  0.0109
              Bcc     0.1383    18.554     6.621     6.189 -0.1122  0.1326  0.9848
 
              Baa    -0.0410    -5.502    -1.963    -1.835  0.6960 -0.6957  0.1779
    13 C(13)  Bbb    -0.0338    -4.535    -1.618    -1.513  0.7088  0.7053 -0.0150
              Bcc     0.0748    10.037     3.581     3.348 -0.1150  0.1365  0.9839
 
              Baa    -0.0440    -5.909    -2.109    -1.971  0.9924 -0.0218  0.1215
    14 C(13)  Bbb    -0.0373    -5.004    -1.786    -1.669  0.0378  0.9906 -0.1313
              Bcc     0.0813    10.914     3.894     3.640 -0.1175  0.1349  0.9839
 
              Baa    -0.0045    -2.398    -0.856    -0.800 -0.2910  0.9429 -0.1623
    15 H(1)   Bbb    -0.0026    -1.382    -0.493    -0.461 -0.1182  0.1329  0.9841
              Bcc     0.0071     3.779     1.349     1.261  0.9494  0.3055  0.0727
 
              Baa    -0.0041    -2.180    -0.778    -0.727  0.9034  0.4269  0.0396
    16 H(1)   Bbb    -0.0027    -1.421    -0.507    -0.474 -0.1092  0.1397  0.9842
              Bcc     0.0067     3.601     1.285     1.201 -0.4146  0.8935 -0.1728
 
              Baa    -0.0035    -1.844    -0.658    -0.615  0.8883  0.4152  0.1963
    17 H(1)   Bbb    -0.0028    -1.508    -0.538    -0.503 -0.2482  0.0744  0.9658
              Bcc     0.0063     3.352     1.196     1.118 -0.3864  0.9067 -0.1691
 
              Baa    -0.0553    -2.131    -0.761    -0.711 -0.0903  0.1434  0.9855
    18 N(14)  Bbb     0.0271     1.043     0.372     0.348  0.7946 -0.5862  0.1581
              Bcc     0.0282     1.088     0.388     0.363  0.6004  0.7974 -0.0610
 
              Baa    -0.0555    -2.141    -0.764    -0.714 -0.1194  0.1342  0.9837
    19 N(14)  Bbb     0.0272     1.050     0.375     0.350  0.9320 -0.3265  0.1577
              Bcc     0.0283     1.092     0.389     0.364  0.3424  0.9356 -0.0861
 
              Baa    -0.1592    11.518     4.110     3.842  0.8100 -0.5594  0.1759
    20 O(17)  Bbb    -0.1560    11.285     4.027     3.764  0.5736  0.8182 -0.0397
              Bcc     0.3151   -22.803    -8.137    -7.606 -0.1217  0.1331  0.9836
 
              Baa    -0.1550    11.217     4.002     3.741  0.9705 -0.1934  0.1442
    21 O(17)  Bbb    -0.1514    10.955     3.909     3.654  0.2095  0.9720 -0.1065
              Bcc     0.3064   -22.172    -7.912    -7.396 -0.1196  0.1335  0.9838
 
              Baa    -0.1494    10.810     3.857     3.606  0.8410 -0.5175  0.1579
    22 O(17)  Bbb    -0.1461    10.575     3.774     3.528  0.5309  0.8455 -0.0573
              Bcc     0.2955   -21.386    -7.631    -7.133 -0.1039  0.1320  0.9858
 
              Baa    -0.1709    12.364     4.412     4.124  0.9892 -0.1229  0.0797
    23 O(17)  Bbb    -0.1675    12.120     4.325     4.043  0.1350  0.9761 -0.1704
              Bcc     0.3384   -24.484    -8.736    -8.167 -0.0569  0.1793  0.9821
 
              Baa    -0.0020    -0.266    -0.095    -0.089 -0.1000  0.1300  0.9865
    24 C(13)  Bbb     0.0008     0.113     0.040     0.038  0.9760  0.2054  0.0719
              Bcc     0.0011     0.153     0.054     0.051 -0.1933  0.9700 -0.1475
 
              Baa    -0.0015    -0.820    -0.292    -0.273 -0.0426 -0.1124  0.9928
    25 H(1)   Bbb    -0.0003    -0.150    -0.054    -0.050  0.9979 -0.0539  0.0367
              Bcc     0.0018     0.970     0.346     0.324  0.0494  0.9922  0.1144
 
              Baa    -0.0015    -0.814    -0.290    -0.272 -0.1150  0.3873  0.9148
    26 H(1)   Bbb    -0.0002    -0.091    -0.032    -0.030  0.9868 -0.0612  0.1500
              Bcc     0.0017     0.905     0.323     0.302  0.1141  0.9199 -0.3752
 
              Baa    -0.0017    -0.888    -0.317    -0.296 -0.1085  0.1233  0.9864
    27 H(1)   Bbb    -0.0006    -0.323    -0.115    -0.108  0.7560 -0.6341  0.1624
              Bcc     0.0023     1.211     0.432     0.404  0.6455  0.7634 -0.0244
 
              Baa    -0.0020    -0.264    -0.094    -0.088 -0.1194  0.1348  0.9837
    28 C(13)  Bbb     0.0009     0.115     0.041     0.038  0.8382 -0.5173  0.1726
              Bcc     0.0011     0.149     0.053     0.050  0.5322  0.8451 -0.0512
 
              Baa    -0.0015    -0.788    -0.281    -0.263 -0.3153 -0.0236  0.9487
    29 H(1)   Bbb    -0.0002    -0.104    -0.037    -0.035  0.7591 -0.6063  0.2372
              Bcc     0.0017     0.892     0.318     0.297  0.5696  0.7949  0.2091
 
              Baa    -0.0015    -0.790    -0.282    -0.263  0.0841  0.2825  0.9556
    30 H(1)   Bbb    -0.0002    -0.108    -0.039    -0.036  0.7713 -0.6256  0.1171
              Bcc     0.0017     0.898     0.321     0.300  0.6308  0.7272 -0.2705
 
              Baa    -0.0017    -0.895    -0.319    -0.299 -0.1188  0.1361  0.9835
    31 H(1)   Bbb    -0.0007    -0.360    -0.128    -0.120  0.9881 -0.0815  0.1307
              Bcc     0.0024     1.255     0.448     0.419  0.0979  0.9873 -0.1248
 
              Baa    -0.0025    -0.340    -0.121    -0.113 -0.0892 -0.6404  0.7628
    32 C(13)  Bbb    -0.0017    -0.231    -0.082    -0.077 -0.2575  0.7547  0.6035
              Bcc     0.0043     0.571     0.204     0.190  0.9622  0.1426  0.2322
 
              Baa    -0.0040    -0.542    -0.193    -0.181 -0.5565  0.0728  0.8276
    33 C(13)  Bbb    -0.0022    -0.295    -0.105    -0.099 -0.3737  0.8677 -0.3277
              Bcc     0.0062     0.837     0.299     0.279  0.7420  0.4917  0.4557
 
              Baa    -0.0121    -0.497    -0.177    -0.166  0.5004  0.8073  0.3128
    34 S(33)  Bbb    -0.0101    -0.413    -0.148    -0.138  0.4446 -0.5496  0.7073
              Bcc     0.0222     0.910     0.325     0.304  0.7430 -0.2148 -0.6339
 
              Baa    -0.0017    -0.227    -0.081    -0.076  0.1969  0.9244 -0.3267
    35 C(13)  Bbb    -0.0002    -0.028    -0.010    -0.009 -0.0938  0.3494  0.9323
              Bcc     0.0019     0.256     0.091     0.085  0.9759 -0.1529  0.1555
 
              Baa    -0.0012    -0.652    -0.233    -0.218  0.7739  0.0180 -0.6331
    36 H(1)   Bbb    -0.0009    -0.485    -0.173    -0.162 -0.1006  0.9904 -0.0949
              Bcc     0.0021     1.137     0.406     0.379  0.6253  0.1372  0.7682
 
              Baa    -0.0020    -0.268    -0.096    -0.089 -0.0634  0.6038  0.7946
    37 C(13)  Bbb    -0.0010    -0.130    -0.046    -0.043  0.7625  0.5430 -0.3518
              Bcc     0.0030     0.398     0.142     0.133  0.6439 -0.5836  0.4948
 
              Baa    -0.0015     0.111     0.040     0.037  0.2279  0.9362 -0.2675
    38 O(17)  Bbb    -0.0006     0.045     0.016     0.015 -0.3725  0.3376  0.8644
              Bcc     0.0022    -0.156    -0.056    -0.052  0.8996 -0.0974  0.4257
 
              Baa    -0.0009    -0.116    -0.041    -0.039  0.1133  0.9028 -0.4149
    39 C(13)  Bbb    -0.0003    -0.039    -0.014    -0.013  0.2295  0.3825  0.8950
              Bcc     0.0012     0.155     0.055     0.052  0.9667 -0.1966 -0.1638
 
              Baa    -0.0004    -0.055    -0.020    -0.018 -0.6166  0.2426  0.7490
    40 C(13)  Bbb    -0.0003    -0.041    -0.015    -0.014  0.1322  0.9697 -0.2053
              Bcc     0.0007     0.096     0.034     0.032  0.7761  0.0275  0.6300
 
              Baa    -0.0007    -0.096    -0.034    -0.032  0.2398  0.1411  0.9605
    41 C(13)  Bbb     0.0001     0.015     0.005     0.005  0.9480  0.1792 -0.2630
              Bcc     0.0006     0.080     0.029     0.027 -0.2092  0.9736 -0.0908
 
              Baa    -0.0008    -0.033    -0.012    -0.011 -0.1314 -0.2351  0.9631
    42 S(33)  Bbb    -0.0007    -0.030    -0.011    -0.010 -0.5007  0.8542  0.1402
              Bcc     0.0015     0.063     0.022     0.021  0.8556  0.4638  0.2300
 
              Baa    -0.0003    -0.135    -0.048    -0.045 -0.5992  0.2800  0.7500
    43 H(1)   Bbb    -0.0002    -0.119    -0.042    -0.040  0.1378  0.9589 -0.2479
              Bcc     0.0005     0.254     0.091     0.085  0.7886  0.0452  0.6132
 
              Baa    -0.0005    -0.245    -0.088    -0.082  0.6871 -0.2582 -0.6791
    44 H(1)   Bbb    -0.0004    -0.198    -0.071    -0.066  0.0726  0.9544 -0.2895
              Bcc     0.0008     0.443     0.158     0.148  0.7229  0.1496  0.6745
 
              Baa    -0.0004    -0.226    -0.081    -0.075 -0.6306  0.4165  0.6549
    45 H(1)   Bbb    -0.0003    -0.179    -0.064    -0.060  0.3262  0.9079 -0.2633
              Bcc     0.0008     0.405     0.144     0.135  0.7042 -0.0476  0.7084
 
              Baa    -0.0004    -0.054    -0.019    -0.018  0.0945  0.9613 -0.2588
    46 C(13)  Bbb    -0.0001    -0.007    -0.003    -0.002  0.2043  0.2357  0.9501
              Bcc     0.0005     0.061     0.022     0.020  0.9743 -0.1426 -0.1741
 
              Baa    -0.0008     0.055     0.020     0.018  0.4203  0.0566  0.9056
    47 O(17)  Bbb     0.0000    -0.000    -0.000    -0.000 -0.4407  0.8852  0.1492
              Bcc     0.0008    -0.055    -0.020    -0.018  0.7932  0.4618 -0.3970
 
              Baa    -0.0006    -0.075    -0.027    -0.025  0.1083  0.3875  0.9155
    48 C(13)  Bbb    -0.0001    -0.013    -0.005    -0.004  0.9628 -0.2703  0.0005
              Bcc     0.0007     0.088     0.031     0.029  0.2476  0.8814 -0.4024
 
              Baa    -0.0001    -0.074    -0.026    -0.025  0.0672 -0.6968  0.7141
    49 H(1)   Bbb    -0.0001    -0.070    -0.025    -0.023  0.2872  0.6989  0.6550
              Bcc     0.0003     0.144     0.051     0.048  0.9555 -0.1611 -0.2471
 
              Baa    -0.0002    -0.030    -0.011    -0.010  0.2874 -0.6201  0.7300
    50 C(13)  Bbb    -0.0002    -0.028    -0.010    -0.009  0.4865  0.7510  0.4464
              Bcc     0.0004     0.059     0.021     0.020  0.8250 -0.2269 -0.5175
 
              Baa    -0.0002    -0.086    -0.031    -0.029  0.0075  0.4352  0.9003
    51 H(1)   Bbb    -0.0001    -0.057    -0.020    -0.019  0.1006  0.8954 -0.4337
              Bcc     0.0003     0.143     0.051     0.048  0.9949 -0.0938  0.0370
 
              Baa    -0.0002    -0.099    -0.035    -0.033  0.3620 -0.3025  0.8817
    52 H(1)   Bbb    -0.0002    -0.086    -0.031    -0.029  0.4054  0.9028  0.1433
              Bcc     0.0003     0.185     0.066     0.062  0.8394 -0.3056 -0.4495
 
              Baa    -0.0002    -0.133    -0.047    -0.044  0.4961 -0.3762  0.7825
    53 H(1)   Bbb    -0.0002    -0.117    -0.042    -0.039  0.4140  0.8947  0.1677
              Bcc     0.0005     0.250     0.089     0.083  0.7632 -0.2408 -0.5996
 
              Baa    -0.0002    -0.099    -0.035    -0.033  0.4972 -0.1272  0.8583
    54 H(1)   Bbb    -0.0002    -0.090    -0.032    -0.030  0.1751  0.9835  0.0443
              Bcc     0.0004     0.189     0.067     0.063  0.8498 -0.1283 -0.5113
 

 ---------------------------------------------------------------------------------

 Unable to Open any file for archive entry.
 1\1\GINC-CX3-12-28\FOpt\UB3LYP\6-311+G(d,p)\C26H18N2O6S2(1-,2)\NS5018\
 28-Oct-2021\0\\# opt=modredundant b3lyp/6-311+g(d,p) scrf=(pcm, solven
 t=water)\\NDI_85.pdb\\-1,2\C,-2.5620676802,-2.9123935651,-0.6281969063
 \C,-2.2755747049,-1.5054298823,-0.3830718096\C,-3.3185324585,-0.616642
 5844,-0.0387717108\C,-4.6527117563,-1.0746051425,0.0744235389\C,-4.970
 6584159,-2.477771026,-0.1655233779\C,-0.9588505852,-1.031123404,-0.474
 9243449\C,-3.0095943554,0.7644055601,0.1945343855\C,-1.667800534,1.227
 2732198,0.077887626\C,-0.6317266429,0.2994367124,-0.2438520054\C,-1.40
 02463196,2.652309345,0.2704316325\C,-3.8111522419,3.0532755591,0.78267
 35156\C,-4.0697624828,1.6412768684,0.5382220893\C,-5.3889474868,1.1568
 128071,0.646245838\C,-5.6781258653,-0.1732420235,0.4191981645\H,-6.692
 2130658,-0.5423094651,0.5014796641\H,-6.1728738862,1.8543429932,0.9111
 85184\H,-0.1743407117,-1.735236892,-0.7202393257\N,-2.4848605866,3.471
 5537121,0.6349823691\N,-3.8971009376,-3.3184573716,-0.5051838734\O,-1.
 6993236019,-3.7457868675,-0.933033608\O,-6.1179979366,-2.9328591843,-0
 .08180074\O,-4.6956997737,3.859891624,1.0989038081\O,-0.2946919023,3.1
 829084195,0.130063016\C,-2.1726999414,4.8906066185,0.8429964806\H,-1.3
 929875778,4.9913326772,1.5978609785\H,-1.8138035165,5.336743924,-0.085
 6336733\H,-3.0795113848,5.3887032342,1.1687388615\C,-4.1695806384,-4.7
 385251816,-0.756569823\H,-3.876132023,-4.99997828,-1.7738338197\H,-3.5
 991736553,-5.3558025647,-0.0618559831\H,-5.2324387087,-4.9062738032,-0
 .6198837963\C,0.8080503765,0.6516208257,-0.3249076929\C,1.7224083003,0
 .7092850574,0.6894225336\S,1.5664410161,0.9142614075,-1.8723586798\C,3
 .0416919692,0.9942282842,0.2333109789\H,1.4543155864,0.5653579821,1.72
 61024123\C,3.1555394597,1.1422012311,-1.140471003\O,4.1505165235,1.113
 7322145,1.0176090397\C,4.3403480515,1.4239798834,-1.916774413\C,3.9890
 255913,0.9843843592,2.4335116984\C,4.4542099646,1.5596560842,-3.293542
 0042\S,5.9252598266,1.6566651231,-1.1811172238\H,4.9798832023,1.126665
 5639,2.8603081873\H,3.3102615298,1.7485639369,2.8221632303\H,3.6178329
 526,-0.0099664525,2.6968435472\C,5.7755884269,1.8430567228,-3.74835366
 11\O,3.3482064096,1.4192137605,-4.0784659746\C,6.6701668943,1.92386401
 43,-2.7196203131\H,6.048581119,1.9796709358,-4.7846675793\C,3.50625267
 3,1.5709874588,-5.4922578599\H,7.7292346587,2.12438274,-2.773364358\H,
 4.1930364862,0.8202665588,-5.8932005123\H,2.5166704202,1.4231400789,-5
 .9200424733\H,3.8656599398,2.5733461929,-5.7415802343\\Version=ES64L-G
 16RevC.01\State=2-A\HF=-2359.503389\S2=0.757765\S2-1=0.\S2A=0.75005\RM
 SD=3.311e-09\RMSF=3.362e-05\Dipole=5.3412153,0.9269959,-1.1273675\Quad
 rupole=-31.3482517,-13.2852749,44.6335266,-5.1321762,7.6818722,-8.2937
 844\PG=C01 [X(C26H18N2O6S2)]\\@
 The archive entry for this job was punched.


 10 WHATSOEVER THY HAND FINDETH TO DO, DO IT WITH THY  
 MIGHT. FOR THERE IS NO WORK, NOR DEVICE, NOR KNOWLEDGE, NOR  
 WISDOM, IN THE GRAVE, WHITHER THOU GOEST.                    
 11 I RETURNED AND SAW UNDER THE SUN, THAT THE RACE IS NOT TO 
 THE SWIFT, NOR THE BATTLE TO THE STRONG, NEITHER YET BREAD TO
 THE WISE, NOR YET RICHES TO MEN OF UNDERSTANDING, NOR YET    
 FAVOR TO MEN OF SKILL. BUT TIME AND CHANCE HAPPEN TO THEM ALL.
 12 FOR MAN ALSO KNOWETH NOT HIS TIME. AS THE FISHES   
 THAT ARE TAKEN IN AN EVIL NET, AND AS THE BIRDS THAT ARE     
 CAUGHT IN THE SNARE. SO ARE THE SONS OF MEN SNARED IN AN EVIL
 TIME, WHEN IT FALLETH SUDDENLY UPON THEM.
                                         ECCLESIASTES 9
 Job cpu time:       4 days  6 hours  8 minutes 10.0 seconds.
 Elapsed time:       0 days  6 hours 28 minutes 13.0 seconds.
 File lengths (MBytes):  RWF=   1202 Int=      0 D2E=      0 Chk=     84 Scr=      1
 Normal termination of Gaussian 16 at Thu Oct 28 08:11:23 2021.
