 Entering Gaussian System, Link 0=g16
 Input=NDI_70.gjf
 Output=NDI_70.log
 Initial command:
 /apps/gaussian/g16-c01-avx/g16/l1.exe "/tmp/pbs.4768648[245].pbs/Gau-2186345.inp" -scrdir="/tmp/pbs.4768648[245].pbs/"
 Entering Link 1 = /apps/gaussian/g16-c01-avx/g16/l1.exe PID=   2186347.
  
 Copyright (c) 1988-2019, Gaussian, Inc.  All Rights Reserved.
  
 This is part of the Gaussian(R) 16 program.  It is based on
 the Gaussian(R) 09 system (copyright 2009, Gaussian, Inc.),
 the Gaussian(R) 03 system (copyright 2003, Gaussian, Inc.),
 the Gaussian(R) 98 system (copyright 1998, Gaussian, Inc.),
 the Gaussian(R) 94 system (copyright 1995, Gaussian, Inc.),
 the Gaussian 92(TM) system (copyright 1992, Gaussian, Inc.),
 the Gaussian 90(TM) system (copyright 1990, Gaussian, Inc.),
 the Gaussian 88(TM) system (copyright 1988, Gaussian, Inc.),
 the Gaussian 86(TM) system (copyright 1986, Carnegie Mellon
 University), and the Gaussian 82(TM) system (copyright 1983,
 Carnegie Mellon University). Gaussian is a federally registered
 trademark of Gaussian, Inc.
  
 This software contains proprietary and confidential information,
 including trade secrets, belonging to Gaussian, Inc.
  
 This software is provided under written license and may be
 used, copied, transmitted, or stored only in accord with that
 written license.
  
 The following legend is applicable only to US Government
 contracts under FAR:
  
                    RESTRICTED RIGHTS LEGEND
  
 Use, reproduction and disclosure by the US Government is
 subject to restrictions as set forth in subparagraphs (a)
 and (c) of the Commercial Computer Software - Restricted
 Rights clause in FAR 52.227-19.
  
 Gaussian, Inc.
 340 Quinnipiac St., Bldg. 40, Wallingford CT 06492
  
  
 ---------------------------------------------------------------
 Warning -- This program may not be used in any manner that
 competes with the business of Gaussian, Inc. or will provide
 assistance to any competitor of Gaussian, Inc.  The licensee
 of this program is prohibited from giving any competitor of
 Gaussian, Inc. access to this program.  By using this program,
 the user acknowledges that Gaussian, Inc. is engaged in the
 business of creating and licensing software in the field of
 computational chemistry and represents and warrants to the
 licensee that it is not a competitor of Gaussian, Inc. and that
 it will not use this program in any manner prohibited above.
 ---------------------------------------------------------------
  

 Cite this work as:
 Gaussian 16, Revision C.01,
 M. J. Frisch, G. W. Trucks, H. B. Schlegel, G. E. Scuseria, 
 M. A. Robb, J. R. Cheeseman, G. Scalmani, V. Barone, 
 G. A. Petersson, H. Nakatsuji, X. Li, M. Caricato, A. V. Marenich, 
 J. Bloino, B. G. Janesko, R. Gomperts, B. Mennucci, H. P. Hratchian, 
 J. V. Ortiz, A. F. Izmaylov, J. L. Sonnenberg, D. Williams-Young, 
 F. Ding, F. Lipparini, F. Egidi, J. Goings, B. Peng, A. Petrone, 
 T. Henderson, D. Ranasinghe, V. G. Zakrzewski, J. Gao, N. Rega, 
 G. Zheng, W. Liang, M. Hada, M. Ehara, K. Toyota, R. Fukuda, 
 J. Hasegawa, M. Ishida, T. Nakajima, Y. Honda, O. Kitao, H. Nakai, 
 T. Vreven, K. Throssell, J. A. Montgomery, Jr., J. E. Peralta, 
 F. Ogliaro, M. J. Bearpark, J. J. Heyd, E. N. Brothers, K. N. Kudin, 
 V. N. Staroverov, T. A. Keith, R. Kobayashi, J. Normand, 
 K. Raghavachari, A. P. Rendell, J. C. Burant, S. S. Iyengar, 
 J. Tomasi, M. Cossi, J. M. Millam, M. Klene, C. Adamo, R. Cammi, 
 J. W. Ochterski, R. L. Martin, K. Morokuma, O. Farkas, 
 J. B. Foresman, and D. J. Fox, Gaussian, Inc., Wallingford CT, 2019.
 
 ******************************************
 Gaussian 16:  ES64L-G16RevC.01  3-Jul-2019
                28-Oct-2021 
 ******************************************
 %mem=100GB
 %nprocshared=16
 Will use up to   16 processors via shared memory.
 ---------------------------------------------------------------
 # opt=modredundant b3lyp/6-311+g(d,p) scrf=(pcm, solvent=water)
 ---------------------------------------------------------------
 1/18=120,19=15,26=3,38=1/1,3;
 2/9=110,12=2,17=6,18=5,40=1/2;
 3/5=4,6=6,7=111,11=2,25=1,30=1,70=2201,71=1,72=1,74=-5/1,2,3;
 4//1;
 5/5=2,38=5,53=1/2;
 6/7=2,8=2,9=2,10=2,28=1/1;
 7//1,2,3,16;
 1/18=20,19=15,26=3/3(2);
 2/9=110/2;
 99//99;
 2/9=110/2;
 3/5=4,6=6,7=111,11=2,25=1,30=1,70=2205,71=1,72=1,74=-5/1,2,3;
 4/5=5,16=3,69=1/1;
 5/5=2,38=5,53=1/2;
 7//1,2,3,16;
 1/18=20,19=15,26=3/3(-5);
 2/9=110/2;
 6/7=2,8=2,9=2,10=2,19=2,28=1/1;
 99/9=1/99;
 ----------
 NDI_70.pdb
 ----------
 Symbolic Z-matrix:
 Charge = -1 Multiplicity = 2
 C                    -2.563    -2.994    -0.409 
 C                    -2.257    -1.551    -0.224 
 C                    -3.301    -0.607    -0.083 
 C                    -4.65     -1.024    -0.115 
 C                    -4.992    -2.459    -0.304 
 C                    -0.949    -1.137    -0.215 
 C                    -2.962     0.764     0.102 
 C                    -1.595     1.188     0.123 
 C                    -0.561     0.232    -0.072 
 C                    -1.328     2.616     0.446 
 C                    -3.777     3.115     0.508 
 C                    -4.035     1.679     0.268 
 C                    -5.356     1.252     0.23 
 C                    -5.672    -0.098     0.036 
 H                    -6.699    -0.442     0.008 
 H                    -6.133     1.997     0.361 
 H                    -0.19     -1.895    -0.369 
 N                    -2.432     3.476     0.608 
 N                    -3.916    -3.353    -0.438 
 O                    -1.695    -3.847    -0.532 
 O                    -6.149    -2.85     -0.34 
 O                    -4.676     3.938     0.629 
 O                    -0.212     3.097     0.596 
 C                    -2.111     4.875     0.912 
 H                    -1.54      4.931     1.84 
 H                    -1.5       5.299     0.111 
 H                    -3.05      5.414     1.003 
 C                    -4.206    -4.779    -0.625 
 H                    -3.759    -5.126    -1.559 
 H                    -3.775    -5.355     0.196 
 H                    -5.286    -4.897    -0.649 
 C                     0.876     0.482    -0.178 
 C                     1.796     0.885     0.77 
 S                     1.633     0.428    -1.77 
 C                     3.076     1.139     0.241 
 H                     1.552     0.984     1.816 
 C                     3.183     0.933    -1.138 
 O                     4.171     1.552     0.934 
 C                     4.355     1.064    -1.957 
 C                     4.066     1.615     2.353 
 C                     4.454     0.88     -3.335 
 S                     5.934     1.502    -1.312 
 H                     5.058     1.883     2.716 
 H                     3.346     2.381     2.664 
 H                     3.769     0.646     2.772 
 C                     5.762     1.085    -3.858 
 O                     3.346     0.532    -4.04 
 C                     6.656     1.424    -2.878 
 H                     6.027     0.987    -4.902 
 C                     3.471     0.385    -5.45 
 H                     7.71      1.637    -2.995 
 H                     4.176    -0.415    -5.706 
 H                     2.478     0.123    -5.815 
 H                     3.796     1.321    -5.92 
 
 The following ModRedundant input section has been read:
 D       8       9      32      33 F                                           
 

 GradGradGradGradGradGradGradGradGradGradGradGradGradGradGradGradGradGrad
 Berny optimization.
 Initialization pass.
                           ----------------------------
                           !    Initial Parameters    !
                           ! (Angstroms and Degrees)  !
 --------------------------                            --------------------------
 ! Name  Definition              Value          Derivative Info.                !
 --------------------------------------------------------------------------------
 ! R1    R(1,2)                  1.4866         estimate D2E/DX2                !
 ! R2    R(1,19)                 1.4001         estimate D2E/DX2                !
 ! R3    R(1,20)                 1.2232         estimate D2E/DX2                !
 ! R4    R(2,3)                  1.4146         estimate D2E/DX2                !
 ! R5    R(2,6)                  1.372          estimate D2E/DX2                !
 ! R6    R(3,4)                  1.4123         estimate D2E/DX2                !
 ! R7    R(3,7)                  1.4244         estimate D2E/DX2                !
 ! R8    R(4,5)                  1.4872         estimate D2E/DX2                !
 ! R9    R(4,14)                 1.3874         estimate D2E/DX2                !
 ! R10   R(5,19)                 1.4053         estimate D2E/DX2                !
 ! R11   R(5,21)                 1.2218         estimate D2E/DX2                !
 ! R12   R(6,9)                  1.4301         estimate D2E/DX2                !
 ! R13   R(6,17)                 1.0837         estimate D2E/DX2                !
 ! R14   R(7,8)                  1.4314         estimate D2E/DX2                !
 ! R15   R(7,12)                 1.4199         estimate D2E/DX2                !
 ! R16   R(8,9)                  1.4217         estimate D2E/DX2                !
 ! R17   R(8,10)                 1.4882         estimate D2E/DX2                !
 ! R18   R(9,32)                 1.4624         estimate D2E/DX2                !
 ! R19   R(10,18)                1.4088         estimate D2E/DX2                !
 ! R20   R(10,23)                1.2245         estimate D2E/DX2                !
 ! R21   R(11,12)                1.4786         estimate D2E/DX2                !
 ! R22   R(11,18)                1.3962         estimate D2E/DX2                !
 ! R23   R(11,22)                1.2248         estimate D2E/DX2                !
 ! R24   R(12,13)                1.3888         estimate D2E/DX2                !
 ! R25   R(13,14)                1.4            estimate D2E/DX2                !
 ! R26   R(13,16)                1.0844         estimate D2E/DX2                !
 ! R27   R(14,15)                1.0834         estimate D2E/DX2                !
 ! R28   R(18,24)                1.4672         estimate D2E/DX2                !
 ! R29   R(19,28)                1.4672         estimate D2E/DX2                !
 ! R30   R(24,25)                1.091          estimate D2E/DX2                !
 ! R31   R(24,26)                1.093          estimate D2E/DX2                !
 ! R32   R(24,27)                1.0865         estimate D2E/DX2                !
 ! R33   R(28,29)                1.0921         estimate D2E/DX2                !
 ! R34   R(28,30)                1.0916         estimate D2E/DX2                !
 ! R35   R(28,31)                1.0867         estimate D2E/DX2                !
 ! R36   R(32,33)                1.3811         estimate D2E/DX2                !
 ! R37   R(32,34)                1.7636         estimate D2E/DX2                !
 ! R38   R(33,35)                1.4081         estimate D2E/DX2                !
 ! R39   R(33,36)                1.0786         estimate D2E/DX2                !
 ! R40   R(34,37)                1.7484         estimate D2E/DX2                !
 ! R41   R(35,37)                1.3984         estimate D2E/DX2                !
 ! R42   R(35,38)                1.3601         estimate D2E/DX2                !
 ! R43   R(37,39)                1.4358         estimate D2E/DX2                !
 ! R44   R(38,40)                1.4243         estimate D2E/DX2                !
 ! R45   R(39,41)                1.3938         estimate D2E/DX2                !
 ! R46   R(39,42)                1.761          estimate D2E/DX2                !
 ! R47   R(40,43)                1.0898         estimate D2E/DX2                !
 ! R48   R(40,44)                1.0963         estimate D2E/DX2                !
 ! R49   R(40,45)                1.0967         estimate D2E/DX2                !
 ! R50   R(41,46)                1.4235         estimate D2E/DX2                !
 ! R51   R(41,47)                1.3586         estimate D2E/DX2                !
 ! R52   R(42,48)                1.7262         estimate D2E/DX2                !
 ! R53   R(46,48)                1.3691         estimate D2E/DX2                !
 ! R54   R(46,49)                1.0816         estimate D2E/DX2                !
 ! R55   R(47,50)                1.4231         estimate D2E/DX2                !
 ! R56   R(48,51)                1.0817         estimate D2E/DX2                !
 ! R57   R(50,52)                1.0966         estimate D2E/DX2                !
 ! R58   R(50,53)                1.0899         estimate D2E/DX2                !
 ! R59   R(50,54)                1.0966         estimate D2E/DX2                !
 ! A1    A(2,1,19)             116.767          estimate D2E/DX2                !
 ! A2    A(2,1,20)             122.9113         estimate D2E/DX2                !
 ! A3    A(19,1,20)            120.3217         estimate D2E/DX2                !
 ! A4    A(1,2,3)              120.5473         estimate D2E/DX2                !
 ! A5    A(1,2,6)              119.3369         estimate D2E/DX2                !
 ! A6    A(3,2,6)              120.1056         estimate D2E/DX2                !
 ! A7    A(2,3,4)              120.3743         estimate D2E/DX2                !
 ! A8    A(2,3,7)              118.662          estimate D2E/DX2                !
 ! A9    A(4,3,7)              120.9617         estimate D2E/DX2                !
 ! A10   A(3,4,5)              120.4909         estimate D2E/DX2                !
 ! A11   A(3,4,14)             120.2702         estimate D2E/DX2                !
 ! A12   A(5,4,14)             119.2382         estimate D2E/DX2                !
 ! A13   A(4,5,19)             116.7341         estimate D2E/DX2                !
 ! A14   A(4,5,21)             122.024          estimate D2E/DX2                !
 ! A15   A(19,5,21)            121.2418         estimate D2E/DX2                !
 ! A16   A(2,6,9)              123.2421         estimate D2E/DX2                !
 ! A17   A(2,6,17)             117.1119         estimate D2E/DX2                !
 ! A18   A(9,6,17)             119.589          estimate D2E/DX2                !
 ! A19   A(3,7,8)              120.9519         estimate D2E/DX2                !
 ! A20   A(3,7,12)             117.1037         estimate D2E/DX2                !
 ! A21   A(8,7,12)             121.944          estimate D2E/DX2                !
 ! A22   A(7,8,9)              119.5639         estimate D2E/DX2                !
 ! A23   A(7,8,10)             117.3064         estimate D2E/DX2                !
 ! A24   A(9,8,10)             122.9922         estimate D2E/DX2                !
 ! A25   A(6,9,8)              117.3944         estimate D2E/DX2                !
 ! A26   A(6,9,32)             115.0236         estimate D2E/DX2                !
 ! A27   A(8,9,32)             127.5648         estimate D2E/DX2                !
 ! A28   A(8,10,18)            118.042          estimate D2E/DX2                !
 ! A29   A(8,10,23)            124.5436         estimate D2E/DX2                !
 ! A30   A(18,10,23)           117.4097         estimate D2E/DX2                !
 ! A31   A(12,11,18)           115.5202         estimate D2E/DX2                !
 ! A32   A(12,11,22)           122.7205         estimate D2E/DX2                !
 ! A33   A(18,11,22)           121.7534         estimate D2E/DX2                !
 ! A34   A(7,12,11)            120.8614         estimate D2E/DX2                !
 ! A35   A(7,12,13)            121.162          estimate D2E/DX2                !
 ! A36   A(11,12,13)           117.9699         estimate D2E/DX2                !
 ! A37   A(12,13,14)           120.9948         estimate D2E/DX2                !
 ! A38   A(12,13,16)           117.8401         estimate D2E/DX2                !
 ! A39   A(14,13,16)           121.1642         estimate D2E/DX2                !
 ! A40   A(4,14,13)            119.5003         estimate D2E/DX2                !
 ! A41   A(4,14,15)            118.9169         estimate D2E/DX2                !
 ! A42   A(13,14,15)           121.5811         estimate D2E/DX2                !
 ! A43   A(10,18,11)           126.0753         estimate D2E/DX2                !
 ! A44   A(10,18,24)           115.7508         estimate D2E/DX2                !
 ! A45   A(11,18,24)           118.1737         estimate D2E/DX2                !
 ! A46   A(1,19,5)             125.0856         estimate D2E/DX2                !
 ! A47   A(1,19,28)            116.2868         estimate D2E/DX2                !
 ! A48   A(5,19,28)            118.6276         estimate D2E/DX2                !
 ! A49   A(18,24,25)           109.8574         estimate D2E/DX2                !
 ! A50   A(18,24,26)           109.8979         estimate D2E/DX2                !
 ! A51   A(18,24,27)           107.5355         estimate D2E/DX2                !
 ! A52   A(25,24,26)           108.1108         estimate D2E/DX2                !
 ! A53   A(25,24,27)           110.8301         estimate D2E/DX2                !
 ! A54   A(26,24,27)           110.6124         estimate D2E/DX2                !
 ! A55   A(19,28,29)           109.6906         estimate D2E/DX2                !
 ! A56   A(19,28,30)           109.8136         estimate D2E/DX2                !
 ! A57   A(19,28,31)           107.7461         estimate D2E/DX2                !
 ! A58   A(29,28,30)           108.2991         estimate D2E/DX2                !
 ! A59   A(29,28,31)           110.6959         estimate D2E/DX2                !
 ! A60   A(30,28,31)           110.5924         estimate D2E/DX2                !
 ! A61   A(9,32,33)            130.8945         estimate D2E/DX2                !
 ! A62   A(9,32,34)            118.8132         estimate D2E/DX2                !
 ! A63   A(33,32,34)           110.0361         estimate D2E/DX2                !
 ! A64   A(32,33,35)           113.5962         estimate D2E/DX2                !
 ! A65   A(32,33,36)           122.8011         estimate D2E/DX2                !
 ! A66   A(35,33,36)           123.6            estimate D2E/DX2                !
 ! A67   A(32,34,37)            92.601          estimate D2E/DX2                !
 ! A68   A(33,35,37)           114.4219         estimate D2E/DX2                !
 ! A69   A(33,35,38)           126.5272         estimate D2E/DX2                !
 ! A70   A(37,35,38)           119.0509         estimate D2E/DX2                !
 ! A71   A(34,37,35)           109.3399         estimate D2E/DX2                !
 ! A72   A(34,37,39)           122.943          estimate D2E/DX2                !
 ! A73   A(35,37,39)           127.6994         estimate D2E/DX2                !
 ! A74   A(35,38,40)           117.498          estimate D2E/DX2                !
 ! A75   A(37,39,41)           127.5827         estimate D2E/DX2                !
 ! A76   A(37,39,42)           123.0711         estimate D2E/DX2                !
 ! A77   A(41,39,42)           109.3462         estimate D2E/DX2                !
 ! A78   A(38,40,43)           105.9994         estimate D2E/DX2                !
 ! A79   A(38,40,44)           111.2202         estimate D2E/DX2                !
 ! A80   A(38,40,45)           111.1939         estimate D2E/DX2                !
 ! A81   A(43,40,44)           109.3599         estimate D2E/DX2                !
 ! A82   A(43,40,45)           109.666          estimate D2E/DX2                !
 ! A83   A(44,40,45)           109.3367         estimate D2E/DX2                !
 ! A84   A(39,41,46)           114.1735         estimate D2E/DX2                !
 ! A85   A(39,41,47)           119.2709         estimate D2E/DX2                !
 ! A86   A(46,41,47)           126.5554         estimate D2E/DX2                !
 ! A87   A(39,42,48)            91.8061         estimate D2E/DX2                !
 ! A88   A(41,46,48)           111.8794         estimate D2E/DX2                !
 ! A89   A(41,46,49)           124.5222         estimate D2E/DX2                !
 ! A90   A(48,46,49)           123.5984         estimate D2E/DX2                !
 ! A91   A(41,47,50)           117.9662         estimate D2E/DX2                !
 ! A92   A(42,48,46)           112.7947         estimate D2E/DX2                !
 ! A93   A(42,48,51)           119.7886         estimate D2E/DX2                !
 ! A94   A(46,48,51)           127.4164         estimate D2E/DX2                !
 ! A95   A(47,50,52)           111.2914         estimate D2E/DX2                !
 ! A96   A(47,50,53)           106.0575         estimate D2E/DX2                !
 ! A97   A(47,50,54)           111.2533         estimate D2E/DX2                !
 ! A98   A(52,50,53)           109.401          estimate D2E/DX2                !
 ! A99   A(52,50,54)           109.395          estimate D2E/DX2                !
 ! A100  A(53,50,54)           109.3691         estimate D2E/DX2                !
 ! D1    D(19,1,2,3)             0.1578         estimate D2E/DX2                !
 ! D2    D(19,1,2,6)          -178.6792         estimate D2E/DX2                !
 ! D3    D(20,1,2,3)          -179.8231         estimate D2E/DX2                !
 ! D4    D(20,1,2,6)             1.3399         estimate D2E/DX2                !
 ! D5    D(2,1,19,5)            -0.124          estimate D2E/DX2                !
 ! D6    D(2,1,19,28)          179.8267         estimate D2E/DX2                !
 ! D7    D(20,1,19,5)          179.8575         estimate D2E/DX2                !
 ! D8    D(20,1,19,28)          -0.1919         estimate D2E/DX2                !
 ! D9    D(1,2,3,4)              0.0571         estimate D2E/DX2                !
 ! D10   D(1,2,3,7)            179.5453         estimate D2E/DX2                !
 ! D11   D(6,2,3,4)            178.8851         estimate D2E/DX2                !
 ! D12   D(6,2,3,7)             -1.6266         estimate D2E/DX2                !
 ! D13   D(1,2,6,9)            178.625          estimate D2E/DX2                !
 ! D14   D(1,2,6,17)             1.3881         estimate D2E/DX2                !
 ! D15   D(3,2,6,9)             -0.2173         estimate D2E/DX2                !
 ! D16   D(3,2,6,17)          -177.4541         estimate D2E/DX2                !
 ! D17   D(2,3,4,5)             -0.3074         estimate D2E/DX2                !
 ! D18   D(2,3,4,14)           179.3968         estimate D2E/DX2                !
 ! D19   D(7,3,4,5)           -179.7837         estimate D2E/DX2                !
 ! D20   D(7,3,4,14)            -0.0795         estimate D2E/DX2                !
 ! D21   D(2,3,7,8)              1.0523         estimate D2E/DX2                !
 ! D22   D(2,3,7,12)          -178.712          estimate D2E/DX2                !
 ! D23   D(4,3,7,8)           -179.4626         estimate D2E/DX2                !
 ! D24   D(4,3,7,12)             0.7731         estimate D2E/DX2                !
 ! D25   D(3,4,5,19)             0.3343         estimate D2E/DX2                !
 ! D26   D(3,4,5,21)          -179.7799         estimate D2E/DX2                !
 ! D27   D(14,4,5,19)         -179.3729         estimate D2E/DX2                !
 ! D28   D(14,4,5,21)            0.5129         estimate D2E/DX2                !
 ! D29   D(3,4,14,13)           -0.4559         estimate D2E/DX2                !
 ! D30   D(3,4,14,15)         -179.9937         estimate D2E/DX2                !
 ! D31   D(5,4,14,13)          179.252          estimate D2E/DX2                !
 ! D32   D(5,4,14,15)           -0.2858         estimate D2E/DX2                !
 ! D33   D(4,5,19,1)            -0.1141         estimate D2E/DX2                !
 ! D34   D(4,5,19,28)          179.9364         estimate D2E/DX2                !
 ! D35   D(21,5,19,1)          179.9992         estimate D2E/DX2                !
 ! D36   D(21,5,19,28)           0.0496         estimate D2E/DX2                !
 ! D37   D(2,6,9,8)              2.5984         estimate D2E/DX2                !
 ! D38   D(2,6,9,32)          -176.0103         estimate D2E/DX2                !
 ! D39   D(17,6,9,8)           179.77           estimate D2E/DX2                !
 ! D40   D(17,6,9,32)            1.1613         estimate D2E/DX2                !
 ! D41   D(3,7,8,9)              1.3551         estimate D2E/DX2                !
 ! D42   D(3,7,8,10)          -174.5099         estimate D2E/DX2                !
 ! D43   D(12,7,8,9)          -178.8921         estimate D2E/DX2                !
 ! D44   D(12,7,8,10)            5.2428         estimate D2E/DX2                !
 ! D45   D(3,7,12,11)          178.0768         estimate D2E/DX2                !
 ! D46   D(3,7,12,13)           -0.9621         estimate D2E/DX2                !
 ! D47   D(8,7,12,11)           -1.685          estimate D2E/DX2                !
 ! D48   D(8,7,12,13)          179.2761         estimate D2E/DX2                !
 ! D49   D(7,8,9,6)             -3.0809         estimate D2E/DX2                !
 ! D50   D(7,8,9,32)           175.3285         estimate D2E/DX2                !
 ! D51   D(10,8,9,6)           172.5381         estimate D2E/DX2                !
 ! D52   D(10,8,9,32)           -9.0525         estimate D2E/DX2                !
 ! D53   D(7,8,10,18)           -4.7549         estimate D2E/DX2                !
 ! D54   D(7,8,10,23)          174.4235         estimate D2E/DX2                !
 ! D55   D(9,8,10,18)          179.5335         estimate D2E/DX2                !
 ! D56   D(9,8,10,23)           -1.2882         estimate D2E/DX2                !
 ! D57   D(6,9,32,33)         -111.5656         estimate D2E/DX2                !
 ! D58   D(6,9,32,34)           74.8885         estimate D2E/DX2                !
 ! D59   D(8,9,32,33)           69.9928         Frozen                          !
 ! D60   D(8,9,32,34)         -103.5531         estimate D2E/DX2                !
 ! D61   D(8,10,18,11)           0.7189         estimate D2E/DX2                !
 ! D62   D(8,10,18,24)        -179.4089         estimate D2E/DX2                !
 ! D63   D(23,10,18,11)       -178.5188         estimate D2E/DX2                !
 ! D64   D(23,10,18,24)          1.3535         estimate D2E/DX2                !
 ! D65   D(18,11,12,7)          -2.3856         estimate D2E/DX2                !
 ! D66   D(18,11,12,13)        176.6833         estimate D2E/DX2                !
 ! D67   D(22,11,12,7)         178.4862         estimate D2E/DX2                !
 ! D68   D(22,11,12,13)         -2.445          estimate D2E/DX2                !
 ! D69   D(12,11,18,10)          2.8444         estimate D2E/DX2                !
 ! D70   D(12,11,18,24)       -177.0251         estimate D2E/DX2                !
 ! D71   D(22,11,18,10)       -178.0181         estimate D2E/DX2                !
 ! D72   D(22,11,18,24)          2.1124         estimate D2E/DX2                !
 ! D73   D(7,12,13,14)           0.461          estimate D2E/DX2                !
 ! D74   D(7,12,13,16)        -179.8781         estimate D2E/DX2                !
 ! D75   D(11,12,13,14)       -178.6049         estimate D2E/DX2                !
 ! D76   D(11,12,13,16)          1.056          estimate D2E/DX2                !
 ! D77   D(12,13,14,4)           0.2708         estimate D2E/DX2                !
 ! D78   D(12,13,14,15)        179.7958         estimate D2E/DX2                !
 ! D79   D(16,13,14,4)        -179.3788         estimate D2E/DX2                !
 ! D80   D(16,13,14,15)          0.1463         estimate D2E/DX2                !
 ! D81   D(10,18,24,25)        -59.609          estimate D2E/DX2                !
 ! D82   D(10,18,24,26)         59.2209         estimate D2E/DX2                !
 ! D83   D(10,18,24,27)        179.6858         estimate D2E/DX2                !
 ! D84   D(11,18,24,25)        120.2739         estimate D2E/DX2                !
 ! D85   D(11,18,24,26)       -120.8962         estimate D2E/DX2                !
 ! D86   D(11,18,24,27)         -0.4313         estimate D2E/DX2                !
 ! D87   D(1,19,28,29)         -58.1407         estimate D2E/DX2                !
 ! D88   D(1,19,28,30)          60.7668         estimate D2E/DX2                !
 ! D89   D(1,19,28,31)        -178.7139         estimate D2E/DX2                !
 ! D90   D(5,19,28,29)         121.8132         estimate D2E/DX2                !
 ! D91   D(5,19,28,30)        -119.2792         estimate D2E/DX2                !
 ! D92   D(5,19,28,31)           1.2401         estimate D2E/DX2                !
 ! D93   D(9,32,33,35)        -174.2487         estimate D2E/DX2                !
 ! D94   D(9,32,33,36)           6.3207         estimate D2E/DX2                !
 ! D95   D(34,32,33,35)         -0.2664         estimate D2E/DX2                !
 ! D96   D(34,32,33,36)       -179.697          estimate D2E/DX2                !
 ! D97   D(9,32,34,37)         175.3448         estimate D2E/DX2                !
 ! D98   D(33,32,34,37)          0.534          estimate D2E/DX2                !
 ! D99   D(32,33,35,37)         -0.245          estimate D2E/DX2                !
 ! D100  D(32,33,35,38)        179.7204         estimate D2E/DX2                !
 ! D101  D(36,33,35,37)        179.1804         estimate D2E/DX2                !
 ! D102  D(36,33,35,38)         -0.8542         estimate D2E/DX2                !
 ! D103  D(32,34,37,35)         -0.6578         estimate D2E/DX2                !
 ! D104  D(32,34,37,39)        177.9207         estimate D2E/DX2                !
 ! D105  D(33,35,37,34)          0.6362         estimate D2E/DX2                !
 ! D106  D(33,35,37,39)       -177.856          estimate D2E/DX2                !
 ! D107  D(38,35,37,34)       -179.3319         estimate D2E/DX2                !
 ! D108  D(38,35,37,39)          2.1759         estimate D2E/DX2                !
 ! D109  D(33,35,38,40)          6.5468         estimate D2E/DX2                !
 ! D110  D(37,35,38,40)       -173.4893         estimate D2E/DX2                !
 ! D111  D(34,37,39,41)          2.8764         estimate D2E/DX2                !
 ! D112  D(34,37,39,42)       -177.1583         estimate D2E/DX2                !
 ! D113  D(35,37,39,41)       -178.8189         estimate D2E/DX2                !
 ! D114  D(35,37,39,42)          1.1463         estimate D2E/DX2                !
 ! D115  D(35,38,40,43)        175.4463         estimate D2E/DX2                !
 ! D116  D(35,38,40,44)        -65.7849         estimate D2E/DX2                !
 ! D117  D(35,38,40,45)         56.3239         estimate D2E/DX2                !
 ! D118  D(37,39,41,46)        179.9779         estimate D2E/DX2                !
 ! D119  D(37,39,41,47)         -0.1722         estimate D2E/DX2                !
 ! D120  D(42,39,41,46)          0.0087         estimate D2E/DX2                !
 ! D121  D(42,39,41,47)        179.8586         estimate D2E/DX2                !
 ! D122  D(37,39,42,48)       -179.9981         estimate D2E/DX2                !
 ! D123  D(41,39,42,48)         -0.0272         estimate D2E/DX2                !
 ! D124  D(39,41,46,48)          0.0213         estimate D2E/DX2                !
 ! D125  D(39,41,46,49)       -179.9814         estimate D2E/DX2                !
 ! D126  D(47,41,46,48)       -179.8157         estimate D2E/DX2                !
 ! D127  D(47,41,46,49)          0.1816         estimate D2E/DX2                !
 ! D128  D(39,41,47,50)        178.4101         estimate D2E/DX2                !
 ! D129  D(46,41,47,50)         -1.7604         estimate D2E/DX2                !
 ! D130  D(39,42,48,46)          0.0406         estimate D2E/DX2                !
 ! D131  D(39,42,48,51)        179.852          estimate D2E/DX2                !
 ! D132  D(41,46,48,42)         -0.0424         estimate D2E/DX2                !
 ! D133  D(41,46,48,51)       -179.8363         estimate D2E/DX2                !
 ! D134  D(49,46,48,42)        179.9603         estimate D2E/DX2                !
 ! D135  D(49,46,48,51)          0.1664         estimate D2E/DX2                !
 ! D136  D(41,47,50,52)         61.9814         estimate D2E/DX2                !
 ! D137  D(41,47,50,53)       -179.1268         estimate D2E/DX2                !
 ! D138  D(41,47,50,54)        -60.2941         estimate D2E/DX2                !
 --------------------------------------------------------------------------------
 Trust Radius=3.00D-01 FncErr=1.00D-07 GrdErr=1.00D-06 EigMax=2.50D+02 EigMin=1.00D-04
 Number of steps in this run=    307 maximum allowed number of steps=    324.
 GradGradGradGradGradGradGradGradGradGradGradGradGradGradGradGradGradGrad

 Stoichiometry    C26H18N2O6S2(1-,2)
 Framework group  C1[X(C26H18N2O6S2)]
 Deg. of freedom   156
 Full point group                 C1      NOp   1
 Largest Abelian subgroup         C1      NOp   1
 Largest concise Abelian subgroup C1      NOp   1
                         Standard orientation:                         
 ---------------------------------------------------------------------
 Center     Atomic      Atomic             Coordinates (Angstroms)
 Number     Number       Type             X           Y           Z
 ---------------------------------------------------------------------
      1          6           0       -3.086107   -2.797631    0.797586
      2          6           0       -2.536408   -1.442597    0.529587
      3          6           0       -3.371452   -0.412463    0.037166
      4          6           0       -4.740946   -0.657983   -0.205569
      5          6           0       -5.322631   -2.003388    0.046301
      6          6           0       -1.202014   -1.204470    0.741787
      7          6           0       -2.804899    0.873360   -0.196211
      8          6           0       -1.414480    1.118927    0.039030
      9          6           0       -0.580317    0.057505    0.484757
     10          6           0       -0.933641    2.519348   -0.110696
     11          6           0       -3.187791    3.265892   -0.892951
     12          6           0       -3.678780    1.890159   -0.663717
     13          6           0       -5.022289    1.630088   -0.900704
     14          6           0       -5.560682    0.357319   -0.676690
     15          1           0       -6.607960    0.144777   -0.855253
     16          1           0       -5.640474    2.445778   -1.259051
     17          1           0       -0.598965   -2.039176    1.079366
     18          7           0       -1.847606    3.487821   -0.570464
     19          7           0       -4.448188   -2.988670    0.535724
     20          8           0       -2.404580   -3.718489    1.226192
     21          8           0       -6.502263   -2.247752   -0.157614
     22          8           0       -3.904703    4.162000   -1.320967
     23          8           0        0.201640    2.895469    0.151957
     24          6           0       -1.317105    4.848378   -0.712277
     25          1           0       -0.950752    5.205619    0.251324
     26          1           0       -0.480482    4.850012   -1.415666
     27          1           0       -2.124175    5.478138   -1.076370
     28          6           0       -4.978688   -4.330753    0.800165
     29          1           0       -4.429205   -5.066626    0.209290
     30          1           0       -4.853452   -4.576647    1.856305
     31          1           0       -6.031292   -4.329978    0.530124
     32          6           0        0.867707    0.086443    0.687469
     33          6           0        1.634839    0.729757    1.638873
     34         16           0        1.909501   -0.677545   -0.513121
     35          6           0        3.020730    0.611496    1.419606
     36          1           0        1.205782    1.261963    2.473211
     37          6           0        3.365523   -0.135502    0.288838
     38          8           0        4.009974    1.143568    2.186508
     39          6           0        4.682756   -0.469226   -0.174878
     40          6           0        3.629600    1.775921    3.404703
     41          6           0        5.024187   -1.194906   -1.314770
     42         16           0        6.150145    0.013760    0.670465
     43          1           0        4.558726    2.056054    3.900595
     44          1           0        3.033111    2.676006    3.215166
     45          1           0        3.060813    1.091694    4.045832
     46          6           0        6.425613   -1.358492   -1.503617
     47          8           0        4.038270   -1.671093   -2.119138
     48          6           0        7.148176   -0.757955   -0.507718
     49          1           0        6.874556   -1.891283   -2.330870
     50          6           0        4.418748   -2.378600   -3.293873
     51          1           0        8.224420   -0.725314   -0.404729
     52          1           0        4.982583   -3.286192   -3.047035
     53          1           0        3.490305   -2.653951   -3.793967
     54          1           0        5.018103   -1.747752   -3.961276
 ---------------------------------------------------------------------
 Rotational constants (GHZ):           0.1559463           0.0557383           0.0470688
 Standard basis: 6-311+G(d,p) (5D, 7F)
 There are   952 symmetry adapted cartesian basis functions of A   symmetry.
 There are   916 symmetry adapted basis functions of A   symmetry.
   916 basis functions,  1468 primitive gaussians,   952 cartesian basis functions
   135 alpha electrons      134 beta electrons
       nuclear repulsion energy      4081.9555436565 Hartrees.
 NAtoms=   54 NActive=   54 NUniq=   54 SFac= 1.00D+00 NAtFMM=   60 NAOKFM=F Big=F
 Integral buffers will be    131072 words long.
 Raffenetti 2 integral format.
 Two-electron integral symmetry is turned on.
 ------------------------------------------------------------------------------
 Polarizable Continuum Model (PCM)
 =================================
 Model                : PCM.
 Atomic radii         : UFF (Universal Force Field).
 Polarization charges : Total charges.
 Charge compensation  : None.
 Solution method      : On-the-fly selection.
 Cavity type          : Scaled VdW (van der Waals Surface) (Alpha=1.100).
 Cavity algorithm     : GePol (No added spheres)
                        Default sphere list used, NSphG=   54.
                        Lebedev-Laikov grids with approx.  5.0 points / Ang**2.
                        Smoothing algorithm: York/Karplus (Gamma=1.0000).
                        Polarization charges: spherical gaussians, with
                                              point-specific exponents (IZeta= 3).
                        Self-potential: point-specific (ISelfS= 7).
                        Self-field    : sphere-specific E.n sum rule (ISelfD= 2).
 1st derivatives      : Analytical E(r).r(x)/FMM algorithm (CHGder, D1EAlg=3).
                        Cavity 1st derivative terms included.
 Solvent              : Water, Eps=  78.355300 Eps(inf)=   1.777849
 ------------------------------------------------------------------------------
 One-electron integrals computed using PRISM.
 NBasis=   916 RedAO= T EigKep=  1.46D-06  NBF=   916
 NBsUse=   901 1.00D-06 EigRej=  9.97D-07 NBFU=   901
 ExpMin= 4.05D-02 ExpMax= 9.34D+04 ExpMxC= 3.17D+03 IAcc=3 IRadAn=         5 AccDes= 0.00D+00
 Harris functional with IExCor=  402 and IRadAn=       5 diagonalized for initial guess.
 HarFok:  IExCor=  402 AccDes= 0.00D+00 IRadAn=         5 IDoV= 1 UseB2=F ITyADJ=14
 ICtDFT=  3500011 ScaDFX=  1.000000  1.000000  1.000000  1.000000
 FoFCou: FMM=F IPFlag=           0 FMFlag=      100000 FMFlg1=           0
         NFxFlg=           0 DoJE=T BraDBF=F KetDBF=T FulRan=T
         wScrn=  0.000000 ICntrl=       500 IOpCl=  0 I1Cent=   200000004 NGrid=           0
         NMat0=    1 NMatS0=      1 NMatT0=    0 NMatD0=    1 NMtDS0=    0 NMtDT0=    0
 Petite list used in FoFCou.
 Initial guess <Sx>= 0.0000 <Sy>= 0.0000 <Sz>= 0.5000 <S**2>= 0.7500 S= 0.5000
 Requested convergence on RMS density matrix=1.00D-08 within 128 cycles.
 Requested convergence on MAX density matrix=1.00D-06.
 Requested convergence on             energy=1.00D-06.
 No special actions if energy rises.
 Inv3:  Mode=1 IEnd=    53475852.
 Iteration    1 A*A^-1 deviation from unit magnitude is 6.00D-15 for   4215.
 Iteration    1 A*A^-1 deviation from orthogonality  is 2.89D-15 for   3249   2011.
 Iteration    1 A^-1*A deviation from unit magnitude is 5.77D-15 for   4215.
 Iteration    1 A^-1*A deviation from orthogonality  is 7.68D-15 for   4011   3948.
 Restarting incremental Fock formation.
 Error on total polarization charges =  0.02625
 SCF Done:  E(UB3LYP) =  -2359.49418394     A.U. after   21 cycles
            NFock= 21  Conv=0.67D-08     -V/T= 2.0031
 <Sx>= 0.0000 <Sy>= 0.0000 <Sz>= 0.5000 <S**2>= 0.7572 S= 0.5036
 <L.S>=  0.00000000000    
 Annihilation of the first spin contaminant:
 S**2 before annihilation     0.7572,   after     0.7500

 **********************************************************************

            Population analysis using the SCF Density.

 **********************************************************************

 Orbital symmetries:
 Alpha Orbitals:
       Occupied  (A) (A) (A) (A) (A) (A) (A) (A) (A) (A) (A) (A)
                 (A) (A) (A) (A) (A) (A) (A) (A) (A) (A) (A) (A)
                 (A) (A) (A) (A) (A) (A) (A) (A) (A) (A) (A) (A)
                 (A) (A) (A) (A) (A) (A) (A) (A) (A) (A) (A) (A)
                 (A) (A) (A) (A) (A) (A) (A) (A) (A) (A) (A) (A)
                 (A) (A) (A) (A) (A) (A) (A) (A) (A) (A) (A) (A)
                 (A) (A) (A) (A) (A) (A) (A) (A) (A) (A) (A) (A)
                 (A) (A) (A) (A) (A) (A) (A) (A) (A) (A) (A) (A)
                 (A) (A) (A) (A) (A) (A) (A) (A) (A) (A) (A) (A)
                 (A) (A) (A) (A) (A) (A) (A) (A) (A) (A) (A) (A)
                 (A) (A) (A) (A) (A) (A) (A) (A) (A) (A) (A) (A)
                 (A) (A) (A)
       Virtual   (A) (A) (A) (A) (A) (A) (A) (A) (A) (A) (A) (A)
                 (A) (A) (A) (A) (A) (A) (A) (A) (A) (A) (A) (A)
                 (A) (A) (A) (A) (A) (A) (A) (A) (A) (A) (A) (A)
                 (A) (A) (A) (A) (A) (A) (A) (A) (A) (A) (A) (A)
                 (A) (A) (A) (A) (A) (A) (A) (A) (A) (A) (A) (A)
                 (A) (A) (A) (A) (A) (A) (A) (A) (A) (A) (A) (A)
                 (A) (A) (A) (A) (A) (A) (A) (A) (A) (A) (A) (A)
                 (A) (A) (A) (A) (A) (A) (A) (A) (A) (A) (A) (A)
                 (A) (A) (A) (A) (A) (A) (A) (A) (A) (A) (A) (A)
                 (A) (A) (A) (A) (A) (A) (A) (A) (A) (A) (A) (A)
                 (A) (A) (A) (A) (A) (A) (A) (A) (A) (A) (A) (A)
                 (A) (A) (A) (A) (A) (A) (A) (A) (A) (A) (A) (A)
                 (A) (A) (A) (A) (A) (A) (A) (A) (A) (A) (A) (A)
                 (A) (A) (A) (A) (A) (A) (A) (A) (A) (A) (A) (A)
                 (A) (A) (A) (A) (A) (A) (A) (A) (A) (A) (A) (A)
                 (A) (A) (A) (A) (A) (A) (A) (A) (A) (A) (A) (A)
                 (A) (A) (A) (A) (A) (A) (A) (A) (A) (A) (A) (A)
                 (A) (A) (A) (A) (A) (A) (A) (A) (A) (A) (A) (A)
                 (A) (A) (A) (A) (A) (A) (A) (A) (A) (A) (A) (A)
                 (A) (A) (A) (A) (A) (A) (A) (A) (A) (A) (A) (A)
                 (A) (A) (A) (A) (A) (A) (A) (A) (A) (A) (A) (A)
                 (A) (A) (A) (A) (A) (A) (A) (A) (A) (A) (A) (A)
                 (A) (A) (A) (A) (A) (A) (A) (A) (A) (A) (A) (A)
                 (A) (A) (A) (A) (A) (A) (A) (A) (A) (A) (A) (A)
                 (A) (A) (A) (A) (A) (A) (A) (A) (A) (A) (A) (A)
                 (A) (A) (A) (A) (A) (A) (A) (A) (A) (A) (A) (A)
                 (A) (A) (A) (A) (A) (A) (A) (A) (A) (A) (A) (A)
                 (A) (A) (A) (A) (A) (A) (A) (A) (A) (A) (A) (A)
                 (A) (A) (A) (A) (A) (A) (A) (A) (A) (A) (A) (A)
                 (A) (A) (A) (A) (A) (A) (A) (A) (A) (A) (A) (A)
                 (A) (A) (A) (A) (A) (A) (A) (A) (A) (A) (A) (A)
                 (A) (A) (A) (A) (A) (A) (A) (A) (A) (A) (A) (A)
                 (A) (A) (A) (A) (A) (A) (A) (A) (A) (A) (A) (A)
                 (A) (A) (A) (A) (A) (A) (A) (A) (A) (A) (A) (A)
                 (A) (A) (A) (A) (A) (A) (A) (A) (A) (A) (A) (A)
                 (A) (A) (A) (A) (A) (A) (A) (A) (A) (A) (A) (A)
                 (A) (A) (A) (A) (A) (A) (A) (A) (A) (A) (A) (A)
                 (A) (A) (A) (A) (A) (A) (A) (A) (A) (A) (A) (A)
                 (A) (A) (A) (A) (A) (A) (A) (A) (A) (A) (A) (A)
                 (A) (A) (A) (A) (A) (A) (A) (A) (A) (A) (A) (A)
                 (A) (A) (A) (A) (A) (A) (A) (A) (A) (A) (A) (A)
                 (A) (A) (A) (A) (A) (A) (A) (A) (A) (A) (A) (A)
                 (A) (A) (A) (A) (A) (A) (A) (A) (A) (A) (A) (A)
                 (A) (A) (A) (A) (A) (A) (A) (A) (A) (A) (A) (A)
                 (A) (A) (A) (A) (A) (A) (A) (A) (A) (A) (A) (A)
                 (A) (A) (A) (A) (A) (A) (A) (A) (A) (A) (A) (A)
                 (A) (A) (A) (A) (A) (A) (A) (A) (A) (A) (A) (A)
                 (A) (A) (A) (A) (A) (A) (A) (A) (A) (A) (A) (A)
                 (A) (A) (A) (A) (A) (A) (A) (A) (A) (A) (A) (A)
                 (A) (A) (A) (A) (A) (A) (A) (A) (A) (A) (A) (A)
                 (A) (A) (A) (A) (A) (A) (A) (A) (A) (A) (A) (A)
                 (A) (A) (A) (A) (A) (A) (A) (A) (A) (A) (A) (A)
                 (A) (A) (A) (A) (A) (A) (A) (A) (A) (A) (A) (A)
                 (A) (A) (A) (A) (A) (A) (A) (A) (A) (A) (A) (A)
                 (A) (A) (A) (A) (A) (A) (A) (A) (A) (A) (A) (A)
                 (A) (A) (A) (A) (A) (A) (A) (A) (A) (A) (A) (A)
                 (A) (A) (A) (A) (A) (A) (A) (A) (A) (A) (A) (A)
                 (A) (A) (A) (A) (A) (A) (A) (A) (A) (A) (A) (A)
                 (A) (A) (A) (A) (A) (A) (A) (A) (A) (A) (A) (A)
                 (A) (A) (A) (A) (A) (A) (A) (A) (A) (A) (A) (A)
                 (A) (A) (A) (A) (A) (A) (A) (A) (A) (A) (A) (A)
                 (A) (A) (A) (A) (A) (A) (A) (A) (A) (A) (A) (A)
                 (A) (A) (A) (A) (A) (A) (A) (A) (A) (A) (A) (A)
                 (A) (A) (A) (A) (A) (A) (A) (A) (A) (A)
 Beta  Orbitals:
       Occupied  (A) (A) (A) (A) (A) (A) (A) (A) (A) (A) (A) (A)
                 (A) (A) (A) (A) (A) (A) (A) (A) (A) (A) (A) (A)
                 (A) (A) (A) (A) (A) (A) (A) (A) (A) (A) (A) (A)
                 (A) (A) (A) (A) (A) (A) (A) (A) (A) (A) (A) (A)
                 (A) (A) (A) (A) (A) (A) (A) (A) (A) (A) (A) (A)
                 (A) (A) (A) (A) (A) (A) (A) (A) (A) (A) (A) (A)
                 (A) (A) (A) (A) (A) (A) (A) (A) (A) (A) (A) (A)
                 (A) (A) (A) (A) (A) (A) (A) (A) (A) (A) (A) (A)
                 (A) (A) (A) (A) (A) (A) (A) (A) (A) (A) (A) (A)
                 (A) (A) (A) (A) (A) (A) (A) (A) (A) (A) (A) (A)
                 (A) (A) (A) (A) (A) (A) (A) (A) (A) (A) (A) (A)
                 (A) (A)
       Virtual   (A) (A) (A) (A) (A) (A) (A) (A) (A) (A) (A) (A)
                 (A) (A) (A) (A) (A) (A) (A) (A) (A) (A) (A) (A)
                 (A) (A) (A) (A) (A) (A) (A) (A) (A) (A) (A) (A)
                 (A) (A) (A) (A) (A) (A) (A) (A) (A) (A) (A) (A)
                 (A) (A) (A) (A) (A) (A) (A) (A) (A) (A) (A) (A)
                 (A) (A) (A) (A) (A) (A) (A) (A) (A) (A) (A) (A)
                 (A) (A) (A) (A) (A) (A) (A) (A) (A) (A) (A) (A)
                 (A) (A) (A) (A) (A) (A) (A) (A) (A) (A) (A) (A)
                 (A) (A) (A) (A) (A) (A) (A) (A) (A) (A) (A) (A)
                 (A) (A) (A) (A) (A) (A) (A) (A) (A) (A) (A) (A)
                 (A) (A) (A) (A) (A) (A) (A) (A) (A) (A) (A) (A)
                 (A) (A) (A) (A) (A) (A) (A) (A) (A) (A) (A) (A)
                 (A) (A) (A) (A) (A) (A) (A) (A) (A) (A) (A) (A)
                 (A) (A) (A) (A) (A) (A) (A) (A) (A) (A) (A) (A)
                 (A) (A) (A) (A) (A) (A) (A) (A) (A) (A) (A) (A)
                 (A) (A) (A) (A) (A) (A) (A) (A) (A) (A) (A) (A)
                 (A) (A) (A) (A) (A) (A) (A) (A) (A) (A) (A) (A)
                 (A) (A) (A) (A) (A) (A) (A) (A) (A) (A) (A) (A)
                 (A) (A) (A) (A) (A) (A) (A) (A) (A) (A) (A) (A)
                 (A) (A) (A) (A) (A) (A) (A) (A) (A) (A) (A) (A)
                 (A) (A) (A) (A) (A) (A) (A) (A) (A) (A) (A) (A)
                 (A) (A) (A) (A) (A) (A) (A) (A) (A) (A) (A) (A)
                 (A) (A) (A) (A) (A) (A) (A) (A) (A) (A) (A) (A)
                 (A) (A) (A) (A) (A) (A) (A) (A) (A) (A) (A) (A)
                 (A) (A) (A) (A) (A) (A) (A) (A) (A) (A) (A) (A)
                 (A) (A) (A) (A) (A) (A) (A) (A) (A) (A) (A) (A)
                 (A) (A) (A) (A) (A) (A) (A) (A) (A) (A) (A) (A)
                 (A) (A) (A) (A) (A) (A) (A) (A) (A) (A) (A) (A)
                 (A) (A) (A) (A) (A) (A) (A) (A) (A) (A) (A) (A)
                 (A) (A) (A) (A) (A) (A) (A) (A) (A) (A) (A) (A)
                 (A) (A) (A) (A) (A) (A) (A) (A) (A) (A) (A) (A)
                 (A) (A) (A) (A) (A) (A) (A) (A) (A) (A) (A) (A)
                 (A) (A) (A) (A) (A) (A) (A) (A) (A) (A) (A) (A)
                 (A) (A) (A) (A) (A) (A) (A) (A) (A) (A) (A) (A)
                 (A) (A) (A) (A) (A) (A) (A) (A) (A) (A) (A) (A)
                 (A) (A) (A) (A) (A) (A) (A) (A) (A) (A) (A) (A)
                 (A) (A) (A) (A) (A) (A) (A) (A) (A) (A) (A) (A)
                 (A) (A) (A) (A) (A) (A) (A) (A) (A) (A) (A) (A)
                 (A) (A) (A) (A) (A) (A) (A) (A) (A) (A) (A) (A)
                 (A) (A) (A) (A) (A) (A) (A) (A) (A) (A) (A) (A)
                 (A) (A) (A) (A) (A) (A) (A) (A) (A) (A) (A) (A)
                 (A) (A) (A) (A) (A) (A) (A) (A) (A) (A) (A) (A)
                 (A) (A) (A) (A) (A) (A) (A) (A) (A) (A) (A) (A)
                 (A) (A) (A) (A) (A) (A) (A) (A) (A) (A) (A) (A)
                 (A) (A) (A) (A) (A) (A) (A) (A) (A) (A) (A) (A)
                 (A) (A) (A) (A) (A) (A) (A) (A) (A) (A) (A) (A)
                 (A) (A) (A) (A) (A) (A) (A) (A) (A) (A) (A) (A)
                 (A) (A) (A) (A) (A) (A) (A) (A) (A) (A) (A) (A)
                 (A) (A) (A) (A) (A) (A) (A) (A) (A) (A) (A) (A)
                 (A) (A) (A) (A) (A) (A) (A) (A) (A) (A) (A) (A)
                 (A) (A) (A) (A) (A) (A) (A) (A) (A) (A) (A) (A)
                 (A) (A) (A) (A) (A) (A) (A) (A) (A) (A) (A) (A)
                 (A) (A) (A) (A) (A) (A) (A) (A) (A) (A) (A) (A)
                 (A) (A) (A) (A) (A) (A) (A) (A) (A) (A) (A) (A)
                 (A) (A) (A) (A) (A) (A) (A) (A) (A) (A) (A) (A)
                 (A) (A) (A) (A) (A) (A) (A) (A) (A) (A) (A) (A)
                 (A) (A) (A) (A) (A) (A) (A) (A) (A) (A) (A) (A)
                 (A) (A) (A) (A) (A) (A) (A) (A) (A) (A) (A) (A)
                 (A) (A) (A) (A) (A) (A) (A) (A) (A) (A) (A) (A)
                 (A) (A) (A) (A) (A) (A) (A) (A) (A) (A) (A) (A)
                 (A) (A) (A) (A) (A) (A) (A) (A) (A) (A) (A) (A)
                 (A) (A) (A) (A) (A) (A) (A) (A) (A) (A) (A) (A)
                 (A) (A) (A) (A) (A) (A) (A) (A) (A) (A) (A) (A)
                 (A) (A) (A) (A) (A) (A) (A) (A) (A) (A) (A)
 The electronic state is 2-A.
 Alpha  occ. eigenvalues --  -88.87969 -88.87617 -19.16360 -19.16246 -19.10164
 Alpha  occ. eigenvalues --  -19.10129 -19.09794 -19.09431 -14.36721 -14.36324
 Alpha  occ. eigenvalues --  -10.28493 -10.28295 -10.28105 -10.28024 -10.23918
 Alpha  occ. eigenvalues --  -10.23652 -10.22507 -10.22424 -10.21145 -10.20868
 Alpha  occ. eigenvalues --  -10.20867 -10.20411 -10.20216 -10.20112 -10.19875
 Alpha  occ. eigenvalues --  -10.19864 -10.19657 -10.19605 -10.18674 -10.18569
 Alpha  occ. eigenvalues --  -10.18511 -10.18266 -10.18209 -10.17982 -10.17923
 Alpha  occ. eigenvalues --  -10.17663  -7.96533  -7.96167  -5.92839  -5.92480
 Alpha  occ. eigenvalues --   -5.92456  -5.92106  -5.92097  -5.91726  -1.07960
 Alpha  occ. eigenvalues --   -1.07783  -1.06498  -1.06125  -1.04696  -1.04218
 Alpha  occ. eigenvalues --   -0.94173  -0.93675  -0.89768  -0.89135  -0.87624
 Alpha  occ. eigenvalues --   -0.83940  -0.81504  -0.78542  -0.76303  -0.75596
 Alpha  occ. eigenvalues --   -0.75190  -0.74345  -0.73264  -0.72108  -0.70799
 Alpha  occ. eigenvalues --   -0.69817  -0.69076  -0.67183  -0.65135  -0.63616
 Alpha  occ. eigenvalues --   -0.63171  -0.62385  -0.59688  -0.58507  -0.56499
 Alpha  occ. eigenvalues --   -0.55452  -0.55380  -0.54832  -0.53871  -0.52798
 Alpha  occ. eigenvalues --   -0.51322  -0.49403  -0.48935  -0.48284  -0.47881
 Alpha  occ. eigenvalues --   -0.47798  -0.47743  -0.47420  -0.47269  -0.47063
 Alpha  occ. eigenvalues --   -0.46545  -0.45110  -0.45050  -0.44722  -0.44508
 Alpha  occ. eigenvalues --   -0.44039  -0.43377  -0.42802  -0.42498  -0.42014
 Alpha  occ. eigenvalues --   -0.41291  -0.40927  -0.40766  -0.40584  -0.40474
 Alpha  occ. eigenvalues --   -0.40059  -0.39828  -0.39769  -0.39065  -0.38359
 Alpha  occ. eigenvalues --   -0.37985  -0.37545  -0.37195  -0.36890  -0.35731
 Alpha  occ. eigenvalues --   -0.34924  -0.33724  -0.33639  -0.33299  -0.32782
 Alpha  occ. eigenvalues --   -0.32560  -0.30081  -0.29292  -0.28704  -0.28182
 Alpha  occ. eigenvalues --   -0.27754  -0.27446  -0.26998  -0.26242  -0.26080
 Alpha  occ. eigenvalues --   -0.24499  -0.24254  -0.24021  -0.18618  -0.14718
 Alpha virt. eigenvalues --   -0.05489  -0.04869  -0.03775  -0.02963  -0.00281
 Alpha virt. eigenvalues --   -0.00020   0.00357   0.00866   0.00937   0.01229
 Alpha virt. eigenvalues --    0.01582   0.02259   0.02425   0.02542   0.02721
 Alpha virt. eigenvalues --    0.02950   0.03082   0.03248   0.03575   0.03943
 Alpha virt. eigenvalues --    0.04119   0.04230   0.04421   0.04706   0.05150
 Alpha virt. eigenvalues --    0.05227   0.05299   0.05822   0.06063   0.06326
 Alpha virt. eigenvalues --    0.06726   0.06830   0.06866   0.07224   0.07749
 Alpha virt. eigenvalues --    0.07799   0.08137   0.08388   0.08605   0.08748
 Alpha virt. eigenvalues --    0.08987   0.09356   0.09435   0.09608   0.09972
 Alpha virt. eigenvalues --    0.10251   0.10537   0.10869   0.11149   0.11257
 Alpha virt. eigenvalues --    0.11579   0.11903   0.12325   0.12353   0.12660
 Alpha virt. eigenvalues --    0.12803   0.12915   0.13215   0.13872   0.14106
 Alpha virt. eigenvalues --    0.14258   0.14567   0.14697   0.14953   0.15052
 Alpha virt. eigenvalues --    0.15167   0.15356   0.15725   0.15869   0.15991
 Alpha virt. eigenvalues --    0.16213   0.16553   0.16833   0.16971   0.17148
 Alpha virt. eigenvalues --    0.17175   0.17718   0.17837   0.18250   0.18348
 Alpha virt. eigenvalues --    0.18555   0.18878   0.19093   0.19565   0.19664
 Alpha virt. eigenvalues --    0.19719   0.19881   0.20048   0.20173   0.20362
 Alpha virt. eigenvalues --    0.20597   0.20716   0.20968   0.21120   0.21306
 Alpha virt. eigenvalues --    0.21421   0.21564   0.21887   0.22020   0.22226
 Alpha virt. eigenvalues --    0.22491   0.22642   0.22942   0.22971   0.23385
 Alpha virt. eigenvalues --    0.23479   0.23614   0.23829   0.23997   0.24234
 Alpha virt. eigenvalues --    0.24331   0.24570   0.24826   0.25063   0.25139
 Alpha virt. eigenvalues --    0.25453   0.25617   0.25939   0.26170   0.26319
 Alpha virt. eigenvalues --    0.26374   0.26551   0.26731   0.26989   0.27139
 Alpha virt. eigenvalues --    0.27349   0.27458   0.27601   0.27774   0.28358
 Alpha virt. eigenvalues --    0.28470   0.28612   0.28806   0.28923   0.29188
 Alpha virt. eigenvalues --    0.29288   0.29443   0.29633   0.29907   0.29962
 Alpha virt. eigenvalues --    0.30050   0.30234   0.30421   0.30894   0.31235
 Alpha virt. eigenvalues --    0.31342   0.31538   0.31758   0.31977   0.32206
 Alpha virt. eigenvalues --    0.32414   0.32548   0.32999   0.33314   0.33683
 Alpha virt. eigenvalues --    0.33909   0.34117   0.34575   0.34690   0.35204
 Alpha virt. eigenvalues --    0.35472   0.35974   0.36099   0.36322   0.36885
 Alpha virt. eigenvalues --    0.36975   0.37433   0.37866   0.38333   0.38543
 Alpha virt. eigenvalues --    0.38950   0.39235   0.39520   0.39546   0.40195
 Alpha virt. eigenvalues --    0.40811   0.41324   0.41849   0.42056   0.42720
 Alpha virt. eigenvalues --    0.43066   0.43326   0.43537   0.44023   0.44395
 Alpha virt. eigenvalues --    0.44662   0.45490   0.45743   0.45839   0.46167
 Alpha virt. eigenvalues --    0.46504   0.46746   0.47018   0.47207   0.47423
 Alpha virt. eigenvalues --    0.48028   0.48605   0.49776   0.50142   0.50801
 Alpha virt. eigenvalues --    0.51221   0.51555   0.51807   0.52406   0.52897
 Alpha virt. eigenvalues --    0.53215   0.54484   0.54576   0.55334   0.55547
 Alpha virt. eigenvalues --    0.55702   0.56314   0.56491   0.56696   0.56858
 Alpha virt. eigenvalues --    0.57332   0.57579   0.58085   0.58477   0.58876
 Alpha virt. eigenvalues --    0.59482   0.59839   0.60631   0.60790   0.61135
 Alpha virt. eigenvalues --    0.61624   0.62019   0.62312   0.62469   0.63188
 Alpha virt. eigenvalues --    0.63443   0.64032   0.64390   0.64429   0.64939
 Alpha virt. eigenvalues --    0.65324   0.65642   0.65914   0.66370   0.66695
 Alpha virt. eigenvalues --    0.67051   0.67220   0.67850   0.68128   0.68166
 Alpha virt. eigenvalues --    0.68391   0.68570   0.69403   0.69596   0.70457
 Alpha virt. eigenvalues --    0.70751   0.70813   0.71739   0.72071   0.72236
 Alpha virt. eigenvalues --    0.72946   0.73307   0.73453   0.74203   0.74338
 Alpha virt. eigenvalues --    0.74479   0.75051   0.75106   0.75233   0.75544
 Alpha virt. eigenvalues --    0.76018   0.76180   0.76352   0.76448   0.76927
 Alpha virt. eigenvalues --    0.77488   0.77610   0.78074   0.78198   0.78521
 Alpha virt. eigenvalues --    0.79023   0.79593   0.80068   0.80137   0.80943
 Alpha virt. eigenvalues --    0.81354   0.81700   0.82315   0.83212   0.83590
 Alpha virt. eigenvalues --    0.84336   0.84872   0.85343   0.86835   0.87363
 Alpha virt. eigenvalues --    0.88252   0.88605   0.89336   0.89887   0.90058
 Alpha virt. eigenvalues --    0.90506   0.90753   0.90835   0.92160   0.92725
 Alpha virt. eigenvalues --    0.93296   0.93403   0.93635   0.94445   0.94840
 Alpha virt. eigenvalues --    0.95458   0.95584   0.96205   0.96423   0.97000
 Alpha virt. eigenvalues --    0.97332   0.97974   0.98773   0.99095   0.99507
 Alpha virt. eigenvalues --    1.00130   1.00824   1.01251   1.02154   1.02350
 Alpha virt. eigenvalues --    1.02674   1.03059   1.03161   1.03351   1.03931
 Alpha virt. eigenvalues --    1.04339   1.04923   1.05381   1.05619   1.06103
 Alpha virt. eigenvalues --    1.06277   1.06522   1.06734   1.07583   1.07810
 Alpha virt. eigenvalues --    1.08234   1.08646   1.09293   1.09811   1.10061
 Alpha virt. eigenvalues --    1.10319   1.10937   1.12201   1.12423   1.12802
 Alpha virt. eigenvalues --    1.13475   1.14009   1.15201   1.15530   1.16254
 Alpha virt. eigenvalues --    1.17666   1.17841   1.18230   1.18962   1.19421
 Alpha virt. eigenvalues --    1.19597   1.20399   1.21007   1.21646   1.22381
 Alpha virt. eigenvalues --    1.22985   1.24974   1.25903   1.26319   1.26640
 Alpha virt. eigenvalues --    1.27023   1.27161   1.28513   1.28852   1.29610
 Alpha virt. eigenvalues --    1.29690   1.30288   1.31264   1.32135   1.32481
 Alpha virt. eigenvalues --    1.33836   1.34328   1.35078   1.35856   1.37026
 Alpha virt. eigenvalues --    1.37350   1.38471   1.39346   1.40703   1.41217
 Alpha virt. eigenvalues --    1.42685   1.43513   1.43697   1.44101   1.44296
 Alpha virt. eigenvalues --    1.44326   1.44517   1.45311   1.45413   1.46004
 Alpha virt. eigenvalues --    1.46155   1.46743   1.47451   1.47636   1.47839
 Alpha virt. eigenvalues --    1.49021   1.49719   1.50040   1.51137   1.51937
 Alpha virt. eigenvalues --    1.53237   1.53422   1.53623   1.54240   1.54857
 Alpha virt. eigenvalues --    1.55248   1.55466   1.55813   1.56394   1.56711
 Alpha virt. eigenvalues --    1.57009   1.57469   1.58299   1.59048   1.59647
 Alpha virt. eigenvalues --    1.61058   1.61513   1.62504   1.62971   1.63257
 Alpha virt. eigenvalues --    1.63826   1.64305   1.65156   1.65589   1.66033
 Alpha virt. eigenvalues --    1.67382   1.67556   1.68036   1.68275   1.69044
 Alpha virt. eigenvalues --    1.69852   1.70545   1.71061   1.71260   1.71646
 Alpha virt. eigenvalues --    1.72181   1.72543   1.72848   1.73615   1.74135
 Alpha virt. eigenvalues --    1.75778   1.76474   1.76822   1.77033   1.77566
 Alpha virt. eigenvalues --    1.77953   1.78438   1.79153   1.79972   1.80783
 Alpha virt. eigenvalues --    1.81353   1.81774   1.82431   1.84535   1.84858
 Alpha virt. eigenvalues --    1.84979   1.85790   1.87039   1.87866   1.88072
 Alpha virt. eigenvalues --    1.88512   1.89575   1.90002   1.90722   1.91111
 Alpha virt. eigenvalues --    1.91654   1.92326   1.92744   1.93192   1.93776
 Alpha virt. eigenvalues --    1.94349   1.95613   1.96274   1.96588   1.97155
 Alpha virt. eigenvalues --    1.98166   1.99068   1.99758   2.00618   2.01330
 Alpha virt. eigenvalues --    2.01970   2.02336   2.02766   2.03338   2.04182
 Alpha virt. eigenvalues --    2.04731   2.05366   2.05527   2.05839   2.06987
 Alpha virt. eigenvalues --    2.07317   2.07521   2.08353   2.09413   2.09682
 Alpha virt. eigenvalues --    2.10838   2.11328   2.12349   2.12682   2.13075
 Alpha virt. eigenvalues --    2.13980   2.14976   2.15777   2.16116   2.17084
 Alpha virt. eigenvalues --    2.17373   2.18601   2.19896   2.20391   2.20904
 Alpha virt. eigenvalues --    2.21618   2.22511   2.22632   2.23667   2.23974
 Alpha virt. eigenvalues --    2.27343   2.28188   2.29440   2.30392   2.33568
 Alpha virt. eigenvalues --    2.34347   2.34778   2.36851   2.39033   2.39620
 Alpha virt. eigenvalues --    2.41063   2.41379   2.42819   2.43862   2.44302
 Alpha virt. eigenvalues --    2.45162   2.45534   2.47188   2.47458   2.48047
 Alpha virt. eigenvalues --    2.49281   2.49841   2.50177   2.51087   2.51793
 Alpha virt. eigenvalues --    2.52866   2.53094   2.53635   2.53806   2.54577
 Alpha virt. eigenvalues --    2.54608   2.55054   2.55428   2.56936   2.57805
 Alpha virt. eigenvalues --    2.58874   2.60339   2.60483   2.61274   2.63396
 Alpha virt. eigenvalues --    2.65163   2.66002   2.66649   2.66925   2.68317
 Alpha virt. eigenvalues --    2.68709   2.69022   2.69600   2.70246   2.70490
 Alpha virt. eigenvalues --    2.71560   2.72373   2.72874   2.73138   2.74023
 Alpha virt. eigenvalues --    2.74666   2.74725   2.75185   2.77714   2.78013
 Alpha virt. eigenvalues --    2.78570   2.79196   2.80671   2.82189   2.84138
 Alpha virt. eigenvalues --    2.84318   2.84692   2.85039   2.85540   2.86144
 Alpha virt. eigenvalues --    2.86643   2.87069   2.87863   2.88546   2.89882
 Alpha virt. eigenvalues --    2.90018   2.90907   2.91689   2.92191   2.93190
 Alpha virt. eigenvalues --    2.93630   2.94494   2.95651   2.95876   2.96849
 Alpha virt. eigenvalues --    2.97372   2.98384   3.00335   3.00987   3.01501
 Alpha virt. eigenvalues --    3.04085   3.04432   3.05503   3.07172   3.07481
 Alpha virt. eigenvalues --    3.08630   3.09327   3.10840   3.11574   3.12943
 Alpha virt. eigenvalues --    3.15070   3.15839   3.16311   3.16741   3.17370
 Alpha virt. eigenvalues --    3.19631   3.20449   3.21917   3.22968   3.23934
 Alpha virt. eigenvalues --    3.24426   3.25354   3.26952   3.29092   3.30492
 Alpha virt. eigenvalues --    3.31581   3.32102   3.33022   3.35474   3.35951
 Alpha virt. eigenvalues --    3.36210   3.36421   3.37506   3.38552   3.39627
 Alpha virt. eigenvalues --    3.41872   3.42177   3.44401   3.45821   3.46332
 Alpha virt. eigenvalues --    3.46915   3.47906   3.50081   3.51140   3.52538
 Alpha virt. eigenvalues --    3.55086   3.57453   3.59861   3.61379   3.62309
 Alpha virt. eigenvalues --    3.63585   3.67043   3.67654   3.68838   3.71331
 Alpha virt. eigenvalues --    3.72672   3.73410   3.73995   3.76688   3.77342
 Alpha virt. eigenvalues --    3.77581   3.82724   3.84130   3.85380   3.86723
 Alpha virt. eigenvalues --    3.87640   3.92083   3.94385   3.94891   3.95058
 Alpha virt. eigenvalues --    3.95934   3.98908   4.03339   4.03868   4.06432
 Alpha virt. eigenvalues --    4.08986   4.11214   4.14564   4.15011   4.19929
 Alpha virt. eigenvalues --    4.24316   4.27394   4.28831   4.37566   4.39806
 Alpha virt. eigenvalues --    4.42520   4.53190   4.67724   4.86905   4.88371
 Alpha virt. eigenvalues --    4.89008   4.92174   5.02014   5.03603   5.05331
 Alpha virt. eigenvalues --    5.06609   5.07046   5.10270   5.13293   5.14889
 Alpha virt. eigenvalues --    5.26499   5.28399   5.30528   5.33054   5.42745
 Alpha virt. eigenvalues --    5.43834   5.76910   5.77505   5.80828   5.81745
 Alpha virt. eigenvalues --    5.83527   5.87111   8.02520   8.05234  17.29384
 Alpha virt. eigenvalues --   17.34148  17.49866  17.52846  17.57465  17.63125
 Alpha virt. eigenvalues --   23.51573  23.58130  23.73305  23.81388  23.83823
 Alpha virt. eigenvalues --   23.84954  23.86412  23.89232  23.89302  23.90435
 Alpha virt. eigenvalues --   23.91089  23.91509  23.92340  23.95451  23.95892
 Alpha virt. eigenvalues --   23.97798  23.98587  24.01049  24.02849  24.03149
 Alpha virt. eigenvalues --   24.03322  24.08019  24.13609  24.14970  24.16341
 Alpha virt. eigenvalues --   24.17118  35.57811  35.60653  49.96709  49.98010
 Alpha virt. eigenvalues --   50.04114  50.05736  50.07805  50.09366 189.19753
 Alpha virt. eigenvalues --  189.23294
  Beta  occ. eigenvalues --  -88.87968 -88.87611 -19.16358 -19.16247 -19.09987
  Beta  occ. eigenvalues --  -19.09942 -19.09619 -19.09217 -14.36775 -14.36380
  Beta  occ. eigenvalues --  -10.28428 -10.28231 -10.28042 -10.27960 -10.23913
  Beta  occ. eigenvalues --  -10.23657 -10.22507 -10.22424 -10.21147 -10.20885
  Beta  occ. eigenvalues --  -10.20855 -10.20279 -10.20268 -10.20107 -10.19917
  Beta  occ. eigenvalues --  -10.19874 -10.19604 -10.19484 -10.18528 -10.18415
  Beta  occ. eigenvalues --  -10.18345 -10.18267 -10.18161 -10.17895 -10.17842
  Beta  occ. eigenvalues --  -10.17643  -7.96532  -7.96160  -5.92838  -5.92471
  Beta  occ. eigenvalues --   -5.92456  -5.92105  -5.92089  -5.91721  -1.07956
  Beta  occ. eigenvalues --   -1.07785  -1.06254  -1.05872  -1.04382  -1.03883
  Beta  occ. eigenvalues --   -0.94083  -0.93575  -0.89667  -0.89059  -0.87583
  Beta  occ. eigenvalues --   -0.83624  -0.81201  -0.78419  -0.76225  -0.75260
  Beta  occ. eigenvalues --   -0.75043  -0.74304  -0.73192  -0.72069  -0.70756
  Beta  occ. eigenvalues --   -0.69655  -0.68842  -0.67038  -0.64975  -0.63416
  Beta  occ. eigenvalues --   -0.63074  -0.62190  -0.59647  -0.58448  -0.56414
  Beta  occ. eigenvalues --   -0.55405  -0.55293  -0.54708  -0.53865  -0.52635
  Beta  occ. eigenvalues --   -0.51198  -0.49244  -0.48862  -0.48005  -0.47771
  Beta  occ. eigenvalues --   -0.47701  -0.47595  -0.47413  -0.47188  -0.46931
  Beta  occ. eigenvalues --   -0.46509  -0.45053  -0.44907  -0.44692  -0.44396
  Beta  occ. eigenvalues --   -0.43940  -0.43200  -0.42634  -0.42340  -0.41748
  Beta  occ. eigenvalues --   -0.41237  -0.40886  -0.40702  -0.40021  -0.39995
  Beta  occ. eigenvalues --   -0.39755  -0.39704  -0.39086  -0.38836  -0.38275
  Beta  occ. eigenvalues --   -0.37916  -0.37214  -0.37080  -0.36804  -0.35722
  Beta  occ. eigenvalues --   -0.34835  -0.33699  -0.33350  -0.33226  -0.32752
  Beta  occ. eigenvalues --   -0.31975  -0.29162  -0.29045  -0.28542  -0.27684
  Beta  occ. eigenvalues --   -0.27576  -0.27119  -0.26819  -0.26027  -0.25466
  Beta  occ. eigenvalues --   -0.24357  -0.23986  -0.22897  -0.18570
  Beta virt. eigenvalues --   -0.10186  -0.05026  -0.04027  -0.03108  -0.02149
  Beta virt. eigenvalues --   -0.00266   0.00016   0.00369   0.00878   0.00946
  Beta virt. eigenvalues --    0.01250   0.01591   0.02427   0.02463   0.02875
  Beta virt. eigenvalues --    0.03017   0.03225   0.03283   0.03512   0.03727
  Beta virt. eigenvalues --    0.03977   0.04137   0.04267   0.04541   0.04738
  Beta virt. eigenvalues --    0.05181   0.05246   0.05329   0.05834   0.06077
  Beta virt. eigenvalues --    0.06358   0.06742   0.06844   0.06898   0.07388
  Beta virt. eigenvalues --    0.07773   0.07814   0.08245   0.08397   0.08717
  Beta virt. eigenvalues --    0.08839   0.09013   0.09409   0.09468   0.09623
  Beta virt. eigenvalues --    0.10058   0.10280   0.10588   0.10910   0.11358
  Beta virt. eigenvalues --    0.11475   0.11632   0.12014   0.12366   0.12432
  Beta virt. eigenvalues --    0.12740   0.12858   0.12992   0.13232   0.13962
  Beta virt. eigenvalues --    0.14213   0.14294   0.14626   0.14838   0.15017
  Beta virt. eigenvalues --    0.15075   0.15217   0.15376   0.15756   0.15901
  Beta virt. eigenvalues --    0.16045   0.16268   0.16585   0.16862   0.17042
  Beta virt. eigenvalues --    0.17169   0.17212   0.17767   0.17871   0.18282
  Beta virt. eigenvalues --    0.18377   0.18582   0.18942   0.19146   0.19607
  Beta virt. eigenvalues --    0.19697   0.19769   0.19894   0.20103   0.20193
  Beta virt. eigenvalues --    0.20402   0.20628   0.20755   0.20987   0.21168
  Beta virt. eigenvalues --    0.21344   0.21477   0.21603   0.21951   0.22056
  Beta virt. eigenvalues --    0.22276   0.22625   0.22723   0.22991   0.23207
  Beta virt. eigenvalues --    0.23439   0.23550   0.23704   0.23954   0.24044
  Beta virt. eigenvalues --    0.24274   0.24379   0.24590   0.24877   0.25118
  Beta virt. eigenvalues --    0.25171   0.25547   0.25683   0.25980   0.26199
  Beta virt. eigenvalues --    0.26380   0.26409   0.26593   0.26775   0.27047
  Beta virt. eigenvalues --    0.27206   0.27390   0.27494   0.27653   0.27859
  Beta virt. eigenvalues --    0.28417   0.28520   0.28641   0.28873   0.28961
  Beta virt. eigenvalues --    0.29232   0.29333   0.29488   0.29700   0.29944
  Beta virt. eigenvalues --    0.29995   0.30131   0.30276   0.30482   0.30957
  Beta virt. eigenvalues --    0.31267   0.31384   0.31591   0.31791   0.32063
  Beta virt. eigenvalues --    0.32277   0.32460   0.32616   0.33085   0.33378
  Beta virt. eigenvalues --    0.33749   0.33975   0.34167   0.34622   0.34780
  Beta virt. eigenvalues --    0.35260   0.35546   0.36050   0.36135   0.36420
  Beta virt. eigenvalues --    0.36931   0.37043   0.37482   0.37927   0.38370
  Beta virt. eigenvalues --    0.38603   0.38983   0.39303   0.39615   0.39630
  Beta virt. eigenvalues --    0.40246   0.40901   0.41354   0.41904   0.42084
  Beta virt. eigenvalues --    0.42779   0.43123   0.43375   0.43568   0.44076
  Beta virt. eigenvalues --    0.44459   0.44717   0.45509   0.45768   0.45896
  Beta virt. eigenvalues --    0.46203   0.46546   0.46798   0.47050   0.47242
  Beta virt. eigenvalues --    0.47485   0.48073   0.48681   0.49811   0.50163
  Beta virt. eigenvalues --    0.50882   0.51282   0.51641   0.51871   0.52482
  Beta virt. eigenvalues --    0.52972   0.53269   0.54541   0.54708   0.55356
  Beta virt. eigenvalues --    0.55611   0.55785   0.56354   0.56536   0.56864
  Beta virt. eigenvalues --    0.56987   0.57350   0.57645   0.58148   0.58576
  Beta virt. eigenvalues --    0.58972   0.59520   0.59957   0.60708   0.60882
  Beta virt. eigenvalues --    0.61264   0.61656   0.62087   0.62459   0.62601
  Beta virt. eigenvalues --    0.63270   0.63623   0.64155   0.64446   0.64529
  Beta virt. eigenvalues --    0.65013   0.65421   0.65725   0.66029   0.66456
  Beta virt. eigenvalues --    0.66809   0.67138   0.67294   0.67907   0.68186
  Beta virt. eigenvalues --    0.68251   0.68488   0.68653   0.69546   0.69643
  Beta virt. eigenvalues --    0.70535   0.70850   0.70911   0.71890   0.72155
  Beta virt. eigenvalues --    0.72348   0.73159   0.73403   0.73542   0.74335
  Beta virt. eigenvalues --    0.74430   0.74573   0.75114   0.75193   0.75307
  Beta virt. eigenvalues --    0.75608   0.76081   0.76228   0.76382   0.76539
  Beta virt. eigenvalues --    0.76952   0.77598   0.77661   0.78129   0.78225
  Beta virt. eigenvalues --    0.78575   0.79167   0.79700   0.80135   0.80198
  Beta virt. eigenvalues --    0.80986   0.81405   0.81739   0.82384   0.83243
  Beta virt. eigenvalues --    0.83647   0.84385   0.84958   0.85371   0.86856
  Beta virt. eigenvalues --    0.87408   0.88254   0.88608   0.89432   0.89931
  Beta virt. eigenvalues --    0.90051   0.90540   0.90844   0.90932   0.92249
  Beta virt. eigenvalues --    0.92795   0.93391   0.93598   0.93768   0.94536
  Beta virt. eigenvalues --    0.94956   0.95616   0.95701   0.96262   0.96621
  Beta virt. eigenvalues --    0.97194   0.97486   0.98062   0.98880   0.99213
  Beta virt. eigenvalues --    0.99742   1.00191   1.00923   1.01358   1.02230
  Beta virt. eigenvalues --    1.02502   1.02795   1.03141   1.03255   1.03523
  Beta virt. eigenvalues --    1.04113   1.04384   1.05023   1.05450   1.05792
  Beta virt. eigenvalues --    1.06219   1.06318   1.06645   1.06916   1.07639
  Beta virt. eigenvalues --    1.07938   1.08354   1.08732   1.09477   1.10011
  Beta virt. eigenvalues --    1.10162   1.10440   1.11192   1.12294   1.12603
  Beta virt. eigenvalues --    1.12985   1.13763   1.14114   1.15415   1.15729
  Beta virt. eigenvalues --    1.16608   1.17761   1.17931   1.18404   1.19130
  Beta virt. eigenvalues --    1.19674   1.19812   1.20640   1.21253   1.21766
  Beta virt. eigenvalues --    1.22485   1.23094   1.25059   1.25974   1.26389
  Beta virt. eigenvalues --    1.26716   1.27089   1.27230   1.28697   1.29018
  Beta virt. eigenvalues --    1.29715   1.29803   1.30353   1.31394   1.32174
  Beta virt. eigenvalues --    1.32525   1.33930   1.34395   1.35186   1.35864
  Beta virt. eigenvalues --    1.37096   1.37443   1.38536   1.39499   1.40709
  Beta virt. eigenvalues --    1.41334   1.42795   1.43577   1.43797   1.44116
  Beta virt. eigenvalues --    1.44334   1.44416   1.44557   1.45417   1.45479
  Beta virt. eigenvalues --    1.46106   1.46169   1.46836   1.47555   1.47748
  Beta virt. eigenvalues --    1.47954   1.49158   1.49907   1.50133   1.51239
  Beta virt. eigenvalues --    1.52044   1.53346   1.53654   1.53689   1.54313
  Beta virt. eigenvalues --    1.54891   1.55333   1.55563   1.55849   1.56423
  Beta virt. eigenvalues --    1.56752   1.57125   1.57549   1.58348   1.59165
  Beta virt. eigenvalues --    1.59855   1.61174   1.61621   1.62537   1.63015
  Beta virt. eigenvalues --    1.63274   1.63905   1.64330   1.65253   1.65686
  Beta virt. eigenvalues --    1.66081   1.67428   1.67567   1.68065   1.68388
  Beta virt. eigenvalues --    1.69112   1.69894   1.70581   1.71291   1.71414
  Beta virt. eigenvalues --    1.71725   1.72283   1.72681   1.72953   1.73800
  Beta virt. eigenvalues --    1.74194   1.75880   1.76573   1.76925   1.77123
  Beta virt. eigenvalues --    1.77702   1.78004   1.78527   1.79206   1.80022
  Beta virt. eigenvalues --    1.80812   1.81427   1.81870   1.82564   1.84652
  Beta virt. eigenvalues --    1.84959   1.85056   1.85988   1.87081   1.87986
  Beta virt. eigenvalues --    1.88139   1.88646   1.89716   1.90329   1.90838
  Beta virt. eigenvalues --    1.91355   1.91756   1.92445   1.92909   1.93305
  Beta virt. eigenvalues --    1.93953   1.94457   1.95715   1.96375   1.96719
  Beta virt. eigenvalues --    1.97356   1.98381   1.99304   1.99889   2.00852
  Beta virt. eigenvalues --    2.01474   2.02081   2.02393   2.02863   2.03461
  Beta virt. eigenvalues --    2.04252   2.04798   2.05380   2.05578   2.05933
  Beta virt. eigenvalues --    2.07031   2.07384   2.07611   2.08491   2.09503
  Beta virt. eigenvalues --    2.09736   2.10875   2.11451   2.12394   2.12780
  Beta virt. eigenvalues --    2.13092   2.14022   2.15057   2.15845   2.16141
  Beta virt. eigenvalues --    2.17201   2.17484   2.18797   2.19936   2.20454
  Beta virt. eigenvalues --    2.21020   2.21775   2.22528   2.22722   2.23793
  Beta virt. eigenvalues --    2.24095   2.27442   2.28454   2.29603   2.30552
  Beta virt. eigenvalues --    2.33718   2.34541   2.34880   2.36960   2.39224
  Beta virt. eigenvalues --    2.39658   2.41118   2.41564   2.42953   2.43870
  Beta virt. eigenvalues --    2.44304   2.45196   2.45577   2.47251   2.47461
  Beta virt. eigenvalues --    2.48116   2.49324   2.49867   2.50268   2.51206
  Beta virt. eigenvalues --    2.51832   2.52880   2.53164   2.53668   2.53819
  Beta virt. eigenvalues --    2.54605   2.54621   2.55092   2.55432   2.56987
  Beta virt. eigenvalues --    2.57846   2.58883   2.60378   2.60545   2.61341
  Beta virt. eigenvalues --    2.63437   2.65213   2.66266   2.66767   2.67003
  Beta virt. eigenvalues --    2.68351   2.68731   2.69058   2.69690   2.70317
  Beta virt. eigenvalues --    2.70532   2.71635   2.72438   2.73230   2.73355
  Beta virt. eigenvalues --    2.74134   2.74727   2.74881   2.75368   2.77834
  Beta virt. eigenvalues --    2.78251   2.78694   2.79231   2.81031   2.82371
  Beta virt. eigenvalues --    2.84232   2.84395   2.84701   2.85195   2.85584
  Beta virt. eigenvalues --    2.86280   2.86773   2.87464   2.88221   2.88841
  Beta virt. eigenvalues --    2.90179   2.90329   2.91395   2.92083   2.92481
  Beta virt. eigenvalues --    2.93503   2.94038   2.94676   2.96086   2.96244
  Beta virt. eigenvalues --    2.97052   2.97725   2.98732   3.00411   3.01021
  Beta virt. eigenvalues --    3.01858   3.04091   3.04990   3.05524   3.07218
  Beta virt. eigenvalues --    3.07656   3.09064   3.09377   3.10966   3.11654
  Beta virt. eigenvalues --    3.13073   3.15086   3.16115   3.16467   3.16797
  Beta virt. eigenvalues --    3.17486   3.19716   3.20482   3.21960   3.23027
  Beta virt. eigenvalues --    3.23937   3.24429   3.25388   3.27045   3.29189
  Beta virt. eigenvalues --    3.30534   3.31647   3.32164   3.33065   3.35954
  Beta virt. eigenvalues --    3.36413   3.36602   3.36702   3.37935   3.38583
  Beta virt. eigenvalues --    3.39745   3.41887   3.42273   3.44487   3.45924
  Beta virt. eigenvalues --    3.46369   3.46978   3.48009   3.50108   3.51240
  Beta virt. eigenvalues --    3.52667   3.55113   3.57492   3.59970   3.61471
  Beta virt. eigenvalues --    3.62388   3.63700   3.67110   3.67686   3.68911
  Beta virt. eigenvalues --    3.71390   3.72741   3.73387   3.73975   3.76702
  Beta virt. eigenvalues --    3.77343   3.77581   3.82740   3.84197   3.85383
  Beta virt. eigenvalues --    3.86764   3.87679   3.92288   3.94472   3.94923
  Beta virt. eigenvalues --    3.95083   3.95802   3.99064   4.03444   4.03928
  Beta virt. eigenvalues --    4.06554   4.09001   4.11219   4.14577   4.15198
  Beta virt. eigenvalues --    4.19994   4.24386   4.27594   4.28986   4.37780
  Beta virt. eigenvalues --    4.39959   4.42755   4.53312   4.67790   4.87054
  Beta virt. eigenvalues --    4.88622   4.89009   4.92178   5.02024   5.03616
  Beta virt. eigenvalues --    5.06071   5.07341   5.07807   5.11142   5.13412
  Beta virt. eigenvalues --    5.15010   5.26647   5.28553   5.30680   5.33228
  Beta virt. eigenvalues --    5.42748   5.43836   5.76972   5.77615   5.80837
  Beta virt. eigenvalues --    5.81906   5.83681   5.87280   8.02521   8.05245
  Beta virt. eigenvalues --   17.29385  17.34154  17.49867  17.52847  17.57481
  Beta virt. eigenvalues --   17.63130  23.51629  23.58171  23.73319  23.81456
  Beta virt. eigenvalues --   23.83882  23.85036  23.86489  23.89324  23.89387
  Beta virt. eigenvalues --   23.90471  23.91180  23.91520  23.92340  23.95504
  Beta virt. eigenvalues --   23.95916  23.97848  23.98657  24.01149  24.02864
  Beta virt. eigenvalues --   24.03144  24.03330  24.08144  24.13625  24.14973
  Beta virt. eigenvalues --   24.16443  24.17227  35.57755  35.60596  49.96711
  Beta virt. eigenvalues --   49.98010  50.04297  50.05925  50.07993  50.09559
  Beta virt. eigenvalues --  189.19754 189.23301
          Condensed to atoms (all electrons):
          Atomic-Atomic Spin Densities.
 Mulliken charges and spin densities:
               1          2
     1  C    0.415259   0.029258
     2  C   -0.086288   0.120419
     3  C    0.183521  -0.036052
     4  C    0.170859   0.101232
     5  C    0.311297   0.029651
     6  C   -0.822391   0.041558
     7  C    0.161630  -0.033810
     8  C    0.082927   0.127075
[...]
     8   Atom       -0.005603     -0.017295      0.057633
     9   Atom       -0.005313     -0.021927      0.028017
    10   Atom        0.007406      0.007082      0.022015
    11   Atom       -0.003854     -0.003224      0.014092
    12   Atom        0.000542     -0.010581      0.037766
    13   Atom        0.002206     -0.006960      0.021609
    14   Atom       -0.001593     -0.007890      0.022107
    15   Atom        0.003631     -0.000131      0.000338
    16   Atom       -0.004256      0.000934     -0.001596
    17   Atom       -0.003743      0.000568     -0.001624
    18   Atom        0.000469     -0.000352     -0.016695
    19   Atom        0.001307      0.005198     -0.015192
    20   Atom       -0.004556     -0.033048      0.082609
    21   Atom       -0.004924     -0.028901      0.083517
    22   Atom       -0.001532     -0.015202      0.080612
    23   Atom        0.014457      0.042938      0.142109
    24   Atom       -0.000003      0.000064     -0.000544
    25   Atom        0.000066     -0.000070      0.000120
    26   Atom        0.000145     -0.000058     -0.001193
    27   Atom        0.001354     -0.000090     -0.000343
    28   Atom        0.000146      0.000163     -0.000544
    29   Atom        0.000841      0.000448      0.000172
    30   Atom        0.000762     -0.000544     -0.000880
    31   Atom        0.000176      0.000032     -0.000747
    32   Atom        0.000770      0.001556      0.005300
    33   Atom        0.006722      0.000800     -0.002670
    34   Atom       -0.015166     -0.004196      0.004001
    35   Atom       -0.000398      0.000512      0.003235
    36   Atom        0.000312      0.001122      0.000693
    37   Atom       -0.002428      0.002944     -0.009397
    38   Atom        0.000578      0.001082      0.002796
    39   Atom       -0.000596     -0.000103      0.002077
    40   Atom        0.000178      0.000579      0.000069
    41   Atom       -0.000060     -0.000197     -0.003659
    42   Atom        0.002365     -0.000146     -0.000726
    43   Atom        0.000126      0.000342      0.000082
    44   Atom        0.000336      0.000633      0.000240
    45   Atom        0.000146      0.000602      0.000106
    46   Atom       -0.000150      0.000064      0.001127
    47   Atom        0.000639     -0.001014     -0.003328
    48   Atom        0.000493     -0.000441     -0.003774
    49   Atom       -0.000055     -0.000033      0.000049
    50   Atom       -0.000188     -0.000246      0.000165
    51   Atom        0.000027      0.000127     -0.000160
    52   Atom       -0.000184     -0.000164      0.000113
    53   Atom       -0.000183     -0.000266      0.000170
    54   Atom       -0.000114     -0.000224      0.000085
 --------------------------------------------------------


 ---------------------------------------------------------------------------------
              Anisotropic Spin Dipole Couplings in Principal Axis System
 ---------------------------------------------------------------------------------

       Atom             a.u.   MegaHertz   Gauss  10(-4) cm-1        Axes

              Baa    -0.0338    -4.541    -1.620    -1.515  0.9498  0.3128  0.0039
     1 C(13)  Bbb    -0.0229    -3.070    -1.095    -1.024 -0.3061  0.9318 -0.1952
              Bcc     0.0567     7.611     2.716     2.539 -0.0647  0.1843  0.9807
 
              Baa    -0.0743    -9.964    -3.556    -3.324 -0.6698  0.7183 -0.1882
     2 C(13)  Bbb    -0.0689    -9.246    -3.299    -3.084  0.7387  0.6702 -0.0713
              Bcc     0.1432    19.211     6.855     6.408 -0.0749  0.1868  0.9795
 
              Baa    -0.0389    -5.219    -1.862    -1.741 -0.0705  0.1880  0.9796
     3 C(13)  Bbb     0.0175     2.347     0.837     0.783  0.3809  0.9127 -0.1478
              Bcc     0.0214     2.872     1.025     0.958  0.9219 -0.3627  0.1360
 
              Baa    -0.0686    -9.212    -3.287    -3.073  0.9842  0.1746  0.0288
     4 C(13)  Bbb    -0.0633    -8.499    -3.032    -2.835 -0.1654  0.9657 -0.2000
              Bcc     0.1320    17.710     6.319     5.908 -0.0628  0.1920  0.9794
 
              Baa    -0.0339    -4.549    -1.623    -1.517 -0.4804  0.8552 -0.1943
     5 C(13)  Bbb    -0.0235    -3.152    -1.125    -1.051  0.8747  0.4835 -0.0343
              Bcc     0.0574     7.701     2.748     2.569 -0.0646  0.1864  0.9803
 
              Baa    -0.0365    -4.896    -1.747    -1.633  0.7122 -0.6763  0.1881
     6 C(13)  Bbb    -0.0286    -3.833    -1.368    -1.278  0.6946  0.7176 -0.0500
              Bcc     0.0650     8.729     3.115     2.912 -0.1011  0.1662  0.9809
 
              Baa    -0.0393    -5.277    -1.883    -1.760 -0.0737  0.2031  0.9764
     7 C(13)  Bbb     0.0173     2.328     0.831     0.777  0.2826  0.9432 -0.1749
              Bcc     0.0220     2.948     1.052     0.984  0.9564 -0.2630  0.1269
 
              Baa    -0.0768   -10.309    -3.678    -3.439  0.9894  0.1383  0.0441
     8 C(13)  Bbb    -0.0715    -9.593    -3.423    -3.200 -0.1205  0.9518 -0.2820
              Bcc     0.1483    19.902     7.101     6.639 -0.0810  0.2737  0.9584
 
              Baa    -0.0482    -6.464    -2.307    -2.156  0.9855  0.0739  0.1529
     9 C(13)  Bbb    -0.0417    -5.600    -1.998    -1.868 -0.0371  0.9722 -0.2311
              Bcc     0.0899    12.064     4.305     4.024 -0.1657  0.2221  0.9608
 
              Baa    -0.0316    -4.239    -1.513    -1.414 -0.5197  0.8322 -0.1931
    10 C(13)  Bbb    -0.0204    -2.733    -0.975    -0.912  0.8459  0.4695 -0.2528
              Bcc     0.0520     6.972     2.488     2.326  0.1197  0.2948  0.9480
 
              Baa    -0.0323    -4.335    -1.547    -1.446  0.9458  0.3244 -0.0182
    11 C(13)  Bbb    -0.0219    -2.935    -1.047    -0.979 -0.3217  0.9271 -0.1927
              Bcc     0.0542     7.270     2.594     2.425 -0.0456  0.1881  0.9811
 
              Baa    -0.0709    -9.514    -3.395    -3.174 -0.6242  0.7610 -0.1769
    12 C(13)  Bbb    -0.0657    -8.823    -3.148    -2.943  0.7796  0.6213 -0.0782
              Bcc     0.1367    18.337     6.543     6.117 -0.0504  0.1867  0.9811
 
              Baa    -0.0406    -5.453    -1.946    -1.819  0.7298 -0.6607  0.1759
    13 C(13)  Bbb    -0.0335    -4.500    -1.606    -1.501  0.6813  0.7243 -0.1060
              Bcc     0.0742     9.952     3.551     3.320 -0.0574  0.1972  0.9787
 
              Baa    -0.0435    -5.834    -2.082    -1.946  0.9979  0.0181  0.0629
    14 C(13)  Bbb    -0.0368    -4.937    -1.762    -1.647 -0.0056  0.9810 -0.1937
              Bcc     0.0803    10.771     3.844     3.593 -0.0652  0.1930  0.9790
 
              Baa    -0.0044    -2.363    -0.843    -0.788 -0.3336  0.9216 -0.1987
    15 H(1)   Bbb    -0.0026    -1.371    -0.489    -0.457 -0.0668  0.1871  0.9801
              Bcc     0.0070     3.733     1.332     1.245  0.9404  0.3402 -0.0008
 
              Baa    -0.0041    -2.164    -0.772    -0.722  0.8893  0.4534 -0.0595
    16 H(1)   Bbb    -0.0026    -1.406    -0.502    -0.469 -0.0401  0.2069  0.9775
              Bcc     0.0067     3.570     1.274     1.191 -0.4556  0.8669 -0.2021
 
              Baa    -0.0035    -1.880    -0.671    -0.627  0.8386  0.4731  0.2699
    17 H(1)   Bbb    -0.0027    -1.449    -0.517    -0.483 -0.3288  0.0446  0.9433
              Bcc     0.0062     3.330     1.188     1.111 -0.4343  0.8799 -0.1930
 
              Baa    -0.0542    -2.091    -0.746    -0.698  0.0030  0.2092  0.9779
    18 N(14)  Bbb     0.0265     1.023     0.365     0.341  0.8457 -0.5224  0.1091
              Bcc     0.0277     1.068     0.381     0.356  0.5336  0.8267 -0.1785
 
              Baa    -0.0551    -2.126    -0.759    -0.709 -0.0652  0.1867  0.9803
    19 N(14)  Bbb     0.0270     1.043     0.372     0.348  0.9492 -0.2916  0.1186
              Bcc     0.0281     1.084     0.387     0.361  0.3079  0.9382 -0.1582
 
              Baa    -0.1582    11.450     4.086     3.819  0.8385 -0.5221  0.1560
    20 O(17)  Bbb    -0.1550    11.218     4.003     3.742  0.5403  0.8338 -0.1132
              Bcc     0.3133   -22.668    -8.089    -7.561 -0.0710  0.1792  0.9812
 
              Baa    -0.1539    11.138     3.974     3.715  0.9839 -0.1522  0.0934
    21 O(17)  Bbb    -0.1503    10.879     3.882     3.629  0.1667  0.9704 -0.1745
              Bcc     0.3043   -22.017    -7.856    -7.344 -0.0641  0.1873  0.9802
 
              Baa    -0.1477    10.687     3.813     3.565  0.8720 -0.4742  0.1214
    22 O(17)  Bbb    -0.1445    10.458     3.732     3.488  0.4883  0.8602 -0.1471
              Bcc     0.2922   -21.145    -7.545    -7.053 -0.0347  0.1876  0.9816
 
              Baa    -0.1644    11.895     4.244     3.968  0.9731 -0.2296 -0.0208
    23 O(17)  Bbb    -0.1620    11.720     4.182     3.909  0.2110  0.9235 -0.3203
              Bcc     0.3263   -23.614    -8.426    -7.877  0.0927  0.3073  0.9471
 
              Baa    -0.0020    -0.264    -0.094    -0.088 -0.0219  0.1817  0.9831
    24 C(13)  Bbb     0.0009     0.119     0.043     0.040  0.9969  0.0782  0.0078
              Bcc     0.0011     0.145     0.052     0.048 -0.0755  0.9802 -0.1829
 
              Baa    -0.0015    -0.815    -0.291    -0.272  0.0629 -0.0361  0.9974
    25 H(1)   Bbb    -0.0004    -0.203    -0.072    -0.068  0.9976 -0.0256 -0.0639
              Bcc     0.0019     1.018     0.363     0.340  0.0279  0.9990  0.0344
 
              Baa    -0.0015    -0.793    -0.283    -0.264 -0.0083  0.4417  0.8971
    26 H(1)   Bbb    -0.0001    -0.030    -0.011    -0.010  0.9952 -0.0840  0.0505
              Bcc     0.0015     0.823     0.294     0.274  0.0977  0.8932 -0.4389
 
              Baa    -0.0016    -0.867    -0.310    -0.289 -0.0551  0.1505  0.9871
    27 H(1)   Bbb    -0.0006    -0.312    -0.111    -0.104  0.7888 -0.5996  0.1355
              Bcc     0.0022     1.180     0.421     0.393  0.6122  0.7860 -0.0857
 
              Baa    -0.0020    -0.262    -0.094    -0.087 -0.0654  0.1880  0.9800
    28 C(13)  Bbb     0.0008     0.114     0.041     0.038  0.8549 -0.4960  0.1522
              Bcc     0.0011     0.148     0.053     0.049  0.5147  0.8477 -0.1283
 
              Baa    -0.0015    -0.782    -0.279    -0.261 -0.2562  0.0196  0.9664
    29 H(1)   Bbb    -0.0002    -0.099    -0.035    -0.033  0.7942 -0.5656  0.2220
              Bcc     0.0017     0.881     0.315     0.294  0.5510  0.8244  0.1294
 
              Baa    -0.0015    -0.788    -0.281    -0.263  0.1305  0.3390  0.9317
    30 H(1)   Bbb    -0.0002    -0.113    -0.040    -0.038  0.7960 -0.5961  0.1054
              Bcc     0.0017     0.901     0.322     0.301  0.5911  0.7279 -0.3476
 
              Baa    -0.0017    -0.890    -0.318    -0.297 -0.0651  0.1929  0.9791
    31 H(1)   Bbb    -0.0007    -0.356    -0.127    -0.119  0.9963 -0.0422  0.0745
              Bcc     0.0023     1.246     0.445     0.416  0.0557  0.9803 -0.1894
 
              Baa    -0.0088    -1.184    -0.423    -0.395  0.0261  0.7662 -0.6420
    32 C(13)  Bbb     0.0014     0.193     0.069     0.064 -0.2972  0.6191  0.7269
              Bcc     0.0074     0.991     0.354     0.331  0.9545  0.1719  0.2439
 
              Baa    -0.0079    -1.061    -0.379    -0.354 -0.5470  0.3444  0.7630
    33 C(13)  Bbb    -0.0042    -0.558    -0.199    -0.186  0.7300 -0.2498  0.6362
              Bcc     0.0121     1.619     0.578     0.540  0.4097  0.9050 -0.1148
 
              Baa    -0.0117    -0.479    -0.171    -0.160  0.7518  0.6469  0.1282
    34 S(33)  Bbb    -0.0084    -0.345    -0.123    -0.115  0.0410 -0.2399  0.9699
              Bcc     0.0201     0.824     0.294     0.275 -0.6582  0.7239  0.2069
 
              Baa    -0.0054    -0.730    -0.261    -0.244  0.0677  0.8535 -0.5167
    35 C(13)  Bbb     0.0019     0.253     0.090     0.084 -0.1405  0.5209  0.8420
              Bcc     0.0036     0.477     0.170     0.159  0.9878  0.0156  0.1552
 
              Baa    -0.0011    -0.568    -0.203    -0.190 -0.6520 -0.3478  0.6737
    36 H(1)   Bbb    -0.0005    -0.277    -0.099    -0.092 -0.5019  0.8640 -0.0397
              Bcc     0.0016     0.845     0.302     0.282  0.5683  0.3641  0.7379
 
              Baa    -0.0071    -0.958    -0.342    -0.320 -0.1919  0.6712  0.7160
    37 C(13)  Bbb    -0.0054    -0.727    -0.260    -0.243  0.9574  0.2884 -0.0137
              Bcc     0.0126     1.686     0.601     0.562  0.2157 -0.6829  0.6979
 
              Baa    -0.0045     0.325     0.116     0.109  0.0244  0.7997 -0.5999
    38 O(17)  Bbb     0.0007    -0.053    -0.019    -0.018 -0.4490  0.5449  0.7082
              Bcc     0.0038    -0.272    -0.097    -0.091  0.8932  0.2521  0.3724
 
              Baa    -0.0034    -0.450    -0.161    -0.150  0.0723  0.7965 -0.6003
    39 C(13)  Bbb     0.0008     0.114     0.041     0.038  0.2767  0.5623  0.7793
              Bcc     0.0025     0.336     0.120     0.112  0.9582 -0.2225 -0.1797
 
              Baa    -0.0005    -0.067    -0.024    -0.022 -0.6194  0.2163  0.7547
    40 C(13)  Bbb    -0.0003    -0.034    -0.012    -0.011 -0.0116  0.9586 -0.2844
              Bcc     0.0007     0.100     0.036     0.033  0.7850  0.1849  0.5913
 
              Baa    -0.0031    -0.412    -0.147    -0.138  0.2309  0.5007  0.8342
    41 C(13)  Bbb    -0.0022    -0.293    -0.104    -0.098  0.9730 -0.1248 -0.1944
              Bcc     0.0053     0.705     0.252     0.235  0.0067  0.8566 -0.5160
 
              Baa    -0.0020    -0.081    -0.029    -0.027 -0.5345  0.5769  0.6177
    42 S(33)  Bbb    -0.0012    -0.050    -0.018    -0.017  0.5427 -0.3260  0.7741
              Bcc     0.0032     0.130     0.047     0.044  0.6479  0.7489 -0.1388
 
              Baa    -0.0003    -0.139    -0.050    -0.046 -0.6006  0.2075  0.7722
    43 H(1)   Bbb    -0.0002    -0.125    -0.045    -0.042 -0.0449  0.9554 -0.2917
              Bcc     0.0005     0.265     0.094     0.088  0.7983  0.2099  0.5645
 
              Baa    -0.0005    -0.274    -0.098    -0.091  0.6830 -0.2856 -0.6723
    44 H(1)   Bbb    -0.0004    -0.218    -0.078    -0.073 -0.0468  0.9014 -0.4305
              Bcc     0.0009     0.492     0.176     0.164  0.7289  0.3255  0.6023
 
              Baa    -0.0004    -0.236    -0.084    -0.079  0.6941 -0.4124 -0.5901
    45 H(1)   Bbb    -0.0004    -0.193    -0.069    -0.064  0.2013  0.8982 -0.3909
              Bcc     0.0008     0.429     0.153     0.143  0.6912  0.1525  0.7064
 
              Baa    -0.0018    -0.242    -0.086    -0.081  0.0541  0.8298 -0.5555
    46 C(13)  Bbb     0.0006     0.086     0.031     0.029  0.0586  0.5527  0.8313
              Bcc     0.0012     0.156     0.056     0.052  0.9968 -0.0775 -0.0187
 
              Baa    -0.0029     0.210     0.075     0.070  0.5434  0.4010  0.7375
    47 O(17)  Bbb    -0.0019     0.135     0.048     0.045  0.8240 -0.4229 -0.3772
              Bcc     0.0048    -0.345    -0.123    -0.115  0.1606  0.8126 -0.5602
 
              Baa    -0.0028    -0.380    -0.136    -0.127  0.1021  0.5895  0.8013
    48 C(13)  Bbb    -0.0023    -0.305    -0.109    -0.102  0.9907 -0.1329 -0.0285
              Bcc     0.0051     0.684     0.244     0.228  0.0897  0.7967 -0.5976
 
              Baa    -0.0002    -0.103    -0.037    -0.034  0.0480  0.7858 -0.6166
    49 H(1)   Bbb    -0.0001    -0.054    -0.019    -0.018  0.1524  0.6043  0.7821
              Bcc     0.0003     0.158     0.056     0.053  0.9872 -0.1315 -0.0907
 
              Baa    -0.0003    -0.037    -0.013    -0.012 -0.0282  0.7655 -0.6428
    50 C(13)  Bbb    -0.0002    -0.024    -0.009    -0.008  0.6170  0.5193  0.5914
              Bcc     0.0005     0.061     0.022     0.020  0.7865 -0.3799 -0.4870
 
              Baa    -0.0004    -0.239    -0.085    -0.080 -0.1170  0.6115  0.7826
    51 H(1)   Bbb    -0.0001    -0.060    -0.021    -0.020  0.0851  0.7912 -0.6056
              Bcc     0.0006     0.298     0.106     0.099  0.9895  0.0042  0.1446
 
              Baa    -0.0002    -0.114    -0.041    -0.038  0.1559 -0.4486  0.8800
    52 H(1)   Bbb    -0.0001    -0.079    -0.028    -0.026  0.5703  0.7683  0.2906
              Bcc     0.0004     0.193     0.069     0.064  0.8065 -0.4566 -0.3756
 
              Baa    -0.0003    -0.139    -0.050    -0.046  0.1781 -0.6556  0.7338
    53 H(1)   Bbb    -0.0002    -0.102    -0.036    -0.034  0.6431  0.6420  0.4175
              Bcc     0.0005     0.241     0.086     0.080  0.7447 -0.3976 -0.5360
 
              Baa    -0.0002    -0.104    -0.037    -0.035 -0.0055  0.8879 -0.4601
    54 H(1)   Bbb    -0.0002    -0.089    -0.032    -0.030  0.5837  0.3765  0.7194
              Bcc     0.0004     0.194     0.069     0.065  0.8120 -0.2646 -0.5203
 

 ---------------------------------------------------------------------------------

 Unable to Open any file for archive entry.
 1\1\GINC-CX3-6-26\FOpt\UB3LYP\6-311+G(d,p)\C26H18N2O6S2(1-,2)\NS5018\2
 8-Oct-2021\0\\# opt=modredundant b3lyp/6-311+g(d,p) scrf=(pcm, solvent
 =water)\\NDI_70.pdb\\-1,2\C,-2.6147465363,-2.9134588873,-0.6752517927\
 C,-2.3074330884,-1.5103201719,-0.4326215664\C,-3.3269684984,-0.6195043
 829,-0.0269094122\C,-4.6548694732,-1.0720655385,0.1561787182\C,-4.9913
 578423,-2.472890261,-0.0729523626\C,-0.9912459562,-1.0468505953,-0.569
 961199\C,-3.0004952895,0.7595808386,0.1924448187\C,-1.6661233496,1.218
 1662252,0.0005079105\C,-0.644272127,0.2802373732,-0.3406273893\C,-1.40
 36403503,2.6540464287,0.097045318\C,-3.7596401691,3.051471748,0.819887
 6509\C,-4.0372802643,1.6402654121,0.5923663777\C,-5.3503756329,1.16084
 30678,0.7719553212\C,-5.6566208546,-0.1677184474,0.5586828886\H,-6.666
 4251509,-0.5327520978,0.693953755\H,-6.1157804573,1.8615479898,1.07948
 43484\H,-0.2201502062,-1.7610877497,-0.8284974934\N,-2.4492950976,3.47
 02272795,0.5691448498\N,-3.9425478511,-3.3149641202,-0.4795357205\O,-1
 .7752218309,-3.7475974632,-1.0371612102\O,-6.1336298447,-2.9246161629,
 0.0738945339\O,-4.6173726429,3.8592773218,1.2004026827\O,-0.3401004966
 ,3.1958215362,-0.2169632324\C,-2.1332121228,4.8947479696,0.727523297\H
 ,-1.2085073297,5.0016052094,1.2921998538\H,-2.0006135606,5.3681793401,
 -0.2474564819\H,-2.9572616164,5.3652493842,1.2533972063\C,-4.235299439
 9,-4.7319200604,-0.7256820937\H,-4.0139343847,-4.9841075607,-1.7634643
 319\H,-3.6193773618,-5.3566657473,-0.0782249833\H,-5.2866426105,-4.899
 1905342,-0.5176948926\C,0.7944990224,0.6203048678,-0.4134471241\C,1.64
 94405065,0.9231316073,0.6111098531\S,1.6440538193,0.5251586274,-1.9331
 980501\C,2.9931941601,1.1014495483,0.1795652353\H,1.3215351307,1.02024
 9419,1.6358385993\C,3.1885602463,0.9274657357,-1.1832562443\O,4.056075
 6974,1.404825309,0.9772586132\C,4.4159898374,1.0417398029,-1.934366267
 5\C,3.8086958736,1.6281901922,2.3689024125\C,4.6114091641,0.8523851311
 ,-3.2958606895\S,5.9517687158,1.4769482484,-1.1862145825\H,4.774240391
 7,1.8722064428,2.8074624463\H,3.1185029378,2.4636631224,2.5149105064\H
 ,3.4084645734,0.728983488,2.8453715297\C,5.9549949901,1.0510889245,-3.
 7294142874\O,3.5556694828,0.5079975714,-4.0864640674\C,6.7852030589,1.
 3919415854,-2.6999490251\H,6.2884800046,0.9463333253,-4.7516354445\C,3
 .7993325709,0.3160530465,-5.4832082119\H,7.8439968797,1.5971247527,-2.
 739508785\H,4.5122628942,-0.4965029915,-5.648835426\H,2.838342798,0.05
 09812629,-5.9194499963\H,4.1697286811,1.2347236371,-5.946676363\\Versi
 on=ES64L-G16RevC.01\State=2-A\HF=-2359.5036518\S2=0.757686\S2-1=0.\S2A
 =0.75005\RMSD=5.550e-09\RMSF=1.685e-04\Dipole=5.4904264,0.6914496,-1.0
 546016\Quadrupole=-30.2402176,-12.9099007,43.1501183,-5.0652765,8.2160
 277,-1.7048343\PG=C01 [X(C26H18N2O6S2)]\\@
 The archive entry for this job was punched.


 THERE IS MORE TO LIFE THAN INCREASING ITS SPEED.

                                       -- GANDHI
 Job cpu time:       4 days  1 hours 17 minutes 16.9 seconds.
 Elapsed time:       0 days  6 hours  8 minutes 47.0 seconds.
 File lengths (MBytes):  RWF=   1194 Int=      0 D2E=      0 Chk=     84 Scr=      1
 Normal termination of Gaussian 16 at Thu Oct 28 07:52:00 2021.
