 Entering Gaussian System, Link 0=g16
 Input=NDI_0.gjf
 Output=NDI_0.log
 Initial command:
 /apps/gaussian/g16-c01-avx/g16/l1.exe "/tmp/pbs.4768648[175].pbs/Gau-1114827.inp" -scrdir="/tmp/pbs.4768648[175].pbs/"
 Entering Link 1 = /apps/gaussian/g16-c01-avx/g16/l1.exe PID=   1114843.
  
 Copyright (c) 1988-2019, Gaussian, Inc.  All Rights Reserved.
  
 This is part of the Gaussian(R) 16 program.  It is based on
 the Gaussian(R) 09 system (copyright 2009, Gaussian, Inc.),
 the Gaussian(R) 03 system (copyright 2003, Gaussian, Inc.),
 the Gaussian(R) 98 system (copyright 1998, Gaussian, Inc.),
 the Gaussian(R) 94 system (copyright 1995, Gaussian, Inc.),
 the Gaussian 92(TM) system (copyright 1992, Gaussian, Inc.),
 the Gaussian 90(TM) system (copyright 1990, Gaussian, Inc.),
 the Gaussian 88(TM) system (copyright 1988, Gaussian, Inc.),
 the Gaussian 86(TM) system (copyright 1986, Carnegie Mellon
 University), and the Gaussian 82(TM) system (copyright 1983,
 Carnegie Mellon University). Gaussian is a federally registered
 trademark of Gaussian, Inc.
  
 This software contains proprietary and confidential information,
 including trade secrets, belonging to Gaussian, Inc.
  
 This software is provided under written license and may be
 used, copied, transmitted, or stored only in accord with that
 written license.
  
 The following legend is applicable only to US Government
 contracts under FAR:
  
                    RESTRICTED RIGHTS LEGEND
  
 Use, reproduction and disclosure by the US Government is
 subject to restrictions as set forth in subparagraphs (a)
 and (c) of the Commercial Computer Software - Restricted
 Rights clause in FAR 52.227-19.
  
 Gaussian, Inc.
 340 Quinnipiac St., Bldg. 40, Wallingford CT 06492
  
  
 ---------------------------------------------------------------
 Warning -- This program may not be used in any manner that
 competes with the business of Gaussian, Inc. or will provide
 assistance to any competitor of Gaussian, Inc.  The licensee
 of this program is prohibited from giving any competitor of
 Gaussian, Inc. access to this program.  By using this program,
 the user acknowledges that Gaussian, Inc. is engaged in the
 business of creating and licensing software in the field of
 computational chemistry and represents and warrants to the
 licensee that it is not a competitor of Gaussian, Inc. and that
 it will not use this program in any manner prohibited above.
 ---------------------------------------------------------------
  

 Cite this work as:
 Gaussian 16, Revision C.01,
 M. J. Frisch, G. W. Trucks, H. B. Schlegel, G. E. Scuseria, 
 M. A. Robb, J. R. Cheeseman, G. Scalmani, V. Barone, 
 G. A. Petersson, H. Nakatsuji, X. Li, M. Caricato, A. V. Marenich, 
 J. Bloino, B. G. Janesko, R. Gomperts, B. Mennucci, H. P. Hratchian, 
 J. V. Ortiz, A. F. Izmaylov, J. L. Sonnenberg, D. Williams-Young, 
 F. Ding, F. Lipparini, F. Egidi, J. Goings, B. Peng, A. Petrone, 
 T. Henderson, D. Ranasinghe, V. G. Zakrzewski, J. Gao, N. Rega, 
 G. Zheng, W. Liang, M. Hada, M. Ehara, K. Toyota, R. Fukuda, 
 J. Hasegawa, M. Ishida, T. Nakajima, Y. Honda, O. Kitao, H. Nakai, 
 T. Vreven, K. Throssell, J. A. Montgomery, Jr., J. E. Peralta, 
 F. Ogliaro, M. J. Bearpark, J. J. Heyd, E. N. Brothers, K. N. Kudin, 
 V. N. Staroverov, T. A. Keith, R. Kobayashi, J. Normand, 
 K. Raghavachari, A. P. Rendell, J. C. Burant, S. S. Iyengar, 
 J. Tomasi, M. Cossi, J. M. Millam, M. Klene, C. Adamo, R. Cammi, 
 J. W. Ochterski, R. L. Martin, K. Morokuma, O. Farkas, 
 J. B. Foresman, and D. J. Fox, Gaussian, Inc., Wallingford CT, 2019.
 
 ******************************************
 Gaussian 16:  ES64L-G16RevC.01  3-Jul-2019
                28-Oct-2021 
 ******************************************
 %mem=100GB
 %nprocshared=16
 Will use up to   16 processors via shared memory.
 ---------------------------------------------------------------
 # opt=modredundant b3lyp/6-311+g(d,p) scrf=(pcm, solvent=water)
 ---------------------------------------------------------------
 1/18=120,19=15,26=3,38=1/1,3;
 2/9=110,12=2,17=6,18=5,40=1/2;
 3/5=4,6=6,7=111,11=2,25=1,30=1,70=2201,71=1,72=1,74=-5/1,2,3;
 4//1;
 5/5=2,38=5,53=1/2;
 6/7=2,8=2,9=2,10=2,28=1/1;
 7//1,2,3,16;
 1/18=20,19=15,26=3/3(2);
 2/9=110/2;
 99//99;
 2/9=110/2;
 3/5=4,6=6,7=111,11=2,25=1,30=1,70=2205,71=1,72=1,74=-5/1,2,3;
 4/5=5,16=3,69=1/1;
 5/5=2,38=5,53=1/2;
 7//1,2,3,16;
 1/18=20,19=15,26=3/3(-5);
 2/9=110/2;
 6/7=2,8=2,9=2,10=2,19=2,28=1/1;
 99/9=1/99;
 ---------
 NDI_0.pdb
 ---------
 Symbolic Z-matrix:
 Charge = -1 Multiplicity = 2
 C                    -2.563    -2.994    -0.409 
 C                    -2.257    -1.551    -0.224 
 C                    -3.301    -0.607    -0.083 
 C                    -4.65     -1.024    -0.115 
 C                    -4.992    -2.459    -0.304 
 C                    -0.949    -1.137    -0.215 
 C                    -2.962     0.764     0.102 
 C                    -1.595     1.188     0.123 
 C                    -0.561     0.232    -0.072 
 C                    -1.328     2.616     0.446 
 C                    -3.777     3.115     0.508 
 C                    -4.035     1.679     0.268 
 C                    -5.356     1.252     0.23 
 C                    -5.672    -0.098     0.036 
 H                    -6.699    -0.442     0.008 
 H                    -6.133     1.997     0.361 
 H                    -0.19     -1.895    -0.369 
 N                    -2.432     3.476     0.608 
 N                    -3.916    -3.353    -0.438 
 O                    -1.695    -3.847    -0.532 
 O                    -6.149    -2.85     -0.34 
 O                    -4.676     3.938     0.629 
 O                    -0.212     3.097     0.596 
 C                    -2.111     4.875     0.912 
 H                    -1.54      4.931     1.84 
 H                    -1.5       5.299     0.111 
 H                    -3.05      5.414     1.003 
 C                    -4.206    -4.779    -0.625 
 H                    -3.759    -5.126    -1.559 
 H                    -3.775    -5.355     0.196 
 H                    -5.286    -4.897    -0.649 
 C                     0.876     0.482    -0.178 
 C                     1.595     1.66     -0.121 
 S                     1.944    -0.86     -0.592 
 C                     2.967     1.496    -0.395 
 H                     1.144     2.609     0.12 
 C                     3.349     0.178    -0.667 
 O                     3.911     2.474    -0.416 
 C                     4.669    -0.315    -0.939 
 C                     3.516     3.777     0.004 
 C                     5.045    -1.624    -1.233 
 S                     6.098     0.716    -0.944 
 H                     4.422     4.384    -0.008 
 H                     2.781     4.21     -0.684 
 H                     3.098     3.757     1.018 
 C                     6.441    -1.795    -1.455 
 O                     4.093    -2.593    -1.278 
 C                     7.126    -0.616    -1.331 
 H                     6.912    -2.739    -1.694 
 C                     4.502    -3.915    -1.614 
 H                     8.189    -0.458    -1.45 
 H                     5.21     -4.312    -0.877 
 H                     3.596    -4.52     -1.608 
 H                     4.957    -3.948    -2.611 
 
 The following ModRedundant input section has been read:
 D       8       9      32      33 F                                           
 

 GradGradGradGradGradGradGradGradGradGradGradGradGradGradGradGradGradGrad
 Berny optimization.
 Initialization pass.
                           ----------------------------
                           !    Initial Parameters    !
                           ! (Angstroms and Degrees)  !
 --------------------------                            --------------------------
 ! Name  Definition              Value          Derivative Info.                !
 --------------------------------------------------------------------------------
 ! R1    R(1,2)                  1.4866         estimate D2E/DX2                !
 ! R2    R(1,19)                 1.4001         estimate D2E/DX2                !
 ! R3    R(1,20)                 1.2232         estimate D2E/DX2                !
 ! R4    R(2,3)                  1.4146         estimate D2E/DX2                !
 ! R5    R(2,6)                  1.372          estimate D2E/DX2                !
 ! R6    R(3,4)                  1.4123         estimate D2E/DX2                !
 ! R7    R(3,7)                  1.4244         estimate D2E/DX2                !
 ! R8    R(4,5)                  1.4872         estimate D2E/DX2                !
 ! R9    R(4,14)                 1.3874         estimate D2E/DX2                !
 ! R10   R(5,19)                 1.4053         estimate D2E/DX2                !
 ! R11   R(5,21)                 1.2218         estimate D2E/DX2                !
 ! R12   R(6,9)                  1.4301         estimate D2E/DX2                !
 ! R13   R(6,17)                 1.0837         estimate D2E/DX2                !
 ! R14   R(7,8)                  1.4314         estimate D2E/DX2                !
 ! R15   R(7,12)                 1.4199         estimate D2E/DX2                !
 ! R16   R(8,9)                  1.4217         estimate D2E/DX2                !
 ! R17   R(8,10)                 1.4882         estimate D2E/DX2                !
 ! R18   R(9,32)                 1.4624         estimate D2E/DX2                !
 ! R19   R(10,18)                1.4088         estimate D2E/DX2                !
 ! R20   R(10,23)                1.2245         estimate D2E/DX2                !
 ! R21   R(11,12)                1.4786         estimate D2E/DX2                !
 ! R22   R(11,18)                1.3962         estimate D2E/DX2                !
 ! R23   R(11,22)                1.2248         estimate D2E/DX2                !
 ! R24   R(12,13)                1.3888         estimate D2E/DX2                !
 ! R25   R(13,14)                1.4            estimate D2E/DX2                !
 ! R26   R(13,16)                1.0844         estimate D2E/DX2                !
 ! R27   R(14,15)                1.0834         estimate D2E/DX2                !
 ! R28   R(18,24)                1.4672         estimate D2E/DX2                !
 ! R29   R(19,28)                1.4672         estimate D2E/DX2                !
 ! R30   R(24,25)                1.091          estimate D2E/DX2                !
 ! R31   R(24,26)                1.093          estimate D2E/DX2                !
 ! R32   R(24,27)                1.0865         estimate D2E/DX2                !
 ! R33   R(28,29)                1.0921         estimate D2E/DX2                !
 ! R34   R(28,30)                1.0916         estimate D2E/DX2                !
 ! R35   R(28,31)                1.0867         estimate D2E/DX2                !
 ! R36   R(32,33)                1.3813         estimate D2E/DX2                !
 ! R37   R(32,34)                1.7644         estimate D2E/DX2                !
 ! R38   R(33,35)                1.4087         estimate D2E/DX2                !
 ! R39   R(33,36)                1.078          estimate D2E/DX2                !
 ! R40   R(34,37)                1.7485         estimate D2E/DX2                !
 ! R41   R(35,37)                1.3989         estimate D2E/DX2                !
 ! R42   R(35,38)                1.3594         estimate D2E/DX2                !
 ! R43   R(37,39)                1.4351         estimate D2E/DX2                !
 ! R44   R(38,40)                1.4249         estimate D2E/DX2                !
 ! R45   R(39,41)                1.3933         estimate D2E/DX2                !
 ! R46   R(39,42)                1.7621         estimate D2E/DX2                !
 ! R47   R(40,43)                1.0906         estimate D2E/DX2                !
 ! R48   R(40,44)                1.0959         estimate D2E/DX2                !
 ! R49   R(40,45)                1.097          estimate D2E/DX2                !
 ! R50   R(41,46)                1.4238         estimate D2E/DX2                !
 ! R51   R(41,47)                1.3592         estimate D2E/DX2                !
 ! R52   R(42,48)                1.7265         estimate D2E/DX2                !
 ! R53   R(46,48)                1.3692         estimate D2E/DX2                !
 ! R54   R(46,49)                1.0817         estimate D2E/DX2                !
 ! R55   R(47,50)                1.424          estimate D2E/DX2                !
 ! R56   R(48,51)                1.0812         estimate D2E/DX2                !
 ! R57   R(50,52)                1.0964         estimate D2E/DX2                !
 ! R58   R(50,53)                1.0894         estimate D2E/DX2                !
 ! R59   R(50,54)                1.0964         estimate D2E/DX2                !
 ! A1    A(2,1,19)             116.767          estimate D2E/DX2                !
 ! A2    A(2,1,20)             122.9113         estimate D2E/DX2                !
 ! A3    A(19,1,20)            120.3217         estimate D2E/DX2                !
 ! A4    A(1,2,3)              120.5473         estimate D2E/DX2                !
 ! A5    A(1,2,6)              119.3369         estimate D2E/DX2                !
 ! A6    A(3,2,6)              120.1056         estimate D2E/DX2                !
 ! A7    A(2,3,4)              120.3743         estimate D2E/DX2                !
 ! A8    A(2,3,7)              118.662          estimate D2E/DX2                !
 ! A9    A(4,3,7)              120.9617         estimate D2E/DX2                !
 ! A10   A(3,4,5)              120.4909         estimate D2E/DX2                !
 ! A11   A(3,4,14)             120.2702         estimate D2E/DX2                !
 ! A12   A(5,4,14)             119.2382         estimate D2E/DX2                !
 ! A13   A(4,5,19)             116.7341         estimate D2E/DX2                !
 ! A14   A(4,5,21)             122.024          estimate D2E/DX2                !
 ! A15   A(19,5,21)            121.2418         estimate D2E/DX2                !
 ! A16   A(2,6,9)              123.2421         estimate D2E/DX2                !
 ! A17   A(2,6,17)             117.1119         estimate D2E/DX2                !
 ! A18   A(9,6,17)             119.589          estimate D2E/DX2                !
 ! A19   A(3,7,8)              120.9519         estimate D2E/DX2                !
 ! A20   A(3,7,12)             117.1037         estimate D2E/DX2                !
 ! A21   A(8,7,12)             121.944          estimate D2E/DX2                !
 ! A22   A(7,8,9)              119.5639         estimate D2E/DX2                !
 ! A23   A(7,8,10)             117.3064         estimate D2E/DX2                !
 ! A24   A(9,8,10)             122.9922         estimate D2E/DX2                !
 ! A25   A(6,9,8)              117.3944         estimate D2E/DX2                !
 ! A26   A(6,9,32)             115.0236         estimate D2E/DX2                !
 ! A27   A(8,9,32)             127.5648         estimate D2E/DX2                !
 ! A28   A(8,10,18)            118.042          estimate D2E/DX2                !
 ! A29   A(8,10,23)            124.5436         estimate D2E/DX2                !
 ! A30   A(18,10,23)           117.4097         estimate D2E/DX2                !
 ! A31   A(12,11,18)           115.5202         estimate D2E/DX2                !
 ! A32   A(12,11,22)           122.7205         estimate D2E/DX2                !
 ! A33   A(18,11,22)           121.7534         estimate D2E/DX2                !
 ! A34   A(7,12,11)            120.8614         estimate D2E/DX2                !
 ! A35   A(7,12,13)            121.162          estimate D2E/DX2                !
 ! A36   A(11,12,13)           117.9699         estimate D2E/DX2                !
 ! A37   A(12,13,14)           120.9948         estimate D2E/DX2                !
 ! A38   A(12,13,16)           117.8401         estimate D2E/DX2                !
 ! A39   A(14,13,16)           121.1642         estimate D2E/DX2                !
 ! A40   A(4,14,13)            119.5003         estimate D2E/DX2                !
 ! A41   A(4,14,15)            118.9169         estimate D2E/DX2                !
 ! A42   A(13,14,15)           121.5811         estimate D2E/DX2                !
 ! A43   A(10,18,11)           126.0753         estimate D2E/DX2                !
 ! A44   A(10,18,24)           115.7508         estimate D2E/DX2                !
 ! A45   A(11,18,24)           118.1737         estimate D2E/DX2                !
 ! A46   A(1,19,5)             125.0856         estimate D2E/DX2                !
 ! A47   A(1,19,28)            116.2868         estimate D2E/DX2                !
 ! A48   A(5,19,28)            118.6276         estimate D2E/DX2                !
 ! A49   A(18,24,25)           109.8574         estimate D2E/DX2                !
 ! A50   A(18,24,26)           109.8979         estimate D2E/DX2                !
 ! A51   A(18,24,27)           107.5355         estimate D2E/DX2                !
 ! A52   A(25,24,26)           108.1108         estimate D2E/DX2                !
 ! A53   A(25,24,27)           110.8301         estimate D2E/DX2                !
 ! A54   A(26,24,27)           110.6124         estimate D2E/DX2                !
 ! A55   A(19,28,29)           109.6906         estimate D2E/DX2                !
 ! A56   A(19,28,30)           109.8136         estimate D2E/DX2                !
 ! A57   A(19,28,31)           107.7461         estimate D2E/DX2                !
 ! A58   A(29,28,30)           108.2991         estimate D2E/DX2                !
 ! A59   A(29,28,31)           110.6959         estimate D2E/DX2                !
 ! A60   A(30,28,31)           110.5924         estimate D2E/DX2                !
 ! A61   A(9,32,33)            130.8655         estimate D2E/DX2                !
 ! A62   A(9,32,34)            118.8012         estimate D2E/DX2                !
 ! A63   A(33,32,34)           110.0766         estimate D2E/DX2                !
 ! A64   A(32,33,35)           113.5576         estimate D2E/DX2                !
 ! A65   A(32,33,36)           122.8359         estimate D2E/DX2                !
 ! A66   A(35,33,36)           123.6041         estimate D2E/DX2                !
 ! A67   A(32,34,37)            92.575          estimate D2E/DX2                !
 ! A68   A(33,35,37)           114.4224         estimate D2E/DX2                !
 ! A69   A(33,35,38)           126.5539         estimate D2E/DX2                !
 ! A70   A(37,35,38)           119.0238         estimate D2E/DX2                !
 ! A71   A(34,37,35)           109.3631         estimate D2E/DX2                !
 ! A72   A(34,37,39)           122.9096         estimate D2E/DX2                !
 ! A73   A(35,37,39)           127.7111         estimate D2E/DX2                !
 ! A74   A(35,38,40)           117.4408         estimate D2E/DX2                !
 ! A75   A(37,39,41)           127.6595         estimate D2E/DX2                !
 ! A76   A(37,39,42)           123.0567         estimate D2E/DX2                !
 ! A77   A(41,39,42)           109.2837         estimate D2E/DX2                !
 ! A78   A(38,40,43)           105.9877         estimate D2E/DX2                !
 ! A79   A(38,40,44)           111.2343         estimate D2E/DX2                !
 ! A80   A(38,40,45)           111.1884         estimate D2E/DX2                !
 ! A81   A(43,40,44)           109.289          estimate D2E/DX2                !
 ! A82   A(43,40,45)           109.6863         estimate D2E/DX2                !
 ! A83   A(44,40,45)           109.3869         estimate D2E/DX2                !
 ! A84   A(39,41,46)           114.2246         estimate D2E/DX2                !
 ! A85   A(39,41,47)           119.1943         estimate D2E/DX2                !
 ! A86   A(46,41,47)           126.5806         estimate D2E/DX2                !
 ! A87   A(39,42,48)            91.8395         estimate D2E/DX2                !
 ! A88   A(41,46,48)           111.8995         estimate D2E/DX2                !
 ! A89   A(41,46,49)           124.483          estimate D2E/DX2                !
 ! A90   A(48,46,49)           123.6174         estimate D2E/DX2                !
 ! A91   A(41,47,50)           117.937          estimate D2E/DX2                !
 ! A92   A(42,48,46)           112.7527         estimate D2E/DX2                !
 ! A93   A(42,48,51)           119.8222         estimate D2E/DX2                !
 ! A94   A(46,48,51)           127.4249         estimate D2E/DX2                !
 ! A95   A(47,50,52)           111.2858         estimate D2E/DX2                !
 ! A96   A(47,50,53)           105.9852         estimate D2E/DX2                !
 ! A97   A(47,50,54)           111.2039         estimate D2E/DX2                !
 ! A98   A(52,50,53)           109.4047         estimate D2E/DX2                !
 ! A99   A(52,50,54)           109.4133         estimate D2E/DX2                !
 ! A100  A(53,50,54)           109.4755         estimate D2E/DX2                !
 ! D1    D(19,1,2,3)             0.1578         estimate D2E/DX2                !
 ! D2    D(19,1,2,6)          -178.6792         estimate D2E/DX2                !
 ! D3    D(20,1,2,3)          -179.8231         estimate D2E/DX2                !
 ! D4    D(20,1,2,6)             1.3399         estimate D2E/DX2                !
 ! D5    D(2,1,19,5)            -0.124          estimate D2E/DX2                !
 ! D6    D(2,1,19,28)          179.8267         estimate D2E/DX2                !
 ! D7    D(20,1,19,5)          179.8575         estimate D2E/DX2                !
 ! D8    D(20,1,19,28)          -0.1919         estimate D2E/DX2                !
 ! D9    D(1,2,3,4)              0.0571         estimate D2E/DX2                !
 ! D10   D(1,2,3,7)            179.5453         estimate D2E/DX2                !
 ! D11   D(6,2,3,4)            178.8851         estimate D2E/DX2                !
 ! D12   D(6,2,3,7)             -1.6266         estimate D2E/DX2                !
 ! D13   D(1,2,6,9)            178.625          estimate D2E/DX2                !
 ! D14   D(1,2,6,17)             1.3881         estimate D2E/DX2                !
 ! D15   D(3,2,6,9)             -0.2173         estimate D2E/DX2                !
 ! D16   D(3,2,6,17)          -177.4541         estimate D2E/DX2                !
 ! D17   D(2,3,4,5)             -0.3074         estimate D2E/DX2                !
 ! D18   D(2,3,4,14)           179.3968         estimate D2E/DX2                !
 ! D19   D(7,3,4,5)           -179.7837         estimate D2E/DX2                !
 ! D20   D(7,3,4,14)            -0.0795         estimate D2E/DX2                !
 ! D21   D(2,3,7,8)              1.0523         estimate D2E/DX2                !
 ! D22   D(2,3,7,12)          -178.712          estimate D2E/DX2                !
 ! D23   D(4,3,7,8)           -179.4626         estimate D2E/DX2                !
 ! D24   D(4,3,7,12)             0.7731         estimate D2E/DX2                !
 ! D25   D(3,4,5,19)             0.3343         estimate D2E/DX2                !
 ! D26   D(3,4,5,21)          -179.7799         estimate D2E/DX2                !
 ! D27   D(14,4,5,19)         -179.3729         estimate D2E/DX2                !
 ! D28   D(14,4,5,21)            0.5129         estimate D2E/DX2                !
 ! D29   D(3,4,14,13)           -0.4559         estimate D2E/DX2                !
 ! D30   D(3,4,14,15)         -179.9937         estimate D2E/DX2                !
 ! D31   D(5,4,14,13)          179.252          estimate D2E/DX2                !
 ! D32   D(5,4,14,15)           -0.2858         estimate D2E/DX2                !
 ! D33   D(4,5,19,1)            -0.1141         estimate D2E/DX2                !
 ! D34   D(4,5,19,28)          179.9364         estimate D2E/DX2                !
 ! D35   D(21,5,19,1)          179.9992         estimate D2E/DX2                !
 ! D36   D(21,5,19,28)           0.0496         estimate D2E/DX2                !
 ! D37   D(2,6,9,8)              2.5984         estimate D2E/DX2                !
 ! D38   D(2,6,9,32)          -176.0103         estimate D2E/DX2                !
 ! D39   D(17,6,9,8)           179.77           estimate D2E/DX2                !
 ! D40   D(17,6,9,32)            1.1613         estimate D2E/DX2                !
 ! D41   D(3,7,8,9)              1.3551         estimate D2E/DX2                !
 ! D42   D(3,7,8,10)          -174.5099         estimate D2E/DX2                !
 ! D43   D(12,7,8,9)          -178.8921         estimate D2E/DX2                !
 ! D44   D(12,7,8,10)            5.2428         estimate D2E/DX2                !
 ! D45   D(3,7,12,11)          178.0768         estimate D2E/DX2                !
 ! D46   D(3,7,12,13)           -0.9621         estimate D2E/DX2                !
 ! D47   D(8,7,12,11)           -1.685          estimate D2E/DX2                !
 ! D48   D(8,7,12,13)          179.2761         estimate D2E/DX2                !
 ! D49   D(7,8,9,6)             -3.0809         estimate D2E/DX2                !
 ! D50   D(7,8,9,32)           175.3285         estimate D2E/DX2                !
 ! D51   D(10,8,9,6)           172.5381         estimate D2E/DX2                !
 ! D52   D(10,8,9,32)           -9.0525         estimate D2E/DX2                !
 ! D53   D(7,8,10,18)           -4.7549         estimate D2E/DX2                !
 ! D54   D(7,8,10,23)          174.4235         estimate D2E/DX2                !
 ! D55   D(9,8,10,18)          179.5335         estimate D2E/DX2                !
 ! D56   D(9,8,10,23)           -1.2882         estimate D2E/DX2                !
 ! D57   D(6,9,32,33)          178.4406         estimate D2E/DX2                !
 ! D58   D(6,9,32,34)            4.8978         estimate D2E/DX2                !
 ! D59   D(8,9,32,33)           -0.0009         Frozen                          !
 ! D60   D(8,9,32,34)         -173.5438         estimate D2E/DX2                !
 ! D61   D(8,10,18,11)           0.7189         estimate D2E/DX2                !
 ! D62   D(8,10,18,24)        -179.4089         estimate D2E/DX2                !
 ! D63   D(23,10,18,11)       -178.5188         estimate D2E/DX2                !
 ! D64   D(23,10,18,24)          1.3535         estimate D2E/DX2                !
 ! D65   D(18,11,12,7)          -2.3856         estimate D2E/DX2                !
 ! D66   D(18,11,12,13)        176.6833         estimate D2E/DX2                !
 ! D67   D(22,11,12,7)         178.4862         estimate D2E/DX2                !
 ! D68   D(22,11,12,13)         -2.445          estimate D2E/DX2                !
 ! D69   D(12,11,18,10)          2.8444         estimate D2E/DX2                !
 ! D70   D(12,11,18,24)       -177.0251         estimate D2E/DX2                !
 ! D71   D(22,11,18,10)       -178.0181         estimate D2E/DX2                !
 ! D72   D(22,11,18,24)          2.1124         estimate D2E/DX2                !
 ! D73   D(7,12,13,14)           0.461          estimate D2E/DX2                !
 ! D74   D(7,12,13,16)        -179.8781         estimate D2E/DX2                !
 ! D75   D(11,12,13,14)       -178.6049         estimate D2E/DX2                !
 ! D76   D(11,12,13,16)          1.056          estimate D2E/DX2                !
 ! D77   D(12,13,14,4)           0.2708         estimate D2E/DX2                !
 ! D78   D(12,13,14,15)        179.7958         estimate D2E/DX2                !
 ! D79   D(16,13,14,4)        -179.3788         estimate D2E/DX2                !
 ! D80   D(16,13,14,15)          0.1463         estimate D2E/DX2                !
 ! D81   D(10,18,24,25)        -59.609          estimate D2E/DX2                !
 ! D82   D(10,18,24,26)         59.2209         estimate D2E/DX2                !
 ! D83   D(10,18,24,27)        179.6858         estimate D2E/DX2                !
 ! D84   D(11,18,24,25)        120.2739         estimate D2E/DX2                !
 ! D85   D(11,18,24,26)       -120.8962         estimate D2E/DX2                !
 ! D86   D(11,18,24,27)         -0.4313         estimate D2E/DX2                !
 ! D87   D(1,19,28,29)         -58.1407         estimate D2E/DX2                !
 ! D88   D(1,19,28,30)          60.7668         estimate D2E/DX2                !
 ! D89   D(1,19,28,31)        -178.7139         estimate D2E/DX2                !
 ! D90   D(5,19,28,29)         121.8132         estimate D2E/DX2                !
 ! D91   D(5,19,28,30)        -119.2792         estimate D2E/DX2                !
 ! D92   D(5,19,28,31)           1.2401         estimate D2E/DX2                !
 ! D93   D(9,32,33,35)        -174.2459         estimate D2E/DX2                !
 ! D94   D(9,32,33,36)           6.3002         estimate D2E/DX2                !
 ! D95   D(34,32,33,35)         -0.2687         estimate D2E/DX2                !
 ! D96   D(34,32,33,36)       -179.7226         estimate D2E/DX2                !
 ! D97   D(9,32,34,37)         175.3614         estimate D2E/DX2                !
 ! D98   D(33,32,34,37)          0.5566         estimate D2E/DX2                !
 ! D99   D(32,33,35,37)         -0.2716         estimate D2E/DX2                !
 ! D100  D(32,33,35,38)        179.7147         estimate D2E/DX2                !
 ! D101  D(36,33,35,37)        179.1775         estimate D2E/DX2                !
 ! D102  D(36,33,35,38)         -0.8362         estimate D2E/DX2                !
 ! D103  D(32,34,37,35)         -0.6942         estimate D2E/DX2                !
 ! D104  D(32,34,37,39)        177.9474         estimate D2E/DX2                !
 ! D105  D(33,35,37,34)          0.679          estimate D2E/DX2                !
 ! D106  D(33,35,37,39)       -177.8795         estimate D2E/DX2                !
 ! D107  D(38,35,37,34)       -179.3085         estimate D2E/DX2                !
 ! D108  D(38,35,37,39)          2.1331         estimate D2E/DX2                !
 ! D109  D(33,35,38,40)          6.5498         estimate D2E/DX2                !
 ! D110  D(37,35,38,40)       -173.4645         estimate D2E/DX2                !
 ! D111  D(34,37,39,41)          2.8556         estimate D2E/DX2                !
 ! D112  D(34,37,39,42)       -177.1619         estimate D2E/DX2                !
 ! D113  D(35,37,39,41)       -178.7644         estimate D2E/DX2                !
 ! D114  D(35,37,39,42)          1.2182         estimate D2E/DX2                !
 ! D115  D(35,38,40,43)        175.4838         estimate D2E/DX2                !
 ! D116  D(35,38,40,44)        -65.832          estimate D2E/DX2                !
 ! D117  D(35,38,40,45)         56.3471         estimate D2E/DX2                !
 ! D118  D(37,39,41,46)       -179.9682         estimate D2E/DX2                !
 ! D119  D(37,39,41,47)         -0.2002         estimate D2E/DX2                !
 ! D120  D(42,39,41,46)          0.0472         estimate D2E/DX2                !
 ! D121  D(42,39,41,47)        179.8153         estimate D2E/DX2                !
 ! D122  D(37,39,42,48)        179.9931         estimate D2E/DX2                !
 ! D123  D(41,39,42,48)         -0.0215         estimate D2E/DX2                !
 ! D124  D(39,41,46,48)         -0.0557         estimate D2E/DX2                !
 ! D125  D(39,41,46,49)        179.9836         estimate D2E/DX2                !
 ! D126  D(47,41,46,48)       -179.8035         estimate D2E/DX2                !
 ! D127  D(47,41,46,49)          0.2357         estimate D2E/DX2                !
 ! D128  D(39,41,47,50)        178.4481         estimate D2E/DX2                !
 ! D129  D(46,41,47,50)         -1.8153         estimate D2E/DX2                !
 ! D130  D(39,42,48,46)         -0.0094         estimate D2E/DX2                !
 ! D131  D(39,42,48,51)        179.8396         estimate D2E/DX2                !
 ! D132  D(41,46,48,42)          0.0376         estimate D2E/DX2                !
 ! D133  D(41,46,48,51)       -179.7975         estimate D2E/DX2                !
 ! D134  D(49,46,48,42)        179.9987         estimate D2E/DX2                !
 ! D135  D(49,46,48,51)          0.1636         estimate D2E/DX2                !
 ! D136  D(41,47,50,52)         61.9981         estimate D2E/DX2                !
 ! D137  D(41,47,50,53)       -179.1523         estimate D2E/DX2                !
 ! D138  D(41,47,50,54)        -60.262          estimate D2E/DX2                !
 --------------------------------------------------------------------------------
 Trust Radius=3.00D-01 FncErr=1.00D-07 GrdErr=1.00D-06 EigMax=2.50D+02 EigMin=1.00D-04
 Number of steps in this run=    307 maximum allowed number of steps=    324.
 GradGradGradGradGradGradGradGradGradGradGradGradGradGradGradGradGradGrad

 Stoichiometry    C26H18N2O6S2(1-,2)
 Framework group  C1[X(C26H18N2O6S2)]
 Deg. of freedom   156
 Full point group                 C1      NOp   1
 Largest Abelian subgroup         C1      NOp   1
 Largest concise Abelian subgroup C1      NOp   1
                         Standard orientation:                         
 ---------------------------------------------------------------------
 Center     Atomic      Atomic             Coordinates (Angstroms)
 Number     Number       Type             X           Y           Z
 ---------------------------------------------------------------------
      1          6           0       -2.496156   -3.032436    0.160520
      2          6           0       -2.220363   -1.572041    0.124529
      3          6           0       -3.278934   -0.643609   -0.011102
      4          6           0       -4.614078   -1.092728   -0.113065
      5          6           0       -4.925270   -2.546807   -0.086183
      6          6           0       -0.923466   -1.130817    0.200150
      7          6           0       -2.969920    0.746677   -0.031151
      8          6           0       -1.615730    1.201246    0.060734
      9          6           0       -0.561176    0.251501    0.144504
     10          6           0       -1.393584    2.669553    0.158345
     11          6           0       -3.837708    3.111871   -0.126356
     12          6           0       -4.059862    1.650121   -0.140355
     13          6           0       -5.366463    1.190808   -0.243501
     14          6           0       -5.651758   -0.179775   -0.233463
     15          1           0       -6.667662   -0.548450   -0.310062
     16          1           0       -6.157378    1.928046   -0.326262
     17          1           0       -0.147875   -1.885238    0.260732
     18          7           0       -2.513591    3.517385    0.051455
     19          7           0       -3.835937   -3.424014    0.051043
     20          8           0       -1.615023   -3.872453    0.279419
     21          8           0       -6.069266   -2.966318   -0.176243
     22          8           0       -4.749268    3.921241   -0.245306
     23          8           0       -0.303227    3.196232    0.340137
     24          6           0       -2.235536    4.955193    0.141188
     25          1           0       -1.768862    5.183241    1.100652
     26          1           0       -1.543743    5.250509   -0.651849
     27          1           0       -3.181965    5.478731    0.037739
     28          6           0       -4.095706   -4.867617    0.083829
     29          1           0       -3.548067   -5.358457   -0.723477
     30          1           0       -3.752951   -5.283782    1.032988
     31          1           0       -5.166036   -5.014309   -0.033542
     32          6           0        0.877376    0.514649    0.149521
     33          6           0        1.579138    1.702196    0.077711
     34         16           0        1.991707   -0.851957    0.089183
     35          6           0        2.973684    1.527225   -0.017070
     36          1           0        1.099189    2.667156    0.101884
     37          6           0        3.390534    0.191836   -0.015092
     38          8           0        3.908728    2.509920   -0.106869
     39          6           0        4.735071   -0.308100   -0.056525
     40          6           0        3.462993    3.855569    0.037297
     41          6           0        5.148290   -1.638539   -0.078281
     42         16           0        6.150206    0.741374   -0.088504
     43          1           0        4.361430    4.473473    0.016445
     44          1           0        2.804440    4.146252   -0.789062
     45          1           0        2.937628    3.999354    0.989472
     46          6           0        6.561096   -1.810912   -0.118393
     47          8           0        4.212398   -2.623870   -0.055514
     48          6           0        7.221788   -0.611734   -0.128364
     49          1           0        7.060681   -2.770117   -0.139355
     50          6           0        4.663052   -3.973503   -0.112658
     51          1           0        8.290493   -0.450554   -0.159740
     52          1           0        5.289243   -4.220994    0.752601
     53          1           0        3.765254   -4.590465   -0.098027
     54          1           0        5.223660   -4.165674   -1.035107
 ---------------------------------------------------------------------
 Rotational constants (GHZ):           0.1523999           0.0607830           0.0435811
 Standard basis: 6-311+G(d,p) (5D, 7F)
 There are   952 symmetry adapted cartesian basis functions of A   symmetry.
 There are   916 symmetry adapted basis functions of A   symmetry.
   916 basis functions,  1468 primitive gaussians,   952 cartesian basis functions
   135 alpha electrons      134 beta electrons
       nuclear repulsion energy      4092.8201028433 Hartrees.
 NAtoms=   54 NActive=   54 NUniq=   54 SFac= 1.00D+00 NAtFMM=   60 NAOKFM=F Big=F
 Integral buffers will be    131072 words long.
 Raffenetti 2 integral format.
 Two-electron integral symmetry is turned on.
 ------------------------------------------------------------------------------
 Polarizable Continuum Model (PCM)
 =================================
 Model                : PCM.
 Atomic radii         : UFF (Universal Force Field).
 Polarization charges : Total charges.
 Charge compensation  : None.
 Solution method      : On-the-fly selection.
 Cavity type          : Scaled VdW (van der Waals Surface) (Alpha=1.100).
 Cavity algorithm     : GePol (No added spheres)
                        Default sphere list used, NSphG=   54.
                        Lebedev-Laikov grids with approx.  5.0 points / Ang**2.
                        Smoothing algorithm: York/Karplus (Gamma=1.0000).
                        Polarization charges: spherical gaussians, with
                                              point-specific exponents (IZeta= 3).
                        Self-potential: point-specific (ISelfS= 7).
                        Self-field    : sphere-specific E.n sum rule (ISelfD= 2).
 1st derivatives      : Analytical E(r).r(x)/FMM algorithm (CHGder, D1EAlg=3).
                        Cavity 1st derivative terms included.
 Solvent              : Water, Eps=  78.355300 Eps(inf)=   1.777849
 ------------------------------------------------------------------------------
 One-electron integrals computed using PRISM.
 NBasis=   916 RedAO= T EigKep=  1.59D-06  NBF=   916
 NBsUse=   900 1.00D-06 EigRej=  9.29D-07 NBFU=   900
 ExpMin= 4.05D-02 ExpMax= 9.34D+04 ExpMxC= 3.17D+03 IAcc=3 IRadAn=         5 AccDes= 0.00D+00
 Harris functional with IExCor=  402 and IRadAn=       5 diagonalized for initial guess.
 HarFok:  IExCor=  402 AccDes= 0.00D+00 IRadAn=         5 IDoV= 1 UseB2=F ITyADJ=14
 ICtDFT=  3500011 ScaDFX=  1.000000  1.000000  1.000000  1.000000
 FoFCou: FMM=F IPFlag=           0 FMFlag=      100000 FMFlg1=           0
         NFxFlg=           0 DoJE=T BraDBF=F KetDBF=T FulRan=T
         wScrn=  0.000000 ICntrl=       500 IOpCl=  0 I1Cent=   200000004 NGrid=           0
         NMat0=    1 NMatS0=      1 NMatT0=    0 NMatD0=    1 NMtDS0=    0 NMtDT0=    0
 Petite list used in FoFCou.
 Initial guess <Sx>= 0.0000 <Sy>= 0.0000 <Sz>= 0.5000 <S**2>= 0.7500 S= 0.5000
 Requested convergence on RMS density matrix=1.00D-08 within 128 cycles.
 Requested convergence on MAX density matrix=1.00D-06.
 Requested convergence on             energy=1.00D-06.
 No special actions if energy rises.
 Inv3:  Mode=1 IEnd=    53020848.
 Iteration    1 A*A^-1 deviation from unit magnitude is 5.55D-15 for   4181.
 Iteration    1 A*A^-1 deviation from orthogonality  is 5.22D-15 for   2865   1831.
 Iteration    1 A^-1*A deviation from unit magnitude is 5.55D-15 for   4181.
 Iteration    1 A^-1*A deviation from orthogonality  is 2.00D-15 for   2711   1130.
 Restarting incremental Fock formation.
 Error on total polarization charges =  0.02667
 SCF Done:  E(UB3LYP) =  -2359.47615070     A.U. after   21 cycles
            NFock= 21  Conv=0.58D-08     -V/T= 2.0030
 <Sx>= 0.0000 <Sy>= 0.0000 <Sz>= 0.5000 <S**2>= 0.7587 S= 0.5043
 <L.S>=  0.00000000000    
 Annihilation of the first spin contaminant:
 S**2 before annihilation     0.7587,   after     0.7501

 **********************************************************************

            Population analysis using the SCF Density.

 **********************************************************************

 Orbital symmetries:
 Alpha Orbitals:
       Occupied  (A) (A) (A) (A) (A) (A) (A) (A) (A) (A) (A) (A)
                 (A) (A) (A) (A) (A) (A) (A) (A) (A) (A) (A) (A)
                 (A) (A) (A) (A) (A) (A) (A) (A) (A) (A) (A) (A)
                 (A) (A) (A) (A) (A) (A) (A) (A) (A) (A) (A) (A)
                 (A) (A) (A) (A) (A) (A) (A) (A) (A) (A) (A) (A)
                 (A) (A) (A) (A) (A) (A) (A) (A) (A) (A) (A) (A)
                 (A) (A) (A) (A) (A) (A) (A) (A) (A) (A) (A) (A)
                 (A) (A) (A) (A) (A) (A) (A) (A) (A) (A) (A) (A)
                 (A) (A) (A) (A) (A) (A) (A) (A) (A) (A) (A) (A)
                 (A) (A) (A) (A) (A) (A) (A) (A) (A) (A) (A) (A)
                 (A) (A) (A) (A) (A) (A) (A) (A) (A) (A) (A) (A)
                 (A) (A) (A)
       Virtual   (A) (A) (A) (A) (A) (A) (A) (A) (A) (A) (A) (A)
                 (A) (A) (A) (A) (A) (A) (A) (A) (A) (A) (A) (A)
                 (A) (A) (A) (A) (A) (A) (A) (A) (A) (A) (A) (A)
                 (A) (A) (A) (A) (A) (A) (A) (A) (A) (A) (A) (A)
                 (A) (A) (A) (A) (A) (A) (A) (A) (A) (A) (A) (A)
                 (A) (A) (A) (A) (A) (A) (A) (A) (A) (A) (A) (A)
                 (A) (A) (A) (A) (A) (A) (A) (A) (A) (A) (A) (A)
                 (A) (A) (A) (A) (A) (A) (A) (A) (A) (A) (A) (A)
                 (A) (A) (A) (A) (A) (A) (A) (A) (A) (A) (A) (A)
                 (A) (A) (A) (A) (A) (A) (A) (A) (A) (A) (A) (A)
                 (A) (A) (A) (A) (A) (A) (A) (A) (A) (A) (A) (A)
                 (A) (A) (A) (A) (A) (A) (A) (A) (A) (A) (A) (A)
                 (A) (A) (A) (A) (A) (A) (A) (A) (A) (A) (A) (A)
                 (A) (A) (A) (A) (A) (A) (A) (A) (A) (A) (A) (A)
                 (A) (A) (A) (A) (A) (A) (A) (A) (A) (A) (A) (A)
                 (A) (A) (A) (A) (A) (A) (A) (A) (A) (A) (A) (A)
                 (A) (A) (A) (A) (A) (A) (A) (A) (A) (A) (A) (A)
                 (A) (A) (A) (A) (A) (A) (A) (A) (A) (A) (A) (A)
                 (A) (A) (A) (A) (A) (A) (A) (A) (A) (A) (A) (A)
                 (A) (A) (A) (A) (A) (A) (A) (A) (A) (A) (A) (A)
                 (A) (A) (A) (A) (A) (A) (A) (A) (A) (A) (A) (A)
                 (A) (A) (A) (A) (A) (A) (A) (A) (A) (A) (A) (A)
                 (A) (A) (A) (A) (A) (A) (A) (A) (A) (A) (A) (A)
                 (A) (A) (A) (A) (A) (A) (A) (A) (A) (A) (A) (A)
                 (A) (A) (A) (A) (A) (A) (A) (A) (A) (A) (A) (A)
                 (A) (A) (A) (A) (A) (A) (A) (A) (A) (A) (A) (A)
                 (A) (A) (A) (A) (A) (A) (A) (A) (A) (A) (A) (A)
                 (A) (A) (A) (A) (A) (A) (A) (A) (A) (A) (A) (A)
                 (A) (A) (A) (A) (A) (A) (A) (A) (A) (A) (A) (A)
                 (A) (A) (A) (A) (A) (A) (A) (A) (A) (A) (A) (A)
                 (A) (A) (A) (A) (A) (A) (A) (A) (A) (A) (A) (A)
                 (A) (A) (A) (A) (A) (A) (A) (A) (A) (A) (A) (A)
                 (A) (A) (A) (A) (A) (A) (A) (A) (A) (A) (A) (A)
                 (A) (A) (A) (A) (A) (A) (A) (A) (A) (A) (A) (A)
                 (A) (A) (A) (A) (A) (A) (A) (A) (A) (A) (A) (A)
                 (A) (A) (A) (A) (A) (A) (A) (A) (A) (A) (A) (A)
                 (A) (A) (A) (A) (A) (A) (A) (A) (A) (A) (A) (A)
                 (A) (A) (A) (A) (A) (A) (A) (A) (A) (A) (A) (A)
                 (A) (A) (A) (A) (A) (A) (A) (A) (A) (A) (A) (A)
                 (A) (A) (A) (A) (A) (A) (A) (A) (A) (A) (A) (A)
                 (A) (A) (A) (A) (A) (A) (A) (A) (A) (A) (A) (A)
                 (A) (A) (A) (A) (A) (A) (A) (A) (A) (A) (A) (A)
                 (A) (A) (A) (A) (A) (A) (A) (A) (A) (A) (A) (A)
                 (A) (A) (A) (A) (A) (A) (A) (A) (A) (A) (A) (A)
                 (A) (A) (A) (A) (A) (A) (A) (A) (A) (A) (A) (A)
                 (A) (A) (A) (A) (A) (A) (A) (A) (A) (A) (A) (A)
                 (A) (A) (A) (A) (A) (A) (A) (A) (A) (A) (A) (A)
                 (A) (A) (A) (A) (A) (A) (A) (A) (A) (A) (A) (A)
                 (A) (A) (A) (A) (A) (A) (A) (A) (A) (A) (A) (A)
                 (A) (A) (A) (A) (A) (A) (A) (A) (A) (A) (A) (A)
                 (A) (A) (A) (A) (A) (A) (A) (A) (A) (A) (A) (A)
                 (A) (A) (A) (A) (A) (A) (A) (A) (A) (A) (A) (A)
                 (A) (A) (A) (A) (A) (A) (A) (A) (A) (A) (A) (A)
                 (A) (A) (A) (A) (A) (A) (A) (A) (A) (A) (A) (A)
                 (A) (A) (A) (A) (A) (A) (A) (A) (A) (A) (A) (A)
                 (A) (A) (A) (A) (A) (A) (A) (A) (A) (A) (A) (A)
                 (A) (A) (A) (A) (A) (A) (A) (A) (A) (A) (A) (A)
                 (A) (A) (A) (A) (A) (A) (A) (A) (A) (A) (A) (A)
                 (A) (A) (A) (A) (A) (A) (A) (A) (A) (A) (A) (A)
                 (A) (A) (A) (A) (A) (A) (A) (A) (A) (A) (A) (A)
                 (A) (A) (A) (A) (A) (A) (A) (A) (A) (A) (A) (A)
                 (A) (A) (A) (A) (A) (A) (A) (A) (A) (A) (A) (A)
                 (A) (A) (A) (A) (A) (A) (A) (A) (A) (A) (A) (A)
                 (A) (A) (A) (A) (A) (A) (A) (A) (A)
 Beta  Orbitals:
       Occupied  (A) (A) (A) (A) (A) (A) (A) (A) (A) (A) (A) (A)
                 (A) (A) (A) (A) (A) (A) (A) (A) (A) (A) (A) (A)
                 (A) (A) (A) (A) (A) (A) (A) (A) (A) (A) (A) (A)
                 (A) (A) (A) (A) (A) (A) (A) (A) (A) (A) (A) (A)
                 (A) (A) (A) (A) (A) (A) (A) (A) (A) (A) (A) (A)
                 (A) (A) (A) (A) (A) (A) (A) (A) (A) (A) (A) (A)
                 (A) (A) (A) (A) (A) (A) (A) (A) (A) (A) (A) (A)
                 (A) (A) (A) (A) (A) (A) (A) (A) (A) (A) (A) (A)
                 (A) (A) (A) (A) (A) (A) (A) (A) (A) (A) (A) (A)
                 (A) (A) (A) (A) (A) (A) (A) (A) (A) (A) (A) (A)
                 (A) (A) (A) (A) (A) (A) (A) (A) (A) (A) (A) (A)
                 (A) (A)
       Virtual   (A) (A) (A) (A) (A) (A) (A) (A) (A) (A) (A) (A)
                 (A) (A) (A) (A) (A) (A) (A) (A) (A) (A) (A) (A)
                 (A) (A) (A) (A) (A) (A) (A) (A) (A) (A) (A) (A)
                 (A) (A) (A) (A) (A) (A) (A) (A) (A) (A) (A) (A)
                 (A) (A) (A) (A) (A) (A) (A) (A) (A) (A) (A) (A)
                 (A) (A) (A) (A) (A) (A) (A) (A) (A) (A) (A) (A)
                 (A) (A) (A) (A) (A) (A) (A) (A) (A) (A) (A) (A)
                 (A) (A) (A) (A) (A) (A) (A) (A) (A) (A) (A) (A)
                 (A) (A) (A) (A) (A) (A) (A) (A) (A) (A) (A) (A)
                 (A) (A) (A) (A) (A) (A) (A) (A) (A) (A) (A) (A)
                 (A) (A) (A) (A) (A) (A) (A) (A) (A) (A) (A) (A)
                 (A) (A) (A) (A) (A) (A) (A) (A) (A) (A) (A) (A)
                 (A) (A) (A) (A) (A) (A) (A) (A) (A) (A) (A) (A)
                 (A) (A) (A) (A) (A) (A) (A) (A) (A) (A) (A) (A)
                 (A) (A) (A) (A) (A) (A) (A) (A) (A) (A) (A) (A)
                 (A) (A) (A) (A) (A) (A) (A) (A) (A) (A) (A) (A)
                 (A) (A) (A) (A) (A) (A) (A) (A) (A) (A) (A) (A)
                 (A) (A) (A) (A) (A) (A) (A) (A) (A) (A) (A) (A)
                 (A) (A) (A) (A) (A) (A) (A) (A) (A) (A) (A) (A)
                 (A) (A) (A) (A) (A) (A) (A) (A) (A) (A) (A) (A)
                 (A) (A) (A) (A) (A) (A) (A) (A) (A) (A) (A) (A)
                 (A) (A) (A) (A) (A) (A) (A) (A) (A) (A) (A) (A)
                 (A) (A) (A) (A) (A) (A) (A) (A) (A) (A) (A) (A)
                 (A) (A) (A) (A) (A) (A) (A) (A) (A) (A) (A) (A)
                 (A) (A) (A) (A) (A) (A) (A) (A) (A) (A) (A) (A)
                 (A) (A) (A) (A) (A) (A) (A) (A) (A) (A) (A) (A)
                 (A) (A) (A) (A) (A) (A) (A) (A) (A) (A) (A) (A)
                 (A) (A) (A) (A) (A) (A) (A) (A) (A) (A) (A) (A)
                 (A) (A) (A) (A) (A) (A) (A) (A) (A) (A) (A) (A)
                 (A) (A) (A) (A) (A) (A) (A) (A) (A) (A) (A) (A)
                 (A) (A) (A) (A) (A) (A) (A) (A) (A) (A) (A) (A)
                 (A) (A) (A) (A) (A) (A) (A) (A) (A) (A) (A) (A)
                 (A) (A) (A) (A) (A) (A) (A) (A) (A) (A) (A) (A)
                 (A) (A) (A) (A) (A) (A) (A) (A) (A) (A) (A) (A)
                 (A) (A) (A) (A) (A) (A) (A) (A) (A) (A) (A) (A)
                 (A) (A) (A) (A) (A) (A) (A) (A) (A) (A) (A) (A)
                 (A) (A) (A) (A) (A) (A) (A) (A) (A) (A) (A) (A)
                 (A) (A) (A) (A) (A) (A) (A) (A) (A) (A) (A) (A)
                 (A) (A) (A) (A) (A) (A) (A) (A) (A) (A) (A) (A)
                 (A) (A) (A) (A) (A) (A) (A) (A) (A) (A) (A) (A)
                 (A) (A) (A) (A) (A) (A) (A) (A) (A) (A) (A) (A)
                 (A) (A) (A) (A) (A) (A) (A) (A) (A) (A) (A) (A)
                 (A) (A) (A) (A) (A) (A) (A) (A) (A) (A) (A) (A)
                 (A) (A) (A) (A) (A) (A) (A) (A) (A) (A) (A) (A)
                 (A) (A) (A) (A) (A) (A) (A) (A) (A) (A) (A) (A)
                 (A) (A) (A) (A) (A) (A) (A) (A) (A) (A) (A) (A)
                 (A) (A) (A) (A) (A) (A) (A) (A) (A) (A) (A) (A)
                 (A) (A) (A) (A) (A) (A) (A) (A) (A) (A) (A) (A)
                 (A) (A) (A) (A) (A) (A) (A) (A) (A) (A) (A) (A)
                 (A) (A) (A) (A) (A) (A) (A) (A) (A) (A) (A) (A)
                 (A) (A) (A) (A) (A) (A) (A) (A) (A) (A) (A) (A)
                 (A) (A) (A) (A) (A) (A) (A) (A) (A) (A) (A) (A)
                 (A) (A) (A) (A) (A) (A) (A) (A) (A) (A) (A) (A)
                 (A) (A) (A) (A) (A) (A) (A) (A) (A) (A) (A) (A)
                 (A) (A) (A) (A) (A) (A) (A) (A) (A) (A) (A) (A)
                 (A) (A) (A) (A) (A) (A) (A) (A) (A) (A) (A) (A)
                 (A) (A) (A) (A) (A) (A) (A) (A) (A) (A) (A) (A)
                 (A) (A) (A) (A) (A) (A) (A) (A) (A) (A) (A) (A)
                 (A) (A) (A) (A) (A) (A) (A) (A) (A) (A) (A) (A)
                 (A) (A) (A) (A) (A) (A) (A) (A) (A) (A) (A) (A)
                 (A) (A) (A) (A) (A) (A) (A) (A) (A) (A) (A) (A)
                 (A) (A) (A) (A) (A) (A) (A) (A) (A) (A) (A) (A)
                 (A) (A) (A) (A) (A) (A) (A) (A) (A) (A) (A) (A)
                 (A) (A) (A) (A) (A) (A) (A) (A) (A) (A)
 The electronic state is 2-A.
 Alpha  occ. eigenvalues --  -88.88042 -88.87192 -19.16460 -19.16067 -19.10175
 Alpha  occ. eigenvalues --  -19.10157 -19.09708 -19.09631 -14.36731 -14.36478
 Alpha  occ. eigenvalues --  -10.28524 -10.28475 -10.28317 -10.27979 -10.24122
 Alpha  occ. eigenvalues --  -10.23135 -10.22530 -10.22248 -10.21214 -10.21052
 Alpha  occ. eigenvalues --  -10.20806 -10.20750 -10.20301 -10.20197 -10.19877
 Alpha  occ. eigenvalues --  -10.19680 -10.19674 -10.19374 -10.18664 -10.18643
 Alpha  occ. eigenvalues --  -10.18448 -10.18365 -10.18230 -10.17869 -10.17795
 Alpha  occ. eigenvalues --  -10.15402  -7.96604  -7.95806  -5.92910  -5.92528
 Alpha  occ. eigenvalues --   -5.92177  -5.92125  -5.91737  -5.91349  -1.08019
 Alpha  occ. eigenvalues --   -1.07568  -1.06693  -1.06509  -1.04709  -1.04647
 Alpha  occ. eigenvalues --   -0.94186  -0.93971  -0.89789  -0.89142  -0.87580
 Alpha  occ. eigenvalues --   -0.83943  -0.81467  -0.78551  -0.76340  -0.75626
 Alpha  occ. eigenvalues --   -0.75211  -0.74121  -0.73265  -0.72161  -0.70768
 Alpha  occ. eigenvalues --   -0.69790  -0.69136  -0.67092  -0.65340  -0.63612
 Alpha  occ. eigenvalues --   -0.63402  -0.62522  -0.59711  -0.58377  -0.56493
 Alpha  occ. eigenvalues --   -0.55591  -0.55311  -0.54982  -0.54229  -0.52906
 Alpha  occ. eigenvalues --   -0.51300  -0.50275  -0.49418  -0.48349  -0.48001
 Alpha  occ. eigenvalues --   -0.47804  -0.47778  -0.47270  -0.47183  -0.46981
 Alpha  occ. eigenvalues --   -0.46627  -0.45756  -0.44955  -0.44691  -0.44339
 Alpha  occ. eigenvalues --   -0.44056  -0.43303  -0.42764  -0.42358  -0.41396
 Alpha  occ. eigenvalues --   -0.41372  -0.40984  -0.40748  -0.40554  -0.40436
 Alpha  occ. eigenvalues --   -0.40135  -0.39987  -0.39582  -0.39088  -0.38539
 Alpha  occ. eigenvalues --   -0.37786  -0.37587  -0.37187  -0.36170  -0.35282
 Alpha  occ. eigenvalues --   -0.35044  -0.34902  -0.33605  -0.33364  -0.32333
 Alpha  occ. eigenvalues --   -0.32090  -0.30232  -0.29320  -0.29050  -0.28031
 Alpha  occ. eigenvalues --   -0.27967  -0.27451  -0.27049  -0.25960  -0.25707
 Alpha  occ. eigenvalues --   -0.24772  -0.24161  -0.23885  -0.18874  -0.14294
 Alpha virt. eigenvalues --   -0.06683  -0.05071  -0.03250  -0.02213  -0.00313
 Alpha virt. eigenvalues --    0.00454   0.00658   0.00815   0.00877   0.01594
 Alpha virt. eigenvalues --    0.01869   0.02299   0.02465   0.02810   0.02988
 Alpha virt. eigenvalues --    0.03017   0.03152   0.03231   0.03821   0.03986
 Alpha virt. eigenvalues --    0.04067   0.04422   0.04528   0.04837   0.05186
 Alpha virt. eigenvalues --    0.05281   0.05705   0.05761   0.06412   0.06568
 Alpha virt. eigenvalues --    0.06721   0.06849   0.07456   0.07548   0.07787
 Alpha virt. eigenvalues --    0.08141   0.08210   0.08517   0.08694   0.08854
 Alpha virt. eigenvalues --    0.09159   0.09372   0.09541   0.10090   0.10187
 Alpha virt. eigenvalues --    0.10706   0.10937   0.11164   0.11425   0.11525
 Alpha virt. eigenvalues --    0.11893   0.12046   0.12395   0.12544   0.12828
 Alpha virt. eigenvalues --    0.13062   0.13407   0.13839   0.14105   0.14225
 Alpha virt. eigenvalues --    0.14320   0.14696   0.14831   0.14939   0.15348
 Alpha virt. eigenvalues --    0.15367   0.15904   0.15921   0.16077   0.16304
 Alpha virt. eigenvalues --    0.16497   0.16646   0.17003   0.17048   0.17204
 Alpha virt. eigenvalues --    0.17490   0.17898   0.18326   0.18583   0.18654
 Alpha virt. eigenvalues --    0.18883   0.18926   0.19186   0.19271   0.19647
 Alpha virt. eigenvalues --    0.19883   0.19967   0.20300   0.20438   0.20501
 Alpha virt. eigenvalues --    0.20551   0.20728   0.21189   0.21270   0.21461
 Alpha virt. eigenvalues --    0.21690   0.21822   0.22140   0.22600   0.22813
 Alpha virt. eigenvalues --    0.22975   0.23372   0.23488   0.23606   0.23658
 Alpha virt. eigenvalues --    0.23760   0.23928   0.24276   0.24291   0.24588
 Alpha virt. eigenvalues --    0.24994   0.25114   0.25159   0.25334   0.25448
 Alpha virt. eigenvalues --    0.25565   0.25852   0.25999   0.26156   0.26291
 Alpha virt. eigenvalues --    0.26541   0.26772   0.26929   0.27079   0.27338
 Alpha virt. eigenvalues --    0.27472   0.27769   0.27983   0.28166   0.28421
 Alpha virt. eigenvalues --    0.28552   0.28655   0.29070   0.29266   0.29379
 Alpha virt. eigenvalues --    0.29411   0.29750   0.29915   0.30240   0.30355
 Alpha virt. eigenvalues --    0.30844   0.31020   0.31173   0.31505   0.31705
 Alpha virt. eigenvalues --    0.32137   0.32306   0.32520   0.32615   0.33198
 Alpha virt. eigenvalues --    0.33539   0.33658   0.33885   0.34321   0.34475
 Alpha virt. eigenvalues --    0.34891   0.35072   0.35224   0.35428   0.35704
 Alpha virt. eigenvalues --    0.36183   0.36432   0.37251   0.37487   0.37858
 Alpha virt. eigenvalues --    0.37979   0.38224   0.38581   0.38682   0.39492
 Alpha virt. eigenvalues --    0.39743   0.39942   0.40693   0.41602   0.41898
 Alpha virt. eigenvalues --    0.42291   0.42713   0.42833   0.43384   0.43655
 Alpha virt. eigenvalues --    0.43870   0.44440   0.44638   0.44826   0.45398
 Alpha virt. eigenvalues --    0.45831   0.45916   0.46568   0.46663   0.46913
 Alpha virt. eigenvalues --    0.47623   0.47730   0.47772   0.48651   0.48871
 Alpha virt. eigenvalues --    0.49534   0.50278   0.50829   0.51083   0.51147
 Alpha virt. eigenvalues --    0.51936   0.52182   0.52841   0.53540   0.54006
 Alpha virt. eigenvalues --    0.54344   0.55133   0.55352   0.55723   0.56469
 Alpha virt. eigenvalues --    0.56527   0.56860   0.56923   0.57335   0.57571
 Alpha virt. eigenvalues --    0.57732   0.57976   0.58511   0.58651   0.59286
 Alpha virt. eigenvalues --    0.59666   0.59839   0.60623   0.60788   0.61068
 Alpha virt. eigenvalues --    0.61638   0.61782   0.62586   0.62770   0.62904
 Alpha virt. eigenvalues --    0.63195   0.63590   0.63875   0.64121   0.64551
 Alpha virt. eigenvalues --    0.64753   0.65663   0.65948   0.66050   0.66556
 Alpha virt. eigenvalues --    0.66997   0.67232   0.67316   0.67667   0.68272
 Alpha virt. eigenvalues --    0.68479   0.68808   0.69080   0.69403   0.70201
 Alpha virt. eigenvalues --    0.70861   0.71222   0.71390   0.71853   0.72532
 Alpha virt. eigenvalues --    0.72867   0.73365   0.73493   0.74122   0.74347
 Alpha virt. eigenvalues --    0.74576   0.74842   0.75760   0.75958   0.76000
 Alpha virt. eigenvalues --    0.76347   0.76627   0.76874   0.77284   0.77408
 Alpha virt. eigenvalues --    0.78182   0.78321   0.78478   0.79096   0.79642
 Alpha virt. eigenvalues --    0.80121   0.80400   0.81273   0.81658   0.82556
 Alpha virt. eigenvalues --    0.83438   0.83561   0.84473   0.84834   0.85530
 Alpha virt. eigenvalues --    0.85856   0.86901   0.87301   0.88173   0.88952
 Alpha virt. eigenvalues --    0.89239   0.90057   0.90133   0.90641   0.91633
 Alpha virt. eigenvalues --    0.91978   0.92622   0.93186   0.93315   0.94391
 Alpha virt. eigenvalues --    0.94525   0.94662   0.95349   0.95507   0.95890
 Alpha virt. eigenvalues --    0.96532   0.97000   0.97200   0.97937   0.98072
 Alpha virt. eigenvalues --    0.98509   0.98974   0.99662   1.00065   1.00418
 Alpha virt. eigenvalues --    1.00743   1.01492   1.01996   1.02219   1.02825
 Alpha virt. eigenvalues --    1.02926   1.03204   1.03595   1.04141   1.05100
 Alpha virt. eigenvalues --    1.05511   1.05919   1.06059   1.06573   1.06915
 Alpha virt. eigenvalues --    1.07149   1.07840   1.08151   1.08488   1.09097
 Alpha virt. eigenvalues --    1.09292   1.09638   1.10267   1.10652   1.11172
 Alpha virt. eigenvalues --    1.11896   1.12136   1.13092   1.13993   1.14255
 Alpha virt. eigenvalues --    1.14949   1.15561   1.16056   1.16211   1.17687
 Alpha virt. eigenvalues --    1.18186   1.18319   1.18835   1.19456   1.20012
 Alpha virt. eigenvalues --    1.20488   1.21910   1.22429   1.22853   1.23843
 Alpha virt. eigenvalues --    1.25006   1.25630   1.26563   1.26868   1.26938
 Alpha virt. eigenvalues --    1.27423   1.28256   1.28746   1.30275   1.30892
 Alpha virt. eigenvalues --    1.31420   1.31610   1.33459   1.33881   1.34917
 Alpha virt. eigenvalues --    1.34979   1.35571   1.36101   1.36796   1.38354
 Alpha virt. eigenvalues --    1.38731   1.40260   1.41225   1.42718   1.43154
 Alpha virt. eigenvalues --    1.43644   1.43750   1.44197   1.44653   1.44752
 Alpha virt. eigenvalues --    1.45109   1.45391   1.45849   1.46324   1.46395
 Alpha virt. eigenvalues --    1.47114   1.47768   1.48515   1.48920   1.49605
 Alpha virt. eigenvalues --    1.50327   1.50678   1.50924   1.51633   1.53039
 Alpha virt. eigenvalues --    1.53703   1.53890   1.54813   1.55246   1.55427
 Alpha virt. eigenvalues --    1.55793   1.55987   1.56439   1.56920   1.57047
 Alpha virt. eigenvalues --    1.57336   1.58276   1.58973   1.59840   1.61316
 Alpha virt. eigenvalues --    1.61699   1.62252   1.62490   1.63360   1.63845
 Alpha virt. eigenvalues --    1.64781   1.65275   1.65414   1.66791   1.67635
 Alpha virt. eigenvalues --    1.68342   1.68455   1.68876   1.69202   1.69753
 Alpha virt. eigenvalues --    1.70672   1.70983   1.71336   1.71683   1.72406
 Alpha virt. eigenvalues --    1.72489   1.73736   1.74084   1.74277   1.74984
 Alpha virt. eigenvalues --    1.75581   1.77005   1.77298   1.77514   1.79037
 Alpha virt. eigenvalues --    1.79380   1.79603   1.79867   1.80224   1.80881
 Alpha virt. eigenvalues --    1.81944   1.84049   1.84589   1.85301   1.85792
 Alpha virt. eigenvalues --    1.86795   1.87685   1.88313   1.88619   1.88829
 Alpha virt. eigenvalues --    1.89474   1.89960   1.90622   1.91305   1.92052
 Alpha virt. eigenvalues --    1.92512   1.93179   1.94092   1.94720   1.95140
 Alpha virt. eigenvalues --    1.95741   1.96373   1.97047   1.97373   1.98321
 Alpha virt. eigenvalues --    1.99619   2.00224   2.00521   2.01381   2.02385
 Alpha virt. eigenvalues --    2.02921   2.03168   2.03708   2.04544   2.04752
 Alpha virt. eigenvalues --    2.05436   2.05897   2.06658   2.07360   2.07667
 Alpha virt. eigenvalues --    2.07929   2.10102   2.10336   2.10707   2.11632
 Alpha virt. eigenvalues --    2.11982   2.12754   2.13070   2.14708   2.15321
 Alpha virt. eigenvalues --    2.15776   2.16094   2.17691   2.18233   2.18650
 Alpha virt. eigenvalues --    2.19913   2.20625   2.21344   2.22329   2.22854
 Alpha virt. eigenvalues --    2.23180   2.24196   2.24667   2.26456   2.26942
 Alpha virt. eigenvalues --    2.28375   2.28690   2.32145   2.34080   2.34596
 Alpha virt. eigenvalues --    2.35824   2.37449   2.39769   2.40730   2.41578
 Alpha virt. eigenvalues --    2.42255   2.43446   2.44002   2.44368   2.45321
 Alpha virt. eigenvalues --    2.46143   2.46816   2.47312   2.48412   2.49023
 Alpha virt. eigenvalues --    2.49584   2.49837   2.50854   2.52326   2.53034
 Alpha virt. eigenvalues --    2.53123   2.53411   2.54115   2.54308   2.54926
 Alpha virt. eigenvalues --    2.55141   2.55928   2.57900   2.59066   2.59777
 Alpha virt. eigenvalues --    2.60412   2.60569   2.62153   2.64098   2.64914
 Alpha virt. eigenvalues --    2.65499   2.66896   2.67445   2.68689   2.68972
 Alpha virt. eigenvalues --    2.69274   2.69490   2.70682   2.71151   2.71708
 Alpha virt. eigenvalues --    2.72651   2.72815   2.73550   2.74406   2.74587
 Alpha virt. eigenvalues --    2.75114   2.75803   2.77403   2.78046   2.78205
 Alpha virt. eigenvalues --    2.79080   2.82174   2.82477   2.83242   2.84050
 Alpha virt. eigenvalues --    2.84570   2.84788   2.85099   2.86279   2.86806
 Alpha virt. eigenvalues --    2.87073   2.87314   2.88173   2.89618   2.89919
 Alpha virt. eigenvalues --    2.90778   2.91263   2.91867   2.92921   2.93356
 Alpha virt. eigenvalues --    2.94266   2.95504   2.96202   2.96632   2.97124
 Alpha virt. eigenvalues --    2.97882   2.99158   3.00757   3.02726   3.03951
 Alpha virt. eigenvalues --    3.04551   3.05420   3.07257   3.08531   3.09694
 Alpha virt. eigenvalues --    3.10826   3.12315   3.13216   3.14587   3.15423
 Alpha virt. eigenvalues --    3.16349   3.16669   3.17858   3.19872   3.20144
 Alpha virt. eigenvalues --    3.22155   3.22675   3.23778   3.24277   3.24880
 Alpha virt. eigenvalues --    3.26708   3.27901   3.29260   3.30646   3.31801
 Alpha virt. eigenvalues --    3.32302   3.33151   3.35438   3.35811   3.36085
 Alpha virt. eigenvalues --    3.36265   3.39807   3.40287   3.41354   3.42119
 Alpha virt. eigenvalues --    3.43157   3.44732   3.46059   3.46694   3.47068
 Alpha virt. eigenvalues --    3.49363   3.51011   3.51535   3.53742   3.55630
 Alpha virt. eigenvalues --    3.57238   3.59832   3.61581   3.62863   3.66044
 Alpha virt. eigenvalues --    3.67798   3.68036   3.69653   3.71364   3.73314
 Alpha virt. eigenvalues --    3.73688   3.75244   3.77244   3.77552   3.78127
 Alpha virt. eigenvalues --    3.82860   3.84607   3.85950   3.86704   3.87894
 Alpha virt. eigenvalues --    3.91909   3.94576   3.94868   3.95172   3.95979
 Alpha virt. eigenvalues --    4.00441   4.03694   4.04526   4.06815   4.09461
 Alpha virt. eigenvalues --    4.11373   4.15148   4.15628   4.22763   4.25631
 Alpha virt. eigenvalues --    4.27628   4.30848   4.37912   4.43003   4.43931
 Alpha virt. eigenvalues --    4.55654   4.75264   4.87163   4.89404   4.90395
 Alpha virt. eigenvalues --    4.92311   5.01679   5.03057   5.05271   5.06832
 Alpha virt. eigenvalues --    5.07081   5.09211   5.13374   5.15342   5.26779
 Alpha virt. eigenvalues --    5.28846   5.31320   5.39017   5.43278   5.44688
 Alpha virt. eigenvalues --    5.77226   5.77791   5.80822   5.82067   5.83816
 Alpha virt. eigenvalues --    5.87299   8.03102   8.05848  17.29211  17.31471
 Alpha virt. eigenvalues --   17.50342  17.53019  17.60185  17.65148  23.51343
 Alpha virt. eigenvalues --   23.58602  23.73208  23.80712  23.83921  23.85041
 Alpha virt. eigenvalues --   23.86527  23.89194  23.89518  23.90306  23.91183
 Alpha virt. eigenvalues --   23.91497  23.92843  23.95448  23.95887  23.97612
 Alpha virt. eigenvalues --   23.98558  24.01155  24.02770  24.03290  24.03579
 Alpha virt. eigenvalues --   24.08293  24.14660  24.15665  24.16930  24.17219
 Alpha virt. eigenvalues --   35.58135  35.60954  49.96870  49.98930  50.04333
 Alpha virt. eigenvalues --   50.06252  50.08052  50.09984 189.20573 189.23761
  Beta  occ. eigenvalues --  -88.88040 -88.87182 -19.16440 -19.16078 -19.09994
  Beta  occ. eigenvalues --  -19.09974 -19.09550 -19.09439 -14.36784 -14.36531
  Beta  occ. eigenvalues --  -10.28459 -10.28407 -10.28249 -10.27917 -10.24078
  Beta  occ. eigenvalues --  -10.23170 -10.22531 -10.22248 -10.21243 -10.20960
  Beta  occ. eigenvalues --  -10.20852 -10.20623 -10.20259 -10.20238 -10.19876
  Beta  occ. eigenvalues --  -10.19737 -10.19673 -10.19259 -10.18518 -10.18487
  Beta  occ. eigenvalues --  -10.18381 -10.18318 -10.18157 -10.17790 -10.17728
  Beta  occ. eigenvalues --  -10.15338  -7.96603  -7.95797  -5.92910  -5.92527
  Beta  occ. eigenvalues --   -5.92172  -5.92120  -5.91732  -5.91317  -1.07978
  Beta  occ. eigenvalues --   -1.07589  -1.06442  -1.06263  -1.04394  -1.04360
  Beta  occ. eigenvalues --   -0.94095  -0.93891  -0.89680  -0.89058  -0.87517
  Beta  occ. eigenvalues --   -0.83644  -0.81199  -0.78417  -0.76242  -0.75294
  Beta  occ. eigenvalues --   -0.75093  -0.74074  -0.73198  -0.72088  -0.70729
  Beta  occ. eigenvalues --   -0.69628  -0.68931  -0.66939  -0.65179  -0.63432
  Beta  occ. eigenvalues --   -0.63297  -0.62324  -0.59654  -0.58312  -0.56407
  Beta  occ. eigenvalues --   -0.55541  -0.55206  -0.54882  -0.54187  -0.52758
  Beta  occ. eigenvalues --   -0.51192  -0.50206  -0.49272  -0.48058  -0.47773
  Beta  occ. eigenvalues --   -0.47728  -0.47710  -0.47274  -0.47066  -0.46919
  Beta  occ. eigenvalues --   -0.46592  -0.45647  -0.44903  -0.44602  -0.44238
  Beta  occ. eigenvalues --   -0.43943  -0.43179  -0.42660  -0.42065  -0.41344
  Beta  occ. eigenvalues --   -0.41067  -0.40902  -0.40412  -0.40143  -0.40021
  Beta  occ. eigenvalues --   -0.39930  -0.39568  -0.39295  -0.39016  -0.38323
  Beta  occ. eigenvalues --   -0.37656  -0.37260  -0.37118  -0.36147  -0.35205
  Beta  occ. eigenvalues --   -0.34982  -0.34527  -0.33428  -0.33324  -0.32044
  Beta  occ. eigenvalues --   -0.31912  -0.29404  -0.28940  -0.28754  -0.27843
  Beta  occ. eigenvalues --   -0.27565  -0.27191  -0.26859  -0.25561  -0.25508
  Beta  occ. eigenvalues --   -0.24250  -0.23908  -0.23027  -0.18421
  Beta virt. eigenvalues --   -0.10144  -0.06119  -0.04047  -0.02304  -0.01897
  Beta virt. eigenvalues --   -0.00299   0.00464   0.00666   0.00880   0.01132
  Beta virt. eigenvalues --    0.01600   0.01878   0.02311   0.02809   0.02984
  Beta virt. eigenvalues --    0.03092   0.03241   0.03287   0.03784   0.03838
  Beta virt. eigenvalues --    0.04011   0.04102   0.04454   0.04581   0.04841
  Beta virt. eigenvalues --    0.05199   0.05364   0.05721   0.05779   0.06425
  Beta virt. eigenvalues --    0.06644   0.06864   0.06908   0.07529   0.07579
  Beta virt. eigenvalues --    0.07798   0.08149   0.08289   0.08542   0.08732
  Beta virt. eigenvalues --    0.08887   0.09267   0.09382   0.09612   0.10117
  Beta virt. eigenvalues --    0.10200   0.10717   0.11074   0.11387   0.11554
  Beta virt. eigenvalues --    0.11784   0.12035   0.12096   0.12455   0.12623
  Beta virt. eigenvalues --    0.12942   0.13088   0.13435   0.13877   0.14129
  Beta virt. eigenvalues --    0.14250   0.14474   0.14866   0.14937   0.15037
  Beta virt. eigenvalues --    0.15385   0.15401   0.15920   0.15942   0.16105
  Beta virt. eigenvalues --    0.16335   0.16545   0.16684   0.17030   0.17068
  Beta virt. eigenvalues --    0.17269   0.17515   0.17939   0.18353   0.18619
  Beta virt. eigenvalues --    0.18698   0.18907   0.18968   0.19243   0.19319
  Beta virt. eigenvalues --    0.19677   0.19908   0.20002   0.20350   0.20473
  Beta virt. eigenvalues --    0.20536   0.20578   0.20786   0.21217   0.21350
  Beta virt. eigenvalues --    0.21491   0.21722   0.21915   0.22199   0.22668
  Beta virt. eigenvalues --    0.22862   0.23114   0.23444   0.23537   0.23671
  Beta virt. eigenvalues --    0.23750   0.23839   0.24104   0.24316   0.24349
  Beta virt. eigenvalues --    0.24642   0.25059   0.25179   0.25202   0.25382
  Beta virt. eigenvalues --    0.25504   0.25615   0.25902   0.26053   0.26209
  Beta virt. eigenvalues --    0.26348   0.26586   0.26816   0.26987   0.27118
  Beta virt. eigenvalues --    0.27367   0.27516   0.27810   0.28018   0.28196
  Beta virt. eigenvalues --    0.28476   0.28621   0.28709   0.29118   0.29324
  Beta virt. eigenvalues --    0.29430   0.29448   0.29791   0.29970   0.30338
  Beta virt. eigenvalues --    0.30394   0.30919   0.31070   0.31212   0.31552
  Beta virt. eigenvalues --    0.31778   0.32167   0.32396   0.32588   0.32688
  Beta virt. eigenvalues --    0.33267   0.33581   0.33707   0.33988   0.34352
  Beta virt. eigenvalues --    0.34523   0.34924   0.35096   0.35280   0.35494
  Beta virt. eigenvalues --    0.35788   0.36276   0.36471   0.37306   0.37530
  Beta virt. eigenvalues --    0.37931   0.38004   0.38273   0.38652   0.38775
  Beta virt. eigenvalues --    0.39558   0.39785   0.39998   0.40767   0.41660
  Beta virt. eigenvalues --    0.41937   0.42334   0.42776   0.42906   0.43400
  Beta virt. eigenvalues --    0.43734   0.43910   0.44475   0.44667   0.44874
  Beta virt. eigenvalues --    0.45431   0.45871   0.45958   0.46605   0.46694
  Beta virt. eigenvalues --    0.46948   0.47654   0.47772   0.47823   0.48710
  Beta virt. eigenvalues --    0.48917   0.49581   0.50346   0.50923   0.51140
  Beta virt. eigenvalues --    0.51209   0.51990   0.52281   0.52924   0.53587
  Beta virt. eigenvalues --    0.54074   0.54397   0.55234   0.55423   0.55830
  Beta virt. eigenvalues --    0.56502   0.56617   0.56896   0.57078   0.57390
  Beta virt. eigenvalues --    0.57615   0.57864   0.58037   0.58625   0.58689
  Beta virt. eigenvalues --    0.59407   0.59708   0.59915   0.60749   0.60957
  Beta virt. eigenvalues --    0.61165   0.61707   0.62011   0.62654   0.62832
  Beta virt. eigenvalues --    0.62961   0.63315   0.63668   0.63967   0.64272
  Beta virt. eigenvalues --    0.64690   0.64866   0.65729   0.66059   0.66149
  Beta virt. eigenvalues --    0.66641   0.67070   0.67300   0.67402   0.67713
  Beta virt. eigenvalues --    0.68314   0.68586   0.68903   0.69221   0.69517
  Beta virt. eigenvalues --    0.70313   0.71032   0.71325   0.71445   0.72069
  Beta virt. eigenvalues --    0.72583   0.72997   0.73461   0.73698   0.74237
  Beta virt. eigenvalues --    0.74441   0.74649   0.74986   0.75825   0.76022
  Beta virt. eigenvalues --    0.76054   0.76376   0.76692   0.76946   0.77387
  Beta virt. eigenvalues --    0.77435   0.78248   0.78363   0.78529   0.79143
  Beta virt. eigenvalues --    0.79693   0.80195   0.80447   0.81309   0.81756
  Beta virt. eigenvalues --    0.82599   0.83475   0.83602   0.84601   0.84864
  Beta virt. eigenvalues --    0.85594   0.85916   0.86939   0.87319   0.88207
  Beta virt. eigenvalues --    0.88994   0.89294   0.90112   0.90195   0.90728
  Beta virt. eigenvalues --    0.91686   0.92011   0.92720   0.93276   0.93453
  Beta virt. eigenvalues --    0.94536   0.94582   0.94834   0.95473   0.95635
  Beta virt. eigenvalues --    0.96046   0.96677   0.97100   0.97306   0.98085
  Beta virt. eigenvalues --    0.98186   0.98587   0.99118   0.99785   1.00208
  Beta virt. eigenvalues --    1.00540   1.00837   1.01563   1.02088   1.02311
  Beta virt. eigenvalues --    1.02923   1.03052   1.03335   1.03734   1.04307
  Beta virt. eigenvalues --    1.05228   1.05645   1.06004   1.06134   1.06738
  Beta virt. eigenvalues --    1.07017   1.07291   1.07946   1.08329   1.08638
  Beta virt. eigenvalues --    1.09211   1.09396   1.09795   1.10454   1.10770
  Beta virt. eigenvalues --    1.11505   1.11984   1.12305   1.13275   1.14110
  Beta virt. eigenvalues --    1.14497   1.15264   1.15748   1.16160   1.16596
  Beta virt. eigenvalues --    1.17775   1.18301   1.18380   1.18998   1.19727
  Beta virt. eigenvalues --    1.20202   1.20635   1.22013   1.22536   1.22966
  Beta virt. eigenvalues --    1.23959   1.25112   1.25667   1.26616   1.26954
  Beta virt. eigenvalues --    1.27017   1.27578   1.28369   1.28973   1.30372
  Beta virt. eigenvalues --    1.30950   1.31522   1.31725   1.33536   1.33976
  Beta virt. eigenvalues --    1.34971   1.35071   1.35646   1.36164   1.36859
  Beta virt. eigenvalues --    1.38396   1.38803   1.40380   1.41257   1.42789
  Beta virt. eigenvalues --    1.43219   1.43710   1.43806   1.44307   1.44708
  Beta virt. eigenvalues --    1.44822   1.45163   1.45486   1.45900   1.46391
  Beta virt. eigenvalues --    1.46490   1.47203   1.47870   1.48674   1.48986
  Beta virt. eigenvalues --    1.49731   1.50423   1.50822   1.51070   1.51714
  Beta virt. eigenvalues --    1.53103   1.53913   1.54002   1.54872   1.55414
  Beta virt. eigenvalues --    1.55463   1.55834   1.56032   1.56496   1.56965
  Beta virt. eigenvalues --    1.57132   1.57401   1.58332   1.59027   1.60024
  Beta virt. eigenvalues --    1.61452   1.61760   1.62303   1.62557   1.63392
  Beta virt. eigenvalues --    1.63941   1.64809   1.65338   1.65556   1.66882
  Beta virt. eigenvalues --    1.67659   1.68398   1.68522   1.68932   1.69266
  Beta virt. eigenvalues --    1.69804   1.70785   1.71130   1.71477   1.71808
  Beta virt. eigenvalues --    1.72518   1.72594   1.73920   1.74190   1.74396
  Beta virt. eigenvalues --    1.75068   1.75649   1.77051   1.77501   1.77607
  Beta virt. eigenvalues --    1.79113   1.79452   1.79651   1.79952   1.80317
  Beta virt. eigenvalues --    1.80972   1.82026   1.84112   1.84783   1.85387
  Beta virt. eigenvalues --    1.85817   1.86926   1.87787   1.88572   1.88763
  Beta virt. eigenvalues --    1.88927   1.89573   1.90122   1.90933   1.91448
  Beta virt. eigenvalues --    1.92143   1.92617   1.93306   1.94244   1.94821
  Beta virt. eigenvalues --    1.95286   1.95885   1.96514   1.97204   1.97556
  Beta virt. eigenvalues --    1.98575   1.99753   2.00387   2.00749   2.01608
  Beta virt. eigenvalues --    2.02464   2.02996   2.03212   2.03795   2.04605
  Beta virt. eigenvalues --    2.04839   2.05498   2.05954   2.06703   2.07424
  Beta virt. eigenvalues --    2.07743   2.07988   2.10152   2.10447   2.10807
  Beta virt. eigenvalues --    2.11802   2.12090   2.12801   2.13134   2.14780
  Beta virt. eigenvalues --    2.15388   2.15850   2.16164   2.17760   2.18304
  Beta virt. eigenvalues --    2.18944   2.19998   2.20674   2.21403   2.22465
  Beta virt. eigenvalues --    2.22958   2.23237   2.24280   2.24781   2.26498
  Beta virt. eigenvalues --    2.27110   2.28535   2.28917   2.32284   2.34207
  Beta virt. eigenvalues --    2.34709   2.35969   2.37538   2.39990   2.40790
  Beta virt. eigenvalues --    2.41703   2.42393   2.43492   2.44033   2.44377
  Beta virt. eigenvalues --    2.45360   2.46184   2.46863   2.47320   2.48543
  Beta virt. eigenvalues --    2.49030   2.49621   2.49938   2.50887   2.52399
  Beta virt. eigenvalues --    2.53048   2.53179   2.53445   2.54149   2.54318
  Beta virt. eigenvalues --    2.54962   2.55167   2.55949   2.57949   2.59119
  Beta virt. eigenvalues --    2.59830   2.60481   2.60600   2.62209   2.64124
  Beta virt. eigenvalues --    2.65188   2.65576   2.66935   2.67574   2.68841
  Beta virt. eigenvalues --    2.68999   2.69521   2.69552   2.70751   2.71237
  Beta virt. eigenvalues --    2.71777   2.72773   2.73113   2.73641   2.74531
  Beta virt. eigenvalues --    2.74759   2.75147   2.75882   2.77666   2.78101
  Beta virt. eigenvalues --    2.78575   2.79088   2.82384   2.82617   2.83452
  Beta virt. eigenvalues --    2.84124   2.84603   2.84849   2.85276   2.86385
  Beta virt. eigenvalues --    2.86884   2.87220   2.87580   2.88568   2.89921
  Beta virt. eigenvalues --    2.90282   2.91017   2.91583   2.92233   2.93181
  Beta virt. eigenvalues --    2.93634   2.94675   2.95880   2.96469   2.96824
  Beta virt. eigenvalues --    2.97578   2.98127   2.99597   3.00788   3.02934
  Beta virt. eigenvalues --    3.04026   3.04982   3.05427   3.07390   3.09068
  Beta virt. eigenvalues --    3.09718   3.10946   3.12412   3.13315   3.14637
  Beta virt. eigenvalues --    3.15637   3.16439   3.16747   3.17909   3.19915
  Beta virt. eigenvalues --    3.20231   3.22241   3.22733   3.23820   3.24287
  Beta virt. eigenvalues --    3.24929   3.26790   3.28036   3.29372   3.30725
  Beta virt. eigenvalues --    3.31855   3.32409   3.33186   3.35912   3.36055
  Beta virt. eigenvalues --    3.36497   3.36719   3.39894   3.40471   3.41451
  Beta virt. eigenvalues --    3.42174   3.43256   3.44820   3.46135   3.46760
  Beta virt. eigenvalues --    3.47120   3.49477   3.51077   3.51621   3.53823
  Beta virt. eigenvalues --    3.55689   3.57269   3.59937   3.61669   3.62952
  Beta virt. eigenvalues --    3.66118   3.67877   3.68079   3.69720   3.71411
  Beta virt. eigenvalues --    3.73287   3.73669   3.75333   3.77249   3.77555
  Beta virt. eigenvalues --    3.78158   3.82874   3.84656   3.85973   3.86742
  Beta virt. eigenvalues --    3.87946   3.92093   3.94626   3.94832   3.95321
  Beta virt. eigenvalues --    3.95847   4.00584   4.03819   4.04565   4.06935
  Beta virt. eigenvalues --    4.09493   4.11393   4.15264   4.15698   4.22811
  Beta virt. eigenvalues --    4.25733   4.27829   4.31007   4.38107   4.43218
  Beta virt. eigenvalues --    4.44082   4.55749   4.75372   4.87310   4.89412
  Beta virt. eigenvalues --    4.90596   4.92323   5.01758   5.03031   5.06028
  Beta virt. eigenvalues --    5.07580   5.07749   5.09979   5.13493   5.15452
  Beta virt. eigenvalues --    5.26925   5.28990   5.31468   5.39165   5.43292
  Beta virt. eigenvalues --    5.44694   5.77238   5.77958   5.80835   5.82216
  Beta virt. eigenvalues --    5.83971   5.87448   8.03106   8.05867  17.29220
  Beta virt. eigenvalues --   17.31509  17.50343  17.53020  17.60192  17.65153
  Beta virt. eigenvalues --   23.51405  23.58647  23.73229  23.80812  23.83957
  Beta virt. eigenvalues --   23.85119  23.86601  23.89274  23.89604  23.90386
  Beta virt. eigenvalues --   23.91234  23.91504  23.92848  23.95503  23.95903
  Beta virt. eigenvalues --   23.97657  23.98640  24.01234  24.02787  24.03305
  Beta virt. eigenvalues --   24.03575  24.08407  24.14671  24.15713  24.17034
  Beta virt. eigenvalues --   24.17318  35.58080  35.60900  49.96889  49.98922
  Beta virt. eigenvalues --   50.04514  50.06419  50.08236  50.10167 189.20575
  Beta virt. eigenvalues --  189.23770
          Condensed to atoms (all electrons):
          Atomic-Atomic Spin Densities.
 Mulliken charges and spin densities:
               1          2
     1  C    0.326323   0.036509
     2  C    0.014464   0.111480
     3  C    0.172258  -0.037796
     4  C    0.209571   0.105086
     5  C    0.287820   0.033773
     6  C    0.019735   0.056098
     7  C    0.184830  -0.026073
     8  C    0.102816   0.091824
     9  C    0.216729   0.100387
    10  C   -0.087516   0.027889
[...]
     9   Atom       -0.001243      0.016245     -0.006847
    10   Atom        0.017002     -0.032089     -0.020415
    11   Atom       -0.003932     -0.019058     -0.001230
    12   Atom        0.001694     -0.041666      0.002633
    13   Atom        0.003132     -0.020979     -0.000490
    14   Atom       -0.001129     -0.020588      0.000890
    15   Atom        0.004215      0.001054      0.000792
    16   Atom       -0.004487      0.000342     -0.000932
    17   Atom       -0.003057      0.000966     -0.000727
    18   Atom       -0.001763      0.024004      0.005693
    19   Atom        0.000627      0.013821     -0.002012
    20   Atom       -0.002554     -0.074156      0.020867
    21   Atom       -0.002072     -0.079420      0.010587
    22   Atom        0.001274     -0.105158     -0.001374
    23   Atom        0.065896     -0.165547     -0.124541
    24   Atom       -0.000006      0.000793      0.000072
    25   Atom       -0.000288      0.000333      0.000764
    26   Atom       -0.000199      0.000382     -0.000554
    27   Atom        0.000947      0.000311      0.000115
    28   Atom        0.000142      0.000483     -0.000043
    29   Atom        0.000548      0.000576      0.000635
    30   Atom        0.000758     -0.000143     -0.000514
    31   Atom       -0.000227      0.000187     -0.000163
    32   Atom        0.001327     -0.006508     -0.008610
    33   Atom        0.000032      0.009731      0.006128
    34   Atom       -0.005844      0.023383      0.017085
    35   Atom       -0.001002     -0.001745     -0.003680
    36   Atom       -0.001736     -0.001498      0.001256
    37   Atom        0.002326      0.011271      0.017866
    38   Atom        0.000571     -0.002150     -0.002475
    39   Atom       -0.001869     -0.002589     -0.003717
    40   Atom        0.000666     -0.000277     -0.000061
    41   Atom        0.000586      0.005009      0.007356
    42   Atom        0.003470      0.000236      0.001746
    43   Atom        0.000357     -0.000150     -0.000092
    44   Atom        0.000643     -0.000448     -0.000362
    45   Atom        0.000799     -0.000180     -0.000011
    46   Atom        0.000096     -0.001611     -0.002283
    47   Atom       -0.000288      0.004770      0.008113
    48   Atom        0.000657      0.004685      0.007503
    49   Atom        0.000181     -0.000138     -0.000095
    50   Atom       -0.000472      0.000029     -0.000160
    51   Atom        0.000724     -0.000354      0.000232
    52   Atom       -0.000371      0.000144     -0.000268
    53   Atom       -0.000224      0.000029     -0.000133
    54   Atom       -0.000367     -0.000071      0.000121
 --------------------------------------------------------


 ---------------------------------------------------------------------------------
              Anisotropic Spin Dipole Couplings in Principal Axis System
 ---------------------------------------------------------------------------------

       Atom             a.u.   MegaHertz   Gauss  10(-4) cm-1        Axes

              Baa    -0.0316    -4.242    -1.514    -1.415  0.8763  0.4568  0.1532
     1 C(13)  Bbb    -0.0215    -2.884    -1.029    -0.962 -0.4442  0.8891 -0.1104
              Bcc     0.0531     7.126     2.543     2.377 -0.1866  0.0287  0.9820
 
              Baa    -0.0710    -9.531    -3.401    -3.179  0.7931 -0.5897  0.1526
     2 C(13)  Bbb    -0.0656    -8.802    -3.141    -2.936  0.5854  0.8071  0.0767
              Bcc     0.1366    18.333     6.542     6.115 -0.1684  0.0285  0.9853
 
              Baa    -0.0417    -5.591    -1.995    -1.865 -0.1820  0.0271  0.9829
     3 C(13)  Bbb     0.0190     2.553     0.911     0.852  0.1991  0.9799  0.0098
              Bcc     0.0226     3.038     1.084     1.014  0.9629 -0.1975  0.1837
 
              Baa    -0.0618    -8.293    -2.959    -2.766  0.9273  0.3289  0.1787
     4 C(13)  Bbb    -0.0569    -7.629    -2.722    -2.545 -0.3204  0.9443 -0.0755
              Bcc     0.1187    15.922     5.681     5.311 -0.1936  0.0128  0.9810
 
              Baa    -0.0309    -4.149    -1.480    -1.384 -0.5902  0.7945 -0.1428
     5 C(13)  Bbb    -0.0215    -2.885    -1.029    -0.962  0.7828  0.6065  0.1393
              Bcc     0.0524     7.034     2.510     2.346 -0.1973  0.0296  0.9799
 
              Baa    -0.0284    -3.807    -1.358    -1.270  0.7832 -0.5956  0.1781
     6 C(13)  Bbb    -0.0190    -2.550    -0.910    -0.851  0.6082  0.7935 -0.0207
              Bcc     0.0474     6.357     2.268     2.120 -0.1290  0.1246  0.9838
 
              Baa    -0.0343    -4.603    -1.643    -1.535 -0.1527 -0.0185  0.9881
     7 C(13)  Bbb     0.0143     1.915     0.683     0.639  0.0157  0.9997  0.0211
              Bcc     0.0200     2.689     0.959     0.897  0.9881 -0.0188  0.1524
 
              Baa    -0.0668    -8.959    -3.197    -2.988  0.9308  0.3351  0.1461
     8 C(13)  Bbb    -0.0612    -8.218    -2.932    -2.741 -0.3554  0.9231  0.1472
              Bcc     0.1280    17.177     6.129     5.729 -0.0856 -0.1889  0.9783
 
              Baa    -0.0612    -8.214    -2.931    -2.740  0.9896  0.1145 -0.0866
     9 C(13)  Bbb    -0.0559    -7.495    -2.674    -2.500 -0.1104  0.9926  0.0502
              Bcc     0.1171    15.709     5.606     5.240  0.0918 -0.0401  0.9950
 
              Baa    -0.0320    -4.292    -1.531    -1.432 -0.6550  0.7495 -0.0960
    10 C(13)  Bbb    -0.0237    -3.177    -1.134    -1.060  0.5712  0.5742  0.5865
              Bcc     0.0557     7.469     2.665     2.491 -0.4947 -0.3293  0.8042
 
              Baa    -0.0298    -3.993    -1.425    -1.332  0.8467  0.4824  0.2246
    11 C(13)  Bbb    -0.0200    -2.686    -0.958    -0.896 -0.4670  0.8760 -0.1208
              Bcc     0.0498     6.678     2.383     2.228 -0.2550 -0.0026  0.9669
 
              Baa    -0.0630    -8.450    -3.015    -2.819  0.7090 -0.6819  0.1798
    12 C(13)  Bbb    -0.0584    -7.841    -2.798    -2.615  0.6648  0.7314  0.1519
              Bcc     0.1214    16.291     5.813     5.434 -0.2351  0.0119  0.9719
 
              Baa    -0.0365    -4.902    -1.749    -1.635  0.8098 -0.5617  0.1694
    13 C(13)  Bbb    -0.0302    -4.048    -1.444    -1.350  0.5469  0.8273  0.1287
              Bcc     0.0667     8.950     3.193     2.985 -0.2124 -0.0116  0.9771
 
              Baa    -0.0385    -5.163    -1.842    -1.722  0.9690  0.1605  0.1878
    14 C(13)  Bbb    -0.0326    -4.369    -1.559    -1.457 -0.1556  0.9870 -0.0410
              Bcc     0.0710     9.532     3.401     3.180 -0.1919  0.0105  0.9814
 
              Baa    -0.0039    -2.091    -0.746    -0.697 -0.4691  0.8760 -0.1121
    15 H(1)   Bbb    -0.0023    -1.240    -0.442    -0.414 -0.1889  0.0245  0.9817
              Bcc     0.0062     3.330     1.188     1.111  0.8627  0.4817  0.1540
 
              Baa    -0.0036    -1.922    -0.686    -0.641  0.7730  0.5914  0.2295
    16 H(1)   Bbb    -0.0024    -1.279    -0.457    -0.427 -0.2520 -0.0457  0.9666
              Bcc     0.0060     3.201     1.142     1.068 -0.5822  0.8051 -0.1137
 
              Baa    -0.0035    -1.867    -0.666    -0.623 -0.3297 -0.0461  0.9430
    17 H(1)   Bbb    -0.0018    -0.985    -0.351    -0.328  0.8077  0.5033  0.3070
              Bcc     0.0053     2.851     1.017     0.951 -0.4887  0.8629 -0.1287
 
              Baa    -0.0509    -1.964    -0.701    -0.655 -0.3360 -0.0778  0.9386
    18 N(14)  Bbb     0.0250     0.966     0.345     0.322  0.8967 -0.3312  0.2935
              Bcc     0.0259     0.998     0.356     0.333  0.2880  0.9403  0.1811
 
              Baa    -0.0497    -1.919    -0.685    -0.640 -0.1898  0.0279  0.9814
    19 N(14)  Bbb     0.0244     0.941     0.336     0.314  0.9480 -0.2547  0.1906
              Bcc     0.0253     0.978     0.349     0.326  0.2553  0.9666  0.0219
 
              Baa    -0.1475    10.671     3.808     3.560  0.8977 -0.4039  0.1762
    20 O(17)  Bbb    -0.1446    10.462     3.733     3.490  0.4060  0.9135  0.0261
              Bcc     0.2921   -21.134    -7.541    -7.049 -0.1715  0.0481  0.9840
 
              Baa    -0.1393    10.080     3.597     3.362  0.9806 -0.0116  0.1957
    21 O(17)  Bbb    -0.1361     9.849     3.514     3.285  0.0165  0.9996 -0.0234
              Bcc     0.2754   -19.929    -7.111    -6.648 -0.1953  0.0262  0.9804
 
              Baa    -0.1345     9.733     3.473     3.247  0.9093 -0.3275  0.2566
    22 O(17)  Bbb    -0.1318     9.534     3.402     3.180  0.3140  0.9448  0.0932
              Bcc     0.2663   -19.267    -6.875    -6.427 -0.2729 -0.0042  0.9620
 
              Baa    -0.1503    10.875     3.880     3.627  0.8667  0.0820  0.4920
    23 O(17)  Bbb    -0.1493    10.802     3.854     3.603 -0.2321  0.9394  0.2523
              Bcc     0.2996   -21.677    -7.735    -7.231 -0.4415 -0.3329  0.8332
 
              Baa    -0.0019    -0.255    -0.091    -0.085 -0.2996 -0.0242  0.9538
    24 C(13)  Bbb     0.0009     0.117     0.042     0.039  0.9499 -0.1005  0.2958
              Bcc     0.0010     0.138     0.049     0.046  0.0886  0.9946  0.0531
 
              Baa    -0.0014    -0.744    -0.265    -0.248 -0.2957 -0.3113  0.9031
    25 H(1)   Bbb     0.0000     0.016     0.006     0.005  0.9472  0.0269  0.3194
              Bcc     0.0014     0.728     0.260     0.243 -0.1237  0.9499  0.2869
 
              Baa    -0.0015    -0.780    -0.278    -0.260 -0.3961  0.1277  0.9093
    26 H(1)   Bbb    -0.0005    -0.282    -0.101    -0.094  0.9128  0.1624  0.3748
              Bcc     0.0020     1.062     0.379     0.354 -0.0999  0.9784 -0.1809
 
              Baa    -0.0015    -0.783    -0.279    -0.261 -0.2292  0.0367  0.9727
    27 H(1)   Bbb    -0.0004    -0.226    -0.081    -0.075  0.8590 -0.4623  0.2199
              Bcc     0.0019     1.009     0.360     0.336  0.4577  0.8860  0.0744
 
              Baa    -0.0018    -0.240    -0.086    -0.080 -0.1892  0.0251  0.9816
    28 C(13)  Bbb     0.0007     0.100     0.036     0.033  0.8352 -0.5216  0.1743
              Bcc     0.0010     0.140     0.050     0.047  0.5164  0.8528  0.0777
 
              Baa    -0.0014    -0.729    -0.260    -0.243 -0.3346 -0.1655  0.9277
    29 H(1)   Bbb    -0.0002    -0.104    -0.037    -0.035  0.8515 -0.4749  0.2224
              Bcc     0.0016     0.833     0.297     0.278  0.4037  0.8644  0.2998
 
              Baa    -0.0014    -0.730    -0.260    -0.243 -0.0137  0.2134  0.9769
    30 H(1)   Bbb    -0.0002    -0.114    -0.041    -0.038  0.8693 -0.4802  0.1171
              Bcc     0.0016     0.844     0.301     0.281  0.4941  0.8508 -0.1789
 
              Baa    -0.0015    -0.816    -0.291    -0.272 -0.1859  0.0328  0.9820
    31 H(1)   Bbb    -0.0006    -0.304    -0.108    -0.101  0.9786  0.0955  0.1821
              Bcc     0.0021     1.120     0.400     0.374 -0.0878  0.9949 -0.0498
 
              Baa    -0.0405    -5.431    -1.938    -1.812  0.0993  0.1465  0.9842
    32 C(13)  Bbb     0.0169     2.266     0.809     0.756 -0.3641  0.9258 -0.1011
              Bcc     0.0236     3.165     1.129     1.056  0.9260  0.3484 -0.1453
 
              Baa    -0.0250    -3.350    -1.195    -1.117  0.2725  0.9544 -0.1216
    33 C(13)  Bbb    -0.0219    -2.937    -1.048    -0.980  0.9516 -0.2860 -0.1124
              Bcc     0.0469     6.287     2.243     2.097  0.1420  0.0851  0.9862
 
              Baa    -0.0604    -2.475    -0.883    -0.826  0.6814  0.7103 -0.1764
    34 S(33)  Bbb    -0.0437    -1.790    -0.639    -0.597  0.7169 -0.6963 -0.0342
              Bcc     0.1040     4.265     1.522     1.423  0.1471  0.1032  0.9837
 
              Baa    -0.0175    -2.344    -0.836    -0.782  0.0716  0.1443  0.9869
    35 C(13)  Bbb     0.0080     1.073     0.383     0.358  0.7053  0.6924 -0.1524
              Bcc     0.0095     1.271     0.454     0.424 -0.7053  0.7070 -0.0522
 
              Baa    -0.0020    -1.061    -0.379    -0.354  0.7060  0.1208  0.6979
    36 H(1)   Bbb    -0.0011    -0.606    -0.216    -0.202  0.4297  0.7102 -0.5577
              Bcc     0.0031     1.667     0.595     0.556 -0.5630  0.6936  0.4494
 
              Baa    -0.0366    -4.906    -1.751    -1.637 -0.3315  0.9352 -0.1245
    37 C(13)  Bbb    -0.0353    -4.743    -1.692    -1.582  0.9373  0.3114 -0.1567
              Bcc     0.0719     9.649     3.443     3.219  0.1077  0.1687  0.9798
 
              Baa    -0.0107     0.776     0.277     0.259  0.1270  0.1509  0.9804
    38 O(17)  Bbb     0.0045    -0.323    -0.115    -0.108 -0.6631  0.7480 -0.0293
              Bcc     0.0063    -0.453    -0.162    -0.151  0.7377  0.6463 -0.1951
 
              Baa    -0.0174    -2.338    -0.834    -0.780  0.1052  0.1574  0.9819
    39 C(13)  Bbb     0.0069     0.923     0.329     0.308  0.4358  0.8802 -0.1878
              Bcc     0.0105     1.415     0.505     0.472  0.8939 -0.4477 -0.0240
 
              Baa    -0.0007    -0.100    -0.036    -0.033 -0.5495  0.8238 -0.1392
    40 C(13)  Bbb    -0.0001    -0.011    -0.004    -0.004  0.1816  0.2804  0.9426
              Bcc     0.0008     0.111     0.040     0.037  0.8156  0.4926 -0.3036
 
              Baa    -0.0169    -2.264    -0.808    -0.755  0.1474  0.9751 -0.1658
    41 C(13)  Bbb    -0.0156    -2.096    -0.748    -0.699  0.9835 -0.1624 -0.0803
              Bcc     0.0325     4.361     1.556     1.455  0.1053  0.1512  0.9829
 
              Baa    -0.0081    -0.334    -0.119    -0.111 -0.5669  0.8202 -0.0769
    42 S(33)  Bbb    -0.0008    -0.034    -0.012    -0.012  0.8218  0.5566 -0.1217
              Bcc     0.0090     0.368     0.131     0.123  0.0570  0.1322  0.9896
 
              Baa    -0.0004    -0.188    -0.067    -0.063  0.1628  0.0981  0.9818
    43 H(1)   Bbb    -0.0002    -0.129    -0.046    -0.043 -0.5237  0.8519  0.0018
              Bcc     0.0006     0.317     0.113     0.106  0.8362  0.5144 -0.1901
 
              Baa    -0.0006    -0.314    -0.112    -0.105  0.2611  0.2721  0.9262
    44 H(1)   Bbb    -0.0005    -0.257    -0.092    -0.086 -0.6353  0.7708 -0.0473
              Bcc     0.0011     0.572     0.204     0.191  0.7268  0.5760 -0.3741
 
              Baa    -0.0007    -0.385    -0.137    -0.128  0.3013 -0.2901  0.9083
    45 H(1)   Bbb    -0.0005    -0.247    -0.088    -0.082 -0.5053  0.7592  0.4101
              Bcc     0.0012     0.632     0.226     0.211  0.8086  0.5826 -0.0822
 
              Baa    -0.0101    -1.349    -0.481    -0.450  0.1020  0.1565  0.9824
    46 C(13)  Bbb     0.0045     0.598     0.213     0.199 -0.3226  0.9394 -0.1162
              Bcc     0.0056     0.751     0.268     0.251  0.9410  0.3051 -0.1463
 
              Baa    -0.0180     1.299     0.464     0.433  0.7943  0.5830 -0.1709
    47 O(17)  Bbb    -0.0157     1.139     0.406     0.380 -0.6005  0.7960 -0.0754
              Bcc     0.0337    -2.438    -0.870    -0.813  0.0920  0.1625  0.9824
 
              Baa    -0.0163    -2.187    -0.780    -0.729  0.0894  0.9815 -0.1692
    48 C(13)  Bbb    -0.0151    -2.028    -0.724    -0.677  0.9907 -0.1050 -0.0860
              Bcc     0.0314     4.215     1.504     1.406  0.1022  0.1599  0.9818
 
              Baa    -0.0006    -0.297    -0.106    -0.099  0.0920  0.1582  0.9831
    49 H(1)   Bbb    -0.0001    -0.060    -0.021    -0.020 -0.2668  0.9551 -0.1287
              Bcc     0.0007     0.357     0.127     0.119  0.9593  0.2505 -0.1301
 
              Baa    -0.0007    -0.095    -0.034    -0.032  0.0454  0.1388  0.9893
    50 C(13)  Bbb    -0.0002    -0.025    -0.009    -0.008  0.8590  0.5002 -0.1096
              Bcc     0.0009     0.120     0.043     0.040 -0.5100  0.8547 -0.0965
 
              Baa    -0.0022    -1.167    -0.417    -0.389 -0.1727  0.9747 -0.1419
    51 H(1)   Bbb    -0.0002    -0.086    -0.031    -0.029  0.0986  0.1604  0.9821
              Bcc     0.0023     1.254     0.447     0.418  0.9800  0.1556 -0.1238
 
              Baa    -0.0004    -0.228    -0.082    -0.076  0.0258  0.3933  0.9190
    52 H(1)   Bbb    -0.0002    -0.107    -0.038    -0.036  0.8014  0.5414 -0.2542
              Bcc     0.0006     0.336     0.120     0.112 -0.5975  0.7431 -0.3012
 
              Baa    -0.0005    -0.265    -0.094    -0.088  0.0096  0.1510  0.9885
    53 H(1)   Bbb    -0.0000    -0.016    -0.006    -0.005  0.8907  0.4480 -0.0771
              Bcc     0.0005     0.281     0.100     0.094 -0.4545  0.8812 -0.1302
 
              Baa    -0.0004    -0.233    -0.083    -0.078  0.0402 -0.1351  0.9900
    54 H(1)   Bbb    -0.0002    -0.097    -0.035    -0.032  0.8236  0.5655  0.0438
              Bcc     0.0006     0.330     0.118     0.110 -0.5658  0.8136  0.1340
 

 ---------------------------------------------------------------------------------

 Unable to Open any file for archive entry.
 1\1\GINC-CX3-2-28\FOpt\UB3LYP\6-311+G(d,p)\C26H18N2O6S2(1-,2)\NS5018\2
 8-Oct-2021\0\\# opt=modredundant b3lyp/6-311+g(d,p) scrf=(pcm, solvent
 =water)\\NDI_0.pdb\\-1,2\C,-2.61880252,-2.9660133795,-0.4269074598\C,-
 2.2893345214,-1.5656965422,-0.1879027254\C,-3.3154178109,-0.5968653666
 ,-0.1008463009\C,-4.6687733323,-0.9599554059,-0.2643090244\C,-5.029705
 1227,-2.3522472893,-0.5213668887\C,-0.9552214976,-1.1703974909,-0.1243
 082966\C,-2.9492833889,0.7606557509,0.1753662951\C,-1.5803246504,1.124
 4254502,0.3572315999\C,-0.540568732,0.1498374059,0.0968605497\C,-1.332
 0283297,2.4277055119,0.9638526056\C,-3.700245259,3.1024673056,0.594932
 8841\C,-3.9966990299,1.7135847306,0.2802829681\C,-5.3398479803,1.32991
 15814,0.0917318376\C,-5.6770439987,0.019332198,-0.173900947\H,-6.70978
 36446,-0.2747432701,-0.3078102385\H,-6.1044081342,2.0919927486,0.17081
 83647\H,-0.2235029856,-1.9456474668,-0.3108627142\N,-2.371338707,3.379
 6322155,0.9125980594\N,-3.975183853,-3.2790346314,-0.5797974171\O,-1.7
 74478566,-3.8665448341,-0.5024984271\O,-6.1974062232,-2.7253754503,-0.
 6783768337\O,-4.5565551719,3.9975223467,0.6231396129\O,-0.2883893733,2
 .7503651013,1.5447747589\C,-2.0458105716,4.7325468166,1.378837865\H,-2
 .044980055,4.7786419614,2.4707291628\H,-1.0571597859,5.0072208743,1.01
 9013862\H,-2.7979970563,5.4127799062,0.9917231113\C,-4.2929849374,-4.6
 910835731,-0.8241017503\H,-3.8106210325,-5.02858307,-1.7421131821\H,-3
 .930383174,-5.3019992961,0.0030514664\H,-5.3700498501,-4.7831813882,-0
 .9131354899\C,0.8712680327,0.4441545587,-0.1778446926\C,1.5614329912,1
 .636880172,-0.2610328082\S,1.9918030637,-0.8967492059,-0.4609836824\C,
 2.9321610865,1.4900914611,-0.5748173385\H,1.0975091579,2.59176261,-0.0
 938517651\C,3.3594587984,0.175323985,-0.7155121419\O,3.8276314592,2.50
 36752297,-0.7339091455\C,4.6796900096,-0.3067020535,-1.0240415733\C,3.
 3538383682,3.8483505548,-0.605402373\C,5.1066957637,-1.6237005566,-1.1
 608769485\S,6.0472094427,0.7746622734,-1.2930692586\H,4.2193526797,4.4
 853933617,-0.7759339348\H,2.5858653264,4.0654902882,-1.3527674378\H,2.
 957414887,4.029829651,0.3971998714\C,6.4900599677,-1.7608671194,-1.472
 1620762\O,4.2177409172,-2.640053374,-0.9964070484\C,7.1191228693,-0.55
 23383685,-1.5731517448\H,6.9935982578,-2.7059226795,-1.6141036673\C,4.
 6967654486,-3.9819637672,-1.1367796242\H,8.157549284,-0.361881521,-1.7
 973692435\H,5.4695143975,-4.2010665016,-0.394912339\H,3.8352427678,-4.
 6240256134,-0.9656745921\H,5.0874043188,-4.154596836,-2.1433037436\\Ve
 rsion=ES64L-G16RevC.01\State=2-A\HF=-2359.4983542\S2=0.75915\S2-1=0.\S
 2A=0.750075\RMSD=5.368e-09\RMSF=1.096e-03\Dipole=6.1481038,-0.2522058,
 -1.2768015\Quadrupole=-27.3793235,11.110048,16.2692755,-5.5243844,-2.6
 744303,-5.1768278\PG=C01 [X(C26H18N2O6S2)]\\@
 The archive entry for this job was punched.


 NO HUMAN INVESTIGATION CAN BECOME REAL SCIENCE
 WITHOUT GOING THROUGH MATHEMATICAL PEOPLE.
 -- LEONARDO DA VINCI, IN "PENSIERI" CA. 1492
 Job cpu time:       7 days 10 hours 14 minutes 38.0 seconds.
 Elapsed time:       0 days 11 hours 15 minutes 52.0 seconds.
 File lengths (MBytes):  RWF=   1227 Int=      0 D2E=      0 Chk=    109 Scr=      1
 Normal termination of Gaussian 16 at Thu Oct 28 12:48:55 2021.
