 Entering Gaussian System, Link 0=g16
 Input=NDI_-120.gjf
 Output=NDI_-120.log
 Initial command:
 /apps/gaussian/g16-c01-avx/g16/l1.exe "/tmp/pbs.4768648[55].pbs/Gau-4104285.inp" -scrdir="/tmp/pbs.4768648[55].pbs/"
 Entering Link 1 = /apps/gaussian/g16-c01-avx/g16/l1.exe PID=   4104286.
  
 Copyright (c) 1988-2019, Gaussian, Inc.  All Rights Reserved.
  
 This is part of the Gaussian(R) 16 program.  It is based on
 the Gaussian(R) 09 system (copyright 2009, Gaussian, Inc.),
 the Gaussian(R) 03 system (copyright 2003, Gaussian, Inc.),
 the Gaussian(R) 98 system (copyright 1998, Gaussian, Inc.),
 the Gaussian(R) 94 system (copyright 1995, Gaussian, Inc.),
 the Gaussian 92(TM) system (copyright 1992, Gaussian, Inc.),
 the Gaussian 90(TM) system (copyright 1990, Gaussian, Inc.),
 the Gaussian 88(TM) system (copyright 1988, Gaussian, Inc.),
 the Gaussian 86(TM) system (copyright 1986, Carnegie Mellon
 University), and the Gaussian 82(TM) system (copyright 1983,
 Carnegie Mellon University). Gaussian is a federally registered
 trademark of Gaussian, Inc.
  
 This software contains proprietary and confidential information,
 including trade secrets, belonging to Gaussian, Inc.
  
 This software is provided under written license and may be
 used, copied, transmitted, or stored only in accord with that
 written license.
  
 The following legend is applicable only to US Government
 contracts under FAR:
  
                    RESTRICTED RIGHTS LEGEND
  
 Use, reproduction and disclosure by the US Government is
 subject to restrictions as set forth in subparagraphs (a)
 and (c) of the Commercial Computer Software - Restricted
 Rights clause in FAR 52.227-19.
  
 Gaussian, Inc.
 340 Quinnipiac St., Bldg. 40, Wallingford CT 06492
  
  
 ---------------------------------------------------------------
 Warning -- This program may not be used in any manner that
 competes with the business of Gaussian, Inc. or will provide
 assistance to any competitor of Gaussian, Inc.  The licensee
 of this program is prohibited from giving any competitor of
 Gaussian, Inc. access to this program.  By using this program,
 the user acknowledges that Gaussian, Inc. is engaged in the
 business of creating and licensing software in the field of
 computational chemistry and represents and warrants to the
 licensee that it is not a competitor of Gaussian, Inc. and that
 it will not use this program in any manner prohibited above.
 ---------------------------------------------------------------
  

 Cite this work as:
 Gaussian 16, Revision C.01,
 M. J. Frisch, G. W. Trucks, H. B. Schlegel, G. E. Scuseria, 
 M. A. Robb, J. R. Cheeseman, G. Scalmani, V. Barone, 
 G. A. Petersson, H. Nakatsuji, X. Li, M. Caricato, A. V. Marenich, 
 J. Bloino, B. G. Janesko, R. Gomperts, B. Mennucci, H. P. Hratchian, 
 J. V. Ortiz, A. F. Izmaylov, J. L. Sonnenberg, D. Williams-Young, 
 F. Ding, F. Lipparini, F. Egidi, J. Goings, B. Peng, A. Petrone, 
 T. Henderson, D. Ranasinghe, V. G. Zakrzewski, J. Gao, N. Rega, 
 G. Zheng, W. Liang, M. Hada, M. Ehara, K. Toyota, R. Fukuda, 
 J. Hasegawa, M. Ishida, T. Nakajima, Y. Honda, O. Kitao, H. Nakai, 
 T. Vreven, K. Throssell, J. A. Montgomery, Jr., J. E. Peralta, 
 F. Ogliaro, M. J. Bearpark, J. J. Heyd, E. N. Brothers, K. N. Kudin, 
 V. N. Staroverov, T. A. Keith, R. Kobayashi, J. Normand, 
 K. Raghavachari, A. P. Rendell, J. C. Burant, S. S. Iyengar, 
 J. Tomasi, M. Cossi, J. M. Millam, M. Klene, C. Adamo, R. Cammi, 
 J. W. Ochterski, R. L. Martin, K. Morokuma, O. Farkas, 
 J. B. Foresman, and D. J. Fox, Gaussian, Inc., Wallingford CT, 2019.
 
 ******************************************
 Gaussian 16:  ES64L-G16RevC.01  3-Jul-2019
                27-Oct-2021 
 ******************************************
 %mem=100GB
 %nprocshared=16
 Will use up to   16 processors via shared memory.
 ---------------------------------------------------------------
 # opt=modredundant b3lyp/6-311+g(d,p) scrf=(pcm, solvent=water)
 ---------------------------------------------------------------
 1/18=120,19=15,26=3,38=1/1,3;
 2/9=110,12=2,17=6,18=5,40=1/2;
 3/5=4,6=6,7=111,11=2,25=1,30=1,70=2201,71=1,72=1,74=-5/1,2,3;
 4//1;
 5/5=2,38=5,53=1/2;
 6/7=2,8=2,9=2,10=2,28=1/1;
 7//1,2,3,16;
 1/18=20,19=15,26=3/3(2);
 2/9=110/2;
 99//99;
 2/9=110/2;
 3/5=4,6=6,7=111,11=2,25=1,30=1,70=2205,71=1,72=1,74=-5/1,2,3;
 4/5=5,16=3,69=1/1;
 5/5=2,38=5,53=1/2;
 7//1,2,3,16;
 1/18=20,19=15,26=3/3(-5);
 2/9=110/2;
 6/7=2,8=2,9=2,10=2,19=2,28=1/1;
 99/9=1/99;
 ------------
 NDI_-120.pdb
 ------------
 Symbolic Z-matrix:
 Charge = -1 Multiplicity = 2
 C                    -2.563    -2.994    -0.409 
 C                    -2.257    -1.551    -0.224 
 C                    -3.301    -0.607    -0.083 
 C                    -4.65     -1.024    -0.115 
 C                    -4.992    -2.459    -0.304 
 C                    -0.949    -1.137    -0.215 
 C                    -2.962     0.764     0.102 
 C                    -1.595     1.188     0.123 
 C                    -0.561     0.232    -0.072 
 C                    -1.328     2.616     0.446 
 C                    -3.777     3.115     0.508 
 C                    -4.035     1.679     0.268 
 C                    -5.356     1.252     0.23 
 C                    -5.672    -0.098     0.036 
 H                    -6.699    -0.442     0.008 
 H                    -6.133     1.997     0.361 
 H                    -0.19     -1.895    -0.369 
 N                    -2.432     3.476     0.608 
 N                    -3.916    -3.353    -0.438 
 O                    -1.695    -3.847    -0.532 
 O                    -6.149    -2.85     -0.34 
 O                    -4.676     3.938     0.629 
 O                    -0.212     3.097     0.596 
 C                    -2.111     4.875     0.912 
 H                    -1.54      4.931     1.84 
 H                    -1.5       5.299     0.111 
 H                    -3.05      5.414     1.003 
 C                    -4.206    -4.779    -0.625 
 H                    -3.759    -5.126    -1.559 
 H                    -3.775    -5.355     0.196 
 H                    -5.286    -4.897    -0.649 
 C                     0.876     0.482    -0.178 
 C                     1.766     0.219    -1.201 
 S                     1.74      1.086     1.236 
 C                     3.106     0.497    -0.866 
 H                     1.456    -0.156    -2.163 
 C                     3.288     0.992     0.429 
 O                     4.192     0.33     -1.668 
 C                     4.517     1.406     1.046 
 C                     3.957    -0.039    -3.024 
 C                     4.699     1.877     2.344 
 S                     6.068     1.381     0.211 
 H                     4.934    -0.04     -3.508 
 H                     3.517    -1.041    -3.092 
 H                     3.298     0.683    -3.523 
 C                     6.048     2.209     2.66 
 O                     3.625     1.982     3.17 
 C                     6.889     1.99      1.602 
 H                     6.377     2.589     3.617 
 C                     3.848     2.433     4.501 
 H                     7.957     2.154     1.567 
 H                     4.257     3.451     4.513 
 H                     2.874     2.429     4.988 
 H                     4.528     1.762     5.04 
 
 The following ModRedundant input section has been read:
 D       8       9      32      33 F                                           
 

 GradGradGradGradGradGradGradGradGradGradGradGradGradGradGradGradGradGrad
 Berny optimization.
 Initialization pass.
                           ----------------------------
                           !    Initial Parameters    !
                           ! (Angstroms and Degrees)  !
 --------------------------                            --------------------------
 ! Name  Definition              Value          Derivative Info.                !
 --------------------------------------------------------------------------------
 ! R1    R(1,2)                  1.4866         estimate D2E/DX2                !
 ! R2    R(1,19)                 1.4001         estimate D2E/DX2                !
 ! R3    R(1,20)                 1.2232         estimate D2E/DX2                !
 ! R4    R(2,3)                  1.4146         estimate D2E/DX2                !
 ! R5    R(2,6)                  1.372          estimate D2E/DX2                !
 ! R6    R(3,4)                  1.4123         estimate D2E/DX2                !
 ! R7    R(3,7)                  1.4244         estimate D2E/DX2                !
 ! R8    R(4,5)                  1.4872         estimate D2E/DX2                !
 ! R9    R(4,14)                 1.3874         estimate D2E/DX2                !
 ! R10   R(5,19)                 1.4053         estimate D2E/DX2                !
 ! R11   R(5,21)                 1.2218         estimate D2E/DX2                !
 ! R12   R(6,9)                  1.4301         estimate D2E/DX2                !
 ! R13   R(6,17)                 1.0837         estimate D2E/DX2                !
 ! R14   R(7,8)                  1.4314         estimate D2E/DX2                !
 ! R15   R(7,12)                 1.4199         estimate D2E/DX2                !
 ! R16   R(8,9)                  1.4217         estimate D2E/DX2                !
 ! R17   R(8,10)                 1.4882         estimate D2E/DX2                !
 ! R18   R(9,32)                 1.4624         estimate D2E/DX2                !
 ! R19   R(10,18)                1.4088         estimate D2E/DX2                !
 ! R20   R(10,23)                1.2245         estimate D2E/DX2                !
 ! R21   R(11,12)                1.4786         estimate D2E/DX2                !
 ! R22   R(11,18)                1.3962         estimate D2E/DX2                !
 ! R23   R(11,22)                1.2248         estimate D2E/DX2                !
 ! R24   R(12,13)                1.3888         estimate D2E/DX2                !
 ! R25   R(13,14)                1.4            estimate D2E/DX2                !
 ! R26   R(13,16)                1.0844         estimate D2E/DX2                !
 ! R27   R(14,15)                1.0834         estimate D2E/DX2                !
 ! R28   R(18,24)                1.4672         estimate D2E/DX2                !
 ! R29   R(19,28)                1.4672         estimate D2E/DX2                !
 ! R30   R(24,25)                1.091          estimate D2E/DX2                !
 ! R31   R(24,26)                1.093          estimate D2E/DX2                !
 ! R32   R(24,27)                1.0865         estimate D2E/DX2                !
 ! R33   R(28,29)                1.0921         estimate D2E/DX2                !
 ! R34   R(28,30)                1.0916         estimate D2E/DX2                !
 ! R35   R(28,31)                1.0867         estimate D2E/DX2                !
 ! R36   R(32,33)                1.3812         estimate D2E/DX2                !
 ! R37   R(32,34)                1.7637         estimate D2E/DX2                !
 ! R38   R(33,35)                1.4089         estimate D2E/DX2                !
 ! R39   R(33,36)                1.078          estimate D2E/DX2                !
 ! R40   R(34,37)                1.7483         estimate D2E/DX2                !
 ! R41   R(35,37)                1.3983         estimate D2E/DX2                !
 ! R42   R(35,38)                1.3603         estimate D2E/DX2                !
 ! R43   R(37,39)                1.4361         estimate D2E/DX2                !
 ! R44   R(38,40)                1.4248         estimate D2E/DX2                !
 ! R45   R(39,41)                1.3928         estimate D2E/DX2                !
 ! R46   R(39,42)                1.7617         estimate D2E/DX2                !
 ! R47   R(40,43)                1.0903         estimate D2E/DX2                !
 ! R48   R(40,44)                1.0965         estimate D2E/DX2                !
 ! R49   R(40,45)                1.0975         estimate D2E/DX2                !
 ! R50   R(41,46)                1.4247         estimate D2E/DX2                !
 ! R51   R(41,47)                1.359          estimate D2E/DX2                !
 ! R52   R(42,48)                1.7262         estimate D2E/DX2                !
 ! R53   R(46,48)                1.3692         estimate D2E/DX2                !
 ! R54   R(46,49)                1.081          estimate D2E/DX2                !
 ! R55   R(47,50)                1.4229         estimate D2E/DX2                !
 ! R56   R(48,51)                1.0811         estimate D2E/DX2                !
 ! R57   R(50,52)                1.0972         estimate D2E/DX2                !
 ! R58   R(50,53)                1.089          estimate D2E/DX2                !
 ! R59   R(50,54)                1.0969         estimate D2E/DX2                !
 ! A1    A(2,1,19)             116.767          estimate D2E/DX2                !
 ! A2    A(2,1,20)             122.9113         estimate D2E/DX2                !
 ! A3    A(19,1,20)            120.3217         estimate D2E/DX2                !
 ! A4    A(1,2,3)              120.5473         estimate D2E/DX2                !
 ! A5    A(1,2,6)              119.3369         estimate D2E/DX2                !
 ! A6    A(3,2,6)              120.1056         estimate D2E/DX2                !
 ! A7    A(2,3,4)              120.3743         estimate D2E/DX2                !
 ! A8    A(2,3,7)              118.662          estimate D2E/DX2                !
 ! A9    A(4,3,7)              120.9617         estimate D2E/DX2                !
 ! A10   A(3,4,5)              120.4909         estimate D2E/DX2                !
 ! A11   A(3,4,14)             120.2702         estimate D2E/DX2                !
 ! A12   A(5,4,14)             119.2382         estimate D2E/DX2                !
 ! A13   A(4,5,19)             116.7341         estimate D2E/DX2                !
 ! A14   A(4,5,21)             122.024          estimate D2E/DX2                !
 ! A15   A(19,5,21)            121.2418         estimate D2E/DX2                !
 ! A16   A(2,6,9)              123.2421         estimate D2E/DX2                !
 ! A17   A(2,6,17)             117.1119         estimate D2E/DX2                !
 ! A18   A(9,6,17)             119.589          estimate D2E/DX2                !
 ! A19   A(3,7,8)              120.9519         estimate D2E/DX2                !
 ! A20   A(3,7,12)             117.1037         estimate D2E/DX2                !
 ! A21   A(8,7,12)             121.944          estimate D2E/DX2                !
 ! A22   A(7,8,9)              119.5639         estimate D2E/DX2                !
 ! A23   A(7,8,10)             117.3064         estimate D2E/DX2                !
 ! A24   A(9,8,10)             122.9922         estimate D2E/DX2                !
 ! A25   A(6,9,8)              117.3944         estimate D2E/DX2                !
 ! A26   A(6,9,32)             115.0236         estimate D2E/DX2                !
 ! A27   A(8,9,32)             127.5648         estimate D2E/DX2                !
 ! A28   A(8,10,18)            118.042          estimate D2E/DX2                !
 ! A29   A(8,10,23)            124.5436         estimate D2E/DX2                !
 ! A30   A(18,10,23)           117.4097         estimate D2E/DX2                !
 ! A31   A(12,11,18)           115.5202         estimate D2E/DX2                !
 ! A32   A(12,11,22)           122.7205         estimate D2E/DX2                !
 ! A33   A(18,11,22)           121.7534         estimate D2E/DX2                !
 ! A34   A(7,12,11)            120.8614         estimate D2E/DX2                !
 ! A35   A(7,12,13)            121.162          estimate D2E/DX2                !
 ! A36   A(11,12,13)           117.9699         estimate D2E/DX2                !
 ! A37   A(12,13,14)           120.9948         estimate D2E/DX2                !
 ! A38   A(12,13,16)           117.8401         estimate D2E/DX2                !
 ! A39   A(14,13,16)           121.1642         estimate D2E/DX2                !
 ! A40   A(4,14,13)            119.5003         estimate D2E/DX2                !
 ! A41   A(4,14,15)            118.9169         estimate D2E/DX2                !
 ! A42   A(13,14,15)           121.5811         estimate D2E/DX2                !
 ! A43   A(10,18,11)           126.0753         estimate D2E/DX2                !
 ! A44   A(10,18,24)           115.7508         estimate D2E/DX2                !
 ! A45   A(11,18,24)           118.1737         estimate D2E/DX2                !
 ! A46   A(1,19,5)             125.0856         estimate D2E/DX2                !
 ! A47   A(1,19,28)            116.2868         estimate D2E/DX2                !
 ! A48   A(5,19,28)            118.6276         estimate D2E/DX2                !
 ! A49   A(18,24,25)           109.8574         estimate D2E/DX2                !
 ! A50   A(18,24,26)           109.8979         estimate D2E/DX2                !
 ! A51   A(18,24,27)           107.5355         estimate D2E/DX2                !
 ! A52   A(25,24,26)           108.1108         estimate D2E/DX2                !
 ! A53   A(25,24,27)           110.8301         estimate D2E/DX2                !
 ! A54   A(26,24,27)           110.6124         estimate D2E/DX2                !
 ! A55   A(19,28,29)           109.6906         estimate D2E/DX2                !
 ! A56   A(19,28,30)           109.8136         estimate D2E/DX2                !
 ! A57   A(19,28,31)           107.7461         estimate D2E/DX2                !
 ! A58   A(29,28,30)           108.2991         estimate D2E/DX2                !
 ! A59   A(29,28,31)           110.6959         estimate D2E/DX2                !
 ! A60   A(30,28,31)           110.5924         estimate D2E/DX2                !
 ! A61   A(9,32,33)            130.8652         estimate D2E/DX2                !
 ! A62   A(9,32,34)            118.8022         estimate D2E/DX2                !
 ! A63   A(33,32,34)           110.0805         estimate D2E/DX2                !
 ! A64   A(32,33,35)           113.5253         estimate D2E/DX2                !
 ! A65   A(32,33,36)           122.8108         estimate D2E/DX2                !
 ! A66   A(35,33,36)           123.6624         estimate D2E/DX2                !
 ! A67   A(32,34,37)            92.5949         estimate D2E/DX2                !
 ! A68   A(33,35,37)           114.4468         estimate D2E/DX2                !
 ! A69   A(33,35,38)           126.5036         estimate D2E/DX2                !
 ! A70   A(37,35,38)           119.0496         estimate D2E/DX2                !
 ! A71   A(34,37,35)           109.3473         estimate D2E/DX2                !
 ! A72   A(34,37,39)           122.9511         estimate D2E/DX2                !
 ! A73   A(35,37,39)           127.6854         estimate D2E/DX2                !
 ! A74   A(35,38,40)           117.4651         estimate D2E/DX2                !
 ! A75   A(37,39,41)           127.5683         estimate D2E/DX2                !
 ! A76   A(37,39,42)           123.0727         estimate D2E/DX2                !
 ! A77   A(41,39,42)           109.359          estimate D2E/DX2                !
 ! A78   A(38,40,43)           105.9568         estimate D2E/DX2                !
 ! A79   A(38,40,44)           111.2155         estimate D2E/DX2                !
 ! A80   A(38,40,45)           111.1838         estimate D2E/DX2                !
 ! A81   A(43,40,44)           109.3427         estimate D2E/DX2                !
 ! A82   A(43,40,45)           109.6829         estimate D2E/DX2                !
 ! A83   A(44,40,45)           109.3914         estimate D2E/DX2                !
 ! A84   A(39,41,46)           114.157          estimate D2E/DX2                !
 ! A85   A(39,41,47)           119.2958         estimate D2E/DX2                !
 ! A86   A(46,41,47)           126.5469         estimate D2E/DX2                !
 ! A87   A(39,42,48)            91.8215         estimate D2E/DX2                !
 ! A88   A(41,46,48)           111.8964         estimate D2E/DX2                !
 ! A89   A(41,46,49)           124.5033         estimate D2E/DX2                !
 ! A90   A(48,46,49)           123.6003         estimate D2E/DX2                !
 ! A91   A(41,47,50)           117.9814         estimate D2E/DX2                !
 ! A92   A(42,48,46)           112.7661         estimate D2E/DX2                !
 ! A93   A(42,48,51)           119.8204         estimate D2E/DX2                !
 ! A94   A(46,48,51)           127.4134         estimate D2E/DX2                !
 ! A95   A(47,50,52)           111.2686         estimate D2E/DX2                !
 ! A96   A(47,50,53)           106.0803         estimate D2E/DX2                !
 ! A97   A(47,50,54)           111.2792         estimate D2E/DX2                !
 ! A98   A(52,50,53)           109.3866         estimate D2E/DX2                !
 ! A99   A(52,50,54)           109.3369         estimate D2E/DX2                !
 ! A100  A(53,50,54)           109.4195         estimate D2E/DX2                !
 ! D1    D(19,1,2,3)             0.1578         estimate D2E/DX2                !
 ! D2    D(19,1,2,6)          -178.6792         estimate D2E/DX2                !
 ! D3    D(20,1,2,3)          -179.8231         estimate D2E/DX2                !
 ! D4    D(20,1,2,6)             1.3399         estimate D2E/DX2                !
 ! D5    D(2,1,19,5)            -0.124          estimate D2E/DX2                !
 ! D6    D(2,1,19,28)          179.8267         estimate D2E/DX2                !
 ! D7    D(20,1,19,5)          179.8575         estimate D2E/DX2                !
 ! D8    D(20,1,19,28)          -0.1919         estimate D2E/DX2                !
 ! D9    D(1,2,3,4)              0.0571         estimate D2E/DX2                !
 ! D10   D(1,2,3,7)            179.5453         estimate D2E/DX2                !
 ! D11   D(6,2,3,4)            178.8851         estimate D2E/DX2                !
 ! D12   D(6,2,3,7)             -1.6266         estimate D2E/DX2                !
 ! D13   D(1,2,6,9)            178.625          estimate D2E/DX2                !
 ! D14   D(1,2,6,17)             1.3881         estimate D2E/DX2                !
 ! D15   D(3,2,6,9)             -0.2173         estimate D2E/DX2                !
 ! D16   D(3,2,6,17)          -177.4541         estimate D2E/DX2                !
 ! D17   D(2,3,4,5)             -0.3074         estimate D2E/DX2                !
 ! D18   D(2,3,4,14)           179.3968         estimate D2E/DX2                !
 ! D19   D(7,3,4,5)           -179.7837         estimate D2E/DX2                !
 ! D20   D(7,3,4,14)            -0.0795         estimate D2E/DX2                !
 ! D21   D(2,3,7,8)              1.0523         estimate D2E/DX2                !
 ! D22   D(2,3,7,12)          -178.712          estimate D2E/DX2                !
 ! D23   D(4,3,7,8)           -179.4626         estimate D2E/DX2                !
 ! D24   D(4,3,7,12)             0.7731         estimate D2E/DX2                !
 ! D25   D(3,4,5,19)             0.3343         estimate D2E/DX2                !
 ! D26   D(3,4,5,21)          -179.7799         estimate D2E/DX2                !
 ! D27   D(14,4,5,19)         -179.3729         estimate D2E/DX2                !
 ! D28   D(14,4,5,21)            0.5129         estimate D2E/DX2                !
 ! D29   D(3,4,14,13)           -0.4559         estimate D2E/DX2                !
 ! D30   D(3,4,14,15)         -179.9937         estimate D2E/DX2                !
 ! D31   D(5,4,14,13)          179.252          estimate D2E/DX2                !
 ! D32   D(5,4,14,15)           -0.2858         estimate D2E/DX2                !
 ! D33   D(4,5,19,1)            -0.1141         estimate D2E/DX2                !
 ! D34   D(4,5,19,28)          179.9364         estimate D2E/DX2                !
 ! D35   D(21,5,19,1)          179.9992         estimate D2E/DX2                !
 ! D36   D(21,5,19,28)           0.0496         estimate D2E/DX2                !
 ! D37   D(2,6,9,8)              2.5984         estimate D2E/DX2                !
 ! D38   D(2,6,9,32)          -176.0103         estimate D2E/DX2                !
 ! D39   D(17,6,9,8)           179.77           estimate D2E/DX2                !
 ! D40   D(17,6,9,32)            1.1613         estimate D2E/DX2                !
 ! D41   D(3,7,8,9)              1.3551         estimate D2E/DX2                !
 ! D42   D(3,7,8,10)          -174.5099         estimate D2E/DX2                !
 ! D43   D(12,7,8,9)          -178.8921         estimate D2E/DX2                !
 ! D44   D(12,7,8,10)            5.2428         estimate D2E/DX2                !
 ! D45   D(3,7,12,11)          178.0768         estimate D2E/DX2                !
 ! D46   D(3,7,12,13)           -0.9621         estimate D2E/DX2                !
 ! D47   D(8,7,12,11)           -1.685          estimate D2E/DX2                !
 ! D48   D(8,7,12,13)          179.2761         estimate D2E/DX2                !
 ! D49   D(7,8,9,6)             -3.0809         estimate D2E/DX2                !
 ! D50   D(7,8,9,32)           175.3285         estimate D2E/DX2                !
 ! D51   D(10,8,9,6)           172.5381         estimate D2E/DX2                !
 ! D52   D(10,8,9,32)           -9.0525         estimate D2E/DX2                !
 ! D53   D(7,8,10,18)           -4.7549         estimate D2E/DX2                !
 ! D54   D(7,8,10,23)          174.4235         estimate D2E/DX2                !
 ! D55   D(9,8,10,18)          179.5335         estimate D2E/DX2                !
 ! D56   D(9,8,10,23)           -1.2882         estimate D2E/DX2                !
 ! D57   D(6,9,32,33)           58.4783         estimate D2E/DX2                !
 ! D58   D(6,9,32,34)         -115.1226         estimate D2E/DX2                !
 ! D59   D(8,9,32,33)         -119.9632         Frozen                          !
 ! D60   D(8,9,32,34)           66.4359         estimate D2E/DX2                !
 ! D61   D(8,10,18,11)           0.7189         estimate D2E/DX2                !
 ! D62   D(8,10,18,24)        -179.4089         estimate D2E/DX2                !
 ! D63   D(23,10,18,11)       -178.5188         estimate D2E/DX2                !
 ! D64   D(23,10,18,24)          1.3535         estimate D2E/DX2                !
 ! D65   D(18,11,12,7)          -2.3856         estimate D2E/DX2                !
 ! D66   D(18,11,12,13)        176.6833         estimate D2E/DX2                !
 ! D67   D(22,11,12,7)         178.4862         estimate D2E/DX2                !
 ! D68   D(22,11,12,13)         -2.445          estimate D2E/DX2                !
 ! D69   D(12,11,18,10)          2.8444         estimate D2E/DX2                !
 ! D70   D(12,11,18,24)       -177.0251         estimate D2E/DX2                !
 ! D71   D(22,11,18,10)       -178.0181         estimate D2E/DX2                !
 ! D72   D(22,11,18,24)          2.1124         estimate D2E/DX2                !
 ! D73   D(7,12,13,14)           0.461          estimate D2E/DX2                !
 ! D74   D(7,12,13,16)        -179.8781         estimate D2E/DX2                !
 ! D75   D(11,12,13,14)       -178.6049         estimate D2E/DX2                !
 ! D76   D(11,12,13,16)          1.056          estimate D2E/DX2                !
 ! D77   D(12,13,14,4)           0.2708         estimate D2E/DX2                !
 ! D78   D(12,13,14,15)        179.7958         estimate D2E/DX2                !
 ! D79   D(16,13,14,4)        -179.3788         estimate D2E/DX2                !
 ! D80   D(16,13,14,15)          0.1463         estimate D2E/DX2                !
 ! D81   D(10,18,24,25)        -59.609          estimate D2E/DX2                !
 ! D82   D(10,18,24,26)         59.2209         estimate D2E/DX2                !
 ! D83   D(10,18,24,27)        179.6858         estimate D2E/DX2                !
 ! D84   D(11,18,24,25)        120.2739         estimate D2E/DX2                !
 ! D85   D(11,18,24,26)       -120.8962         estimate D2E/DX2                !
 ! D86   D(11,18,24,27)         -0.4313         estimate D2E/DX2                !
 ! D87   D(1,19,28,29)         -58.1407         estimate D2E/DX2                !
 ! D88   D(1,19,28,30)          60.7668         estimate D2E/DX2                !
 ! D89   D(1,19,28,31)        -178.7139         estimate D2E/DX2                !
 ! D90   D(5,19,28,29)         121.8132         estimate D2E/DX2                !
 ! D91   D(5,19,28,30)        -119.2792         estimate D2E/DX2                !
 ! D92   D(5,19,28,31)           1.2401         estimate D2E/DX2                !
 ! D93   D(9,32,33,35)        -174.2194         estimate D2E/DX2                !
 ! D94   D(9,32,33,36)           6.207          estimate D2E/DX2                !
 ! D95   D(34,32,33,35)         -0.1882         estimate D2E/DX2                !
 ! D96   D(34,32,33,36)       -179.7618         estimate D2E/DX2                !
 ! D97   D(9,32,34,37)         175.3529         estimate D2E/DX2                !
 ! D98   D(33,32,34,37)          0.5016         estimate D2E/DX2                !
 ! D99   D(32,33,35,37)         -0.3437         estimate D2E/DX2                !
 ! D100  D(32,33,35,38)        179.6824         estimate D2E/DX2                !
 ! D101  D(36,33,35,37)        179.2258         estimate D2E/DX2                !
 ! D102  D(36,33,35,38)         -0.7482         estimate D2E/DX2                !
 ! D103  D(32,34,37,35)         -0.6784         estimate D2E/DX2                !
 ! D104  D(32,34,37,39)        177.9597         estimate D2E/DX2                !
 ! D105  D(33,35,37,34)          0.7063         estimate D2E/DX2                !
 ! D106  D(33,35,37,39)       -177.8497         estimate D2E/DX2                !
 ! D107  D(38,35,37,34)       -179.3176         estimate D2E/DX2                !
 ! D108  D(38,35,37,39)          2.1264         estimate D2E/DX2                !
 ! D109  D(33,35,38,40)          6.5234         estimate D2E/DX2                !
 ! D110  D(37,35,38,40)       -173.4495         estimate D2E/DX2                !
 ! D111  D(34,37,39,41)          2.8355         estimate D2E/DX2                !
 ! D112  D(34,37,39,42)       -177.1492         estimate D2E/DX2                !
 ! D113  D(35,37,39,41)       -178.7882         estimate D2E/DX2                !
 ! D114  D(35,37,39,42)          1.2271         estimate D2E/DX2                !
 ! D115  D(35,38,40,43)        175.4378         estimate D2E/DX2                !
 ! D116  D(35,38,40,44)        -65.8423         estimate D2E/DX2                !
 ! D117  D(35,38,40,45)         56.3262         estimate D2E/DX2                !
 ! D118  D(37,39,41,46)       -179.9905         estimate D2E/DX2                !
 ! D119  D(37,39,41,47)         -0.1474         estimate D2E/DX2                !
 ! D120  D(42,39,41,46)         -0.0041         estimate D2E/DX2                !
 ! D121  D(42,39,41,47)        179.839          estimate D2E/DX2                !
 ! D122  D(37,39,42,48)        179.9892         estimate D2E/DX2                !
 ! D123  D(41,39,42,48)          0.002          estimate D2E/DX2                !
 ! D124  D(39,41,46,48)          0.0045         estimate D2E/DX2                !
 ! D125  D(39,41,46,49)        179.9828         estimate D2E/DX2                !
 ! D126  D(47,41,46,48)       -179.8251         estimate D2E/DX2                !
 ! D127  D(47,41,46,49)          0.1532         estimate D2E/DX2                !
 ! D128  D(39,41,47,50)        178.3817         estimate D2E/DX2                !
 ! D129  D(46,41,47,50)         -1.7966         estimate D2E/DX2                !
 ! D130  D(39,42,48,46)          0.0005         estimate D2E/DX2                !
 ! D131  D(39,42,48,51)        179.8809         estimate D2E/DX2                !
 ! D132  D(41,46,48,42)         -0.0028         estimate D2E/DX2                !
 ! D133  D(41,46,48,51)       -179.8722         estimate D2E/DX2                !
 ! D134  D(49,46,48,42)       -179.9814         estimate D2E/DX2                !
 ! D135  D(49,46,48,51)          0.1493         estimate D2E/DX2                !
 ! D136  D(41,47,50,52)         61.9909         estimate D2E/DX2                !
 ! D137  D(41,47,50,53)       -179.1333         estimate D2E/DX2                !
 ! D138  D(41,47,50,54)        -60.2121         estimate D2E/DX2                !
 --------------------------------------------------------------------------------
 Trust Radius=3.00D-01 FncErr=1.00D-07 GrdErr=1.00D-06 EigMax=2.50D+02 EigMin=1.00D-04
 Number of steps in this run=    307 maximum allowed number of steps=    324.
 GradGradGradGradGradGradGradGradGradGradGradGradGradGradGradGradGradGrad

 Stoichiometry    C26H18N2O6S2(1-,2)
 Framework group  C1[X(C26H18N2O6S2)]
 Deg. of freedom   156
 Full point group                 C1      NOp   1
 Largest Abelian subgroup         C1      NOp   1
 Largest concise Abelian subgroup C1      NOp   1
                         Standard orientation:                         
 ---------------------------------------------------------------------
 Center     Atomic      Atomic             Coordinates (Angstroms)
 Number     Number       Type             X           Y           Z
 ---------------------------------------------------------------------
      1          6           0       -3.435022   -2.701172    0.610912
      2          6           0       -2.730197   -1.438318    0.266627
      3          6           0       -3.453755   -0.235092    0.094399
      4          6           0       -4.857531   -0.217586    0.248733
      5          6           0       -5.595072   -1.463867    0.587448
      6          6           0       -1.369336   -1.453872    0.092968
      7          6           0       -2.736841    0.953415   -0.225405
      8          6           0       -1.315429    0.933202   -0.392993
      9          6           0       -0.611652   -0.295571   -0.266766
     10          6           0       -0.633958    2.239641   -0.601834
     11          6           0       -2.828371    3.436491   -0.652270
     12          6           0       -3.492643    2.147517   -0.363223
     13          6           0       -4.873173    2.145749   -0.211746
     14          6           0       -5.563649    0.966250    0.091599
     15          1           0       -6.639973    0.954600    0.215050
     16          1           0       -5.396871    3.087847   -0.330513
     17          1           0       -0.869302   -2.409829    0.195304
     18          7           0       -1.434680    3.392372   -0.723142
     19          7           0       -4.826597   -2.629513    0.747709
     20          8           0       -2.852553   -3.764518    0.772739
     21          8           0       -6.809149   -1.481554    0.723577
     22          8           0       -3.448765    4.481527   -0.804534
     23          8           0        0.580036    2.387704   -0.661942
     24          6           0       -0.711959    4.650491   -0.941018
     25          1           0       -0.031609    4.836027   -0.108514
     26          1           0       -0.118589    4.584899   -1.856609
     27          1           0       -1.450940    5.443068   -1.020084
     28          6           0       -5.511833   -3.882556    1.083686
     29          1           0       -5.299965   -4.633985    0.320115
     30          1           0       -5.149256   -4.256888    2.042848
     31          1           0       -6.577315   -3.674584    1.132640
     32          6           0        0.813194   -0.534347   -0.493712
     33          6           0        1.458876   -1.371711   -1.382370
     34         16           0        1.983848    0.214944    0.592032
     35          6           0        2.855919   -1.411384   -1.204027
     36          1           0        0.937213   -1.932020   -2.141377
     37          6           0        3.330977   -0.595840   -0.172339
     38          8           0        3.743170   -2.148360   -1.925235
     39          6           0        4.695331   -0.387784    0.224872
     40          6           0        3.243576   -2.855285   -3.056953
     41          6           0        5.164311    0.407241    1.267830
     42         16           0        6.060283   -1.146843   -0.590106
     43          1           0        4.112801   -3.306398   -3.536255
     44          1           0        2.544894   -3.644545   -2.755058
     45          1           0        2.744548   -2.176259   -3.760132
     46          6           0        6.582028    0.407025    1.409109
     47          8           0        4.274918    1.092982    2.033020
     48          6           0        7.188268   -0.387836    0.473548
     49          1           0        7.122520    0.964511    2.161152
     50          6           0        4.781913    1.868735    3.112767
     51          1           0        8.247040   -0.570429    0.353518
     52          1           0        5.448060    2.663135    2.753706
     53          1           0        3.914592    2.315461    3.596556
     54          1           0        5.319911    1.242321    3.834795
 ---------------------------------------------------------------------
 Rotational constants (GHZ):           0.1645983           0.0553496           0.0464126
 Standard basis: 6-311+G(d,p) (5D, 7F)
 There are   952 symmetry adapted cartesian basis functions of A   symmetry.
 There are   916 symmetry adapted basis functions of A   symmetry.
   916 basis functions,  1468 primitive gaussians,   952 cartesian basis functions
   135 alpha electrons      134 beta electrons
       nuclear repulsion energy      4090.9641025849 Hartrees.
 NAtoms=   54 NActive=   54 NUniq=   54 SFac= 1.00D+00 NAtFMM=   60 NAOKFM=F Big=F
 Integral buffers will be    131072 words long.
 Raffenetti 2 integral format.
 Two-electron integral symmetry is turned on.
 ------------------------------------------------------------------------------
 Polarizable Continuum Model (PCM)
 =================================
 Model                : PCM.
 Atomic radii         : UFF (Universal Force Field).
 Polarization charges : Total charges.
 Charge compensation  : None.
 Solution method      : On-the-fly selection.
 Cavity type          : Scaled VdW (van der Waals Surface) (Alpha=1.100).
 Cavity algorithm     : GePol (No added spheres)
                        Default sphere list used, NSphG=   54.
                        Lebedev-Laikov grids with approx.  5.0 points / Ang**2.
                        Smoothing algorithm: York/Karplus (Gamma=1.0000).
                        Polarization charges: spherical gaussians, with
                                              point-specific exponents (IZeta= 3).
                        Self-potential: point-specific (ISelfS= 7).
                        Self-field    : sphere-specific E.n sum rule (ISelfD= 2).
 1st derivatives      : Analytical E(r).r(x)/FMM algorithm (CHGder, D1EAlg=3).
                        Cavity 1st derivative terms included.
 Solvent              : Water, Eps=  78.355300 Eps(inf)=   1.777849
 ------------------------------------------------------------------------------
 One-electron integrals computed using PRISM.
 NBasis=   916 RedAO= T EigKep=  1.11D-06  NBF=   916
 NBsUse=   902 1.00D-06 EigRej=  6.71D-07 NBFU=   902
 ExpMin= 4.05D-02 ExpMax= 9.34D+04 ExpMxC= 3.17D+03 IAcc=3 IRadAn=         5 AccDes= 0.00D+00
 Harris functional with IExCor=  402 and IRadAn=       5 diagonalized for initial guess.
 HarFok:  IExCor=  402 AccDes= 0.00D+00 IRadAn=         5 IDoV= 1 UseB2=F ITyADJ=14
 ICtDFT=  3500011 ScaDFX=  1.000000  1.000000  1.000000  1.000000
 FoFCou: FMM=F IPFlag=           0 FMFlag=      100000 FMFlg1=           0
         NFxFlg=           0 DoJE=T BraDBF=F KetDBF=T FulRan=T
         wScrn=  0.000000 ICntrl=       500 IOpCl=  0 I1Cent=   200000004 NGrid=           0
         NMat0=    1 NMatS0=      1 NMatT0=    0 NMatD0=    1 NMtDS0=    0 NMtDT0=    0
 Petite list used in FoFCou.
 Initial guess <Sx>= 0.0000 <Sy>= 0.0000 <Sz>= 0.5000 <S**2>= 0.7500 S= 0.5000
 Requested convergence on RMS density matrix=1.00D-08 within 128 cycles.
 Requested convergence on MAX density matrix=1.00D-06.
 Requested convergence on             energy=1.00D-06.
 No special actions if energy rises.
 Inv3:  Mode=1 IEnd=    52091667.
 Iteration    1 A*A^-1 deviation from unit magnitude is 6.77D-15 for   4144.
 Iteration    1 A*A^-1 deviation from orthogonality  is 3.09D-15 for   4166   4027.
 Iteration    1 A^-1*A deviation from unit magnitude is 6.77D-15 for   4144.
 Iteration    1 A^-1*A deviation from orthogonality  is 2.33D-14 for   2491   2463.
 Restarting incremental Fock formation.
 Error on total polarization charges =  0.02618
 SCF Done:  E(UB3LYP) =  -2359.49251550     A.U. after   22 cycles
            NFock= 22  Conv=0.30D-08     -V/T= 2.0031
 <Sx>= 0.0000 <Sy>= 0.0000 <Sz>= 0.5000 <S**2>= 0.7571 S= 0.5036
 <L.S>=  0.00000000000    
 Annihilation of the first spin contaminant:
 S**2 before annihilation     0.7571,   after     0.7500

 **********************************************************************

            Population analysis using the SCF Density.

 **********************************************************************

 Orbital symmetries:
 Alpha Orbitals:
       Occupied  (A) (A) (A) (A) (A) (A) (A) (A) (A) (A) (A) (A)
                 (A) (A) (A) (A) (A) (A) (A) (A) (A) (A) (A) (A)
                 (A) (A) (A) (A) (A) (A) (A) (A) (A) (A) (A) (A)
                 (A) (A) (A) (A) (A) (A) (A) (A) (A) (A) (A) (A)
                 (A) (A) (A) (A) (A) (A) (A) (A) (A) (A) (A) (A)
                 (A) (A) (A) (A) (A) (A) (A) (A) (A) (A) (A) (A)
                 (A) (A) (A) (A) (A) (A) (A) (A) (A) (A) (A) (A)
                 (A) (A) (A) (A) (A) (A) (A) (A) (A) (A) (A) (A)
                 (A) (A) (A) (A) (A) (A) (A) (A) (A) (A) (A) (A)
                 (A) (A) (A) (A) (A) (A) (A) (A) (A) (A) (A) (A)
                 (A) (A) (A) (A) (A) (A) (A) (A) (A) (A) (A) (A)
                 (A) (A) (A)
       Virtual   (A) (A) (A) (A) (A) (A) (A) (A) (A) (A) (A) (A)
                 (A) (A) (A) (A) (A) (A) (A) (A) (A) (A) (A) (A)
                 (A) (A) (A) (A) (A) (A) (A) (A) (A) (A) (A) (A)
                 (A) (A) (A) (A) (A) (A) (A) (A) (A) (A) (A) (A)
                 (A) (A) (A) (A) (A) (A) (A) (A) (A) (A) (A) (A)
                 (A) (A) (A) (A) (A) (A) (A) (A) (A) (A) (A) (A)
                 (A) (A) (A) (A) (A) (A) (A) (A) (A) (A) (A) (A)
                 (A) (A) (A) (A) (A) (A) (A) (A) (A) (A) (A) (A)
                 (A) (A) (A) (A) (A) (A) (A) (A) (A) (A) (A) (A)
                 (A) (A) (A) (A) (A) (A) (A) (A) (A) (A) (A) (A)
                 (A) (A) (A) (A) (A) (A) (A) (A) (A) (A) (A) (A)
                 (A) (A) (A) (A) (A) (A) (A) (A) (A) (A) (A) (A)
                 (A) (A) (A) (A) (A) (A) (A) (A) (A) (A) (A) (A)
                 (A) (A) (A) (A) (A) (A) (A) (A) (A) (A) (A) (A)
                 (A) (A) (A) (A) (A) (A) (A) (A) (A) (A) (A) (A)
                 (A) (A) (A) (A) (A) (A) (A) (A) (A) (A) (A) (A)
                 (A) (A) (A) (A) (A) (A) (A) (A) (A) (A) (A) (A)
                 (A) (A) (A) (A) (A) (A) (A) (A) (A) (A) (A) (A)
                 (A) (A) (A) (A) (A) (A) (A) (A) (A) (A) (A) (A)
                 (A) (A) (A) (A) (A) (A) (A) (A) (A) (A) (A) (A)
                 (A) (A) (A) (A) (A) (A) (A) (A) (A) (A) (A) (A)
                 (A) (A) (A) (A) (A) (A) (A) (A) (A) (A) (A) (A)
                 (A) (A) (A) (A) (A) (A) (A) (A) (A) (A) (A) (A)
                 (A) (A) (A) (A) (A) (A) (A) (A) (A) (A) (A) (A)
                 (A) (A) (A) (A) (A) (A) (A) (A) (A) (A) (A) (A)
                 (A) (A) (A) (A) (A) (A) (A) (A) (A) (A) (A) (A)
                 (A) (A) (A) (A) (A) (A) (A) (A) (A) (A) (A) (A)
                 (A) (A) (A) (A) (A) (A) (A) (A) (A) (A) (A) (A)
                 (A) (A) (A) (A) (A) (A) (A) (A) (A) (A) (A) (A)
                 (A) (A) (A) (A) (A) (A) (A) (A) (A) (A) (A) (A)
                 (A) (A) (A) (A) (A) (A) (A) (A) (A) (A) (A) (A)
                 (A) (A) (A) (A) (A) (A) (A) (A) (A) (A) (A) (A)
                 (A) (A) (A) (A) (A) (A) (A) (A) (A) (A) (A) (A)
                 (A) (A) (A) (A) (A) (A) (A) (A) (A) (A) (A) (A)
                 (A) (A) (A) (A) (A) (A) (A) (A) (A) (A) (A) (A)
                 (A) (A) (A) (A) (A) (A) (A) (A) (A) (A) (A) (A)
                 (A) (A) (A) (A) (A) (A) (A) (A) (A) (A) (A) (A)
                 (A) (A) (A) (A) (A) (A) (A) (A) (A) (A) (A) (A)
                 (A) (A) (A) (A) (A) (A) (A) (A) (A) (A) (A) (A)
                 (A) (A) (A) (A) (A) (A) (A) (A) (A) (A) (A) (A)
                 (A) (A) (A) (A) (A) (A) (A) (A) (A) (A) (A) (A)
                 (A) (A) (A) (A) (A) (A) (A) (A) (A) (A) (A) (A)
                 (A) (A) (A) (A) (A) (A) (A) (A) (A) (A) (A) (A)
                 (A) (A) (A) (A) (A) (A) (A) (A) (A) (A) (A) (A)
                 (A) (A) (A) (A) (A) (A) (A) (A) (A) (A) (A) (A)
                 (A) (A) (A) (A) (A) (A) (A) (A) (A) (A) (A) (A)
                 (A) (A) (A) (A) (A) (A) (A) (A) (A) (A) (A) (A)
                 (A) (A) (A) (A) (A) (A) (A) (A) (A) (A) (A) (A)
                 (A) (A) (A) (A) (A) (A) (A) (A) (A) (A) (A) (A)
                 (A) (A) (A) (A) (A) (A) (A) (A) (A) (A) (A) (A)
                 (A) (A) (A) (A) (A) (A) (A) (A) (A) (A) (A) (A)
                 (A) (A) (A) (A) (A) (A) (A) (A) (A) (A) (A) (A)
                 (A) (A) (A) (A) (A) (A) (A) (A) (A) (A) (A) (A)
                 (A) (A) (A) (A) (A) (A) (A) (A) (A) (A) (A) (A)
                 (A) (A) (A) (A) (A) (A) (A) (A) (A) (A) (A) (A)
                 (A) (A) (A) (A) (A) (A) (A) (A) (A) (A) (A) (A)
                 (A) (A) (A) (A) (A) (A) (A) (A) (A) (A) (A) (A)
                 (A) (A) (A) (A) (A) (A) (A) (A) (A) (A) (A) (A)
                 (A) (A) (A) (A) (A) (A) (A) (A) (A) (A) (A) (A)
                 (A) (A) (A) (A) (A) (A) (A) (A) (A) (A) (A) (A)
                 (A) (A) (A) (A) (A) (A) (A) (A) (A) (A) (A) (A)
                 (A) (A) (A) (A) (A) (A) (A) (A) (A) (A) (A) (A)
                 (A) (A) (A) (A) (A) (A) (A) (A) (A) (A) (A) (A)
                 (A) (A) (A) (A) (A) (A) (A) (A) (A) (A) (A)
 Beta  Orbitals:
       Occupied  (A) (A) (A) (A) (A) (A) (A) (A) (A) (A) (A) (A)
                 (A) (A) (A) (A) (A) (A) (A) (A) (A) (A) (A) (A)
                 (A) (A) (A) (A) (A) (A) (A) (A) (A) (A) (A) (A)
                 (A) (A) (A) (A) (A) (A) (A) (A) (A) (A) (A) (A)
                 (A) (A) (A) (A) (A) (A) (A) (A) (A) (A) (A) (A)
                 (A) (A) (A) (A) (A) (A) (A) (A) (A) (A) (A) (A)
                 (A) (A) (A) (A) (A) (A) (A) (A) (A) (A) (A) (A)
                 (A) (A) (A) (A) (A) (A) (A) (A) (A) (A) (A) (A)
                 (A) (A) (A) (A) (A) (A) (A) (A) (A) (A) (A) (A)
                 (A) (A) (A) (A) (A) (A) (A) (A) (A) (A) (A) (A)
                 (A) (A) (A) (A) (A) (A) (A) (A) (A) (A) (A) (A)
                 (A) (A)
       Virtual   (A) (A) (A) (A) (A) (A) (A) (A) (A) (A) (A) (A)
                 (A) (A) (A) (A) (A) (A) (A) (A) (A) (A) (A) (A)
                 (A) (A) (A) (A) (A) (A) (A) (A) (A) (A) (A) (A)
                 (A) (A) (A) (A) (A) (A) (A) (A) (A) (A) (A) (A)
                 (A) (A) (A) (A) (A) (A) (A) (A) (A) (A) (A) (A)
                 (A) (A) (A) (A) (A) (A) (A) (A) (A) (A) (A) (A)
                 (A) (A) (A) (A) (A) (A) (A) (A) (A) (A) (A) (A)
                 (A) (A) (A) (A) (A) (A) (A) (A) (A) (A) (A) (A)
                 (A) (A) (A) (A) (A) (A) (A) (A) (A) (A) (A) (A)
                 (A) (A) (A) (A) (A) (A) (A) (A) (A) (A) (A) (A)
                 (A) (A) (A) (A) (A) (A) (A) (A) (A) (A) (A) (A)
                 (A) (A) (A) (A) (A) (A) (A) (A) (A) (A) (A) (A)
                 (A) (A) (A) (A) (A) (A) (A) (A) (A) (A) (A) (A)
                 (A) (A) (A) (A) (A) (A) (A) (A) (A) (A) (A) (A)
                 (A) (A) (A) (A) (A) (A) (A) (A) (A) (A) (A) (A)
                 (A) (A) (A) (A) (A) (A) (A) (A) (A) (A) (A) (A)
                 (A) (A) (A) (A) (A) (A) (A) (A) (A) (A) (A) (A)
                 (A) (A) (A) (A) (A) (A) (A) (A) (A) (A) (A) (A)
                 (A) (A) (A) (A) (A) (A) (A) (A) (A) (A) (A) (A)
                 (A) (A) (A) (A) (A) (A) (A) (A) (A) (A) (A) (A)
                 (A) (A) (A) (A) (A) (A) (A) (A) (A) (A) (A) (A)
                 (A) (A) (A) (A) (A) (A) (A) (A) (A) (A) (A) (A)
                 (A) (A) (A) (A) (A) (A) (A) (A) (A) (A) (A) (A)
                 (A) (A) (A) (A) (A) (A) (A) (A) (A) (A) (A) (A)
                 (A) (A) (A) (A) (A) (A) (A) (A) (A) (A) (A) (A)
                 (A) (A) (A) (A) (A) (A) (A) (A) (A) (A) (A) (A)
                 (A) (A) (A) (A) (A) (A) (A) (A) (A) (A) (A) (A)
                 (A) (A) (A) (A) (A) (A) (A) (A) (A) (A) (A) (A)
                 (A) (A) (A) (A) (A) (A) (A) (A) (A) (A) (A) (A)
                 (A) (A) (A) (A) (A) (A) (A) (A) (A) (A) (A) (A)
                 (A) (A) (A) (A) (A) (A) (A) (A) (A) (A) (A) (A)
                 (A) (A) (A) (A) (A) (A) (A) (A) (A) (A) (A) (A)
                 (A) (A) (A) (A) (A) (A) (A) (A) (A) (A) (A) (A)
                 (A) (A) (A) (A) (A) (A) (A) (A) (A) (A) (A) (A)
                 (A) (A) (A) (A) (A) (A) (A) (A) (A) (A) (A) (A)
                 (A) (A) (A) (A) (A) (A) (A) (A) (A) (A) (A) (A)
                 (A) (A) (A) (A) (A) (A) (A) (A) (A) (A) (A) (A)
                 (A) (A) (A) (A) (A) (A) (A) (A) (A) (A) (A) (A)
                 (A) (A) (A) (A) (A) (A) (A) (A) (A) (A) (A) (A)
                 (A) (A) (A) (A) (A) (A) (A) (A) (A) (A) (A) (A)
                 (A) (A) (A) (A) (A) (A) (A) (A) (A) (A) (A) (A)
                 (A) (A) (A) (A) (A) (A) (A) (A) (A) (A) (A) (A)
                 (A) (A) (A) (A) (A) (A) (A) (A) (A) (A) (A) (A)
                 (A) (A) (A) (A) (A) (A) (A) (A) (A) (A) (A) (A)
                 (A) (A) (A) (A) (A) (A) (A) (A) (A) (A) (A) (A)
                 (A) (A) (A) (A) (A) (A) (A) (A) (A) (A) (A) (A)
                 (A) (A) (A) (A) (A) (A) (A) (A) (A) (A) (A) (A)
                 (A) (A) (A) (A) (A) (A) (A) (A) (A) (A) (A) (A)
                 (A) (A) (A) (A) (A) (A) (A) (A) (A) (A) (A) (A)
                 (A) (A) (A) (A) (A) (A) (A) (A) (A) (A) (A) (A)
                 (A) (A) (A) (A) (A) (A) (A) (A) (A) (A) (A) (A)
                 (A) (A) (A) (A) (A) (A) (A) (A) (A) (A) (A) (A)
                 (A) (A) (A) (A) (A) (A) (A) (A) (A) (A) (A) (A)
                 (A) (A) (A) (A) (A) (A) (A) (A) (A) (A) (A) (A)
                 (A) (A) (A) (A) (A) (A) (A) (A) (A) (A) (A) (A)
                 (A) (A) (A) (A) (A) (A) (A) (A) (A) (A) (A) (A)
                 (A) (A) (A) (A) (A) (A) (A) (A) (A) (A) (A) (A)
                 (A) (A) (A) (A) (A) (A) (A) (A) (A) (A) (A) (A)
                 (A) (A) (A) (A) (A) (A) (A) (A) (A) (A) (A) (A)
                 (A) (A) (A) (A) (A) (A) (A) (A) (A) (A) (A) (A)
                 (A) (A) (A) (A) (A) (A) (A) (A) (A) (A) (A) (A)
                 (A) (A) (A) (A) (A) (A) (A) (A) (A) (A) (A) (A)
                 (A) (A) (A) (A) (A) (A) (A) (A) (A) (A) (A) (A)
                 (A) (A) (A) (A) (A) (A) (A) (A) (A) (A) (A) (A)
 The electronic state is 2-A.
 Alpha  occ. eigenvalues --  -88.87947 -88.86873 -19.16319 -19.16174 -19.10178
 Alpha  occ. eigenvalues --  -19.10142 -19.09781 -19.09386 -14.36731 -14.36318
 Alpha  occ. eigenvalues --  -10.28506 -10.28312 -10.28087 -10.28012 -10.23923
 Alpha  occ. eigenvalues --  -10.23518 -10.22481 -10.22423 -10.21094 -10.20897
 Alpha  occ. eigenvalues --  -10.20753 -10.20454 -10.20212 -10.20123 -10.19881
 Alpha  occ. eigenvalues --  -10.19837 -10.19600 -10.19591 -10.18681 -10.18557
 Alpha  occ. eigenvalues --  -10.18523 -10.18263 -10.18222 -10.17969 -10.17915
 Alpha  occ. eigenvalues --  -10.17883  -7.96511  -7.95449  -5.92817  -5.92435
 Alpha  occ. eigenvalues --   -5.92085  -5.91767  -5.91373  -5.91001  -1.07915
 Alpha  occ. eigenvalues --   -1.07700  -1.06509  -1.06148  -1.04707  -1.04255
 Alpha  occ. eigenvalues --   -0.94182  -0.93684  -0.89711  -0.89089  -0.87537
 Alpha  occ. eigenvalues --   -0.83925  -0.81498  -0.78544  -0.76233  -0.75605
 Alpha  occ. eigenvalues --   -0.75155  -0.74228  -0.73256  -0.72073  -0.70820
 Alpha  occ. eigenvalues --   -0.69703  -0.69089  -0.67174  -0.65087  -0.63652
 Alpha  occ. eigenvalues --   -0.63130  -0.62437  -0.59587  -0.58468  -0.56591
 Alpha  occ. eigenvalues --   -0.55441  -0.55328  -0.54783  -0.53847  -0.52724
 Alpha  occ. eigenvalues --   -0.51372  -0.49375  -0.48872  -0.48293  -0.47896
 Alpha  occ. eigenvalues --   -0.47775  -0.47724  -0.47390  -0.47281  -0.47047
 Alpha  occ. eigenvalues --   -0.46534  -0.45139  -0.45034  -0.44795  -0.44544
 Alpha  occ. eigenvalues --   -0.43878  -0.43423  -0.42858  -0.42419  -0.42069
 Alpha  occ. eigenvalues --   -0.41228  -0.40941  -0.40783  -0.40551  -0.40460
 Alpha  occ. eigenvalues --   -0.40062  -0.39839  -0.39810  -0.39139  -0.38222
 Alpha  occ. eigenvalues --   -0.37811  -0.37649  -0.37168  -0.36822  -0.35593
 Alpha  occ. eigenvalues --   -0.34933  -0.33938  -0.33589  -0.33291  -0.32664
 Alpha  occ. eigenvalues --   -0.32196  -0.30042  -0.29208  -0.28624  -0.28180
 Alpha  occ. eigenvalues --   -0.27838  -0.27414  -0.27061  -0.26438  -0.26085
 Alpha  occ. eigenvalues --   -0.24587  -0.24275  -0.23340  -0.18574  -0.14681
 Alpha virt. eigenvalues --   -0.05706  -0.04975  -0.03377  -0.02843  -0.00274
 Alpha virt. eigenvalues --    0.00140   0.00420   0.00796   0.00938   0.01320
 Alpha virt. eigenvalues --    0.01748   0.02374   0.02405   0.02644   0.02772
 Alpha virt. eigenvalues --    0.02957   0.03053   0.03293   0.03541   0.03991
 Alpha virt. eigenvalues --    0.04063   0.04195   0.04500   0.04799   0.05133
 Alpha virt. eigenvalues --    0.05294   0.05439   0.05835   0.05940   0.06414
 Alpha virt. eigenvalues --    0.06610   0.06863   0.07035   0.07606   0.07814
 Alpha virt. eigenvalues --    0.07886   0.08218   0.08320   0.08658   0.08820
 Alpha virt. eigenvalues --    0.09017   0.09274   0.09475   0.09622   0.10092
 Alpha virt. eigenvalues --    0.10208   0.10623   0.10836   0.11076   0.11318
 Alpha virt. eigenvalues --    0.11467   0.11740   0.12012   0.12192   0.12543
 Alpha virt. eigenvalues --    0.12823   0.13199   0.13636   0.13924   0.14244
 Alpha virt. eigenvalues --    0.14298   0.14357   0.14665   0.14845   0.15025
 Alpha virt. eigenvalues --    0.15232   0.15308   0.15756   0.15951   0.16135
 Alpha virt. eigenvalues --    0.16337   0.16491   0.16628   0.16967   0.17116
 Alpha virt. eigenvalues --    0.17475   0.17912   0.18118   0.18242   0.18354
 Alpha virt. eigenvalues --    0.18664   0.18788   0.18982   0.19464   0.19552
 Alpha virt. eigenvalues --    0.19771   0.19839   0.19993   0.20141   0.20359
 Alpha virt. eigenvalues --    0.20663   0.20685   0.21077   0.21172   0.21354
 Alpha virt. eigenvalues --    0.21587   0.21799   0.21967   0.22069   0.22357
 Alpha virt. eigenvalues --    0.22460   0.22634   0.22876   0.23146   0.23281
 Alpha virt. eigenvalues --    0.23428   0.23591   0.23855   0.23918   0.24175
 Alpha virt. eigenvalues --    0.24241   0.24488   0.24752   0.25022   0.25279
 Alpha virt. eigenvalues --    0.25469   0.25617   0.25795   0.26130   0.26360
 Alpha virt. eigenvalues --    0.26428   0.26446   0.26657   0.26918   0.26969
 Alpha virt. eigenvalues --    0.27219   0.27422   0.27614   0.27830   0.28130
 Alpha virt. eigenvalues --    0.28374   0.28650   0.28695   0.28899   0.29030
 Alpha virt. eigenvalues --    0.29330   0.29632   0.29797   0.29852   0.30077
 Alpha virt. eigenvalues --    0.30186   0.30322   0.30496   0.30955   0.31016
 Alpha virt. eigenvalues --    0.31320   0.31451   0.31810   0.31992   0.32185
 Alpha virt. eigenvalues --    0.32464   0.32613   0.32646   0.32995   0.33458
 Alpha virt. eigenvalues --    0.33775   0.33954   0.34471   0.34676   0.34812
 Alpha virt. eigenvalues --    0.35270   0.35653   0.35931   0.36065   0.36379
 Alpha virt. eigenvalues --    0.36708   0.36971   0.37484   0.37861   0.38283
 Alpha virt. eigenvalues --    0.38509   0.38906   0.39173   0.40015   0.40400
 Alpha virt. eigenvalues --    0.40722   0.41363   0.41510   0.41784   0.42925
 Alpha virt. eigenvalues --    0.42981   0.43491   0.43795   0.43867   0.44421
 Alpha virt. eigenvalues --    0.44909   0.45271   0.45632   0.46013   0.46121
 Alpha virt. eigenvalues --    0.46287   0.46533   0.46646   0.47029   0.47324
 Alpha virt. eigenvalues --    0.48215   0.48688   0.49743   0.49828   0.50178
 Alpha virt. eigenvalues --    0.50568   0.50672   0.51091   0.51444   0.52370
 Alpha virt. eigenvalues --    0.53053   0.53529   0.54310   0.54761   0.55239
 Alpha virt. eigenvalues --    0.55739   0.55829   0.56227   0.56415   0.56743
 Alpha virt. eigenvalues --    0.56909   0.57356   0.57488   0.58315   0.58625
 Alpha virt. eigenvalues --    0.59151   0.59472   0.60113   0.60493   0.60900
 Alpha virt. eigenvalues --    0.61336   0.61368   0.62066   0.62541   0.62687
 Alpha virt. eigenvalues --    0.63023   0.63626   0.63713   0.64174   0.64405
 Alpha virt. eigenvalues --    0.64961   0.65314   0.65639   0.65742   0.66084
 Alpha virt. eigenvalues --    0.66508   0.67135   0.67309   0.67646   0.68200
 Alpha virt. eigenvalues --    0.68306   0.68632   0.68785   0.69379   0.69513
 Alpha virt. eigenvalues --    0.69966   0.70710   0.70891   0.71360   0.71493
 Alpha virt. eigenvalues --    0.72309   0.72497   0.73221   0.73694   0.73818
 Alpha virt. eigenvalues --    0.74015   0.74472   0.74688   0.74970   0.75462
 Alpha virt. eigenvalues --    0.75510   0.75672   0.76235   0.76544   0.76707
 Alpha virt. eigenvalues --    0.77050   0.77402   0.77664   0.77992   0.78657
 Alpha virt. eigenvalues --    0.78954   0.79299   0.79581   0.79654   0.80419
 Alpha virt. eigenvalues --    0.81418   0.81730   0.82078   0.82320   0.83289
 Alpha virt. eigenvalues --    0.83705   0.84235   0.85082   0.85431   0.87378
 Alpha virt. eigenvalues --    0.87652   0.88243   0.88441   0.89116   0.89755
 Alpha virt. eigenvalues --    0.90300   0.90686   0.91086   0.91909   0.92072
 Alpha virt. eigenvalues --    0.92607   0.93296   0.93630   0.94558   0.95042
 Alpha virt. eigenvalues --    0.95257   0.95495   0.96202   0.96372   0.96881
 Alpha virt. eigenvalues --    0.97526   0.97893   0.98154   0.98480   0.99046
 Alpha virt. eigenvalues --    0.99668   1.00288   1.00907   1.01234   1.01768
 Alpha virt. eigenvalues --    1.02071   1.02568   1.02712   1.03169   1.03689
 Alpha virt. eigenvalues --    1.04393   1.04550   1.05367   1.05801   1.06101
 Alpha virt. eigenvalues --    1.06490   1.06654   1.07071   1.07183   1.07667
 Alpha virt. eigenvalues --    1.08048   1.08096   1.09029   1.09294   1.10027
 Alpha virt. eigenvalues --    1.10165   1.10341   1.10608   1.11833   1.12078
 Alpha virt. eigenvalues --    1.13003   1.13703   1.14326   1.14912   1.15692
 Alpha virt. eigenvalues --    1.16244   1.16814   1.17495   1.18205   1.18925
 Alpha virt. eigenvalues --    1.19379   1.19886   1.20780   1.21000   1.21739
 Alpha virt. eigenvalues --    1.22415   1.22918   1.24906   1.25149   1.26119
 Alpha virt. eigenvalues --    1.26775   1.26966   1.27552   1.28576   1.29117
 Alpha virt. eigenvalues --    1.29551   1.29778   1.31177   1.31476   1.31939
 Alpha virt. eigenvalues --    1.32568   1.33834   1.34592   1.35488   1.35758
 Alpha virt. eigenvalues --    1.35907   1.37911   1.38236   1.39049   1.40625
 Alpha virt. eigenvalues --    1.42325   1.42974   1.43497   1.43785   1.44024
 Alpha virt. eigenvalues --    1.44192   1.44471   1.44512   1.45037   1.45938
 Alpha virt. eigenvalues --    1.45946   1.46285   1.46901   1.47450   1.47940
 Alpha virt. eigenvalues --    1.48495   1.49196   1.50053   1.50209   1.50751
 Alpha virt. eigenvalues --    1.52272   1.53015   1.53487   1.54266   1.54843
 Alpha virt. eigenvalues --    1.54871   1.55224   1.55530   1.55751   1.56112
 Alpha virt. eigenvalues --    1.56474   1.56550   1.57258   1.57724   1.59426
 Alpha virt. eigenvalues --    1.59822   1.60439   1.61314   1.62459   1.63212
 Alpha virt. eigenvalues --    1.63493   1.63615   1.64354   1.64809   1.65404
 Alpha virt. eigenvalues --    1.65854   1.66592   1.67623   1.68375   1.68600
 Alpha virt. eigenvalues --    1.69332   1.69970   1.70447   1.70667   1.71225
 Alpha virt. eigenvalues --    1.71477   1.72073   1.72409   1.72706   1.73614
 Alpha virt. eigenvalues --    1.74306   1.75737   1.76109   1.76508   1.77506
 Alpha virt. eigenvalues --    1.77710   1.78159   1.78766   1.79243   1.80205
 Alpha virt. eigenvalues --    1.80790   1.81065   1.82126   1.82691   1.83772
 Alpha virt. eigenvalues --    1.84686   1.85146   1.86009   1.87230   1.87722
 Alpha virt. eigenvalues --    1.87961   1.88480   1.88832   1.90553   1.90828
 Alpha virt. eigenvalues --    1.91047   1.91751   1.92025   1.93066   1.93386
 Alpha virt. eigenvalues --    1.93721   1.94874   1.95076   1.96019   1.96778
 Alpha virt. eigenvalues --    1.97289   1.98062   1.98769   1.99624   2.00395
 Alpha virt. eigenvalues --    2.01014   2.02094   2.02763   2.03041   2.03461
 Alpha virt. eigenvalues --    2.03802   2.04460   2.05224   2.05467   2.06017
 Alpha virt. eigenvalues --    2.06458   2.07484   2.07887   2.09118   2.09400
 Alpha virt. eigenvalues --    2.09725   2.10966   2.11831   2.12269   2.12700
 Alpha virt. eigenvalues --    2.13266   2.13786   2.14876   2.15999   2.16305
 Alpha virt. eigenvalues --    2.16515   2.17959   2.19159   2.19708   2.20430
 Alpha virt. eigenvalues --    2.21082   2.21963   2.22583   2.22696   2.23365
 Alpha virt. eigenvalues --    2.24765   2.27591   2.27835   2.28486   2.30349
 Alpha virt. eigenvalues --    2.34135   2.34465   2.34872   2.36969   2.38334
 Alpha virt. eigenvalues --    2.39686   2.41229   2.41575   2.42111   2.43825
 Alpha virt. eigenvalues --    2.44424   2.44769   2.45565   2.47310   2.47526
 Alpha virt. eigenvalues --    2.48324   2.49306   2.49690   2.50155   2.51181
 Alpha virt. eigenvalues --    2.51645   2.52785   2.52998   2.53551   2.53736
 Alpha virt. eigenvalues --    2.54307   2.54874   2.55080   2.55513   2.57663
 Alpha virt. eigenvalues --    2.58069   2.58845   2.60211   2.60525   2.61409
 Alpha virt. eigenvalues --    2.64031   2.64345   2.66135   2.66640   2.67750
 Alpha virt. eigenvalues --    2.68206   2.68743   2.69055   2.69686   2.69944
 Alpha virt. eigenvalues --    2.70540   2.72199   2.72284   2.72879   2.73225
 Alpha virt. eigenvalues --    2.73953   2.74336   2.74715   2.75109   2.77414
 Alpha virt. eigenvalues --    2.77917   2.78467   2.79336   2.79773   2.82466
 Alpha virt. eigenvalues --    2.83909   2.84370   2.84772   2.85143   2.86154
 Alpha virt. eigenvalues --    2.86239   2.87162   2.87590   2.88106   2.88477
 Alpha virt. eigenvalues --    2.89293   2.90259   2.90963   2.91948   2.92630
 Alpha virt. eigenvalues --    2.92969   2.93776   2.94281   2.95350   2.95900
 Alpha virt. eigenvalues --    2.96715   2.97102   2.97857   2.99014   3.00800
 Alpha virt. eigenvalues --    3.00996   3.04027   3.04195   3.05289   3.06321
 Alpha virt. eigenvalues --    3.07804   3.08619   3.09427   3.10735   3.11216
 Alpha virt. eigenvalues --    3.13118   3.14889   3.15506   3.16330   3.16860
 Alpha virt. eigenvalues --    3.18374   3.18973   3.21052   3.22208   3.23393
 Alpha virt. eigenvalues --    3.23896   3.24344   3.25138   3.27178   3.29643
 Alpha virt. eigenvalues --    3.30612   3.31327   3.32675   3.33041   3.35488
 Alpha virt. eigenvalues --    3.35528   3.35957   3.36217   3.37205   3.39075
 Alpha virt. eigenvalues --    3.39819   3.41923   3.42517   3.44365   3.45205
 Alpha virt. eigenvalues --    3.46411   3.46891   3.47668   3.50597   3.51018
 Alpha virt. eigenvalues --    3.52318   3.55313   3.56824   3.59831   3.61383
 Alpha virt. eigenvalues --    3.62343   3.63846   3.67038   3.67659   3.68885
 Alpha virt. eigenvalues --    3.71502   3.72780   3.73369   3.73906   3.76639
 Alpha virt. eigenvalues --    3.77312   3.77481   3.83028   3.84324   3.85414
 Alpha virt. eigenvalues --    3.86724   3.87633   3.91893   3.94069   3.94888
 Alpha virt. eigenvalues --    3.95090   3.96136   3.99054   4.03184   4.04343
 Alpha virt. eigenvalues --    4.06415   4.08682   4.11208   4.14790   4.15192
 Alpha virt. eigenvalues --    4.20263   4.24497   4.27317   4.28629   4.37664
 Alpha virt. eigenvalues --    4.39896   4.42700   4.52709   4.67666   4.86978
 Alpha virt. eigenvalues --    4.88718   4.89105   4.92181   5.02370   5.03193
 Alpha virt. eigenvalues --    5.05370   5.06740   5.07074   5.10233   5.13287
 Alpha virt. eigenvalues --    5.14835   5.26528   5.28412   5.30441   5.33061
 Alpha virt. eigenvalues --    5.42991   5.44400   5.77109   5.77378   5.80778
 Alpha virt. eigenvalues --    5.81714   5.83522   5.87029   8.02754   8.07283
 Alpha virt. eigenvalues --   17.29472  17.36147  17.50080  17.53096  17.58236
 Alpha virt. eigenvalues --   17.64761  23.51386  23.58075  23.73404  23.81472
 Alpha virt. eigenvalues --   23.83716  23.84808  23.86520  23.89263  23.89309
 Alpha virt. eigenvalues --   23.90341  23.91192  23.91236  23.92333  23.95462
 Alpha virt. eigenvalues --   23.95905  23.97798  23.98684  24.00934  24.02956
 Alpha virt. eigenvalues --   24.03184  24.03516  24.08083  24.13321  24.14927
 Alpha virt. eigenvalues --   24.16456  24.17110  35.57829  35.60672  49.96730
 Alpha virt. eigenvalues --   49.98041  50.04028  50.05764  50.07772  50.09386
 Alpha virt. eigenvalues --  189.20052 189.25429
  Beta  occ. eigenvalues --  -88.87947 -88.86864 -19.16314 -19.16176 -19.10002
  Beta  occ. eigenvalues --  -19.09956 -19.09607 -19.09178 -14.36784 -14.36373
  Beta  occ. eigenvalues --  -10.28442 -10.28248 -10.28022 -10.27949 -10.23914
  Beta  occ. eigenvalues --  -10.23525 -10.22481 -10.22423 -10.21099 -10.20921
  Beta  occ. eigenvalues --  -10.20732 -10.20320 -10.20263 -10.20114 -10.19890
  Beta  occ. eigenvalues --  -10.19880 -10.19599 -10.19424 -10.18537 -10.18407
  Beta  occ. eigenvalues --  -10.18358 -10.18267 -10.18174 -10.17885 -10.17859
  Beta  occ. eigenvalues --  -10.17833  -7.96511  -7.95440  -5.92816  -5.92435
  Beta  occ. eigenvalues --   -5.92084  -5.91755  -5.91364  -5.90986  -1.07906
  Beta  occ. eigenvalues --   -1.07703  -1.06266  -1.05898  -1.04394  -1.03926
  Beta  occ. eigenvalues --   -0.94093  -0.93587  -0.89600  -0.89023  -0.87493
  Beta  occ. eigenvalues --   -0.83613  -0.81199  -0.78420  -0.76149  -0.75259
  Beta  occ. eigenvalues --   -0.75034  -0.74177  -0.73185  -0.72029  -0.70777
  Beta  occ. eigenvalues --   -0.69550  -0.68851  -0.67029  -0.64927  -0.63458
  Beta  occ. eigenvalues --   -0.63019  -0.62261  -0.59535  -0.58402  -0.56510
  Beta  occ. eigenvalues --   -0.55383  -0.55243  -0.54662  -0.53836  -0.52572
  Beta  occ. eigenvalues --   -0.51246  -0.49207  -0.48817  -0.48013  -0.47732
  Beta  occ. eigenvalues --   -0.47681  -0.47620  -0.47377  -0.47199  -0.46920
  Beta  occ. eigenvalues --   -0.46499  -0.45059  -0.44953  -0.44687  -0.44485
  Beta  occ. eigenvalues --   -0.43763  -0.43251  -0.42706  -0.42263  -0.41798
  Beta  occ. eigenvalues --   -0.41202  -0.40788  -0.40724  -0.40024  -0.39992
  Beta  occ. eigenvalues --   -0.39774  -0.39721  -0.39102  -0.39019  -0.38074
  Beta  occ. eigenvalues --   -0.37726  -0.37321  -0.37056  -0.36727  -0.35578
  Beta  occ. eigenvalues --   -0.34847  -0.33694  -0.33348  -0.33267  -0.32652
  Beta  occ. eigenvalues --   -0.31687  -0.29100  -0.29023  -0.28408  -0.27787
  Beta  occ. eigenvalues --   -0.27590  -0.27113  -0.26874  -0.26257  -0.25443
  Beta  occ. eigenvalues --   -0.24471  -0.23289  -0.22901  -0.18462
  Beta virt. eigenvalues --   -0.10218  -0.05234  -0.04018  -0.02736  -0.02143
  Beta virt. eigenvalues --   -0.00257   0.00205   0.00439   0.00807   0.00955
  Beta virt. eigenvalues --    0.01328   0.01772   0.02378   0.02643   0.02899
  Beta virt. eigenvalues --    0.03048   0.03185   0.03394   0.03575   0.03724
  Beta virt. eigenvalues --    0.04007   0.04090   0.04214   0.04542   0.04812
  Beta virt. eigenvalues --    0.05151   0.05327   0.05468   0.05868   0.06014
  Beta virt. eigenvalues --    0.06425   0.06646   0.06889   0.07051   0.07641
  Beta virt. eigenvalues --    0.07822   0.07994   0.08244   0.08423   0.08683
  Beta virt. eigenvalues --    0.08881   0.09144   0.09318   0.09540   0.09641
  Beta virt. eigenvalues --    0.10130   0.10338   0.10763   0.10900   0.11110
  Beta virt. eigenvalues --    0.11484   0.11675   0.11792   0.12056   0.12293
  Beta virt. eigenvalues --    0.12596   0.12872   0.13261   0.13667   0.14046
  Beta virt. eigenvalues --    0.14306   0.14344   0.14452   0.14706   0.14897
  Beta virt. eigenvalues --    0.15066   0.15304   0.15342   0.15821   0.15975
  Beta virt. eigenvalues --    0.16175   0.16362   0.16541   0.16651   0.16995
  Beta virt. eigenvalues --    0.17148   0.17507   0.17946   0.18154   0.18283
  Beta virt. eigenvalues --    0.18401   0.18705   0.18829   0.19013   0.19515
  Beta virt. eigenvalues --    0.19609   0.19809   0.19877   0.20030   0.20177
  Beta virt. eigenvalues --    0.20406   0.20697   0.20732   0.21112   0.21222
  Beta virt. eigenvalues --    0.21386   0.21699   0.21843   0.22035   0.22124
  Beta virt. eigenvalues --    0.22404   0.22502   0.22755   0.23027   0.23218
  Beta virt. eigenvalues --    0.23339   0.23489   0.23620   0.23921   0.23996
  Beta virt. eigenvalues --    0.24243   0.24332   0.24581   0.24779   0.25121
  Beta virt. eigenvalues --    0.25328   0.25501   0.25681   0.25871   0.26183
  Beta virt. eigenvalues --    0.26397   0.26463   0.26506   0.26691   0.26979
  Beta virt. eigenvalues --    0.27002   0.27279   0.27466   0.27653   0.27933
  Beta virt. eigenvalues --    0.28181   0.28408   0.28685   0.28748   0.28934
  Beta virt. eigenvalues --    0.29072   0.29374   0.29678   0.29831   0.29920
  Beta virt. eigenvalues --    0.30122   0.30221   0.30378   0.30539   0.31005
  Beta virt. eigenvalues --    0.31080   0.31402   0.31485   0.31876   0.32043
  Beta virt. eigenvalues --    0.32235   0.32527   0.32652   0.32705   0.33043
  Beta virt. eigenvalues --    0.33508   0.33853   0.34008   0.34551   0.34763
  Beta virt. eigenvalues --    0.34862   0.35312   0.35740   0.36000   0.36108
  Beta virt. eigenvalues --    0.36411   0.36785   0.37035   0.37548   0.37928
  Beta virt. eigenvalues --    0.38314   0.38565   0.38969   0.39283   0.40097
  Beta virt. eigenvalues --    0.40452   0.40809   0.41392   0.41576   0.41811
  Beta virt. eigenvalues --    0.42984   0.43034   0.43532   0.43841   0.43936
  Beta virt. eigenvalues --    0.44441   0.44954   0.45316   0.45662   0.46066
  Beta virt. eigenvalues --    0.46140   0.46340   0.46592   0.46679   0.47082
  Beta virt. eigenvalues --    0.47372   0.48247   0.48747   0.49805   0.49855
  Beta virt. eigenvalues --    0.50230   0.50647   0.50709   0.51179   0.51522
  Beta virt. eigenvalues --    0.52417   0.53132   0.53598   0.54338   0.54863
  Beta virt. eigenvalues --    0.55344   0.55790   0.55871   0.56300   0.56495
  Beta virt. eigenvalues --    0.56873   0.56977   0.57377   0.57532   0.58415
  Beta virt. eigenvalues --    0.58829   0.59232   0.59509   0.60173   0.60537
  Beta virt. eigenvalues --    0.60928   0.61415   0.61490   0.62225   0.62675
  Beta virt. eigenvalues --    0.62759   0.63116   0.63757   0.63786   0.64296
  Beta virt. eigenvalues --    0.64494   0.65061   0.65426   0.65721   0.65824
  Beta virt. eigenvalues --    0.66228   0.66650   0.67235   0.67420   0.67705
  Beta virt. eigenvalues --    0.68275   0.68352   0.68805   0.68836   0.69455
  Beta virt. eigenvalues --    0.69566   0.70060   0.70806   0.70955   0.71490
  Beta virt. eigenvalues --    0.71561   0.72496   0.72567   0.73278   0.73874
  Beta virt. eigenvalues --    0.73902   0.74053   0.74525   0.74789   0.75137
  Beta virt. eigenvalues --    0.75512   0.75572   0.75771   0.76290   0.76664
  Beta virt. eigenvalues --    0.76749   0.77126   0.77467   0.77707   0.78036
  Beta virt. eigenvalues --    0.78727   0.79045   0.79382   0.79654   0.79748
  Beta virt. eigenvalues --    0.80500   0.81465   0.81841   0.82119   0.82363
  Beta virt. eigenvalues --    0.83330   0.83738   0.84288   0.85093   0.85527
  Beta virt. eigenvalues --    0.87407   0.87696   0.88279   0.88469   0.89164
  Beta virt. eigenvalues --    0.89772   0.90340   0.90766   0.91135   0.91991
  Beta virt. eigenvalues --    0.92184   0.92647   0.93416   0.93786   0.94739
  Beta virt. eigenvalues --    0.95137   0.95330   0.95679   0.96278   0.96512
  Beta virt. eigenvalues --    0.96959   0.97717   0.98021   0.98276   0.98659
  Beta virt. eigenvalues --    0.99136   0.99823   1.00468   1.01018   1.01330
  Beta virt. eigenvalues --    1.01867   1.02195   1.02623   1.02854   1.03235
  Beta virt. eigenvalues --    1.03796   1.04508   1.04637   1.05467   1.05917
  Beta virt. eigenvalues --    1.06259   1.06588   1.06829   1.07201   1.07401
  Beta virt. eigenvalues --    1.07730   1.08157   1.08220   1.09155   1.09406
  Beta virt. eigenvalues --    1.10099   1.10274   1.10408   1.10820   1.11954
  Beta virt. eigenvalues --    1.12393   1.13156   1.14023   1.14474   1.15065
  Beta virt. eigenvalues --    1.15912   1.16452   1.16926   1.17763   1.18418
  Beta virt. eigenvalues --    1.18964   1.19705   1.19968   1.21014   1.21252
  Beta virt. eigenvalues --    1.21929   1.22512   1.23010   1.24969   1.25230
  Beta virt. eigenvalues --    1.26190   1.26835   1.27026   1.27675   1.28789
  Beta virt. eigenvalues --    1.29242   1.29632   1.29916   1.31269   1.31604
  Beta virt. eigenvalues --    1.31985   1.32601   1.33932   1.34657   1.35557
  Beta virt. eigenvalues --    1.35847   1.35934   1.37979   1.38351   1.39120
  Beta virt. eigenvalues --    1.40633   1.42429   1.43123   1.43573   1.43824
  Beta virt. eigenvalues --    1.44051   1.44320   1.44514   1.44559   1.45162
  Beta virt. eigenvalues --    1.45949   1.46031   1.46349   1.46993   1.47584
  Beta virt. eigenvalues --    1.48063   1.48592   1.49347   1.50238   1.50273
  Beta virt. eigenvalues --    1.50888   1.52342   1.53111   1.53644   1.54409
  Beta virt. eigenvalues --    1.54866   1.54976   1.55374   1.55583   1.55794
  Beta virt. eigenvalues --    1.56173   1.56507   1.56574   1.57363   1.57783
  Beta virt. eigenvalues --    1.59596   1.59931   1.60572   1.61410   1.62485
  Beta virt. eigenvalues --    1.63261   1.63516   1.63641   1.64409   1.64821
  Beta virt. eigenvalues --    1.65564   1.65887   1.66669   1.67663   1.68455
  Beta virt. eigenvalues --    1.68688   1.69390   1.70013   1.70526   1.70693
  Beta virt. eigenvalues --    1.71427   1.71584   1.72205   1.72534   1.72831
  Beta virt. eigenvalues --    1.73809   1.74406   1.75809   1.76223   1.76624
  Beta virt. eigenvalues --    1.77542   1.77797   1.78266   1.78854   1.79283
  Beta virt. eigenvalues --    1.80257   1.80920   1.81130   1.82203   1.82792
  Beta virt. eigenvalues --    1.83905   1.84747   1.85267   1.86120   1.87327
  Beta virt. eigenvalues --    1.87954   1.88177   1.88573   1.88945   1.90748
  Beta virt. eigenvalues --    1.90945   1.91232   1.91845   1.92173   1.93226
  Beta virt. eigenvalues --    1.93539   1.93886   1.94984   1.95144   1.96077
  Beta virt. eigenvalues --    1.96990   1.97489   1.98287   1.98968   1.99841
  Beta virt. eigenvalues --    2.00628   2.01138   2.02148   2.02891   2.03177
  Beta virt. eigenvalues --    2.03510   2.03871   2.04534   2.05297   2.05488
  Beta virt. eigenvalues --    2.06107   2.06490   2.07529   2.08027   2.09160
  Beta virt. eigenvalues --    2.09475   2.09809   2.11047   2.11909   2.12371
  Beta virt. eigenvalues --    2.12736   2.13276   2.13844   2.14910   2.16033
  Beta virt. eigenvalues --    2.16379   2.16584   2.18033   2.19462   2.19842
  Beta virt. eigenvalues --    2.20483   2.21171   2.22084   2.22658   2.22777
  Beta virt. eigenvalues --    2.23471   2.24851   2.27679   2.27982   2.28737
  Beta virt. eigenvalues --    2.30504   2.34271   2.34652   2.34996   2.37074
  Beta virt. eigenvalues --    2.38587   2.39749   2.41323   2.41654   2.42248
  Beta virt. eigenvalues --    2.43831   2.44427   2.44781   2.45607   2.47343
  Beta virt. eigenvalues --    2.47535   2.48418   2.49316   2.49752   2.50241
  Beta virt. eigenvalues --    2.51341   2.51697   2.52805   2.53042   2.53565
  Beta virt. eigenvalues --    2.53757   2.54332   2.54909   2.55091   2.55518
  Beta virt. eigenvalues --    2.57705   2.58115   2.58854   2.60242   2.60593
  Beta virt. eigenvalues --    2.61471   2.64108   2.64364   2.66473   2.66681
  Beta virt. eigenvalues --    2.67799   2.68279   2.68761   2.69086   2.69741
  Beta virt. eigenvalues --    2.69983   2.70615   2.72278   2.72372   2.73273
  Beta virt. eigenvalues --    2.73417   2.74290   2.74415   2.74761   2.75122
  Beta virt. eigenvalues --    2.77520   2.78072   2.78676   2.79397   2.80103
  Beta virt. eigenvalues --    2.82543   2.83967   2.84608   2.84821   2.85205
  Beta virt. eigenvalues --    2.86262   2.86460   2.87325   2.87898   2.88425
  Beta virt. eigenvalues --    2.88658   2.89740   2.90597   2.91435   2.92329
  Beta virt. eigenvalues --    2.92957   2.93209   2.94160   2.94566   2.95724
  Beta virt. eigenvalues --    2.96296   2.96859   2.97338   2.98266   2.99127
  Beta virt. eigenvalues --    3.00826   3.01358   3.04121   3.04521   3.05337
  Beta virt. eigenvalues --    3.06447   3.07907   3.09193   3.09476   3.10858
  Beta virt. eigenvalues --    3.11270   3.13252   3.14953   3.15765   3.16443
  Beta virt. eigenvalues --    3.16986   3.18431   3.19045   3.21102   3.22239
  Beta virt. eigenvalues --    3.23452   3.23902   3.24350   3.25186   3.27275
  Beta virt. eigenvalues --    3.29744   3.30635   3.31407   3.32687   3.33128
  Beta virt. eigenvalues --    3.35575   3.35970   3.36436   3.36694   3.37708
  Beta virt. eigenvalues --    3.39141   3.39930   3.41989   3.42562   3.44448
  Beta virt. eigenvalues --    3.45307   3.46449   3.46944   3.47779   3.50620
  Beta virt. eigenvalues --    3.51124   3.52445   3.55337   3.56869   3.59940
  Beta virt. eigenvalues --    3.61474   3.62424   3.63959   3.67095   3.67698
  Beta virt. eigenvalues --    3.68961   3.71558   3.72851   3.73343   3.73886
  Beta virt. eigenvalues --    3.76657   3.77313   3.77482   3.83038   3.84392
  Beta virt. eigenvalues --    3.85417   3.86765   3.87671   3.92094   3.94162
  Beta virt. eigenvalues --    3.94940   3.95084   3.96011   3.99210   4.03309
  Beta virt. eigenvalues --    4.04379   4.06550   4.08691   4.11214   4.14845
  Beta virt. eigenvalues --    4.15338   4.20323   4.24578   4.27503   4.28795
  Beta virt. eigenvalues --    4.37875   4.40046   4.42932   4.52831   4.67733
  Beta virt. eigenvalues --    4.87131   4.88839   4.89230   4.92186   5.02390
  Beta virt. eigenvalues --    5.03191   5.06108   5.07470   5.07829   5.11089
  Beta virt. eigenvalues --    5.13406   5.14955   5.26674   5.28564   5.30593
  Beta virt. eigenvalues --    5.33232   5.42995   5.44402   5.77175   5.77485
  Beta virt. eigenvalues --    5.80784   5.81879   5.83675   5.87195   8.02755
  Beta virt. eigenvalues --    8.07299  17.29474  17.36164  17.50081  17.53097
  Beta virt. eigenvalues --   17.58253  17.64768  23.51445  23.58114  23.73419
  Beta virt. eigenvalues --   23.81547  23.83775  23.84888  23.86597  23.89333
  Beta virt. eigenvalues --   23.89407  23.90385  23.91203  23.91323  23.92334
  Beta virt. eigenvalues --   23.95514  23.95930  23.97847  23.98756  24.01030
  Beta virt. eigenvalues --   24.02972  24.03176  24.03527  24.08207  24.13344
  Beta virt. eigenvalues --   24.14931  24.16552  24.17218  35.57773  35.60616
  Beta virt. eigenvalues --   49.96734  49.98040  50.04210  50.05951  50.07958
  Beta virt. eigenvalues --   50.09577 189.20053 189.25437
          Condensed to atoms (all electrons):
          Atomic-Atomic Spin Densities.
 Mulliken charges and spin densities:
               1          2
     1  C    0.385487   0.027921
     2  C   -0.071170   0.123198
     3  C    0.094431  -0.040169
     4  C    0.156316   0.101878
     5  C    0.250594   0.029190
     6  C   -0.432541   0.033768
     7  C    0.172207  -0.030891
[...]
     8   Atom        0.009902      0.044528      0.044427
     9   Atom        0.003006      0.013126      0.023355
    10   Atom        0.010357      0.027130      0.013593
    11   Atom        0.000476      0.019729      0.008361
    12   Atom        0.007100      0.044837      0.020663
    13   Atom        0.006251      0.023373      0.012134
    14   Atom        0.003883      0.025308      0.012617
    15   Atom        0.001839     -0.002091     -0.000224
    16   Atom       -0.003136      0.000485     -0.000293
    17   Atom       -0.002652     -0.000041     -0.000314
    18   Atom       -0.002429     -0.022463     -0.009847
    19   Atom       -0.001352     -0.016814     -0.008372
    20   Atom        0.010950      0.091680      0.045390
    21   Atom        0.011138      0.095126      0.045083
    22   Atom        0.012878      0.103973      0.043820
    23   Atom        0.042021      0.175175      0.091954
    24   Atom       -0.000056     -0.000712     -0.000297
    25   Atom        0.000554     -0.000290      0.000254
    26   Atom        0.000067     -0.000496     -0.001045
    27   Atom        0.001293     -0.000634     -0.000461
    28   Atom        0.000060     -0.000617     -0.000327
    29   Atom        0.000960      0.000044      0.000050
    30   Atom        0.000603     -0.000974     -0.000792
    31   Atom        0.000573     -0.000288     -0.000485
    32   Atom       -0.000311     -0.001349      0.005179
    33   Atom       -0.004570      0.000516     -0.005583
    34   Atom        0.030389      0.009342      0.009502
    35   Atom       -0.001908      0.001394      0.002216
    36   Atom       -0.000280     -0.001300      0.001347
    37   Atom        0.002702     -0.001902     -0.008101
    38   Atom       -0.001640      0.000385      0.001764
    39   Atom       -0.000151      0.000620      0.001885
    40   Atom       -0.000336     -0.000426      0.000158
    41   Atom        0.000511     -0.000087     -0.003432
    42   Atom       -0.001545      0.000131     -0.000902
    43   Atom       -0.000216     -0.000262      0.000130
    44   Atom       -0.000414     -0.000414      0.000284
    45   Atom       -0.000279     -0.000545      0.000249
    46   Atom       -0.000219      0.000184      0.001015
    47   Atom       -0.000778      0.001225     -0.003933
    48   Atom        0.000318     -0.000176     -0.003505
    49   Atom       -0.000023      0.000095      0.000033
    50   Atom        0.000109      0.000348      0.000146
    51   Atom       -0.000111     -0.000047     -0.000148
    52   Atom        0.000133      0.000249      0.000106
    53   Atom        0.000104      0.000344      0.000137
    54   Atom        0.000034      0.000271      0.000038
 --------------------------------------------------------


 ---------------------------------------------------------------------------------
              Anisotropic Spin Dipole Couplings in Principal Axis System
 ---------------------------------------------------------------------------------

       Atom             a.u.   MegaHertz   Gauss  10(-4) cm-1        Axes

              Baa    -0.0338    -4.541    -1.620    -1.515  0.9664  0.1348 -0.2187
     1 C(13)  Bbb    -0.0229    -3.070    -1.095    -1.024 -0.1538  0.9854 -0.0724
              Bcc     0.0567     7.610     2.716     2.539  0.2058  0.1036  0.9731
 
              Baa    -0.0746   -10.008    -3.571    -3.338 -0.5440  0.8388  0.0196
     2 C(13)  Bbb    -0.0692    -9.284    -3.313    -3.097  0.8144  0.5335 -0.2283
              Bcc     0.1438    19.292     6.884     6.435  0.2019  0.1082  0.9734
 
              Baa    -0.0390    -5.231    -1.866    -1.745  0.2059  0.1080  0.9726
     3 C(13)  Bbb     0.0175     2.352     0.839     0.784  0.5081  0.8377 -0.2005
              Bcc     0.0215     2.879     1.027     0.960  0.8364 -0.5354 -0.1176
 
              Baa    -0.0682    -9.154    -3.267    -3.054  0.9764 -0.0053 -0.2161
     4 C(13)  Bbb    -0.0629    -8.445    -3.014    -2.817 -0.0189  0.9938 -0.1098
              Bcc     0.1312    17.600     6.280     5.871  0.2153  0.1113  0.9702
 
              Baa    -0.0337    -4.520    -1.613    -1.508 -0.3330  0.9426 -0.0234
     5 C(13)  Bbb    -0.0233    -3.128    -1.116    -1.043  0.9180  0.3184 -0.2364
              Bcc     0.0570     7.648     2.729     2.551  0.2154  0.1002  0.9714
 
              Baa    -0.0362    -4.864    -1.736    -1.622 -0.5911  0.8060  0.0311
     6 C(13)  Bbb    -0.0281    -3.776    -1.347    -1.259  0.7876  0.5851 -0.1934
              Bcc     0.0644     8.640     3.083     2.882  0.1741  0.0898  0.9806
 
              Baa    -0.0392    -5.258    -1.876    -1.754  0.2051  0.1286  0.9703
     7 C(13)  Bbb     0.0173     2.315     0.826     0.772  0.4051  0.8913 -0.2037
              Bcc     0.0219     2.943     1.050     0.982  0.8910 -0.4348 -0.1307
 
              Baa    -0.0766   -10.283    -3.669    -3.430  0.9782 -0.0439 -0.2030
     8 C(13)  Bbb    -0.0713    -9.567    -3.414    -3.191 -0.0012  0.9762 -0.2170
              Bcc     0.1479    19.850     7.083     6.621  0.2077  0.2125  0.9548
 
              Baa    -0.0493    -6.611    -2.359    -2.205  0.9905 -0.1143 -0.0760
     9 C(13)  Bbb    -0.0429    -5.756    -2.054    -1.920  0.0985  0.9776 -0.1862
              Bcc     0.0922    12.367     4.413     4.125  0.0956  0.1770  0.9796
 
              Baa    -0.0314    -4.213    -1.503    -1.405 -0.3796  0.9245 -0.0340
    10 C(13)  Bbb    -0.0204    -2.735    -0.976    -0.912  0.8190  0.3187 -0.4772
              Bcc     0.0518     6.948     2.479     2.318  0.4304  0.2090  0.8781
 
              Baa    -0.0320    -4.293    -1.532    -1.432  0.9561  0.1494 -0.2520
    11 C(13)  Bbb    -0.0216    -2.900    -1.035    -0.967 -0.1718  0.9827 -0.0695
              Bcc     0.0536     7.193     2.567     2.399  0.2373  0.1098  0.9652
 
              Baa    -0.0705    -9.454    -3.374    -3.154 -0.4840  0.8749  0.0187
    12 C(13)  Bbb    -0.0653    -8.769    -3.129    -2.925  0.8443  0.4724 -0.2530
              Bcc     0.1358    18.223     6.503     6.079  0.2302  0.1066  0.9673
 
              Baa    -0.0404    -5.427    -1.937    -1.810 -0.6063  0.7941  0.0422
    13 C(13)  Bbb    -0.0334    -4.482    -1.599    -1.495  0.7632  0.5959 -0.2498
              Bcc     0.0738     9.909     3.536     3.305  0.2236  0.1192  0.9674
 
              Baa    -0.0433    -5.808    -2.072    -1.937  0.9670 -0.1667 -0.1925
    14 C(13)  Bbb    -0.0366    -4.917    -1.755    -1.640  0.1400  0.9795 -0.1452
              Bcc     0.0799    10.725     3.827     3.577  0.2128  0.1134  0.9705
 
              Baa    -0.0044    -2.355    -0.840    -0.785 -0.1846  0.9802 -0.0714
    15 H(1)   Bbb    -0.0026    -1.364    -0.487    -0.455  0.2098  0.1103  0.9715
              Bcc     0.0070     3.718     1.327     1.240  0.9602  0.1643 -0.2260
 
              Baa    -0.0040    -2.159    -0.770    -0.720  0.9186  0.2899 -0.2687
    16 H(1)   Bbb    -0.0026    -1.398    -0.499    -0.466  0.2416  0.1261  0.9621
              Bcc     0.0067     3.557     1.269     1.186 -0.3128  0.9487 -0.0458
 
              Baa    -0.0035    -1.874    -0.669    -0.625  0.9440  0.2855  0.1653
    17 H(1)   Bbb    -0.0027    -1.452    -0.518    -0.484 -0.1676 -0.0165  0.9857
              Bcc     0.0062     3.327     1.187     1.110 -0.2842  0.9582 -0.0322
 
              Baa    -0.0540    -2.083    -0.743    -0.695  0.2919  0.1259  0.9481
    18 N(14)  Bbb     0.0264     1.019     0.364     0.340  0.7395 -0.6584 -0.1402
              Bcc     0.0276     1.064     0.380     0.355  0.6066  0.7421 -0.2852
 
              Baa    -0.0550    -2.119    -0.756    -0.707  0.2100  0.1029  0.9723
    19 N(14)  Bbb     0.0269     1.039     0.371     0.347  0.8657 -0.4818 -0.1360
              Bcc     0.0280     1.080     0.385     0.360  0.4545  0.8702 -0.1903
 
              Baa    -0.1584    11.460     4.089     3.823  0.7328 -0.6755 -0.0814
    20 O(17)  Bbb    -0.1552    11.228     4.007     3.745  0.6503  0.7306 -0.2084
              Bcc     0.3136   -22.689    -8.096    -7.568  0.2003  0.0997  0.9747
 
              Baa    -0.1532    11.085     3.955     3.697  0.9268 -0.3349 -0.1699
    21 O(17)  Bbb    -0.1496    10.828     3.864     3.612  0.3077  0.9366 -0.1676
              Bcc     0.3028   -21.912    -7.819    -7.309  0.2152  0.1031  0.9711
 
              Baa    -0.1465    10.601     3.783     3.536  0.7653 -0.6307 -0.1283
    22 O(17)  Bbb    -0.1434    10.376     3.702     3.461  0.5937  0.7688 -0.2376
              Bcc     0.2899   -20.977    -7.485    -6.997  0.2485  0.1056  0.9629
 
              Baa    -0.1651    11.943     4.262     3.984  0.8697 -0.3955 -0.2952
    23 O(17)  Bbb    -0.1627    11.773     4.201     3.927  0.2908  0.8940 -0.3410
              Bcc     0.3278   -23.716    -8.463    -7.911  0.3988  0.2107  0.8925
 
              Baa    -0.0020    -0.263    -0.094    -0.088  0.2595  0.0999  0.9606
    24 C(13)  Bbb     0.0009     0.119     0.042     0.040  0.9609 -0.1260 -0.2465
              Bcc     0.0011     0.144     0.051     0.048  0.0964  0.9870 -0.1287
 
              Baa    -0.0015    -0.815    -0.291    -0.272  0.3000 -0.1227  0.9460
    25 H(1)   Bbb    -0.0004    -0.216    -0.077    -0.072  0.9268 -0.1972 -0.3195
              Bcc     0.0019     1.031     0.368     0.344  0.2257  0.9727  0.0546
 
              Baa    -0.0015    -0.789    -0.281    -0.263  0.3082  0.3608  0.8802
    26 H(1)   Bbb    -0.0000    -0.024    -0.008    -0.008  0.9375 -0.2726 -0.2165
              Bcc     0.0015     0.812     0.290     0.271  0.1618  0.8919 -0.4223
 
              Baa    -0.0016    -0.860    -0.307    -0.287  0.2187  0.0732  0.9730
    27 H(1)   Bbb    -0.0006    -0.303    -0.108    -0.101 -0.6663  0.7397  0.0941
              Bcc     0.0022     1.163     0.415     0.388  0.7129  0.6689 -0.2106
 
              Baa    -0.0019    -0.261    -0.093    -0.087  0.2139  0.1051  0.9712
    28 C(13)  Bbb     0.0008     0.113     0.040     0.038  0.7358 -0.6713 -0.0894
              Bcc     0.0011     0.148     0.053     0.049  0.6426  0.7337 -0.2209
 
              Baa    -0.0015    -0.787    -0.281    -0.262 -0.0121 -0.0176  0.9998
    29 H(1)   Bbb    -0.0002    -0.120    -0.043    -0.040 -0.6891  0.7246  0.0044
              Bcc     0.0017     0.907     0.324     0.302  0.7245  0.6889  0.0208
 
              Baa    -0.0015    -0.781    -0.279    -0.261  0.4100  0.2287  0.8830
    30 H(1)   Bbb    -0.0002    -0.096    -0.034    -0.032 -0.6726  0.7296  0.1233
              Bcc     0.0016     0.877     0.313     0.293  0.6160  0.6445 -0.4530
 
              Baa    -0.0017    -0.887    -0.317    -0.296  0.2093  0.0927  0.9734
    31 H(1)   Bbb    -0.0007    -0.352    -0.126    -0.118  0.9562 -0.2279 -0.1839
              Bcc     0.0023     1.240     0.442     0.414  0.2048  0.9693 -0.1364
 
              Baa    -0.0088    -1.174    -0.419    -0.392 -0.0437  0.7312 -0.6808
    32 C(13)  Bbb     0.0014     0.190     0.068     0.063  0.2071  0.6733  0.7098
              Bcc     0.0073     0.985     0.351     0.328  0.9773 -0.1100 -0.1809
 
              Baa    -0.0070    -0.937    -0.334    -0.313  0.3792  0.4574  0.8044
    33 C(13)  Bbb    -0.0035    -0.472    -0.168    -0.157  0.8677  0.1263 -0.4809
              Bcc     0.0105     1.409     0.503     0.470 -0.3215  0.8803 -0.3490
 
              Baa    -0.0216    -0.884    -0.316    -0.295  0.7152 -0.5386 -0.4454
    34 S(33)  Bbb    -0.0208    -0.855    -0.305    -0.285  0.2009 -0.4521  0.8691
              Bcc     0.0424     1.739     0.620     0.580  0.6694  0.7110  0.2151
 
              Baa    -0.0050    -0.666    -0.238    -0.222  0.2815  0.8506 -0.4441
    35 C(13)  Bbb     0.0012     0.163     0.058     0.054 -0.1410  0.4945  0.8577
              Bcc     0.0037     0.503     0.179     0.168  0.9491 -0.1788  0.2591
 
              Baa    -0.0018    -0.983    -0.351    -0.328  0.4194 -0.4805  0.7702
    36 H(1)   Bbb    -0.0001    -0.069    -0.025    -0.023  0.7160  0.6966  0.0448
              Bcc     0.0020     1.053     0.376     0.351 -0.5581  0.5327  0.6362
 
              Baa    -0.0066    -0.891    -0.318    -0.297  0.0257  0.5593  0.8285
    37 C(13)  Bbb    -0.0048    -0.647    -0.231    -0.216  0.9779 -0.1859  0.0952
              Bcc     0.0115     1.538     0.549     0.513  0.2073  0.8078 -0.5518
 
              Baa    -0.0032     0.233     0.083     0.078  0.2956  0.7828 -0.5476
    38 O(17)  Bbb     0.0006    -0.046    -0.016    -0.015  0.3438  0.4476  0.8255
              Bcc     0.0026    -0.187    -0.067    -0.062  0.8913 -0.4323 -0.1368
 
              Baa    -0.0032    -0.431    -0.154    -0.144  0.0865  0.8144 -0.5739
    39 C(13)  Bbb     0.0007     0.100     0.036     0.033 -0.2517  0.5752  0.7783
              Bcc     0.0025     0.331     0.118     0.110  0.9639  0.0772  0.2547
 
              Baa    -0.0004    -0.056    -0.020    -0.019  0.6129  0.3198  0.7226
    40 C(13)  Bbb    -0.0003    -0.037    -0.013    -0.012  0.1408  0.8556 -0.4981
              Bcc     0.0007     0.094     0.033     0.031  0.7775 -0.4071 -0.4793
 
              Baa    -0.0029    -0.390    -0.139    -0.130 -0.2065  0.5239  0.8264
    41 C(13)  Bbb    -0.0019    -0.262    -0.093    -0.087  0.9759  0.0495  0.2124
              Bcc     0.0049     0.652     0.232     0.217  0.0704  0.8503 -0.5215
 
              Baa    -0.0016    -0.065    -0.023    -0.022  0.4803  0.4778  0.7355
    42 S(33)  Bbb    -0.0009    -0.037    -0.013    -0.012  0.7302  0.2468 -0.6371
              Bcc     0.0025     0.102     0.036     0.034 -0.4860  0.8431 -0.2304
 
              Baa    -0.0003    -0.135    -0.048    -0.045  0.4432 -0.1349  0.8862
    43 H(1)   Bbb    -0.0002    -0.114    -0.041    -0.038  0.4195  0.9049 -0.0720
              Bcc     0.0005     0.249     0.089     0.083  0.7922 -0.4036 -0.4576
 
              Baa    -0.0005    -0.244    -0.087    -0.081  0.4497 -0.1460  0.8812
    44 H(1)   Bbb    -0.0003    -0.175    -0.062    -0.058  0.5315  0.8366 -0.1327
              Bcc     0.0008     0.419     0.150     0.140  0.7178 -0.5281 -0.4538
 
              Baa    -0.0004    -0.239    -0.085    -0.080  0.6218 -0.0863  0.7784
    45 H(1)   Bbb    -0.0003    -0.187    -0.067    -0.062  0.3227  0.9338 -0.1543
              Bcc     0.0008     0.425     0.152     0.142  0.7136 -0.3472 -0.6085
 
              Baa    -0.0017    -0.230    -0.082    -0.077  0.0999  0.8423 -0.5297
    46 C(13)  Bbb     0.0006     0.076     0.027     0.025 -0.0684  0.5369  0.8408
              Bcc     0.0011     0.153     0.055     0.051  0.9926 -0.0477  0.1113
 
              Baa    -0.0033     0.241     0.086     0.080 -0.5049  0.4442  0.7401
    47 O(17)  Bbb    -0.0021     0.155     0.055     0.052  0.8454  0.4274  0.3203
              Bcc     0.0055    -0.396    -0.141    -0.132 -0.1740  0.7874 -0.5913
 
              Baa    -0.0027    -0.359    -0.128    -0.120 -0.0714  0.5795  0.8118
    48 C(13)  Bbb    -0.0021    -0.283    -0.101    -0.094  0.9961 -0.0013  0.0886
              Bcc     0.0048     0.641     0.229     0.214  0.0524  0.8150 -0.5771
 
              Baa    -0.0002    -0.106    -0.038    -0.035  0.1398  0.8383 -0.5270
    49 H(1)   Bbb    -0.0001    -0.063    -0.022    -0.021 -0.1583  0.5443  0.8238
              Bcc     0.0003     0.169     0.060     0.056  0.9774 -0.0318  0.2088
 
              Baa    -0.0003    -0.042    -0.015    -0.014  0.1690  0.8386 -0.5179
    50 C(13)  Bbb    -0.0002    -0.028    -0.010    -0.009  0.6287 -0.4964 -0.5986
              Bcc     0.0005     0.070     0.025     0.023  0.7590  0.2244  0.6111
 
              Baa    -0.0004    -0.231    -0.082    -0.077  0.1065  0.5834  0.8052
    51 H(1)   Bbb    -0.0001    -0.060    -0.022    -0.020  0.0958  0.8000 -0.5923
              Bcc     0.0005     0.292     0.104     0.097  0.9897 -0.1402 -0.0293
 
              Baa    -0.0002    -0.124    -0.044    -0.041 -0.3160 -0.4763  0.8205
    52 H(1)   Bbb    -0.0002    -0.094    -0.034    -0.031 -0.4743  0.8284  0.2982
              Bcc     0.0004     0.218     0.078     0.073  0.8217  0.2949  0.4877
 
              Baa    -0.0003    -0.152    -0.054    -0.051  0.2302  0.8084 -0.5417
    53 H(1)   Bbb    -0.0002    -0.114    -0.041    -0.038  0.6482 -0.5426 -0.5343
              Bcc     0.0005     0.266     0.095     0.089  0.7258  0.2281  0.6489
 
              Baa    -0.0002    -0.110    -0.039    -0.037  0.1365  0.9426 -0.3049
    54 H(1)   Bbb    -0.0002    -0.094    -0.034    -0.031 -0.6063  0.3229  0.7267
              Bcc     0.0004     0.204     0.073     0.068  0.7834  0.0856  0.6156
 

 ---------------------------------------------------------------------------------

 Unable to Open any file for archive entry.
 1\1\GINC-CX3-5-23\FOpt\UB3LYP\6-311+G(d,p)\C26H18N2O6S2(1-,2)\NS5018\2
 8-Oct-2021\0\\# opt=modredundant b3lyp/6-311+g(d,p) scrf=(pcm, solvent
 =water)\\NDI_-120.pdb\\-1,2\C,-2.5523113521,-2.9652638238,-0.505059248
 4\C,-2.2470337889,-1.5535343703,-0.3152963114\C,-3.2818711545,-0.63593
 72289,-0.0230507171\C,-4.6230940443,-1.0691253326,0.0974331349\C,-4.95
 82341898,-2.4777963237,-0.0803830883\C,-0.9197171208,-1.1071671994,-0.
 3853662492\C,-2.9566651949,0.750850218,0.1424179612\C,-1.6084428511,1.
 1900717389,0.0127763355\C,-0.5749332834,0.2292490673,-0.2107288548\C,-
 1.3437064075,2.6279081567,0.0223934491\C,-3.7324269636,3.0801755684,0.
 5839087413\C,-4.008287124,1.6591849577,0.4237776783\C,-5.3345701083,1.
 1984550417,0.5457951775\C,-5.6394326278,-0.1380433146,0.3866579004\H,-
 6.6593463608,-0.4885777944,0.4767919607\H,-6.1112481733,1.9198723671,0
 .7643390593\H,-0.1387099266,-1.8382469493,-0.548577394\N,-2.4068124281
 ,3.4772114976,0.3832098074\N,-3.8947684144,-3.3461946035,-0.3793289851
 \O,-1.6994814764,-3.8232368451,-0.7663750942\O,-6.1115629391,-2.913983
 7243,0.0181257994\O,-4.6038831516,3.9134687069,0.8650429548\O,-0.26166
 9004,3.1425813803,-0.2749092456\C,-2.0911358042,4.9082721461,0.4646425
 948\H,-1.1844710317,5.0469081124,1.0508168653\H,-1.9260607167,5.321862
 4389,-0.5325782486\H,-2.9298288505,5.411630161,0.934018828\C,-4.187039
 5717,-4.7709959804,-0.576050225\H,-3.8570030949,-5.0839639352,-1.56688
 36283\H,-3.6598315872,-5.3675025112,0.1695607065\H,-5.2579486093,-4.91
 16356014,-0.4759300078\C,0.8710869857,0.5388019922,-0.2151451468\C,1.7
 571893065,0.3640889119,-1.2446197739\S,1.6947991807,1.0273208635,1.244
 3048031\C,3.101835572,0.6582311444,-0.8796590009\H,1.4483298119,0.0558
 310505,-2.2330845295\C,3.266522256,1.0393055141,0.4433995559\O,4.18646
 43348,0.5928658675,-1.7026285289\C,4.4882680649,1.3920565224,1.1272233
 742\C,3.9742737479,0.2062157735,-3.0639543142\C,4.6554601608,1.7608929
 838,2.455415636\S,6.0562859833,1.4122529463,0.3213362388\H,4.955508033
 5,0.2218836448,-3.5341348195\H,3.5563282101,-0.8024502538,-3.124630015
 8\H,3.313431566,0.9128254384,-3.5736401604\C,6.0027131367,2.0547369413
 ,2.8178981025\O,3.5734850386,1.8119757014,3.2826054807\C,6.8639650418,
 1.9088249059,1.7681026296\H,6.3168467813,2.3580736131,3.8060247997\C,3
 .7849260633,2.217720462,4.6382683895\H,7.9319901865,2.063595067,1.7578
 72857\H,4.1925410852,3.2314073371,4.6851788754\H,2.8051513266,2.197620
 9397,5.1112403853\H,4.4541254774,1.5244266119,5.1554335056\\Version=ES
 64L-G16RevC.01\State=2-A\HF=-2359.5039363\S2=0.757665\S2-1=0.\S2A=0.75
 0049\RMSD=2.747e-09\RMSF=6.836e-05\Dipole=5.5162262,0.8777344,0.742942
 7\Quadrupole=-31.0876843,-12.3818528,43.4695371,-3.850513,6.2700413,2.
 6059801\PG=C01 [X(C26H18N2O6S2)]\\@
 The archive entry for this job was punched.


 PATIENCE IS THE ABILITY TO IDLE YOUR MOTOR WHEN
 YOU FEEL LIKE STRIPPING YOUR GEARS.
 Job cpu time:       6 days 10 hours  8 minutes  5.5 seconds.
 Elapsed time:       0 days  9 hours 43 minutes 57.6 seconds.
 File lengths (MBytes):  RWF=   1198 Int=      0 D2E=      0 Chk=     83 Scr=      1
 Normal termination of Gaussian 16 at Thu Oct 28 09:36:43 2021.
