 Entering Gaussian System, Link 0=g16
 Input=NDI_-175.gjf
 Output=NDI_-175.log
 Initial command:
 /apps/gaussian/g16-c01-avx/g16/l1.exe "/tmp/pbs.4768648[0].pbs/Gau-2096781.inp" -scrdir="/tmp/pbs.4768648[0].pbs/"
 Entering Link 1 = /apps/gaussian/g16-c01-avx/g16/l1.exe PID=   2096782.
  
 Copyright (c) 1988-2019, Gaussian, Inc.  All Rights Reserved.
  
 This is part of the Gaussian(R) 16 program.  It is based on
 the Gaussian(R) 09 system (copyright 2009, Gaussian, Inc.),
 the Gaussian(R) 03 system (copyright 2003, Gaussian, Inc.),
 the Gaussian(R) 98 system (copyright 1998, Gaussian, Inc.),
 the Gaussian(R) 94 system (copyright 1995, Gaussian, Inc.),
 the Gaussian 92(TM) system (copyright 1992, Gaussian, Inc.),
 the Gaussian 90(TM) system (copyright 1990, Gaussian, Inc.),
 the Gaussian 88(TM) system (copyright 1988, Gaussian, Inc.),
 the Gaussian 86(TM) system (copyright 1986, Carnegie Mellon
 University), and the Gaussian 82(TM) system (copyright 1983,
 Carnegie Mellon University). Gaussian is a federally registered
 trademark of Gaussian, Inc.
  
 This software contains proprietary and confidential information,
 including trade secrets, belonging to Gaussian, Inc.
  
 This software is provided under written license and may be
 used, copied, transmitted, or stored only in accord with that
 written license.
  
 The following legend is applicable only to US Government
 contracts under FAR:
  
                    RESTRICTED RIGHTS LEGEND
  
 Use, reproduction and disclosure by the US Government is
 subject to restrictions as set forth in subparagraphs (a)
 and (c) of the Commercial Computer Software - Restricted
 Rights clause in FAR 52.227-19.
  
 Gaussian, Inc.
 340 Quinnipiac St., Bldg. 40, Wallingford CT 06492
  
  
 ---------------------------------------------------------------
 Warning -- This program may not be used in any manner that
 competes with the business of Gaussian, Inc. or will provide
 assistance to any competitor of Gaussian, Inc.  The licensee
 of this program is prohibited from giving any competitor of
 Gaussian, Inc. access to this program.  By using this program,
 the user acknowledges that Gaussian, Inc. is engaged in the
 business of creating and licensing software in the field of
 computational chemistry and represents and warrants to the
 licensee that it is not a competitor of Gaussian, Inc. and that
 it will not use this program in any manner prohibited above.
 ---------------------------------------------------------------
  

 Cite this work as:
 Gaussian 16, Revision C.01,
 M. J. Frisch, G. W. Trucks, H. B. Schlegel, G. E. Scuseria, 
 M. A. Robb, J. R. Cheeseman, G. Scalmani, V. Barone, 
 G. A. Petersson, H. Nakatsuji, X. Li, M. Caricato, A. V. Marenich, 
 J. Bloino, B. G. Janesko, R. Gomperts, B. Mennucci, H. P. Hratchian, 
 J. V. Ortiz, A. F. Izmaylov, J. L. Sonnenberg, D. Williams-Young, 
 F. Ding, F. Lipparini, F. Egidi, J. Goings, B. Peng, A. Petrone, 
 T. Henderson, D. Ranasinghe, V. G. Zakrzewski, J. Gao, N. Rega, 
 G. Zheng, W. Liang, M. Hada, M. Ehara, K. Toyota, R. Fukuda, 
 J. Hasegawa, M. Ishida, T. Nakajima, Y. Honda, O. Kitao, H. Nakai, 
 T. Vreven, K. Throssell, J. A. Montgomery, Jr., J. E. Peralta, 
 F. Ogliaro, M. J. Bearpark, J. J. Heyd, E. N. Brothers, K. N. Kudin, 
 V. N. Staroverov, T. A. Keith, R. Kobayashi, J. Normand, 
 K. Raghavachari, A. P. Rendell, J. C. Burant, S. S. Iyengar, 
 J. Tomasi, M. Cossi, J. M. Millam, M. Klene, C. Adamo, R. Cammi, 
 J. W. Ochterski, R. L. Martin, K. Morokuma, O. Farkas, 
 J. B. Foresman, and D. J. Fox, Gaussian, Inc., Wallingford CT, 2019.
 
 ******************************************
 Gaussian 16:  ES64L-G16RevC.01  3-Jul-2019
                27-Oct-2021 
 ******************************************
 %mem=100GB
 %nprocshared=16
 Will use up to   16 processors via shared memory.
 ---------------------------------------------------------------
 # opt=modredundant b3lyp/6-311+g(d,p) scrf=(pcm, solvent=water)
 ---------------------------------------------------------------
 1/18=120,19=15,26=3,38=1/1,3;
 2/9=110,12=2,17=6,18=5,40=1/2;
 3/5=4,6=6,7=111,11=2,25=1,30=1,70=2201,71=1,72=1,74=-5/1,2,3;
 4//1;
 5/5=2,38=5,53=1/2;
 6/7=2,8=2,9=2,10=2,28=1/1;
 7//1,2,3,16;
 1/18=20,19=15,26=3/3(2);
 2/9=110/2;
 99//99;
 2/9=110/2;
 3/5=4,6=6,7=111,11=2,25=1,30=1,70=2205,71=1,72=1,74=-5/1,2,3;
 4/5=5,16=3,69=1/1;
 5/5=2,38=5,53=1/2;
 7//1,2,3,16;
 1/18=20,19=15,26=3/3(-5);
 2/9=110/2;
 6/7=2,8=2,9=2,10=2,19=2,28=1/1;
 99/9=1/99;
 ------------
 NDI_-175.pdb
 ------------
 Symbolic Z-matrix:
 Charge = -1 Multiplicity = 2
 C                    -2.563    -2.994    -0.409 
 C                    -2.257    -1.551    -0.224 
 C                    -3.301    -0.607    -0.083 
 C                    -4.65     -1.024    -0.115 
 C                    -4.992    -2.459    -0.304 
 C                    -0.949    -1.137    -0.215 
 C                    -2.962     0.764     0.102 
 C                    -1.595     1.188     0.123 
 C                    -0.561     0.232    -0.072 
 C                    -1.328     2.616     0.446 
 C                    -3.777     3.115     0.508 
 C                    -4.035     1.679     0.268 
 C                    -5.356     1.252     0.23 
 C                    -5.672    -0.098     0.036 
 H                    -6.699    -0.442     0.008 
 H                    -6.133     1.997     0.361 
 H                    -0.19     -1.895    -0.369 
 N                    -2.432     3.476     0.608 
 N                    -3.916    -3.353    -0.438 
 O                    -1.695    -3.847    -0.532 
 O                    -6.149    -2.85     -0.34 
 O                    -4.676     3.938     0.629 
 O                    -0.212     3.097     0.596 
 C                    -2.111     4.875     0.912 
 H                    -1.54      4.931     1.84 
 H                    -1.5       5.299     0.111 
 H                    -3.05      5.414     1.003 
 C                    -4.206    -4.779    -0.625 
 H                    -3.759    -5.126    -1.559 
 H                    -3.775    -5.355     0.196 
 H                    -5.286    -4.897    -0.649 
 C                     0.876     0.482    -0.178 
 C                     1.924    -0.374    -0.456 
 S                     1.494     2.08      0.242 
 C                     3.191     0.232    -0.342 
 H                     1.778    -1.403    -0.741 
 C                     3.156     1.582     0.023 
 O                     4.395    -0.364    -0.55 
 C                     4.266     2.479     0.177 
 C                     4.39     -1.696    -1.057 
 C                     4.23      3.817     0.563 
 S                     5.936     2.       -0.113 
 H                     5.435    -1.955    -1.228 
 H                     3.956    -2.395    -0.333 
 H                     3.835    -1.758    -2.001 
 C                     5.509     4.441     0.624 
 O                     3.033     4.398     0.836 
 C                     6.515     3.577     0.284 
 H                     5.675     5.472     0.904 
 C                     3.031     5.757     1.262 
 H                     7.576     3.784     0.249 
 H                     3.444     6.416     0.488 
 H                     1.988     6.016     1.438 
 H                     3.6       5.883     2.19 
 
 The following ModRedundant input section has been read:
 D       8       9      32      33 F                                           
 

 GradGradGradGradGradGradGradGradGradGradGradGradGradGradGradGradGradGrad
 Berny optimization.
 Initialization pass.
                           ----------------------------
                           !    Initial Parameters    !
                           ! (Angstroms and Degrees)  !
 --------------------------                            --------------------------
 ! Name  Definition              Value          Derivative Info.                !
 --------------------------------------------------------------------------------
 ! R1    R(1,2)                  1.4866         estimate D2E/DX2                !
 ! R2    R(1,19)                 1.4001         estimate D2E/DX2                !
 ! R3    R(1,20)                 1.2232         estimate D2E/DX2                !
 ! R4    R(2,3)                  1.4146         estimate D2E/DX2                !
 ! R5    R(2,6)                  1.372          estimate D2E/DX2                !
 ! R6    R(3,4)                  1.4123         estimate D2E/DX2                !
 ! R7    R(3,7)                  1.4244         estimate D2E/DX2                !
 ! R8    R(4,5)                  1.4872         estimate D2E/DX2                !
 ! R9    R(4,14)                 1.3874         estimate D2E/DX2                !
 ! R10   R(5,19)                 1.4053         estimate D2E/DX2                !
 ! R11   R(5,21)                 1.2218         estimate D2E/DX2                !
 ! R12   R(6,9)                  1.4301         estimate D2E/DX2                !
 ! R13   R(6,17)                 1.0837         estimate D2E/DX2                !
 ! R14   R(7,8)                  1.4314         estimate D2E/DX2                !
 ! R15   R(7,12)                 1.4199         estimate D2E/DX2                !
 ! R16   R(8,9)                  1.4217         estimate D2E/DX2                !
 ! R17   R(8,10)                 1.4882         estimate D2E/DX2                !
 ! R18   R(9,32)                 1.4624         estimate D2E/DX2                !
 ! R19   R(10,18)                1.4088         estimate D2E/DX2                !
 ! R20   R(10,23)                1.2245         estimate D2E/DX2                !
 ! R21   R(11,12)                1.4786         estimate D2E/DX2                !
 ! R22   R(11,18)                1.3962         estimate D2E/DX2                !
 ! R23   R(11,22)                1.2248         estimate D2E/DX2                !
 ! R24   R(12,13)                1.3888         estimate D2E/DX2                !
 ! R25   R(13,14)                1.4            estimate D2E/DX2                !
 ! R26   R(13,16)                1.0844         estimate D2E/DX2                !
 ! R27   R(14,15)                1.0834         estimate D2E/DX2                !
 ! R28   R(18,24)                1.4672         estimate D2E/DX2                !
 ! R29   R(19,28)                1.4672         estimate D2E/DX2                !
 ! R30   R(24,25)                1.091          estimate D2E/DX2                !
 ! R31   R(24,26)                1.093          estimate D2E/DX2                !
 ! R32   R(24,27)                1.0865         estimate D2E/DX2                !
 ! R33   R(28,29)                1.0921         estimate D2E/DX2                !
 ! R34   R(28,30)                1.0916         estimate D2E/DX2                !
 ! R35   R(28,31)                1.0867         estimate D2E/DX2                !
 ! R36   R(32,33)                1.3814         estimate D2E/DX2                !
 ! R37   R(32,34)                1.7641         estimate D2E/DX2                !
 ! R38   R(33,35)                1.4091         estimate D2E/DX2                !
 ! R39   R(33,36)                1.0777         estimate D2E/DX2                !
 ! R40   R(34,37)                1.7488         estimate D2E/DX2                !
 ! R41   R(35,37)                1.3989         estimate D2E/DX2                !
 ! R42   R(35,38)                1.3594         estimate D2E/DX2                !
 ! R43   R(37,39)                1.4354         estimate D2E/DX2                !
 ! R44   R(38,40)                1.4252         estimate D2E/DX2                !
 ! R45   R(39,41)                1.393          estimate D2E/DX2                !
 ! R46   R(39,42)                1.7614         estimate D2E/DX2                !
 ! R47   R(40,43)                1.0901         estimate D2E/DX2                !
 ! R48   R(40,44)                1.096          estimate D2E/DX2                !
 ! R49   R(40,45)                1.0968         estimate D2E/DX2                !
 ! R50   R(41,46)                1.4244         estimate D2E/DX2                !
 ! R51   R(41,47)                1.3583         estimate D2E/DX2                !
 ! R52   R(42,48)                1.7262         estimate D2E/DX2                !
 ! R53   R(46,48)                1.369          estimate D2E/DX2                !
 ! R54   R(46,49)                1.0812         estimate D2E/DX2                !
 ! R55   R(47,50)                1.4242         estimate D2E/DX2                !
 ! R56   R(48,51)                1.0816         estimate D2E/DX2                !
 ! R57   R(50,52)                1.0972         estimate D2E/DX2                !
 ! R58   R(50,53)                1.089          estimate D2E/DX2                !
 ! R59   R(50,54)                1.0958         estimate D2E/DX2                !
 ! A1    A(2,1,19)             116.767          estimate D2E/DX2                !
 ! A2    A(2,1,20)             122.9113         estimate D2E/DX2                !
 ! A3    A(19,1,20)            120.3217         estimate D2E/DX2                !
 ! A4    A(1,2,3)              120.5473         estimate D2E/DX2                !
 ! A5    A(1,2,6)              119.3369         estimate D2E/DX2                !
 ! A6    A(3,2,6)              120.1056         estimate D2E/DX2                !
 ! A7    A(2,3,4)              120.3743         estimate D2E/DX2                !
 ! A8    A(2,3,7)              118.662          estimate D2E/DX2                !
 ! A9    A(4,3,7)              120.9617         estimate D2E/DX2                !
 ! A10   A(3,4,5)              120.4909         estimate D2E/DX2                !
 ! A11   A(3,4,14)             120.2702         estimate D2E/DX2                !
 ! A12   A(5,4,14)             119.2382         estimate D2E/DX2                !
 ! A13   A(4,5,19)             116.7341         estimate D2E/DX2                !
 ! A14   A(4,5,21)             122.024          estimate D2E/DX2                !
 ! A15   A(19,5,21)            121.2418         estimate D2E/DX2                !
 ! A16   A(2,6,9)              123.2421         estimate D2E/DX2                !
 ! A17   A(2,6,17)             117.1119         estimate D2E/DX2                !
 ! A18   A(9,6,17)             119.589          estimate D2E/DX2                !
 ! A19   A(3,7,8)              120.9519         estimate D2E/DX2                !
 ! A20   A(3,7,12)             117.1037         estimate D2E/DX2                !
 ! A21   A(8,7,12)             121.944          estimate D2E/DX2                !
 ! A22   A(7,8,9)              119.5639         estimate D2E/DX2                !
 ! A23   A(7,8,10)             117.3064         estimate D2E/DX2                !
 ! A24   A(9,8,10)             122.9922         estimate D2E/DX2                !
 ! A25   A(6,9,8)              117.3944         estimate D2E/DX2                !
 ! A26   A(6,9,32)             115.0236         estimate D2E/DX2                !
 ! A27   A(8,9,32)             127.5648         estimate D2E/DX2                !
 ! A28   A(8,10,18)            118.042          estimate D2E/DX2                !
 ! A29   A(8,10,23)            124.5436         estimate D2E/DX2                !
 ! A30   A(18,10,23)           117.4097         estimate D2E/DX2                !
 ! A31   A(12,11,18)           115.5202         estimate D2E/DX2                !
 ! A32   A(12,11,22)           122.7205         estimate D2E/DX2                !
 ! A33   A(18,11,22)           121.7534         estimate D2E/DX2                !
 ! A34   A(7,12,11)            120.8614         estimate D2E/DX2                !
 ! A35   A(7,12,13)            121.162          estimate D2E/DX2                !
 ! A36   A(11,12,13)           117.9699         estimate D2E/DX2                !
 ! A37   A(12,13,14)           120.9948         estimate D2E/DX2                !
 ! A38   A(12,13,16)           117.8401         estimate D2E/DX2                !
 ! A39   A(14,13,16)           121.1642         estimate D2E/DX2                !
 ! A40   A(4,14,13)            119.5003         estimate D2E/DX2                !
 ! A41   A(4,14,15)            118.9169         estimate D2E/DX2                !
 ! A42   A(13,14,15)           121.5811         estimate D2E/DX2                !
 ! A43   A(10,18,11)           126.0753         estimate D2E/DX2                !
 ! A44   A(10,18,24)           115.7508         estimate D2E/DX2                !
 ! A45   A(11,18,24)           118.1737         estimate D2E/DX2                !
 ! A46   A(1,19,5)             125.0856         estimate D2E/DX2                !
 ! A47   A(1,19,28)            116.2868         estimate D2E/DX2                !
 ! A48   A(5,19,28)            118.6276         estimate D2E/DX2                !
 ! A49   A(18,24,25)           109.8574         estimate D2E/DX2                !
 ! A50   A(18,24,26)           109.8979         estimate D2E/DX2                !
 ! A51   A(18,24,27)           107.5355         estimate D2E/DX2                !
 ! A52   A(25,24,26)           108.1108         estimate D2E/DX2                !
 ! A53   A(25,24,27)           110.8301         estimate D2E/DX2                !
 ! A54   A(26,24,27)           110.6124         estimate D2E/DX2                !
 ! A55   A(19,28,29)           109.6906         estimate D2E/DX2                !
 ! A56   A(19,28,30)           109.8136         estimate D2E/DX2                !
 ! A57   A(19,28,31)           107.7461         estimate D2E/DX2                !
 ! A58   A(29,28,30)           108.2991         estimate D2E/DX2                !
 ! A59   A(29,28,31)           110.6959         estimate D2E/DX2                !
 ! A60   A(30,28,31)           110.5924         estimate D2E/DX2                !
 ! A61   A(9,32,33)            130.8518         estimate D2E/DX2                !
 ! A62   A(9,32,34)            118.8052         estimate D2E/DX2                !
 ! A63   A(33,32,34)           110.0878         estimate D2E/DX2                !
 ! A64   A(32,33,35)           113.5387         estimate D2E/DX2                !
 ! A65   A(32,33,36)           122.8272         estimate D2E/DX2                !
 ! A66   A(35,33,36)           123.6318         estimate D2E/DX2                !
 ! A67   A(32,34,37)            92.5886         estimate D2E/DX2                !
 ! A68   A(33,35,37)           114.4338         estimate D2E/DX2                !
 ! A69   A(33,35,38)           126.5429         estimate D2E/DX2                !
 ! A70   A(37,35,38)           119.0233         estimate D2E/DX2                !
 ! A71   A(34,37,35)           109.3457         estimate D2E/DX2                !
 ! A72   A(34,37,39)           122.9245         estimate D2E/DX2                !
 ! A73   A(35,37,39)           127.7127         estimate D2E/DX2                !
 ! A74   A(35,38,40)           117.4552         estimate D2E/DX2                !
 ! A75   A(37,39,41)           127.5868         estimate D2E/DX2                !
 ! A76   A(37,39,42)           123.0638         estimate D2E/DX2                !
 ! A77   A(41,39,42)           109.3494         estimate D2E/DX2                !
 ! A78   A(38,40,43)           105.9314         estimate D2E/DX2                !
 ! A79   A(38,40,44)           111.2516         estimate D2E/DX2                !
 ! A80   A(38,40,45)           111.1476         estimate D2E/DX2                !
 ! A81   A(43,40,44)           109.3722         estimate D2E/DX2                !
 ! A82   A(43,40,45)           109.6717         estimate D2E/DX2                !
 ! A83   A(44,40,45)           109.3984         estimate D2E/DX2                !
 ! A84   A(39,41,46)           114.1692         estimate D2E/DX2                !
 ! A85   A(39,41,47)           119.2959         estimate D2E/DX2                !
 ! A86   A(46,41,47)           126.5348         estimate D2E/DX2                !
 ! A87   A(39,42,48)            91.8172         estimate D2E/DX2                !
 ! A88   A(41,46,48)           111.8833         estimate D2E/DX2                !
 ! A89   A(41,46,49)           124.5208         estimate D2E/DX2                !
 ! A90   A(48,46,49)           123.5959         estimate D2E/DX2                !
 ! A91   A(41,47,50)           118.0033         estimate D2E/DX2                !
 ! A92   A(42,48,46)           112.7809         estimate D2E/DX2                !
 ! A93   A(42,48,51)           119.7649         estimate D2E/DX2                !
 ! A94   A(46,48,51)           127.4537         estimate D2E/DX2                !
 ! A95   A(47,50,52)           111.197          estimate D2E/DX2                !
 ! A96   A(47,50,53)           106.0593         estimate D2E/DX2                !
 ! A97   A(47,50,54)           111.2412         estimate D2E/DX2                !
 ! A98   A(52,50,53)           109.3699         estimate D2E/DX2                !
 ! A99   A(52,50,54)           109.4434         estimate D2E/DX2                !
 ! A100  A(53,50,54)           109.4572         estimate D2E/DX2                !
 ! D1    D(19,1,2,3)             0.1578         estimate D2E/DX2                !
 ! D2    D(19,1,2,6)          -178.6792         estimate D2E/DX2                !
 ! D3    D(20,1,2,3)          -179.8231         estimate D2E/DX2                !
 ! D4    D(20,1,2,6)             1.3399         estimate D2E/DX2                !
 ! D5    D(2,1,19,5)            -0.124          estimate D2E/DX2                !
 ! D6    D(2,1,19,28)          179.8267         estimate D2E/DX2                !
 ! D7    D(20,1,19,5)          179.8575         estimate D2E/DX2                !
 ! D8    D(20,1,19,28)          -0.1919         estimate D2E/DX2                !
 ! D9    D(1,2,3,4)              0.0571         estimate D2E/DX2                !
 ! D10   D(1,2,3,7)            179.5453         estimate D2E/DX2                !
 ! D11   D(6,2,3,4)            178.8851         estimate D2E/DX2                !
 ! D12   D(6,2,3,7)             -1.6266         estimate D2E/DX2                !
 ! D13   D(1,2,6,9)            178.625          estimate D2E/DX2                !
 ! D14   D(1,2,6,17)             1.3881         estimate D2E/DX2                !
 ! D15   D(3,2,6,9)             -0.2173         estimate D2E/DX2                !
 ! D16   D(3,2,6,17)          -177.4541         estimate D2E/DX2                !
 ! D17   D(2,3,4,5)             -0.3074         estimate D2E/DX2                !
 ! D18   D(2,3,4,14)           179.3968         estimate D2E/DX2                !
 ! D19   D(7,3,4,5)           -179.7837         estimate D2E/DX2                !
 ! D20   D(7,3,4,14)            -0.0795         estimate D2E/DX2                !
 ! D21   D(2,3,7,8)              1.0523         estimate D2E/DX2                !
 ! D22   D(2,3,7,12)          -178.712          estimate D2E/DX2                !
 ! D23   D(4,3,7,8)           -179.4626         estimate D2E/DX2                !
 ! D24   D(4,3,7,12)             0.7731         estimate D2E/DX2                !
 ! D25   D(3,4,5,19)             0.3343         estimate D2E/DX2                !
 ! D26   D(3,4,5,21)          -179.7799         estimate D2E/DX2                !
 ! D27   D(14,4,5,19)         -179.3729         estimate D2E/DX2                !
 ! D28   D(14,4,5,21)            0.5129         estimate D2E/DX2                !
 ! D29   D(3,4,14,13)           -0.4559         estimate D2E/DX2                !
 ! D30   D(3,4,14,15)         -179.9937         estimate D2E/DX2                !
 ! D31   D(5,4,14,13)          179.252          estimate D2E/DX2                !
 ! D32   D(5,4,14,15)           -0.2858         estimate D2E/DX2                !
 ! D33   D(4,5,19,1)            -0.1141         estimate D2E/DX2                !
 ! D34   D(4,5,19,28)          179.9364         estimate D2E/DX2                !
 ! D35   D(21,5,19,1)          179.9992         estimate D2E/DX2                !
 ! D36   D(21,5,19,28)           0.0496         estimate D2E/DX2                !
 ! D37   D(2,6,9,8)              2.5984         estimate D2E/DX2                !
 ! D38   D(2,6,9,32)          -176.0103         estimate D2E/DX2                !
 ! D39   D(17,6,9,8)           179.77           estimate D2E/DX2                !
 ! D40   D(17,6,9,32)            1.1613         estimate D2E/DX2                !
 ! D41   D(3,7,8,9)              1.3551         estimate D2E/DX2                !
 ! D42   D(3,7,8,10)          -174.5099         estimate D2E/DX2                !
 ! D43   D(12,7,8,9)          -178.8921         estimate D2E/DX2                !
 ! D44   D(12,7,8,10)            5.2428         estimate D2E/DX2                !
 ! D45   D(3,7,12,11)          178.0768         estimate D2E/DX2                !
 ! D46   D(3,7,12,13)           -0.9621         estimate D2E/DX2                !
 ! D47   D(8,7,12,11)           -1.685          estimate D2E/DX2                !
 ! D48   D(8,7,12,13)          179.2761         estimate D2E/DX2                !
 ! D49   D(7,8,9,6)             -3.0809         estimate D2E/DX2                !
 ! D50   D(7,8,9,32)           175.3285         estimate D2E/DX2                !
 ! D51   D(10,8,9,6)           172.5381         estimate D2E/DX2                !
 ! D52   D(10,8,9,32)           -9.0525         estimate D2E/DX2                !
 ! D53   D(7,8,10,18)           -4.7549         estimate D2E/DX2                !
 ! D54   D(7,8,10,23)          174.4235         estimate D2E/DX2                !
 ! D55   D(9,8,10,18)          179.5335         estimate D2E/DX2                !
 ! D56   D(9,8,10,23)           -1.2882         estimate D2E/DX2                !
 ! D57   D(6,9,32,33)            3.4533         estimate D2E/DX2                !
 ! D58   D(6,9,32,34)         -170.1093         estimate D2E/DX2                !
 ! D59   D(8,9,32,33)         -174.9882         Frozen                          !
 ! D60   D(8,9,32,34)           11.4492         estimate D2E/DX2                !
 ! D61   D(8,10,18,11)           0.7189         estimate D2E/DX2                !
 ! D62   D(8,10,18,24)        -179.4089         estimate D2E/DX2                !
 ! D63   D(23,10,18,11)       -178.5188         estimate D2E/DX2                !
 ! D64   D(23,10,18,24)          1.3535         estimate D2E/DX2                !
 ! D65   D(18,11,12,7)          -2.3856         estimate D2E/DX2                !
 ! D66   D(18,11,12,13)        176.6833         estimate D2E/DX2                !
 ! D67   D(22,11,12,7)         178.4862         estimate D2E/DX2                !
 ! D68   D(22,11,12,13)         -2.445          estimate D2E/DX2                !
 ! D69   D(12,11,18,10)          2.8444         estimate D2E/DX2                !
 ! D70   D(12,11,18,24)       -177.0251         estimate D2E/DX2                !
 ! D71   D(22,11,18,10)       -178.0181         estimate D2E/DX2                !
 ! D72   D(22,11,18,24)          2.1124         estimate D2E/DX2                !
 ! D73   D(7,12,13,14)           0.461          estimate D2E/DX2                !
 ! D74   D(7,12,13,16)        -179.8781         estimate D2E/DX2                !
 ! D75   D(11,12,13,14)       -178.6049         estimate D2E/DX2                !
 ! D76   D(11,12,13,16)          1.056          estimate D2E/DX2                !
 ! D77   D(12,13,14,4)           0.2708         estimate D2E/DX2                !
 ! D78   D(12,13,14,15)        179.7958         estimate D2E/DX2                !
 ! D79   D(16,13,14,4)        -179.3788         estimate D2E/DX2                !
 ! D80   D(16,13,14,15)          0.1463         estimate D2E/DX2                !
 ! D81   D(10,18,24,25)        -59.609          estimate D2E/DX2                !
 ! D82   D(10,18,24,26)         59.2209         estimate D2E/DX2                !
 ! D83   D(10,18,24,27)        179.6858         estimate D2E/DX2                !
 ! D84   D(11,18,24,25)        120.2739         estimate D2E/DX2                !
 ! D85   D(11,18,24,26)       -120.8962         estimate D2E/DX2                !
 ! D86   D(11,18,24,27)         -0.4313         estimate D2E/DX2                !
 ! D87   D(1,19,28,29)         -58.1407         estimate D2E/DX2                !
 ! D88   D(1,19,28,30)          60.7668         estimate D2E/DX2                !
 ! D89   D(1,19,28,31)        -178.7139         estimate D2E/DX2                !
 ! D90   D(5,19,28,29)         121.8132         estimate D2E/DX2                !
 ! D91   D(5,19,28,30)        -119.2792         estimate D2E/DX2                !
 ! D92   D(5,19,28,31)           1.2401         estimate D2E/DX2                !
 ! D93   D(9,32,33,35)        -174.2334         estimate D2E/DX2                !
 ! D94   D(9,32,33,36)           6.3008         estimate D2E/DX2                !
 ! D95   D(34,32,33,35)         -0.238          estimate D2E/DX2                !
 ! D96   D(34,32,33,36)       -179.7037         estimate D2E/DX2                !
 ! D97   D(9,32,34,37)         175.35           estimate D2E/DX2                !
 ! D98   D(33,32,34,37)          0.5308         estimate D2E/DX2                !
 ! D99   D(32,33,35,37)         -0.2925         estimate D2E/DX2                !
 ! D100  D(32,33,35,38)        179.7416         estimate D2E/DX2                !
 ! D101  D(36,33,35,37)        179.1683         estimate D2E/DX2                !
 ! D102  D(36,33,35,38)         -0.7976         estimate D2E/DX2                !
 ! D103  D(32,34,37,35)         -0.6798         estimate D2E/DX2                !
 ! D104  D(32,34,37,39)        177.9187         estimate D2E/DX2                !
 ! D105  D(33,35,37,34)          0.6793         estimate D2E/DX2                !
 ! D106  D(33,35,37,39)       -177.8337         estimate D2E/DX2                !
 ! D107  D(38,35,37,34)       -179.352          estimate D2E/DX2                !
 ! D108  D(38,35,37,39)          2.135          estimate D2E/DX2                !
 ! D109  D(33,35,38,40)          6.4665         estimate D2E/DX2                !
 ! D110  D(37,35,38,40)       -173.498          estimate D2E/DX2                !
 ! D111  D(34,37,39,41)          2.8785         estimate D2E/DX2                !
 ! D112  D(34,37,39,42)       -177.169          estimate D2E/DX2                !
 ! D113  D(35,37,39,41)       -178.7931         estimate D2E/DX2                !
 ! D114  D(35,37,39,42)          1.1594         estimate D2E/DX2                !
 ! D115  D(35,38,40,43)        175.4611         estimate D2E/DX2                !
 ! D116  D(35,38,40,44)        -65.7793         estimate D2E/DX2                !
 ! D117  D(35,38,40,45)         56.398          estimate D2E/DX2                !
 ! D118  D(37,39,41,46)        179.9708         estimate D2E/DX2                !
 ! D119  D(37,39,41,47)         -0.1738         estimate D2E/DX2                !
 ! D120  D(42,39,41,46)          0.013          estimate D2E/DX2                !
 ! D121  D(42,39,41,47)        179.8684         estimate D2E/DX2                !
 ! D122  D(37,39,42,48)       -179.9925         estimate D2E/DX2                !
 ! D123  D(41,39,42,48)         -0.0324         estimate D2E/DX2                !
 ! D124  D(39,41,46,48)          0.0207         estimate D2E/DX2                !
 ! D125  D(39,41,46,49)       -179.9777         estimate D2E/DX2                !
 ! D126  D(47,41,46,48)       -179.8224         estimate D2E/DX2                !
 ! D127  D(47,41,46,49)          0.1792         estimate D2E/DX2                !
 ! D128  D(39,41,47,50)        178.3837         estimate D2E/DX2                !
 ! D129  D(46,41,47,50)         -1.7804         estimate D2E/DX2                !
 ! D130  D(39,42,48,46)          0.0455         estimate D2E/DX2                !
 ! D131  D(39,42,48,51)        179.8075         estimate D2E/DX2                !
 ! D132  D(41,46,48,42)         -0.0458         estimate D2E/DX2                !
 ! D133  D(41,46,48,51)       -179.7855         estimate D2E/DX2                !
 ! D134  D(49,46,48,42)        179.9526         estimate D2E/DX2                !
 ! D135  D(49,46,48,51)          0.2129         estimate D2E/DX2                !
 ! D136  D(41,47,50,52)         62.0087         estimate D2E/DX2                !
 ! D137  D(41,47,50,53)       -179.1871         estimate D2E/DX2                !
 ! D138  D(41,47,50,54)        -60.2539         estimate D2E/DX2                !
 --------------------------------------------------------------------------------
 Trust Radius=3.00D-01 FncErr=1.00D-07 GrdErr=1.00D-06 EigMax=2.50D+02 EigMin=1.00D-04
 Number of steps in this run=    307 maximum allowed number of steps=    324.
 GradGradGradGradGradGradGradGradGradGradGradGradGradGradGradGradGradGrad

 Stoichiometry    C26H18N2O6S2(1-,2)
 Framework group  C1[X(C26H18N2O6S2)]
 Deg. of freedom   156
 Full point group                 C1      NOp   1
 Largest Abelian subgroup         C1      NOp   1
 Largest concise Abelian subgroup C1      NOp   1
                         Standard orientation:                         
 ---------------------------------------------------------------------
 Center     Atomic      Atomic             Coordinates (Angstroms)
 Number     Number       Type             X           Y           Z
 ---------------------------------------------------------------------
      1          6           0       -3.865666   -2.539351    0.171612
      2          6           0       -2.967068   -1.357925    0.088759
      3          6           0       -3.502995   -0.052254   -0.005893
      4          6           0       -4.901210    0.146384   -0.021734
      5          6           0       -5.829097   -1.013449    0.053916
      6          6           0       -1.608098   -1.546277    0.080663
      7          6           0       -2.605240    1.051507   -0.073237
      8          6           0       -1.188208    0.849256   -0.068660
      9          6           0       -0.668566   -0.473314   -0.025089
     10          6           0       -0.325796    2.060948   -0.015262
     11          6           0       -2.324340    3.555138   -0.169103
     12          6           0       -3.178744    2.348756   -0.139185
     13          6           0       -4.556148    2.525481   -0.157622
     14          6           0       -5.424524    1.428747   -0.102046
     15          1           0       -6.500439    1.555807   -0.112543
     16          1           0       -4.935910    3.539816   -0.210729
     17          1           0       -1.251053   -2.568941    0.112876
     18          7           0       -0.950908    3.321982   -0.075994
     19          7           0       -5.242671   -2.287164    0.147308
     20          8           0       -3.449344   -3.686262    0.257824
     21          8           0       -7.042853   -0.874229    0.038393
     22          8           0       -2.781541    4.688321   -0.252971
     23          8           0        0.893746    2.040962    0.092603
     24          6           0       -0.052792    4.481378   -0.033004
     25          1           0        0.523847    4.469341    0.893119
     26          1           0        0.648431    4.439997   -0.870423
     27          1           0       -0.668315    5.374696   -0.093309
     28          6           0       -6.119645   -3.460756    0.225687
     29          1           0       -5.900350   -4.139831   -0.600958
     30          1           0       -5.943002   -3.992759    1.162355
     31          1           0       -7.147033   -3.110637    0.172871
     32          6           0        0.732594   -0.883906   -0.107958
     33          6           0        1.304209   -2.140249   -0.164375
     34         16           0        1.988514    0.347771    0.024572
     35          6           0        2.712060   -2.120973   -0.108665
     36          1           0        0.722636   -3.043305   -0.251818
     37          6           0        3.269938   -0.841643   -0.013601
     38          8           0        3.538201   -3.200164   -0.139213
     39          6           0        4.661427   -0.490620    0.017488
     40          6           0        2.946225   -4.474308   -0.378839
     41          6           0        5.214118    0.782629    0.135402
     42         16           0        5.955369   -1.680505   -0.093549
     43          1           0        3.773673   -5.180831   -0.445936
     44          1           0        2.284795   -4.766259    0.444817
     45          1           0        2.380859   -4.477499   -1.318709
     46          6           0        6.638389    0.802364    0.136275
     47          8           0        4.390483    1.858278    0.232884
     48          6           0        7.166183   -0.455301    0.018620
     49          1           0        7.238693    1.697710    0.219396
     50          6           0        4.984433    3.143445    0.387577
     51          1           0        8.211980   -0.730202   -0.004501
     52          1           0        5.607866    3.399208   -0.478358
     53          1           0        4.158991    3.850095    0.459670
     54          1           0        5.589084    3.194127    1.300074
 ---------------------------------------------------------------------
 Rotational constants (GHZ):           0.1750713           0.0587304           0.0441219
 Standard basis: 6-311+G(d,p) (5D, 7F)
 There are   952 symmetry adapted cartesian basis functions of A   symmetry.
 There are   916 symmetry adapted basis functions of A   symmetry.
   916 basis functions,  1468 primitive gaussians,   952 cartesian basis functions
   135 alpha electrons      134 beta electrons
       nuclear repulsion energy      4130.5131432268 Hartrees.
 NAtoms=   54 NActive=   54 NUniq=   54 SFac= 1.00D+00 NAtFMM=   60 NAOKFM=F Big=F
 Integral buffers will be    131072 words long.
 Raffenetti 2 integral format.
 Two-electron integral symmetry is turned on.
 ------------------------------------------------------------------------------
 Polarizable Continuum Model (PCM)
 =================================
 Model                : PCM.
 Atomic radii         : UFF (Universal Force Field).
 Polarization charges : Total charges.
 Charge compensation  : None.
 Solution method      : On-the-fly selection.
 Cavity type          : Scaled VdW (van der Waals Surface) (Alpha=1.100).
 Cavity algorithm     : GePol (No added spheres)
                        Default sphere list used, NSphG=   54.
                        Lebedev-Laikov grids with approx.  5.0 points / Ang**2.
                        Smoothing algorithm: York/Karplus (Gamma=1.0000).
                        Polarization charges: spherical gaussians, with
                                              point-specific exponents (IZeta= 3).
                        Self-potential: point-specific (ISelfS= 7).
                        Self-field    : sphere-specific E.n sum rule (ISelfD= 2).
 1st derivatives      : Analytical E(r).r(x)/FMM algorithm (CHGder, D1EAlg=3).
                        Cavity 1st derivative terms included.
 Solvent              : Water, Eps=  78.355300 Eps(inf)=   1.777849
 ------------------------------------------------------------------------------
 One-electron integrals computed using PRISM.
 NBasis=   916 RedAO= T EigKep=  1.06D-06  NBF=   916
 NBsUse=   901 1.00D-06 EigRej=  5.95D-07 NBFU=   901
 ExpMin= 4.05D-02 ExpMax= 9.34D+04 ExpMxC= 3.17D+03 IAcc=3 IRadAn=         5 AccDes= 0.00D+00
 Harris functional with IExCor=  402 and IRadAn=       5 diagonalized for initial guess.
 HarFok:  IExCor=  402 AccDes= 0.00D+00 IRadAn=         5 IDoV= 1 UseB2=F ITyADJ=14
 ICtDFT=  3500011 ScaDFX=  1.000000  1.000000  1.000000  1.000000
 FoFCou: FMM=F IPFlag=           0 FMFlag=      100000 FMFlg1=           0
         NFxFlg=           0 DoJE=T BraDBF=F KetDBF=T FulRan=T
         wScrn=  0.000000 ICntrl=       500 IOpCl=  0 I1Cent=   200000004 NGrid=           0
         NMat0=    1 NMatS0=      1 NMatT0=    0 NMatD0=    1 NMtDS0=    0 NMtDT0=    0
 Petite list used in FoFCou.
 Initial guess <Sx>= 0.0000 <Sy>= 0.0000 <Sz>= 0.5000 <S**2>= 0.7500 S= 0.5000
 Requested convergence on RMS density matrix=1.00D-08 within 128 cycles.
 Requested convergence on MAX density matrix=1.00D-06.
 Requested convergence on             energy=1.00D-06.
 No special actions if energy rises.
 Inv3:  Mode=1 IEnd=    52041675.
 Iteration    1 A*A^-1 deviation from unit magnitude is 6.00D-15 for   4153.
 Iteration    1 A*A^-1 deviation from orthogonality  is 2.22D-15 for   4142   1844.
 Iteration    1 A^-1*A deviation from unit magnitude is 6.22D-15 for   4143.
 Iteration    1 A^-1*A deviation from orthogonality  is 5.17D-13 for   1256   1228.
 Restarting incremental Fock formation.
 Error on total polarization charges =  0.02687
 SCF Done:  E(UB3LYP) =  -2359.44956289     A.U. after   22 cycles
            NFock= 22  Conv=0.40D-08     -V/T= 2.0029
 <Sx>= 0.0000 <Sy>= 0.0000 <Sz>= 0.5000 <S**2>= 0.7575 S= 0.5038
 <L.S>=  0.00000000000    
 Annihilation of the first spin contaminant:
 S**2 before annihilation     0.7575,   after     0.7500

 **********************************************************************

            Population analysis using the SCF Density.

 **********************************************************************

 Orbital symmetries:
 Alpha Orbitals:
       Occupied  (A) (A) (A) (A) (A) (A) (A) (A) (A) (A) (A) (A)
                 (A) (A) (A) (A) (A) (A) (A) (A) (A) (A) (A) (A)
                 (A) (A) (A) (A) (A) (A) (A) (A) (A) (A) (A) (A)
                 (A) (A) (A) (A) (A) (A) (A) (A) (A) (A) (A) (A)
                 (A) (A) (A) (A) (A) (A) (A) (A) (A) (A) (A) (A)
                 (A) (A) (A) (A) (A) (A) (A) (A) (A) (A) (A) (A)
                 (A) (A) (A) (A) (A) (A) (A) (A) (A) (A) (A) (A)
                 (A) (A) (A) (A) (A) (A) (A) (A) (A) (A) (A) (A)
                 (A) (A) (A) (A) (A) (A) (A) (A) (A) (A) (A) (A)
                 (A) (A) (A) (A) (A) (A) (A) (A) (A) (A) (A) (A)
                 (A) (A) (A) (A) (A) (A) (A) (A) (A) (A) (A) (A)
                 (A) (A) (A)
       Virtual   (A) (A) (A) (A) (A) (A) (A) (A) (A) (A) (A) (A)
                 (A) (A) (A) (A) (A) (A) (A) (A) (A) (A) (A) (A)
                 (A) (A) (A) (A) (A) (A) (A) (A) (A) (A) (A) (A)
                 (A) (A) (A) (A) (A) (A) (A) (A) (A) (A) (A) (A)
                 (A) (A) (A) (A) (A) (A) (A) (A) (A) (A) (A) (A)
                 (A) (A) (A) (A) (A) (A) (A) (A) (A) (A) (A) (A)
                 (A) (A) (A) (A) (A) (A) (A) (A) (A) (A) (A) (A)
                 (A) (A) (A) (A) (A) (A) (A) (A) (A) (A) (A) (A)
                 (A) (A) (A) (A) (A) (A) (A) (A) (A) (A) (A) (A)
                 (A) (A) (A) (A) (A) (A) (A) (A) (A) (A) (A) (A)
                 (A) (A) (A) (A) (A) (A) (A) (A) (A) (A) (A) (A)
                 (A) (A) (A) (A) (A) (A) (A) (A) (A) (A) (A) (A)
                 (A) (A) (A) (A) (A) (A) (A) (A) (A) (A) (A) (A)
                 (A) (A) (A) (A) (A) (A) (A) (A) (A) (A) (A) (A)
                 (A) (A) (A) (A) (A) (A) (A) (A) (A) (A) (A) (A)
                 (A) (A) (A) (A) (A) (A) (A) (A) (A) (A) (A) (A)
                 (A) (A) (A) (A) (A) (A) (A) (A) (A) (A) (A) (A)
                 (A) (A) (A) (A) (A) (A) (A) (A) (A) (A) (A) (A)
                 (A) (A) (A) (A) (A) (A) (A) (A) (A) (A) (A) (A)
                 (A) (A) (A) (A) (A) (A) (A) (A) (A) (A) (A) (A)
                 (A) (A) (A) (A) (A) (A) (A) (A) (A) (A) (A) (A)
                 (A) (A) (A) (A) (A) (A) (A) (A) (A) (A) (A) (A)
                 (A) (A) (A) (A) (A) (A) (A) (A) (A) (A) (A) (A)
                 (A) (A) (A) (A) (A) (A) (A) (A) (A) (A) (A) (A)
                 (A) (A) (A) (A) (A) (A) (A) (A) (A) (A) (A) (A)
                 (A) (A) (A) (A) (A) (A) (A) (A) (A) (A) (A) (A)
                 (A) (A) (A) (A) (A) (A) (A) (A) (A) (A) (A) (A)
                 (A) (A) (A) (A) (A) (A) (A) (A) (A) (A) (A) (A)
                 (A) (A) (A) (A) (A) (A) (A) (A) (A) (A) (A) (A)
                 (A) (A) (A) (A) (A) (A) (A) (A) (A) (A) (A) (A)
                 (A) (A) (A) (A) (A) (A) (A) (A) (A) (A) (A) (A)
                 (A) (A) (A) (A) (A) (A) (A) (A) (A) (A) (A) (A)
                 (A) (A) (A) (A) (A) (A) (A) (A) (A) (A) (A) (A)
                 (A) (A) (A) (A) (A) (A) (A) (A) (A) (A) (A) (A)
                 (A) (A) (A) (A) (A) (A) (A) (A) (A) (A) (A) (A)
                 (A) (A) (A) (A) (A) (A) (A) (A) (A) (A) (A) (A)
                 (A) (A) (A) (A) (A) (A) (A) (A) (A) (A) (A) (A)
                 (A) (A) (A) (A) (A) (A) (A) (A) (A) (A) (A) (A)
                 (A) (A) (A) (A) (A) (A) (A) (A) (A) (A) (A) (A)
                 (A) (A) (A) (A) (A) (A) (A) (A) (A) (A) (A) (A)
                 (A) (A) (A) (A) (A) (A) (A) (A) (A) (A) (A) (A)
                 (A) (A) (A) (A) (A) (A) (A) (A) (A) (A) (A) (A)
                 (A) (A) (A) (A) (A) (A) (A) (A) (A) (A) (A) (A)
                 (A) (A) (A) (A) (A) (A) (A) (A) (A) (A) (A) (A)
                 (A) (A) (A) (A) (A) (A) (A) (A) (A) (A) (A) (A)
                 (A) (A) (A) (A) (A) (A) (A) (A) (A) (A) (A) (A)
                 (A) (A) (A) (A) (A) (A) (A) (A) (A) (A) (A) (A)
                 (A) (A) (A) (A) (A) (A) (A) (A) (A) (A) (A) (A)
                 (A) (A) (A) (A) (A) (A) (A) (A) (A) (A) (A) (A)
                 (A) (A) (A) (A) (A) (A) (A) (A) (A) (A) (A) (A)
                 (A) (A) (A) (A) (A) (A) (A) (A) (A) (A) (A) (A)
                 (A) (A) (A) (A) (A) (A) (A) (A) (A) (A) (A) (A)
                 (A) (A) (A) (A) (A) (A) (A) (A) (A) (A) (A) (A)
                 (A) (A) (A) (A) (A) (A) (A) (A) (A) (A) (A) (A)
                 (A) (A) (A) (A) (A) (A) (A) (A) (A) (A) (A) (A)
                 (A) (A) (A) (A) (A) (A) (A) (A) (A) (A) (A) (A)
                 (A) (A) (A) (A) (A) (A) (A) (A) (A) (A) (A) (A)
                 (A) (A) (A) (A) (A) (A) (A) (A) (A) (A) (A) (A)
                 (A) (A) (A) (A) (A) (A) (A) (A) (A) (A) (A) (A)
                 (A) (A) (A) (A) (A) (A) (A) (A) (A) (A) (A) (A)
                 (A) (A) (A) (A) (A) (A) (A) (A) (A) (A) (A) (A)
                 (A) (A) (A) (A) (A) (A) (A) (A) (A) (A) (A) (A)
                 (A) (A) (A) (A) (A) (A) (A) (A) (A) (A) (A) (A)
                 (A) (A) (A) (A) (A) (A) (A) (A) (A) (A)
 Beta  Orbitals:
       Occupied  (A) (A) (A) (A) (A) (A) (A) (A) (A) (A) (A) (A)
                 (A) (A) (A) (A) (A) (A) (A) (A) (A) (A) (A) (A)
                 (A) (A) (A) (A) (A) (A) (A) (A) (A) (A) (A) (A)
                 (A) (A) (A) (A) (A) (A) (A) (A) (A) (A) (A) (A)
                 (A) (A) (A) (A) (A) (A) (A) (A) (A) (A) (A) (A)
                 (A) (A) (A) (A) (A) (A) (A) (A) (A) (A) (A) (A)
                 (A) (A) (A) (A) (A) (A) (A) (A) (A) (A) (A) (A)
                 (A) (A) (A) (A) (A) (A) (A) (A) (A) (A) (A) (A)
                 (A) (A) (A) (A) (A) (A) (A) (A) (A) (A) (A) (A)
                 (A) (A) (A) (A) (A) (A) (A) (A) (A) (A) (A) (A)
                 (A) (A) (A) (A) (A) (A) (A) (A) (A) (A) (A) (A)
                 (A) (A)
       Virtual   (A) (A) (A) (A) (A) (A) (A) (A) (A) (A) (A) (A)
                 (A) (A) (A) (A) (A) (A) (A) (A) (A) (A) (A) (A)
                 (A) (A) (A) (A) (A) (A) (A) (A) (A) (A) (A) (A)
                 (A) (A) (A) (A) (A) (A) (A) (A) (A) (A) (A) (A)
                 (A) (A) (A) (A) (A) (A) (A) (A) (A) (A) (A) (A)
                 (A) (A) (A) (A) (A) (A) (A) (A) (A) (A) (A) (A)
                 (A) (A) (A) (A) (A) (A) (A) (A) (A) (A) (A) (A)
                 (A) (A) (A) (A) (A) (A) (A) (A) (A) (A) (A) (A)
                 (A) (A) (A) (A) (A) (A) (A) (A) (A) (A) (A) (A)
                 (A) (A) (A) (A) (A) (A) (A) (A) (A) (A) (A) (A)
                 (A) (A) (A) (A) (A) (A) (A) (A) (A) (A) (A) (A)
                 (A) (A) (A) (A) (A) (A) (A) (A) (A) (A) (A) (A)
                 (A) (A) (A) (A) (A) (A) (A) (A) (A) (A) (A) (A)
                 (A) (A) (A) (A) (A) (A) (A) (A) (A) (A) (A) (A)
                 (A) (A) (A) (A) (A) (A) (A) (A) (A) (A) (A) (A)
                 (A) (A) (A) (A) (A) (A) (A) (A) (A) (A) (A) (A)
                 (A) (A) (A) (A) (A) (A) (A) (A) (A) (A) (A) (A)
                 (A) (A) (A) (A) (A) (A) (A) (A) (A) (A) (A) (A)
                 (A) (A) (A) (A) (A) (A) (A) (A) (A) (A) (A) (A)
                 (A) (A) (A) (A) (A) (A) (A) (A) (A) (A) (A) (A)
                 (A) (A) (A) (A) (A) (A) (A) (A) (A) (A) (A) (A)
                 (A) (A) (A) (A) (A) (A) (A) (A) (A) (A) (A) (A)
                 (A) (A) (A) (A) (A) (A) (A) (A) (A) (A) (A) (A)
                 (A) (A) (A) (A) (A) (A) (A) (A) (A) (A) (A) (A)
                 (A) (A) (A) (A) (A) (A) (A) (A) (A) (A) (A) (A)
                 (A) (A) (A) (A) (A) (A) (A) (A) (A) (A) (A) (A)
                 (A) (A) (A) (A) (A) (A) (A) (A) (A) (A) (A) (A)
                 (A) (A) (A) (A) (A) (A) (A) (A) (A) (A) (A) (A)
                 (A) (A) (A) (A) (A) (A) (A) (A) (A) (A) (A) (A)
                 (A) (A) (A) (A) (A) (A) (A) (A) (A) (A) (A) (A)
                 (A) (A) (A) (A) (A) (A) (A) (A) (A) (A) (A) (A)
                 (A) (A) (A) (A) (A) (A) (A) (A) (A) (A) (A) (A)
                 (A) (A) (A) (A) (A) (A) (A) (A) (A) (A) (A) (A)
                 (A) (A) (A) (A) (A) (A) (A) (A) (A) (A) (A) (A)
                 (A) (A) (A) (A) (A) (A) (A) (A) (A) (A) (A) (A)
                 (A) (A) (A) (A) (A) (A) (A) (A) (A) (A) (A) (A)
                 (A) (A) (A) (A) (A) (A) (A) (A) (A) (A) (A) (A)
                 (A) (A) (A) (A) (A) (A) (A) (A) (A) (A) (A) (A)
                 (A) (A) (A) (A) (A) (A) (A) (A) (A) (A) (A) (A)
                 (A) (A) (A) (A) (A) (A) (A) (A) (A) (A) (A) (A)
                 (A) (A) (A) (A) (A) (A) (A) (A) (A) (A) (A) (A)
                 (A) (A) (A) (A) (A) (A) (A) (A) (A) (A) (A) (A)
                 (A) (A) (A) (A) (A) (A) (A) (A) (A) (A) (A) (A)
                 (A) (A) (A) (A) (A) (A) (A) (A) (A) (A) (A) (A)
                 (A) (A) (A) (A) (A) (A) (A) (A) (A) (A) (A) (A)
                 (A) (A) (A) (A) (A) (A) (A) (A) (A) (A) (A) (A)
                 (A) (A) (A) (A) (A) (A) (A) (A) (A) (A) (A) (A)
                 (A) (A) (A) (A) (A) (A) (A) (A) (A) (A) (A) (A)
                 (A) (A) (A) (A) (A) (A) (A) (A) (A) (A) (A) (A)
                 (A) (A) (A) (A) (A) (A) (A) (A) (A) (A) (A) (A)
                 (A) (A) (A) (A) (A) (A) (A) (A) (A) (A) (A) (A)
                 (A) (A) (A) (A) (A) (A) (A) (A) (A) (A) (A) (A)
                 (A) (A) (A) (A) (A) (A) (A) (A) (A) (A) (A) (A)
                 (A) (A) (A) (A) (A) (A) (A) (A) (A) (A) (A) (A)
                 (A) (A) (A) (A) (A) (A) (A) (A) (A) (A) (A) (A)
                 (A) (A) (A) (A) (A) (A) (A) (A) (A) (A) (A) (A)
                 (A) (A) (A) (A) (A) (A) (A) (A) (A) (A) (A) (A)
                 (A) (A) (A) (A) (A) (A) (A) (A) (A) (A) (A) (A)
                 (A) (A) (A) (A) (A) (A) (A) (A) (A) (A) (A) (A)
                 (A) (A) (A) (A) (A) (A) (A) (A) (A) (A) (A) (A)
                 (A) (A) (A) (A) (A) (A) (A) (A) (A) (A) (A) (A)
                 (A) (A) (A) (A) (A) (A) (A) (A) (A) (A) (A) (A)
                 (A) (A) (A) (A) (A) (A) (A) (A) (A) (A) (A) (A)
                 (A) (A) (A) (A) (A) (A) (A) (A) (A) (A) (A)
 The electronic state is 2-A.
 Alpha  occ. eigenvalues --  -88.87638 -88.85700 -19.15956 -19.15750 -19.11120
 Alpha  occ. eigenvalues --  -19.10134 -19.10104 -19.09781 -14.36795 -14.36705
 Alpha  occ. eigenvalues --  -10.28898 -10.28428 -10.28250 -10.28084 -10.23693
 Alpha  occ. eigenvalues --  -10.22970 -10.22300 -10.22181 -10.20877 -10.20722
 Alpha  occ. eigenvalues --  -10.20628 -10.20315 -10.19989 -10.19866 -10.19826
 Alpha  occ. eigenvalues --  -10.19691 -10.19650 -10.18665 -10.18593 -10.18517
 Alpha  occ. eigenvalues --  -10.18376 -10.18088 -10.18084 -10.17881 -10.17822
 Alpha  occ. eigenvalues --  -10.17472  -7.96213  -7.94156  -5.92512  -5.92136
 Alpha  occ. eigenvalues --   -5.91793  -5.90503  -5.90052  -5.89666  -1.08041
 Alpha  occ. eigenvalues --   -1.07575  -1.07311  -1.06471  -1.05034  -1.04669
 Alpha  occ. eigenvalues --   -0.94464  -0.94135  -0.89621  -0.88722  -0.87111
 Alpha  occ. eigenvalues --   -0.83871  -0.81532  -0.78273  -0.75939  -0.75672
 Alpha  occ. eigenvalues --   -0.75005  -0.74047  -0.73358  -0.71747  -0.70933
 Alpha  occ. eigenvalues --   -0.69906  -0.68901  -0.66987  -0.65226  -0.63877
 Alpha  occ. eigenvalues --   -0.63378  -0.62604  -0.59141  -0.58175  -0.56686
 Alpha  occ. eigenvalues --   -0.55578  -0.55409  -0.54720  -0.54007  -0.52666
 Alpha  occ. eigenvalues --   -0.51586  -0.50080  -0.49068  -0.48568  -0.48138
 Alpha  occ. eigenvalues --   -0.47996  -0.47492  -0.47472  -0.47142  -0.46910
 Alpha  occ. eigenvalues --   -0.46596  -0.46332  -0.45022  -0.44670  -0.44294
 Alpha  occ. eigenvalues --   -0.44223  -0.43439  -0.42836  -0.42438  -0.41799
 Alpha  occ. eigenvalues --   -0.41753  -0.41036  -0.40592  -0.40454  -0.40349
 Alpha  occ. eigenvalues --   -0.40302  -0.40064  -0.39843  -0.39317  -0.38295
 Alpha  occ. eigenvalues --   -0.37962  -0.37693  -0.37251  -0.36070  -0.34913
 Alpha  occ. eigenvalues --   -0.34743  -0.34628  -0.33364  -0.33133  -0.32290
 Alpha  occ. eigenvalues --   -0.31998  -0.30464  -0.28895  -0.28783  -0.28064
 Alpha  occ. eigenvalues --   -0.27873  -0.27743  -0.26950  -0.25866  -0.24678
 Alpha  occ. eigenvalues --   -0.23947  -0.23226  -0.23039  -0.18526  -0.14247
 Alpha virt. eigenvalues --   -0.06110  -0.05144  -0.03478  -0.02391  -0.00356
 Alpha virt. eigenvalues --    0.00474   0.00670   0.00714   0.01053   0.01572
 Alpha virt. eigenvalues --    0.01921   0.02436   0.02448   0.02758   0.03114
 Alpha virt. eigenvalues --    0.03276   0.03345   0.03650   0.04071   0.04120
 Alpha virt. eigenvalues --    0.04137   0.04499   0.04683   0.05207   0.05337
 Alpha virt. eigenvalues --    0.05517   0.05991   0.06316   0.06380   0.06612
 Alpha virt. eigenvalues --    0.07055   0.07176   0.07267   0.07463   0.07970
 Alpha virt. eigenvalues --    0.08304   0.08708   0.09035   0.09084   0.09208
 Alpha virt. eigenvalues --    0.09363   0.09813   0.09923   0.10211   0.10441
 Alpha virt. eigenvalues --    0.10620   0.11050   0.11109   0.11271   0.11745
 Alpha virt. eigenvalues --    0.11782   0.12180   0.12455   0.12889   0.13285
 Alpha virt. eigenvalues --    0.13344   0.13683   0.13864   0.14163   0.14356
 Alpha virt. eigenvalues --    0.14526   0.14598   0.14917   0.15075   0.15155
 Alpha virt. eigenvalues --    0.15391   0.15619   0.15810   0.16174   0.16450
 Alpha virt. eigenvalues --    0.16565   0.16772   0.17000   0.17201   0.17588
 Alpha virt. eigenvalues --    0.17728   0.17897   0.18308   0.18544   0.18620
 Alpha virt. eigenvalues --    0.18893   0.19063   0.19125   0.19572   0.19615
 Alpha virt. eigenvalues --    0.19715   0.19978   0.20092   0.20486   0.20700
 Alpha virt. eigenvalues --    0.20784   0.20997   0.21416   0.21469   0.21644
 Alpha virt. eigenvalues --    0.21839   0.21977   0.22046   0.22343   0.22688
 Alpha virt. eigenvalues --    0.23014   0.23133   0.23242   0.23474   0.23665
 Alpha virt. eigenvalues --    0.23805   0.23862   0.24469   0.24545   0.24635
 Alpha virt. eigenvalues --    0.24945   0.25084   0.25289   0.25345   0.25493
 Alpha virt. eigenvalues --    0.25839   0.25913   0.26098   0.26172   0.26235
 Alpha virt. eigenvalues --    0.26490   0.26650   0.27134   0.27252   0.27400
 Alpha virt. eigenvalues --    0.27500   0.27749   0.27963   0.28014   0.28292
 Alpha virt. eigenvalues --    0.28518   0.28904   0.28999   0.29192   0.29503
 Alpha virt. eigenvalues --    0.29699   0.29950   0.30063   0.30191   0.30540
 Alpha virt. eigenvalues --    0.30766   0.31036   0.31285   0.31338   0.31572
 Alpha virt. eigenvalues --    0.31950   0.32184   0.32317   0.32364   0.32923
 Alpha virt. eigenvalues --    0.32927   0.33460   0.33994   0.34103   0.34196
 Alpha virt. eigenvalues --    0.34491   0.35210   0.35362   0.35618   0.35789
 Alpha virt. eigenvalues --    0.35858   0.36629   0.36800   0.37213   0.37735
 Alpha virt. eigenvalues --    0.38032   0.38527   0.38681   0.39205   0.39729
 Alpha virt. eigenvalues --    0.39893   0.40450   0.40547   0.41377   0.41547
 Alpha virt. eigenvalues --    0.42475   0.42809   0.43320   0.43615   0.44227
 Alpha virt. eigenvalues --    0.44311   0.44625   0.44844   0.45093   0.45754
 Alpha virt. eigenvalues --    0.46010   0.46562   0.46628   0.46780   0.47039
 Alpha virt. eigenvalues --    0.47368   0.47733   0.48412   0.48639   0.49367
 Alpha virt. eigenvalues --    0.49735   0.50156   0.50292   0.50835   0.51616
 Alpha virt. eigenvalues --    0.51747   0.52817   0.53244   0.53679   0.54202
 Alpha virt. eigenvalues --    0.54439   0.54962   0.55238   0.55540   0.55900
 Alpha virt. eigenvalues --    0.56047   0.56332   0.56831   0.57239   0.57605
 Alpha virt. eigenvalues --    0.57722   0.57890   0.58381   0.58591   0.59044
 Alpha virt. eigenvalues --    0.59135   0.59805   0.59953   0.60670   0.60824
 Alpha virt. eigenvalues --    0.61136   0.61353   0.62054   0.62212   0.62851
 Alpha virt. eigenvalues --    0.63110   0.63331   0.63642   0.64337   0.64680
 Alpha virt. eigenvalues --    0.65060   0.65448   0.65631   0.66101   0.66209
 Alpha virt. eigenvalues --    0.66805   0.66999   0.67297   0.67387   0.67640
 Alpha virt. eigenvalues --    0.67981   0.68646   0.68896   0.69543   0.70183
 Alpha virt. eigenvalues --    0.70499   0.70818   0.71174   0.71531   0.71604
 Alpha virt. eigenvalues --    0.72474   0.72776   0.73297   0.73332   0.73764
 Alpha virt. eigenvalues --    0.74142   0.74574   0.75009   0.75733   0.76174
 Alpha virt. eigenvalues --    0.76334   0.76611   0.76712   0.77041   0.77433
 Alpha virt. eigenvalues --    0.77547   0.77766   0.78295   0.78820   0.79514
 Alpha virt. eigenvalues --    0.79671   0.80334   0.81307   0.81483   0.81576
 Alpha virt. eigenvalues --    0.82671   0.83184   0.84005   0.84460   0.85275
 Alpha virt. eigenvalues --    0.85908   0.86312   0.86736   0.87102   0.88309
 Alpha virt. eigenvalues --    0.89007   0.89652   0.89950   0.90276   0.90618
 Alpha virt. eigenvalues --    0.91272   0.91987   0.93239   0.93713   0.94085
 Alpha virt. eigenvalues --    0.94272   0.94770   0.94899   0.95508   0.95942
 Alpha virt. eigenvalues --    0.96048   0.96376   0.96635   0.97695   0.97920
 Alpha virt. eigenvalues --    0.98691   0.98853   0.99303   1.00154   1.00450
 Alpha virt. eigenvalues --    1.00762   1.01309   1.01526   1.01721   1.02212
 Alpha virt. eigenvalues --    1.02792   1.03306   1.03765   1.04402   1.04619
 Alpha virt. eigenvalues --    1.05099   1.05766   1.06215   1.06562   1.06609
 Alpha virt. eigenvalues --    1.06885   1.07252   1.07991   1.08294   1.08566
 Alpha virt. eigenvalues --    1.09151   1.10071   1.10531   1.10752   1.11034
 Alpha virt. eigenvalues --    1.11325   1.11908   1.12588   1.12952   1.13808
 Alpha virt. eigenvalues --    1.15139   1.15734   1.16370   1.16532   1.17290
 Alpha virt. eigenvalues --    1.18100   1.19048   1.19171   1.19484   1.20584
 Alpha virt. eigenvalues --    1.20860   1.21541   1.22350   1.22841   1.22885
 Alpha virt. eigenvalues --    1.24099   1.25450   1.25947   1.26425   1.26964
 Alpha virt. eigenvalues --    1.28027   1.28482   1.28736   1.29342   1.30218
 Alpha virt. eigenvalues --    1.31514   1.31729   1.32040   1.32702   1.34143
 Alpha virt. eigenvalues --    1.35214   1.35954   1.36252   1.37295   1.37593
 Alpha virt. eigenvalues --    1.38468   1.39206   1.40133   1.41833   1.42701
 Alpha virt. eigenvalues --    1.43396   1.43834   1.44132   1.44367   1.44595
 Alpha virt. eigenvalues --    1.44880   1.45153   1.45439   1.45924   1.46384
 Alpha virt. eigenvalues --    1.46859   1.46985   1.47777   1.48303   1.49121
 Alpha virt. eigenvalues --    1.49906   1.50181   1.50826   1.51502   1.52327
 Alpha virt. eigenvalues --    1.53166   1.53319   1.54449   1.54565   1.54968
 Alpha virt. eigenvalues --    1.55572   1.55715   1.55781   1.56056   1.56599
 Alpha virt. eigenvalues --    1.56961   1.57921   1.58293   1.59426   1.60203
 Alpha virt. eigenvalues --    1.60754   1.61523   1.62325   1.62843   1.64010
 Alpha virt. eigenvalues --    1.64613   1.65145   1.65360   1.66845   1.67477
 Alpha virt. eigenvalues --    1.67941   1.68467   1.69136   1.69344   1.69668
 Alpha virt. eigenvalues --    1.70188   1.70605   1.70860   1.71273   1.71607
 Alpha virt. eigenvalues --    1.72270   1.72875   1.73291   1.73688   1.74231
 Alpha virt. eigenvalues --    1.75633   1.76095   1.76611   1.77475   1.77912
 Alpha virt. eigenvalues --    1.78505   1.79173   1.79708   1.80059   1.80566
 Alpha virt. eigenvalues --    1.81841   1.82131   1.82737   1.84193   1.85237
 Alpha virt. eigenvalues --    1.86025   1.86836   1.88173   1.88346   1.88566
 Alpha virt. eigenvalues --    1.89341   1.89675   1.90167   1.90940   1.91209
 Alpha virt. eigenvalues --    1.91754   1.92422   1.92891   1.93750   1.94238
 Alpha virt. eigenvalues --    1.95052   1.95816   1.96337   1.97195   1.98108
 Alpha virt. eigenvalues --    1.98283   1.99344   2.00488   2.01517   2.02222
 Alpha virt. eigenvalues --    2.02960   2.03406   2.03909   2.03950   2.04537
 Alpha virt. eigenvalues --    2.05137   2.05381   2.05885   2.06112   2.07363
 Alpha virt. eigenvalues --    2.07990   2.08419   2.09752   2.10382   2.10698
 Alpha virt. eigenvalues --    2.11556   2.12194   2.13089   2.14147   2.14835
 Alpha virt. eigenvalues --    2.16168   2.16210   2.16664   2.17171   2.17976
 Alpha virt. eigenvalues --    2.19240   2.19400   2.21036   2.21454   2.21952
 Alpha virt. eigenvalues --    2.22429   2.22809   2.23697   2.25128   2.26891
 Alpha virt. eigenvalues --    2.27963   2.28545   2.30652   2.31337   2.34330
 Alpha virt. eigenvalues --    2.35400   2.36739   2.37425   2.38733   2.39662
 Alpha virt. eigenvalues --    2.41566   2.42095   2.42952   2.44242   2.44710
 Alpha virt. eigenvalues --    2.44981   2.45395   2.47299   2.47562   2.48148
 Alpha virt. eigenvalues --    2.48670   2.48919   2.50369   2.51167   2.51994
 Alpha virt. eigenvalues --    2.53454   2.53514   2.53646   2.54068   2.54509
 Alpha virt. eigenvalues --    2.54896   2.55094   2.56441   2.57614   2.58521
 Alpha virt. eigenvalues --    2.60082   2.60423   2.60653   2.61310   2.64564
 Alpha virt. eigenvalues --    2.65042   2.65520   2.66944   2.67732   2.68173
 Alpha virt. eigenvalues --    2.68906   2.69308   2.69424   2.70754   2.71529
 Alpha virt. eigenvalues --    2.71617   2.72216   2.72556   2.73679   2.74595
 Alpha virt. eigenvalues --    2.74767   2.75381   2.76159   2.76772   2.77771
 Alpha virt. eigenvalues --    2.78408   2.79522   2.80441   2.81266   2.82802
 Alpha virt. eigenvalues --    2.82922   2.83938   2.85291   2.85687   2.86366
 Alpha virt. eigenvalues --    2.87074   2.87267   2.87527   2.88229   2.88740
 Alpha virt. eigenvalues --    2.89605   2.90739   2.90890   2.91291   2.93055
 Alpha virt. eigenvalues --    2.93382   2.94181   2.95154   2.95767   2.96914
 Alpha virt. eigenvalues --    2.97226   2.98855   2.99061   3.01170   3.01877
 Alpha virt. eigenvalues --    3.02488   3.04340   3.04450   3.05441   3.07864
 Alpha virt. eigenvalues --    3.08170   3.10680   3.10960   3.12085   3.13181
 Alpha virt. eigenvalues --    3.15137   3.15752   3.16960   3.17215   3.18952
 Alpha virt. eigenvalues --    3.19997   3.20626   3.22573   3.24046   3.24227
 Alpha virt. eigenvalues --    3.24769   3.25849   3.27374   3.29903   3.31018
 Alpha virt. eigenvalues --    3.32106   3.33308   3.34251   3.34865   3.35471
 Alpha virt. eigenvalues --    3.35969   3.36231   3.37174   3.40412   3.41270
 Alpha virt. eigenvalues --    3.42848   3.43222   3.44706   3.45961   3.46833
 Alpha virt. eigenvalues --    3.47815   3.48174   3.51040   3.52024   3.53408
 Alpha virt. eigenvalues --    3.56789   3.57082   3.59976   3.61465   3.62183
 Alpha virt. eigenvalues --    3.63601   3.66924   3.68560   3.69022   3.72177
 Alpha virt. eigenvalues --    3.73199   3.73531   3.73787   3.77500   3.77540
 Alpha virt. eigenvalues --    3.78447   3.82164   3.84728   3.86180   3.86807
 Alpha virt. eigenvalues --    3.87694   3.91392   3.92912   3.94866   3.95021
 Alpha virt. eigenvalues --    3.95690   3.99398   4.03582   4.05464   4.07282
 Alpha virt. eigenvalues --    4.09814   4.11961   4.15342   4.16014   4.22488
 Alpha virt. eigenvalues --    4.26227   4.27508   4.29700   4.37917   4.43313
 Alpha virt. eigenvalues --    4.43670   4.55400   4.73609   4.87129   4.89223
 Alpha virt. eigenvalues --    4.89527   4.92178   5.02329   5.03443   5.05273
 Alpha virt. eigenvalues --    5.06700   5.06890   5.07489   5.13395   5.15553
 Alpha virt. eigenvalues --    5.26723   5.28976   5.31401   5.38633   5.44023
 Alpha virt. eigenvalues --    5.44884   5.77562   5.77783   5.81389   5.82648
 Alpha virt. eigenvalues --    5.83810   5.86571   8.04079   8.13811  17.29697
 Alpha virt. eigenvalues --   17.34341  17.51038  17.54256  17.64301  17.78963
 Alpha virt. eigenvalues --   23.51972  23.60715  23.73266  23.81335  23.83968
 Alpha virt. eigenvalues --   23.84858  23.87375  23.89315  23.89437  23.90947
 Alpha virt. eigenvalues --   23.91520  23.91694  23.93667  23.95480  23.95898
 Alpha virt. eigenvalues --   23.97676  23.98589  24.01311  24.03476  24.03706
 Alpha virt. eigenvalues --   24.05140  24.08260  24.13772  24.15234  24.16752
 Alpha virt. eigenvalues --   24.17224  35.58328  35.61351  49.97342  49.99157
 Alpha virt. eigenvalues --   50.04302  50.06610  50.07880  50.09319 189.21674
 Alpha virt. eigenvalues --  189.32463
  Beta  occ. eigenvalues --  -88.87637 -88.85689 -19.15940 -19.15750 -19.10927
  Beta  occ. eigenvalues --  -19.09944 -19.09917 -19.09628 -14.36846 -14.36761
  Beta  occ. eigenvalues --  -10.28831 -10.28358 -10.28178 -10.28022 -10.23657
  Beta  occ. eigenvalues --  -10.22981 -10.22301 -10.22181 -10.20767 -10.20733
  Beta  occ. eigenvalues --  -10.20651 -10.20352 -10.19955 -10.19865 -10.19825
  Beta  occ. eigenvalues --  -10.19747 -10.19553 -10.18512 -10.18435 -10.18397
  Beta  occ. eigenvalues --  -10.18307 -10.18097 -10.17995 -10.17807 -10.17754
  Beta  occ. eigenvalues --  -10.17432  -7.96212  -7.94147  -5.92512  -5.92135
  Beta  occ. eigenvalues --   -5.91789  -5.90499  -5.90046  -5.89633  -1.07764
  Beta  occ. eigenvalues --   -1.07540  -1.07312  -1.06216  -1.04778  -1.04342
  Beta  occ. eigenvalues --   -0.94391  -0.94044  -0.89479  -0.88677  -0.87036
  Beta  occ. eigenvalues --   -0.83575  -0.81269  -0.78130  -0.75837  -0.75325
  Beta  occ. eigenvalues --   -0.74904  -0.74000  -0.73289  -0.71696  -0.70892
  Beta  occ. eigenvalues --   -0.69721  -0.68714  -0.66821  -0.65092  -0.63702
  Beta  occ. eigenvalues --   -0.63223  -0.62457  -0.59066  -0.58103  -0.56600
  Beta  occ. eigenvalues --   -0.55441  -0.55367  -0.54624  -0.53971  -0.52540
  Beta  occ. eigenvalues --   -0.51465  -0.49965  -0.48945  -0.48278  -0.47936
  Beta  occ. eigenvalues --   -0.47867  -0.47449  -0.47369  -0.47125  -0.46827
  Beta  occ. eigenvalues --   -0.46561  -0.46281  -0.44884  -0.44603  -0.44186
  Beta  occ. eigenvalues --   -0.44149  -0.43284  -0.42735  -0.42143  -0.41737
  Beta  occ. eigenvalues --   -0.41153  -0.40998  -0.40331  -0.40146  -0.40081
  Beta  occ. eigenvalues --   -0.40016  -0.39779  -0.39492  -0.39254  -0.38016
  Beta  occ. eigenvalues --   -0.37829  -0.37411  -0.37166  -0.36062  -0.34828
  Beta  occ. eigenvalues --   -0.34603  -0.34222  -0.33202  -0.33094  -0.31976
  Beta  occ. eigenvalues --   -0.31847  -0.29581  -0.28659  -0.28414  -0.27711
  Beta  occ. eigenvalues --   -0.27666  -0.27486  -0.26758  -0.25415  -0.23975
  Beta  occ. eigenvalues --   -0.23313  -0.23055  -0.22809  -0.18058
  Beta virt. eigenvalues --   -0.10094  -0.05561  -0.04159  -0.02329  -0.02205
  Beta virt. eigenvalues --   -0.00344   0.00486   0.00679   0.01011   0.01085
  Beta virt. eigenvalues --    0.01578   0.01927   0.02456   0.02761   0.02899
  Beta virt. eigenvalues --    0.03283   0.03354   0.03653   0.04056   0.04133
  Beta virt. eigenvalues --    0.04156   0.04281   0.04548   0.04692   0.05235
  Beta virt. eigenvalues --    0.05423   0.05543   0.06004   0.06325   0.06529
  Beta virt. eigenvalues --    0.06640   0.07073   0.07188   0.07311   0.07544
  Beta virt. eigenvalues --    0.08009   0.08308   0.08724   0.09049   0.09120
  Beta virt. eigenvalues --    0.09274   0.09446   0.09844   0.09973   0.10234
  Beta virt. eigenvalues --    0.10482   0.10696   0.11136   0.11191   0.11346
  Beta virt. eigenvalues --    0.11770   0.12106   0.12407   0.12732   0.12920
  Beta virt. eigenvalues --    0.13316   0.13387   0.13744   0.13877   0.14256
  Beta virt. eigenvalues --    0.14414   0.14617   0.14653   0.14967   0.15153
  Beta virt. eigenvalues --    0.15206   0.15513   0.15649   0.15835   0.16194
  Beta virt. eigenvalues --    0.16488   0.16598   0.16805   0.17017   0.17244
  Beta virt. eigenvalues --    0.17617   0.17781   0.17933   0.18353   0.18586
  Beta virt. eigenvalues --    0.18663   0.18956   0.19091   0.19172   0.19597
  Beta virt. eigenvalues --    0.19638   0.19755   0.20012   0.20131   0.20520
  Beta virt. eigenvalues --    0.20739   0.20821   0.21051   0.21462   0.21495
  Beta virt. eigenvalues --    0.21688   0.21876   0.22035   0.22114   0.22378
  Beta virt. eigenvalues --    0.22781   0.23076   0.23262   0.23403   0.23541
  Beta virt. eigenvalues --    0.23735   0.23878   0.23984   0.24511   0.24606
  Beta virt. eigenvalues --    0.24706   0.24994   0.25135   0.25334   0.25370
  Beta virt. eigenvalues --    0.25537   0.25890   0.25998   0.26178   0.26224
  Beta virt. eigenvalues --    0.26287   0.26546   0.26691   0.27167   0.27311
  Beta virt. eigenvalues --    0.27445   0.27552   0.27764   0.28002   0.28058
  Beta virt. eigenvalues --    0.28330   0.28548   0.28963   0.29032   0.29258
  Beta virt. eigenvalues --    0.29540   0.29762   0.30000   0.30126   0.30240
  Beta virt. eigenvalues --    0.30577   0.30806   0.31089   0.31333   0.31400
  Beta virt. eigenvalues --    0.31612   0.32011   0.32263   0.32350   0.32436
  Beta virt. eigenvalues --    0.32969   0.33024   0.33508   0.34036   0.34172
  Beta virt. eigenvalues --    0.34265   0.34526   0.35293   0.35420   0.35668
  Beta virt. eigenvalues --    0.35823   0.35962   0.36671   0.36869   0.37284
  Beta virt. eigenvalues --    0.37790   0.38089   0.38589   0.38757   0.39259
  Beta virt. eigenvalues --    0.39781   0.39953   0.40477   0.40584   0.41463
  Beta virt. eigenvalues --    0.41630   0.42517   0.42847   0.43373   0.43649
  Beta virt. eigenvalues --    0.44250   0.44339   0.44684   0.44903   0.45144
  Beta virt. eigenvalues --    0.45792   0.46052   0.46598   0.46669   0.46805
  Beta virt. eigenvalues --    0.47094   0.47395   0.47781   0.48447   0.48676
  Beta virt. eigenvalues --    0.49401   0.49796   0.50206   0.50352   0.50913
  Beta virt. eigenvalues --    0.51703   0.51805   0.52876   0.53331   0.53743
  Beta virt. eigenvalues --    0.54277   0.54483   0.55050   0.55357   0.55594
  Beta virt. eigenvalues --    0.55986   0.56101   0.56436   0.56903   0.57286
  Beta virt. eigenvalues --    0.57642   0.57833   0.57980   0.58436   0.58699
  Beta virt. eigenvalues --    0.59160   0.59171   0.59872   0.60088   0.60783
  Beta virt. eigenvalues --    0.60993   0.61256   0.61470   0.62103   0.62291
  Beta virt. eigenvalues --    0.62936   0.63214   0.63414   0.63766   0.64436
  Beta virt. eigenvalues --    0.64799   0.65134   0.65636   0.65740   0.66233
  Beta virt. eigenvalues --    0.66267   0.66916   0.67112   0.67399   0.67453
  Beta virt. eigenvalues --    0.67730   0.68056   0.68683   0.68939   0.69659
  Beta virt. eigenvalues --    0.70289   0.70623   0.70882   0.71209   0.71604
  Beta virt. eigenvalues --    0.71947   0.72539   0.72830   0.73363   0.73489
  Beta virt. eigenvalues --    0.73996   0.74257   0.74677   0.75098   0.75772
  Beta virt. eigenvalues --    0.76217   0.76383   0.76700   0.76759   0.77093
  Beta virt. eigenvalues --    0.77480   0.77605   0.77845   0.78334   0.78850
  Beta virt. eigenvalues --    0.79564   0.79729   0.80393   0.81378   0.81536
  Beta virt. eigenvalues --    0.81632   0.82731   0.83204   0.84046   0.84532
  Beta virt. eigenvalues --    0.85363   0.85966   0.86366   0.86787   0.87142
  Beta virt. eigenvalues --    0.88336   0.89063   0.89699   0.90027   0.90295
  Beta virt. eigenvalues --    0.90658   0.91375   0.92063   0.93323   0.93835
  Beta virt. eigenvalues --    0.94247   0.94393   0.94905   0.95039   0.95604
  Beta virt. eigenvalues --    0.96053   0.96140   0.96477   0.96798   0.97869
  Beta virt. eigenvalues --    0.98044   0.98797   0.98991   0.99370   1.00282
  Beta virt. eigenvalues --    1.00534   1.00876   1.01501   1.01626   1.01811
  Beta virt. eigenvalues --    1.02273   1.02870   1.03472   1.03845   1.04602
  Beta virt. eigenvalues --    1.04700   1.05151   1.05900   1.06392   1.06707
  Beta virt. eigenvalues --    1.06758   1.07014   1.07341   1.08142   1.08520
  Beta virt. eigenvalues --    1.08735   1.09245   1.10163   1.10750   1.10845
  Beta virt. eigenvalues --    1.11145   1.11522   1.12053   1.12810   1.13174
  Beta virt. eigenvalues --    1.14012   1.15467   1.15856   1.16659   1.16721
  Beta virt. eigenvalues --    1.17385   1.18221   1.19200   1.19296   1.19783
  Beta virt. eigenvalues --    1.20723   1.21035   1.21671   1.22477   1.22919
  Beta virt. eigenvalues --    1.22983   1.24189   1.25497   1.26031   1.26496
  Beta virt. eigenvalues --    1.27037   1.28161   1.28680   1.28804   1.29536
  Beta virt. eigenvalues --    1.30314   1.31574   1.31801   1.32132   1.32758
  Beta virt. eigenvalues --    1.34224   1.35317   1.36012   1.36309   1.37384
  Beta virt. eigenvalues --    1.37660   1.38522   1.39272   1.40253   1.41883
  Beta virt. eigenvalues --    1.42774   1.43505   1.43845   1.44241   1.44384
  Beta virt. eigenvalues --    1.44670   1.44992   1.45247   1.45513   1.46019
  Beta virt. eigenvalues --    1.46467   1.46912   1.47037   1.47881   1.48493
  Beta virt. eigenvalues --    1.49212   1.50024   1.50259   1.51000   1.51606
  Beta virt. eigenvalues --    1.52380   1.53336   1.53447   1.54506   1.54648
  Beta virt. eigenvalues --    1.55047   1.55624   1.55739   1.55861   1.56113
  Beta virt. eigenvalues --    1.56669   1.57030   1.58053   1.58394   1.59530
  Beta virt. eigenvalues --    1.60326   1.60818   1.61618   1.62378   1.62870
  Beta virt. eigenvalues --    1.64040   1.64681   1.65195   1.65488   1.66910
  Beta virt. eigenvalues --    1.67546   1.67994   1.68544   1.69230   1.69452
  Beta virt. eigenvalues --    1.69699   1.70270   1.70664   1.71064   1.71391
  Beta virt. eigenvalues --    1.71660   1.72402   1.72989   1.73417   1.73875
  Beta virt. eigenvalues --    1.74346   1.75700   1.76238   1.76694   1.77635
  Beta virt. eigenvalues --    1.77994   1.78555   1.79218   1.79796   1.80124
  Beta virt. eigenvalues --    1.80620   1.81937   1.82234   1.82821   1.84286
  Beta virt. eigenvalues --    1.85432   1.86059   1.86909   1.88212   1.88481
  Beta virt. eigenvalues --    1.88714   1.89522   1.89996   1.90307   1.91152
  Beta virt. eigenvalues --    1.91333   1.91857   1.92497   1.93026   1.93907
  Beta virt. eigenvalues --    1.94393   1.95186   1.95931   1.96452   1.97309
  Beta virt. eigenvalues --    1.98413   1.98485   1.99505   2.00782   2.01632
  Beta virt. eigenvalues --    2.02311   2.03063   2.03517   2.03952   2.04041
  Beta virt. eigenvalues --    2.04624   2.05183   2.05405   2.05996   2.06166
  Beta virt. eigenvalues --    2.07408   2.08066   2.08541   2.09842   2.10499
  Beta virt. eigenvalues --    2.10783   2.11662   2.12243   2.13110   2.14229
  Beta virt. eigenvalues --    2.14889   2.16214   2.16265   2.16722   2.17250
  Beta virt. eigenvalues --    2.18075   2.19446   2.19634   2.21114   2.21513
  Beta virt. eigenvalues --    2.22042   2.22532   2.22929   2.23738   2.25330
  Beta virt. eigenvalues --    2.26993   2.28042   2.28740   2.30769   2.31462
  Beta virt. eigenvalues --    2.34427   2.35511   2.36891   2.37516   2.38972
  Beta virt. eigenvalues --    2.39720   2.41749   2.42163   2.43055   2.44254
  Beta virt. eigenvalues --    2.44736   2.44997   2.45435   2.47351   2.47569
  Beta virt. eigenvalues --    2.48199   2.48790   2.48945   2.50461   2.51181
  Beta virt. eigenvalues --    2.52032   2.53477   2.53533   2.53678   2.54091
  Beta virt. eigenvalues --    2.54531   2.54937   2.55162   2.56448   2.57643
  Beta virt. eigenvalues --    2.58561   2.60116   2.60473   2.60707   2.61355
  Beta virt. eigenvalues --    2.64828   2.65092   2.65579   2.66981   2.67860
  Beta virt. eigenvalues --    2.68352   2.69038   2.69396   2.69468   2.70845
  Beta virt. eigenvalues --    2.71598   2.71685   2.72299   2.72928   2.73818
  Beta virt. eigenvalues --    2.74700   2.74901   2.75390   2.76210   2.77026
  Beta virt. eigenvalues --    2.77904   2.78753   2.79563   2.80481   2.81530
  Beta virt. eigenvalues --    2.82882   2.83201   2.83995   2.85321   2.85891
  Beta virt. eigenvalues --    2.86543   2.87167   2.87556   2.87691   2.88550
  Beta virt. eigenvalues --    2.89104   2.89856   2.90953   2.91289   2.91594
  Beta virt. eigenvalues --    2.93399   2.93782   2.94430   2.95576   2.96082
  Beta virt. eigenvalues --    2.97188   2.97526   2.98956   2.99493   3.01212
  Beta virt. eigenvalues --    3.02072   3.02811   3.04476   3.04825   3.05465
  Beta virt. eigenvalues --    3.08012   3.08699   3.10696   3.11088   3.12108
  Beta virt. eigenvalues --    3.13285   3.15390   3.15770   3.17112   3.17302
  Beta virt. eigenvalues --    3.18997   3.20030   3.20709   3.22613   3.24088
  Beta virt. eigenvalues --    3.24257   3.24801   3.25887   3.27473   3.30004
  Beta virt. eigenvalues --    3.31096   3.32131   3.33327   3.34487   3.35193
  Beta virt. eigenvalues --    3.35957   3.36422   3.36683   3.37245   3.40512
  Beta virt. eigenvalues --    3.41327   3.42937   3.43248   3.44787   3.46049
  Beta virt. eigenvalues --    3.46925   3.47910   3.48200   3.51134   3.52123
  Beta virt. eigenvalues --    3.53460   3.56841   3.57113   3.60081   3.61559
  Beta virt. eigenvalues --    3.62259   3.63713   3.66989   3.68600   3.69109
  Beta virt. eigenvalues --    3.72241   3.73192   3.73516   3.73808   3.77505
  Beta virt. eigenvalues --    3.77543   3.78478   3.82220   3.84755   3.86192
  Beta virt. eigenvalues --    3.86845   3.87729   3.91531   3.93078   3.94731
  Beta virt. eigenvalues --    3.95178   3.95555   3.99541   4.03723   4.05495
  Beta virt. eigenvalues --    4.07412   4.09830   4.11973   4.15517   4.16033
  Beta virt. eigenvalues --    4.22521   4.26341   4.27686   4.29890   4.38114
  Beta virt. eigenvalues --    4.43482   4.43861   4.55492   4.73707   4.87267
  Beta virt. eigenvalues --    4.89254   4.89725   4.92182   5.02396   5.03444
  Beta virt. eigenvalues --    5.06053   5.07386   5.07663   5.08232   5.13517
  Beta virt. eigenvalues --    5.15658   5.26874   5.29123   5.31549   5.38788
  Beta virt. eigenvalues --    5.44026   5.44894   5.77587   5.77942   5.81405
  Beta virt. eigenvalues --    5.82796   5.83968   5.86724   8.04082   8.13832
  Beta virt. eigenvalues --   17.29703  17.34383  17.51038  17.54257  17.64309
  Beta virt. eigenvalues --   17.78969  23.52044  23.60744  23.73291  23.81440
  Beta virt. eigenvalues --   23.83992  23.84944  23.87451  23.89415  23.89522
  Beta virt. eigenvalues --   23.91038  23.91526  23.91705  23.93682  23.95530
  Beta virt. eigenvalues --   23.95922  23.97714  23.98677  24.01382  24.03469
  Beta virt. eigenvalues --   24.03717  24.05176  24.08373  24.13796  24.15242
  Beta virt. eigenvalues --   24.16879  24.17320  35.58272  35.61297  49.97356
  Beta virt. eigenvalues --   49.99157  50.04490  50.06776  50.08068  50.09500
  Beta virt. eigenvalues --  189.21676 189.32473
          Condensed to atoms (all electrons):
          Atomic-Atomic Spin Densities.
 Mulliken charges and spin densities:
               1          2
     1  C    0.390688   0.040061
     2  C   -0.157517   0.110035
     3  C    0.197881  -0.035815
     4  C    0.074732   0.111871
     5  C    0.380347   0.033810
     6  C   -0.451360   0.068559
     7  C    0.084341  -0.023600
     8  C    0.006277   0.085071
[...]
     8   Atom        0.009268      0.051438      0.029461
     9   Atom        0.002582      0.014913      0.016910
    10   Atom        0.011302      0.038205      0.009399
    11   Atom       -0.001579      0.026871     -0.001242
    12   Atom        0.000001      0.057424     -0.005480
    13   Atom        0.002642      0.030105     -0.001514
    14   Atom        0.000620      0.031430     -0.002483
    15   Atom        0.001088     -0.002361     -0.000373
    16   Atom       -0.002161      0.000222      0.000755
    17   Atom       -0.000990     -0.000868      0.001032
    18   Atom        0.000037     -0.030644     -0.000993
    19   Atom        0.001091     -0.020858      0.002127
    20   Atom       -0.002439      0.112523     -0.014380
    21   Atom       -0.003198      0.119576     -0.014176
    22   Atom       -0.003606      0.139526     -0.012937
    23   Atom        0.043362      0.210831      0.054504
    24   Atom        0.000106     -0.001007      0.000020
    25   Atom        0.000741     -0.000280      0.000345
    26   Atom        0.000089     -0.000676     -0.000749
    27   Atom        0.001143     -0.000692     -0.000291
    28   Atom        0.000150     -0.000766      0.000037
    29   Atom        0.000928     -0.000009      0.000187
    30   Atom        0.000620     -0.000957     -0.000555
    31   Atom        0.000772     -0.000277     -0.000019
    32   Atom       -0.003820      0.006439      0.014895
    33   Atom        0.004524     -0.019621     -0.021453
    34   Atom        0.017131     -0.010149     -0.007480
    35   Atom       -0.002200      0.009743      0.011087
    36   Atom        0.002422     -0.000240      0.001420
    37   Atom        0.006663     -0.026783     -0.027866
    38   Atom       -0.003066      0.006276      0.007687
    39   Atom       -0.000325      0.005800      0.007617
    40   Atom       -0.000804     -0.000219     -0.000107
    41   Atom        0.003420     -0.010118     -0.016156
    42   Atom       -0.003877     -0.000383     -0.007336
    43   Atom       -0.000355     -0.000041      0.000032
    44   Atom       -0.000743     -0.000029     -0.000045
    45   Atom       -0.000707     -0.000334      0.000298
    46   Atom       -0.001461      0.003033      0.004532
    47   Atom        0.003324     -0.007084     -0.014487
    48   Atom        0.002896     -0.009423     -0.014594
    49   Atom       -0.000347      0.000140      0.000100
    50   Atom        0.000412      0.000329      0.000466
    51   Atom       -0.001203      0.000112     -0.000766
    52   Atom        0.000411      0.000130      0.000085
    53   Atom        0.000201      0.000217      0.000301
    54   Atom        0.000259      0.000304      0.000392
 --------------------------------------------------------


 ---------------------------------------------------------------------------------
              Anisotropic Spin Dipole Couplings in Principal Axis System
 ---------------------------------------------------------------------------------

       Atom             a.u.   MegaHertz   Gauss  10(-4) cm-1        Axes

              Baa    -0.0319    -4.285    -1.529    -1.429  0.9563  0.0866 -0.2791
     1 C(13)  Bbb    -0.0218    -2.926    -1.044    -0.976 -0.0771  0.9960  0.0448
              Bcc     0.0537     7.212     2.573     2.406  0.2819 -0.0213  0.9592
 
              Baa    -0.0703    -9.433    -3.366    -3.147 -0.4851  0.8592  0.1625
     2 C(13)  Bbb    -0.0649    -8.714    -3.109    -2.907  0.8275  0.5111 -0.2323
              Bcc     0.1352    18.147     6.475     6.053  0.2826 -0.0218  0.9590
 
              Baa    -0.0412    -5.527    -1.972    -1.844  0.2824 -0.0334  0.9587
     3 C(13)  Bbb     0.0187     2.515     0.898     0.839  0.5426  0.8298 -0.1309
              Bcc     0.0224     3.011     1.075     1.004  0.7911 -0.5571 -0.2524
 
              Baa    -0.0629    -8.441    -3.012    -2.816  0.9521 -0.0604 -0.2998
     4 C(13)  Bbb    -0.0579    -7.765    -2.771    -2.590  0.0645  0.9979  0.0040
              Bcc     0.1208    16.206     5.783     5.406  0.2990 -0.0232  0.9540
 
              Baa    -0.0316    -4.239    -1.513    -1.414 -0.2399  0.9639  0.1151
     5 C(13)  Bbb    -0.0220    -2.955    -1.054    -0.986  0.9235  0.2632 -0.2791
              Bcc     0.0536     7.194     2.567     2.400  0.2993 -0.0393  0.9533
 
              Baa    -0.0302    -4.059    -1.448    -1.354 -0.4670  0.8600  0.2060
     6 C(13)  Bbb    -0.0214    -2.875    -1.026    -0.959  0.8516  0.5001 -0.1572
              Bcc     0.0517     6.934     2.474     2.313  0.2382 -0.1020  0.9659
 
              Baa    -0.0345    -4.625    -1.650    -1.543  0.2722  0.0156  0.9621
     7 C(13)  Bbb     0.0147     1.972     0.704     0.658  0.4214  0.8970 -0.1337
              Bcc     0.0198     2.653     0.947     0.885  0.8651 -0.4418 -0.2376
 
              Baa    -0.0654    -8.774    -3.131    -2.927  0.9582 -0.0587 -0.2800
     8 C(13)  Bbb    -0.0599    -8.042    -2.870    -2.683  0.0080  0.9838 -0.1788
              Bcc     0.1253    16.817     6.001     5.609  0.2860  0.1691  0.9432
 
              Baa    -0.0585    -7.852    -2.802    -2.619  0.9789 -0.1925 -0.0680
     9 C(13)  Bbb    -0.0529    -7.104    -2.535    -2.370  0.1836  0.9757 -0.1193
              Bcc     0.1115    14.956     5.337     4.989  0.0893  0.1043  0.9905
 
              Baa    -0.0320    -4.292    -1.531    -1.432 -0.3109  0.9487  0.0578
    10 C(13)  Bbb    -0.0235    -3.148    -1.123    -1.050  0.6883  0.2667 -0.6746
              Bcc     0.0554     7.439     2.654     2.481  0.6554  0.1699  0.7359
 
              Baa    -0.0304    -4.077    -1.455    -1.360  0.9308  0.1067 -0.3496
    11 C(13)  Bbb    -0.0206    -2.765    -0.987    -0.922 -0.0914  0.9940  0.0601
              Bcc     0.0510     6.842     2.441     2.282  0.3539 -0.0240  0.9350
 
              Baa    -0.0643    -8.627    -3.078    -2.878 -0.3962  0.9032  0.1649
    12 C(13)  Bbb    -0.0596    -8.000    -2.854    -2.668  0.8569  0.4282 -0.2870
              Bcc     0.1239    16.627     5.933     5.546  0.3298 -0.0276  0.9436
 
              Baa    -0.0369    -4.951    -1.767    -1.651 -0.5227  0.8331  0.1807
    13 C(13)  Bbb    -0.0304    -4.081    -1.456    -1.361  0.7908  0.5530 -0.2622
              Bcc     0.0673     9.032     3.223     3.013  0.3184 -0.0058  0.9479
 
              Baa    -0.0390    -5.229    -1.866    -1.744  0.9287 -0.2252 -0.2946
    14 C(13)  Bbb    -0.0329    -4.415    -1.575    -1.473  0.2211  0.9741 -0.0477
              Bcc     0.0719     9.644     3.441     3.217  0.2977 -0.0208  0.9544
 
              Baa    -0.0039    -2.106    -0.751    -0.702 -0.1004  0.9933  0.0578
    15 H(1)   Bbb    -0.0024    -1.256    -0.448    -0.419  0.2925 -0.0261  0.9559
              Bcc     0.0063     3.362     1.200     1.121  0.9510  0.1129 -0.2880
 
              Baa    -0.0036    -1.936    -0.691    -0.646  0.9061  0.2437 -0.3457
    16 H(1)   Bbb    -0.0024    -1.293    -0.461    -0.431  0.3547  0.0076  0.9350
              Bcc     0.0061     3.229     1.152     1.077 -0.2305  0.9698  0.0795
 
              Baa    -0.0036    -1.934    -0.690    -0.645  0.4775 -0.0489  0.8773
    17 H(1)   Bbb    -0.0019    -1.005    -0.359    -0.335  0.8671  0.1877 -0.4614
              Bcc     0.0055     2.939     1.049     0.980 -0.1421  0.9810  0.1320
 
              Baa    -0.0513    -1.977    -0.705    -0.659  0.4452  0.0114  0.8954
    18 N(14)  Bbb     0.0252     0.970     0.346     0.324 -0.6450  0.6976  0.3119
              Bcc     0.0261     1.007     0.359     0.336  0.6211  0.7164 -0.3179
 
              Baa    -0.0505    -1.946    -0.694    -0.649  0.2887 -0.0310  0.9569
    19 N(14)  Bbb     0.0248     0.955     0.341     0.319  0.7804 -0.5714 -0.2540
              Bcc     0.0257     0.991     0.354     0.331  0.5546  0.8201 -0.1407
 
              Baa    -0.1476    10.678     3.810     3.562 -0.6581  0.7240  0.2070
    20 O(17)  Bbb    -0.1446    10.463     3.733     3.490  0.7042  0.6890 -0.1711
              Bcc     0.2922   -21.141    -7.544    -7.052  0.2665 -0.0331  0.9633
 
              Baa    -0.1419    10.265     3.663     3.424  0.8767 -0.3862 -0.2868
    21 O(17)  Bbb    -0.1386    10.030     3.579     3.345  0.3785  0.9218 -0.0844
              Bcc     0.2805   -20.294    -7.242    -6.769  0.2970 -0.0345  0.9543
 
              Baa    -0.1371     9.923     3.541     3.310  0.6766 -0.6757 -0.2924
    22 O(17)  Bbb    -0.1343     9.717     3.467     3.241  0.6373  0.7364 -0.2269
              Bcc     0.2714   -19.640    -7.008    -6.551  0.3687 -0.0328  0.9290
 
              Baa    -0.1487    10.760     3.839     3.589  0.7446 -0.4486 -0.4943
    23 O(17)  Bbb    -0.1478    10.695     3.816     3.567  0.2696  0.8795 -0.3921
              Bcc     0.2965   -21.455    -7.656    -7.156  0.6107  0.1587  0.7758
 
              Baa    -0.0019    -0.253    -0.090    -0.085  0.3885 -0.0210  0.9212
    24 C(13)  Bbb     0.0009     0.114     0.041     0.038  0.6970 -0.6472 -0.3088
              Bcc     0.0010     0.139     0.050     0.046  0.6027  0.7621 -0.2368
 
              Baa    -0.0014    -0.761    -0.271    -0.254  0.3872 -0.1957  0.9010
    25 H(1)   Bbb    -0.0005    -0.248    -0.088    -0.083  0.8724 -0.2384 -0.4267
              Bcc     0.0019     1.008     0.360     0.336  0.2983  0.9512  0.0784
 
              Baa    -0.0014    -0.734    -0.262    -0.245  0.4792  0.2469  0.8422
    26 H(1)   Bbb     0.0000     0.015     0.005     0.005  0.8508 -0.3663 -0.3767
              Bcc     0.0013     0.719     0.257     0.240  0.2155  0.8971 -0.3856
 
              Baa    -0.0015    -0.789    -0.281    -0.263  0.3131 -0.0417  0.9488
    27 H(1)   Bbb    -0.0005    -0.247    -0.088    -0.082 -0.5891  0.7751  0.2285
              Bcc     0.0019     1.036     0.370     0.346  0.7449  0.6305 -0.2181
 
              Baa    -0.0018    -0.243    -0.087    -0.081  0.2932 -0.0294  0.9556
    28 C(13)  Bbb     0.0008     0.103     0.037     0.035 -0.5994  0.7730  0.2077
              Bcc     0.0010     0.140     0.050     0.047  0.7448  0.6337 -0.2090
 
              Baa    -0.0014    -0.741    -0.264    -0.247  0.0558 -0.1297  0.9900
    29 H(1)   Bbb    -0.0003    -0.137    -0.049    -0.046 -0.6096  0.7809  0.1366
              Bcc     0.0016     0.878     0.313     0.293  0.7908  0.6111  0.0355
 
              Baa    -0.0014    -0.726    -0.259    -0.242  0.4821  0.0978  0.8707
    30 H(1)   Bbb    -0.0001    -0.078    -0.028    -0.026 -0.6022  0.7588  0.2482
              Bcc     0.0015     0.804     0.287     0.268  0.6364  0.6440 -0.4247
 
              Baa    -0.0015    -0.825    -0.294    -0.275  0.2790 -0.0573  0.9586
    31 H(1)   Bbb    -0.0006    -0.315    -0.112    -0.105  0.9154 -0.2858 -0.2835
              Bcc     0.0021     1.140     0.407     0.380  0.2903  0.9566 -0.0272
 
              Baa    -0.0443    -5.951    -2.123    -1.985 -0.1052 -0.2431  0.9643
    32 C(13)  Bbb     0.0192     2.574     0.918     0.858  0.3861  0.8836  0.2649
              Bcc     0.0252     3.377     1.205     1.126  0.9164 -0.4002 -0.0009
 
              Baa    -0.0349    -4.687    -1.672    -1.563 -0.0100  0.9751  0.2216
    33 C(13)  Bbb    -0.0328    -4.401    -1.570    -1.468  0.9788 -0.0358  0.2017
              Bcc     0.0677     9.088     3.243     3.031 -0.2046 -0.2189  0.9540
 
              Baa    -0.0142    -0.583    -0.208    -0.195 -0.6802  0.6971 -0.2267
    34 S(33)  Bbb    -0.0115    -0.471    -0.168    -0.157  0.1186  0.4098  0.9044
              Bcc     0.0257     1.054     0.376     0.352  0.7234  0.5883 -0.3614
 
              Baa    -0.0295    -3.958    -1.412    -1.320 -0.2292 -0.2682  0.9357
    35 C(13)  Bbb     0.0140     1.879     0.671     0.627 -0.4265  0.8918  0.1511
              Bcc     0.0155     2.079     0.742     0.693  0.8750  0.3645  0.3188
 
              Baa    -0.0028    -1.485    -0.530    -0.495  0.6648 -0.5105  0.5454
    36 H(1)   Bbb    -0.0008    -0.432    -0.154    -0.144 -0.5840  0.1001  0.8056
              Bcc     0.0036     1.918     0.684     0.640  0.4658  0.8540  0.2315
 
              Baa    -0.0404    -5.417    -1.933    -1.807  0.2660  0.9131  0.3091
    37 C(13)  Bbb    -0.0388    -5.213    -1.860    -1.739  0.9335 -0.3240  0.1538
              Bcc     0.0792    10.631     3.793     3.546 -0.2406 -0.2476  0.9385
 
              Baa    -0.0214     1.548     0.552     0.516 -0.2188 -0.2639  0.9394
    38 O(17)  Bbb     0.0094    -0.681    -0.243    -0.227  0.6637  0.6655  0.3415
              Bcc     0.0120    -0.867    -0.309    -0.289  0.7153 -0.6982 -0.0295
 
              Baa    -0.0195    -2.616    -0.934    -0.873 -0.1875 -0.2838  0.9404
    39 C(13)  Bbb     0.0078     1.042     0.372     0.348 -0.3716  0.9067  0.1996
              Bcc     0.0117     1.574     0.562     0.525  0.9093  0.3120  0.2754
 
              Baa    -0.0008    -0.110    -0.039    -0.037  0.6380  0.7027  0.3150
    40 C(13)  Bbb    -0.0001    -0.009    -0.003    -0.003 -0.1367 -0.2992  0.9443
              Bcc     0.0009     0.119     0.043     0.040  0.7578 -0.6455 -0.0949
 
              Baa    -0.0192    -2.580    -0.920    -0.860 -0.0535  0.9514  0.3033
    41 C(13)  Bbb    -0.0179    -2.406    -0.859    -0.803  0.9788 -0.0102  0.2046
              Bcc     0.0372     4.986     1.779     1.663 -0.1978 -0.3079  0.9307
 
              Baa    -0.0094    -0.385    -0.137    -0.128  0.6214  0.7124  0.3261
    42 S(33)  Bbb    -0.0020    -0.082    -0.029    -0.027  0.7777 -0.5103 -0.3671
              Bcc     0.0114     0.467     0.167     0.156  0.0951 -0.4817  0.8712
 
              Baa    -0.0003    -0.152    -0.054    -0.051  0.0330 -0.0653  0.9973
    43 H(1)   Bbb    -0.0002    -0.123    -0.044    -0.041  0.5957  0.8025  0.0329
              Bcc     0.0005     0.275     0.098     0.092  0.8025 -0.5930 -0.0654
 
              Baa    -0.0006    -0.322    -0.115    -0.108  0.2634  0.2244  0.9382
    44 H(1)   Bbb    -0.0004    -0.240    -0.086    -0.080  0.7332  0.5855 -0.3459
              Bcc     0.0011     0.562     0.201     0.187 -0.6270  0.7790 -0.0103
 
              Baa    -0.0006    -0.314    -0.112    -0.105  0.5151  0.1259  0.8478
    45 H(1)   Bbb    -0.0005    -0.252    -0.090    -0.084  0.5647  0.6943 -0.4462
              Bcc     0.0011     0.566     0.202     0.189 -0.6448  0.7086  0.2865
 
              Baa    -0.0114    -1.529    -0.545    -0.510 -0.1937 -0.2968  0.9351
    46 C(13)  Bbb     0.0050     0.676     0.241     0.225  0.3940  0.8494  0.3512
              Bcc     0.0064     0.853     0.304     0.284  0.8985 -0.4364  0.0476
 
              Baa    -0.0188     1.357     0.484     0.453  0.7564 -0.6488 -0.0834
    47 O(17)  Bbb    -0.0166     1.198     0.427     0.399  0.6373  0.7022  0.3175
              Bcc     0.0353    -2.555    -0.912    -0.852 -0.1475 -0.2933  0.9446
 
              Baa    -0.0185    -2.486    -0.887    -0.829 -0.0222  0.9577  0.2869
    48 C(13)  Bbb    -0.0173    -2.317    -0.827    -0.773  0.9817 -0.0334  0.1875
              Bcc     0.0358     4.803     1.714     1.602 -0.1892 -0.2858  0.9394
 
              Baa    -0.0006    -0.324    -0.116    -0.108 -0.1914 -0.2870  0.9386
    49 H(1)   Bbb    -0.0001    -0.078    -0.028    -0.026  0.3448  0.8757  0.3380
              Bcc     0.0008     0.403     0.144     0.134  0.9190 -0.3883  0.0686
 
              Baa    -0.0008    -0.101    -0.036    -0.034 -0.2054 -0.3036  0.9304
    50 C(13)  Bbb    -0.0002    -0.023    -0.008    -0.008  0.8135 -0.5815 -0.0102
              Bcc     0.0009     0.124     0.044     0.041  0.5441  0.7547  0.3664
 
              Baa    -0.0025    -1.327    -0.473    -0.443  0.2242  0.9204  0.3204
    51 H(1)   Bbb    -0.0002    -0.084    -0.030    -0.028 -0.1823 -0.2833  0.9415
              Bcc     0.0026     1.410     0.503     0.470  0.9573 -0.2695  0.1043
 
              Baa    -0.0005    -0.249    -0.089    -0.083 -0.1996 -0.0014  0.9799
    52 H(1)   Bbb    -0.0002    -0.100    -0.036    -0.033  0.7236 -0.6745  0.1464
              Bcc     0.0007     0.349     0.125     0.117  0.6608  0.7382  0.1357
 
              Baa    -0.0005    -0.272    -0.097    -0.091 -0.2294 -0.3026  0.9251
    53 H(1)   Bbb    -0.0000    -0.020    -0.007    -0.007  0.8184 -0.5744  0.0151
              Bcc     0.0005     0.292     0.104     0.097  0.5268  0.7606  0.3795
 
              Baa    -0.0004    -0.238    -0.085    -0.079 -0.2149 -0.5364  0.8162
    54 H(1)   Bbb    -0.0002    -0.102    -0.037    -0.034  0.7953 -0.5811 -0.1725
              Bcc     0.0006     0.341     0.122     0.114  0.5668  0.6120  0.5515
 

 ---------------------------------------------------------------------------------

 Unable to Open any file for archive entry.
 1\1\GINC-CX3-7-9\FOpt\UB3LYP\6-311+G(d,p)\C26H18N2O6S2(1-,2)\NS5018\28
 -Oct-2021\0\\# opt=modredundant b3lyp/6-311+g(d,p) scrf=(pcm, solvent=
 water)\\NDI_-175.pdb\\-1,2\C,-2.4253306092,-2.8768856131,-0.4488217421
 \C,-2.2019618231,-1.436663054,-0.3924309336\C,-3.2354268945,-0.5750506
 449,0.0439151394\C,-4.4895151816,-1.0863709516,0.4402418677\C,-4.74068
 23509,-2.5244362771,0.40023897\C,-0.9408423721,-0.9191151779,-0.689989
 2999\C,-2.9850970556,0.8347451795,0.065290213\C,-1.7208577137,1.350244
 3856,-0.3436031551\C,-0.6404466897,0.4480286869,-0.6520186234\C,-1.644
 7942684,2.7831476541,-0.6005290937\C,-3.8577815587,3.1335400524,0.4845
 946499\C,-4.0377376056,1.689181236,0.4842672188\C,-5.2756890357,1.1521
 912795,0.8922109742\C,-5.5029236126,-0.2084160723,0.8729239848\H,-6.45
 67211739,-0.618063756,1.1787835061\H,-6.0497887269,1.8369905243,1.2140
 045299\H,-0.1603231419,-1.6379368103,-0.8922320092\N,-2.6588468343,3.5
 975671736,-0.0597657154\N,-3.6889744396,-3.3370889741,-0.0564359146\O,
 -1.5707501831,-3.6909817807,-0.8186643931\O,-5.8163492458,-3.029372043
 3,0.7409611832\O,-4.7100394614,3.929213083,0.9030077534\O,-0.764655662
 6,3.3232298412,-1.2810475547\C,-2.4858646857,5.0468756497,-0.212290248
 7\H,-1.449337545,5.307484402,-0.0111555477\H,-2.7335427908,5.362375301
 9,-1.2288211077\H,-3.1492515448,5.5421836428,0.4895326726\C,-3.9013748
 812,-4.7879314795,-0.1231880022\H,-3.6902456861,-5.1454844024,-1.13078
 77148\H,-3.2337998959,-5.2980017443,0.5730148374\H,-4.934247712,-4.989
 4443927,0.1396049101\C,0.7886467167,0.7946486197,-0.7159555062\C,1.811
 3567685,-0.056444343,-1.1085511744\S,1.4727790401,2.1870992891,0.10059
 50731\C,3.1040575947,0.4050659222,-0.7843112674\H,1.6373042109,-0.9842
 411807,-1.6316585603\C,3.1225258919,1.6111041007,-0.09103402\O,4.28002
 27666,-0.212369521,-1.0901687259\C,4.2666492135,2.3559894473,0.3663908
 905\C,4.2225506176,-1.4519301445,-1.8022515913\C,4.2891570021,3.547243
 8888,1.0842917746\S,5.9246590353,1.8304278779,0.0699160188\H,5.2559234
 243,-1.7614313724,-1.945096824\H,3.6901470102,-2.2119823266,-1.2235705
 737\H,3.7415247945,-1.3226077962,-2.7758534364\C,5.5970682259,4.025321
 22,1.3853648345\O,3.1178936591,4.1442887831,1.4348319038\C,6.572797117
 4,3.2009184228,0.900971307\H,5.804446681,4.9322312849,1.9343731623\C,3
 .183052194,5.3693812388,2.1725682039\H,7.6424064966,3.3167553761,0.986
 8899746\H,3.6953438752,6.1456265022,1.5976121907\H,2.1509864002,5.6666
 113636,2.3465319969\H,3.6879016458,5.2225384289,3.1313029944\\Version=
 ES64L-G16RevC.01\State=2-A\HF=-2359.4988715\S2=0.759838\S2-1=0.\S2A=0.
 750087\RMSD=7.090e-09\RMSF=8.091e-04\Dipole=5.8791667,1.3755184,0.5284
 652\Quadrupole=-25.5581348,4.5258251,21.0323097,-4.0125243,11.9924671,
 11.3904941\PG=C01 [X(C26H18N2O6S2)]\\@
 The archive entry for this job was punched.


 Sometimes the fool who rushes in gets the job done.
                                    -- Al Bernstein
 Job cpu time:       7 days 11 hours 48 minutes 56.0 seconds.
 Elapsed time:       0 days 11 hours 21 minutes 14.0 seconds.
 File lengths (MBytes):  RWF=   1186 Int=      0 D2E=      0 Chk=     96 Scr=      1
 Normal termination of Gaussian 16 at Thu Oct 28 10:12:09 2021.
