 Entering Gaussian System, Link 0=g16
 Input=NDI_-110.gjf
 Output=NDI_-110.log
 Initial command:
 /apps/gaussian/g16-c01-avx/g16/l1.exe "/tmp/pbs.4768648[65].pbs/Gau-1583846.inp" -scrdir="/tmp/pbs.4768648[65].pbs/"
 Entering Link 1 = /apps/gaussian/g16-c01-avx/g16/l1.exe PID=   1583847.
  
 Copyright (c) 1988-2019, Gaussian, Inc.  All Rights Reserved.
  
 This is part of the Gaussian(R) 16 program.  It is based on
 the Gaussian(R) 09 system (copyright 2009, Gaussian, Inc.),
 the Gaussian(R) 03 system (copyright 2003, Gaussian, Inc.),
 the Gaussian(R) 98 system (copyright 1998, Gaussian, Inc.),
 the Gaussian(R) 94 system (copyright 1995, Gaussian, Inc.),
 the Gaussian 92(TM) system (copyright 1992, Gaussian, Inc.),
 the Gaussian 90(TM) system (copyright 1990, Gaussian, Inc.),
 the Gaussian 88(TM) system (copyright 1988, Gaussian, Inc.),
 the Gaussian 86(TM) system (copyright 1986, Carnegie Mellon
 University), and the Gaussian 82(TM) system (copyright 1983,
 Carnegie Mellon University). Gaussian is a federally registered
 trademark of Gaussian, Inc.
  
 This software contains proprietary and confidential information,
 including trade secrets, belonging to Gaussian, Inc.
  
 This software is provided under written license and may be
 used, copied, transmitted, or stored only in accord with that
 written license.
  
 The following legend is applicable only to US Government
 contracts under FAR:
  
                    RESTRICTED RIGHTS LEGEND
  
 Use, reproduction and disclosure by the US Government is
 subject to restrictions as set forth in subparagraphs (a)
 and (c) of the Commercial Computer Software - Restricted
 Rights clause in FAR 52.227-19.
  
 Gaussian, Inc.
 340 Quinnipiac St., Bldg. 40, Wallingford CT 06492
  
  
 ---------------------------------------------------------------
 Warning -- This program may not be used in any manner that
 competes with the business of Gaussian, Inc. or will provide
 assistance to any competitor of Gaussian, Inc.  The licensee
 of this program is prohibited from giving any competitor of
 Gaussian, Inc. access to this program.  By using this program,
 the user acknowledges that Gaussian, Inc. is engaged in the
 business of creating and licensing software in the field of
 computational chemistry and represents and warrants to the
 licensee that it is not a competitor of Gaussian, Inc. and that
 it will not use this program in any manner prohibited above.
 ---------------------------------------------------------------
  

 Cite this work as:
 Gaussian 16, Revision C.01,
 M. J. Frisch, G. W. Trucks, H. B. Schlegel, G. E. Scuseria, 
 M. A. Robb, J. R. Cheeseman, G. Scalmani, V. Barone, 
 G. A. Petersson, H. Nakatsuji, X. Li, M. Caricato, A. V. Marenich, 
 J. Bloino, B. G. Janesko, R. Gomperts, B. Mennucci, H. P. Hratchian, 
 J. V. Ortiz, A. F. Izmaylov, J. L. Sonnenberg, D. Williams-Young, 
 F. Ding, F. Lipparini, F. Egidi, J. Goings, B. Peng, A. Petrone, 
 T. Henderson, D. Ranasinghe, V. G. Zakrzewski, J. Gao, N. Rega, 
 G. Zheng, W. Liang, M. Hada, M. Ehara, K. Toyota, R. Fukuda, 
 J. Hasegawa, M. Ishida, T. Nakajima, Y. Honda, O. Kitao, H. Nakai, 
 T. Vreven, K. Throssell, J. A. Montgomery, Jr., J. E. Peralta, 
 F. Ogliaro, M. J. Bearpark, J. J. Heyd, E. N. Brothers, K. N. Kudin, 
 V. N. Staroverov, T. A. Keith, R. Kobayashi, J. Normand, 
 K. Raghavachari, A. P. Rendell, J. C. Burant, S. S. Iyengar, 
 J. Tomasi, M. Cossi, J. M. Millam, M. Klene, C. Adamo, R. Cammi, 
 J. W. Ochterski, R. L. Martin, K. Morokuma, O. Farkas, 
 J. B. Foresman, and D. J. Fox, Gaussian, Inc., Wallingford CT, 2019.
 
 ******************************************
 Gaussian 16:  ES64L-G16RevC.01  3-Jul-2019
                27-Oct-2021 
 ******************************************
 %mem=100GB
 %nprocshared=16
 Will use up to   16 processors via shared memory.
 ---------------------------------------------------------------
 # opt=modredundant b3lyp/6-311+g(d,p) scrf=(pcm, solvent=water)
 ---------------------------------------------------------------
 1/18=120,19=15,26=3,38=1/1,3;
 2/9=110,12=2,17=6,18=5,40=1/2;
 3/5=4,6=6,7=111,11=2,25=1,30=1,70=2201,71=1,72=1,74=-5/1,2,3;
 4//1;
 5/5=2,38=5,53=1/2;
 6/7=2,8=2,9=2,10=2,28=1/1;
 7//1,2,3,16;
 1/18=20,19=15,26=3/3(2);
 2/9=110/2;
 99//99;
 2/9=110/2;
 3/5=4,6=6,7=111,11=2,25=1,30=1,70=2205,71=1,72=1,74=-5/1,2,3;
 4/5=5,16=3,69=1/1;
 5/5=2,38=5,53=1/2;
 7//1,2,3,16;
 1/18=20,19=15,26=3/3(-5);
 2/9=110/2;
 6/7=2,8=2,9=2,10=2,19=2,28=1/1;
 99/9=1/99;
 ------------
 NDI_-110.pdb
 ------------
 Symbolic Z-matrix:
 Charge = -1 Multiplicity = 2
 C                    -2.563    -2.994    -0.409 
 C                    -2.257    -1.551    -0.224 
 C                    -3.301    -0.607    -0.083 
 C                    -4.65     -1.024    -0.115 
 C                    -4.992    -2.459    -0.304 
 C                    -0.949    -1.137    -0.215 
 C                    -2.962     0.764     0.102 
 C                    -1.595     1.188     0.123 
 C                    -0.561     0.232    -0.072 
 C                    -1.328     2.616     0.446 
 C                    -3.777     3.115     0.508 
 C                    -4.035     1.679     0.268 
 C                    -5.356     1.252     0.23 
 C                    -5.672    -0.098     0.036 
 H                    -6.699    -0.442     0.008 
 H                    -6.133     1.997     0.361 
 H                    -0.19     -1.895    -0.369 
 N                    -2.432     3.476     0.608 
 N                    -3.916    -3.353    -0.438 
 O                    -1.695    -3.847    -0.532 
 O                    -6.149    -2.85     -0.34 
 O                    -4.676     3.938     0.629 
 O                    -0.212     3.097     0.596 
 C                    -2.111     4.875     0.912 
 H                    -1.54      4.931     1.84 
 H                    -1.5       5.299     0.111 
 H                    -3.05      5.414     1.003 
 C                    -4.206    -4.779    -0.625 
 H                    -3.759    -5.126    -1.559 
 H                    -3.775    -5.355     0.196 
 H                    -5.286    -4.897    -0.649 
 C                     0.876     0.482    -0.178 
 C                     1.733     0.388    -1.258 
 S                     1.789     0.826     1.291 
 C                     3.086     0.592    -0.922 
 H                     1.39      0.187    -2.26 
 C                     3.312     0.857     0.432 
 O                     4.145     0.554    -1.774 
 C                     4.564     1.147     1.073 
 C                     3.866     0.424    -3.165 
 C                     4.791     1.387     2.426 
 S                     6.09      1.249     0.198 
 H                     4.828     0.496    -3.672 
 H                     3.409    -0.547    -3.389 
 H                     3.204     1.227    -3.513 
 C                     6.152     1.647     2.752 
 O                     3.742     1.361     3.29 
 C                     6.959     1.604     1.647 
 H                     6.514     1.854     3.75 
 C                     4.01      1.575     4.672 
 H                     8.028     1.76      1.607 
 H                     4.435     2.572     4.845 
 H                     3.05      1.498     5.18 
 H                     4.694     0.815     5.067 
 
 The following ModRedundant input section has been read:
 D       8       9      32      33 F                                           
 

 GradGradGradGradGradGradGradGradGradGradGradGradGradGradGradGradGradGrad
 Berny optimization.
 Initialization pass.
                           ----------------------------
                           !    Initial Parameters    !
                           ! (Angstroms and Degrees)  !
 --------------------------                            --------------------------
 ! Name  Definition              Value          Derivative Info.                !
 --------------------------------------------------------------------------------
 ! R1    R(1,2)                  1.4866         estimate D2E/DX2                !
 ! R2    R(1,19)                 1.4001         estimate D2E/DX2                !
 ! R3    R(1,20)                 1.2232         estimate D2E/DX2                !
 ! R4    R(2,3)                  1.4146         estimate D2E/DX2                !
 ! R5    R(2,6)                  1.372          estimate D2E/DX2                !
 ! R6    R(3,4)                  1.4123         estimate D2E/DX2                !
 ! R7    R(3,7)                  1.4244         estimate D2E/DX2                !
 ! R8    R(4,5)                  1.4872         estimate D2E/DX2                !
 ! R9    R(4,14)                 1.3874         estimate D2E/DX2                !
 ! R10   R(5,19)                 1.4053         estimate D2E/DX2                !
 ! R11   R(5,21)                 1.2218         estimate D2E/DX2                !
 ! R12   R(6,9)                  1.4301         estimate D2E/DX2                !
 ! R13   R(6,17)                 1.0837         estimate D2E/DX2                !
 ! R14   R(7,8)                  1.4314         estimate D2E/DX2                !
 ! R15   R(7,12)                 1.4199         estimate D2E/DX2                !
 ! R16   R(8,9)                  1.4217         estimate D2E/DX2                !
 ! R17   R(8,10)                 1.4882         estimate D2E/DX2                !
 ! R18   R(9,32)                 1.4624         estimate D2E/DX2                !
 ! R19   R(10,18)                1.4088         estimate D2E/DX2                !
 ! R20   R(10,23)                1.2245         estimate D2E/DX2                !
 ! R21   R(11,12)                1.4786         estimate D2E/DX2                !
 ! R22   R(11,18)                1.3962         estimate D2E/DX2                !
 ! R23   R(11,22)                1.2248         estimate D2E/DX2                !
 ! R24   R(12,13)                1.3888         estimate D2E/DX2                !
 ! R25   R(13,14)                1.4            estimate D2E/DX2                !
 ! R26   R(13,16)                1.0844         estimate D2E/DX2                !
 ! R27   R(14,15)                1.0834         estimate D2E/DX2                !
 ! R28   R(18,24)                1.4672         estimate D2E/DX2                !
 ! R29   R(19,28)                1.4672         estimate D2E/DX2                !
 ! R30   R(24,25)                1.091          estimate D2E/DX2                !
 ! R31   R(24,26)                1.093          estimate D2E/DX2                !
 ! R32   R(24,27)                1.0865         estimate D2E/DX2                !
 ! R33   R(28,29)                1.0921         estimate D2E/DX2                !
 ! R34   R(28,30)                1.0916         estimate D2E/DX2                !
 ! R35   R(28,31)                1.0867         estimate D2E/DX2                !
 ! R36   R(32,33)                1.3819         estimate D2E/DX2                !
 ! R37   R(32,34)                1.7635         estimate D2E/DX2                !
 ! R38   R(33,35)                1.4089         estimate D2E/DX2                !
 ! R39   R(33,36)                1.078          estimate D2E/DX2                !
 ! R40   R(34,37)                1.7488         estimate D2E/DX2                !
 ! R41   R(35,37)                1.3981         estimate D2E/DX2                !
 ! R42   R(35,38)                1.3597         estimate D2E/DX2                !
 ! R43   R(37,39)                1.4361         estimate D2E/DX2                !
 ! R44   R(38,40)                1.4246         estimate D2E/DX2                !
 ! R45   R(39,41)                1.3927         estimate D2E/DX2                !
 ! R46   R(39,42)                1.762          estimate D2E/DX2                !
 ! R47   R(40,43)                1.0898         estimate D2E/DX2                !
 ! R48   R(40,44)                1.0963         estimate D2E/DX2                !
 ! R49   R(40,45)                1.0973         estimate D2E/DX2                !
 ! R50   R(41,46)                1.4234         estimate D2E/DX2                !
 ! R51   R(41,47)                1.3593         estimate D2E/DX2                !
 ! R52   R(42,48)                1.7265         estimate D2E/DX2                !
 ! R53   R(46,48)                1.369          estimate D2E/DX2                !
 ! R54   R(46,49)                1.0816         estimate D2E/DX2                !
 ! R55   R(47,50)                1.4239         estimate D2E/DX2                !
 ! R56   R(48,51)                1.0811         estimate D2E/DX2                !
 ! R57   R(50,52)                1.0975         estimate D2E/DX2                !
 ! R58   R(50,53)                1.0888         estimate D2E/DX2                !
 ! R59   R(50,54)                1.0961         estimate D2E/DX2                !
 ! A1    A(2,1,19)             116.767          estimate D2E/DX2                !
 ! A2    A(2,1,20)             122.9113         estimate D2E/DX2                !
 ! A3    A(19,1,20)            120.3217         estimate D2E/DX2                !
 ! A4    A(1,2,3)              120.5473         estimate D2E/DX2                !
 ! A5    A(1,2,6)              119.3369         estimate D2E/DX2                !
 ! A6    A(3,2,6)              120.1056         estimate D2E/DX2                !
 ! A7    A(2,3,4)              120.3743         estimate D2E/DX2                !
 ! A8    A(2,3,7)              118.662          estimate D2E/DX2                !
 ! A9    A(4,3,7)              120.9617         estimate D2E/DX2                !
 ! A10   A(3,4,5)              120.4909         estimate D2E/DX2                !
 ! A11   A(3,4,14)             120.2702         estimate D2E/DX2                !
 ! A12   A(5,4,14)             119.2382         estimate D2E/DX2                !
 ! A13   A(4,5,19)             116.7341         estimate D2E/DX2                !
 ! A14   A(4,5,21)             122.024          estimate D2E/DX2                !
 ! A15   A(19,5,21)            121.2418         estimate D2E/DX2                !
 ! A16   A(2,6,9)              123.2421         estimate D2E/DX2                !
 ! A17   A(2,6,17)             117.1119         estimate D2E/DX2                !
 ! A18   A(9,6,17)             119.589          estimate D2E/DX2                !
 ! A19   A(3,7,8)              120.9519         estimate D2E/DX2                !
 ! A20   A(3,7,12)             117.1037         estimate D2E/DX2                !
 ! A21   A(8,7,12)             121.944          estimate D2E/DX2                !
 ! A22   A(7,8,9)              119.5639         estimate D2E/DX2                !
 ! A23   A(7,8,10)             117.3064         estimate D2E/DX2                !
 ! A24   A(9,8,10)             122.9922         estimate D2E/DX2                !
 ! A25   A(6,9,8)              117.3944         estimate D2E/DX2                !
 ! A26   A(6,9,32)             115.0236         estimate D2E/DX2                !
 ! A27   A(8,9,32)             127.5648         estimate D2E/DX2                !
 ! A28   A(8,10,18)            118.042          estimate D2E/DX2                !
 ! A29   A(8,10,23)            124.5436         estimate D2E/DX2                !
 ! A30   A(18,10,23)           117.4097         estimate D2E/DX2                !
 ! A31   A(12,11,18)           115.5202         estimate D2E/DX2                !
 ! A32   A(12,11,22)           122.7205         estimate D2E/DX2                !
 ! A33   A(18,11,22)           121.7534         estimate D2E/DX2                !
 ! A34   A(7,12,11)            120.8614         estimate D2E/DX2                !
 ! A35   A(7,12,13)            121.162          estimate D2E/DX2                !
 ! A36   A(11,12,13)           117.9699         estimate D2E/DX2                !
 ! A37   A(12,13,14)           120.9948         estimate D2E/DX2                !
 ! A38   A(12,13,16)           117.8401         estimate D2E/DX2                !
 ! A39   A(14,13,16)           121.1642         estimate D2E/DX2                !
 ! A40   A(4,14,13)            119.5003         estimate D2E/DX2                !
 ! A41   A(4,14,15)            118.9169         estimate D2E/DX2                !
 ! A42   A(13,14,15)           121.5811         estimate D2E/DX2                !
 ! A43   A(10,18,11)           126.0753         estimate D2E/DX2                !
 ! A44   A(10,18,24)           115.7508         estimate D2E/DX2                !
 ! A45   A(11,18,24)           118.1737         estimate D2E/DX2                !
 ! A46   A(1,19,5)             125.0856         estimate D2E/DX2                !
 ! A47   A(1,19,28)            116.2868         estimate D2E/DX2                !
 ! A48   A(5,19,28)            118.6276         estimate D2E/DX2                !
 ! A49   A(18,24,25)           109.8574         estimate D2E/DX2                !
 ! A50   A(18,24,26)           109.8979         estimate D2E/DX2                !
 ! A51   A(18,24,27)           107.5355         estimate D2E/DX2                !
 ! A52   A(25,24,26)           108.1108         estimate D2E/DX2                !
 ! A53   A(25,24,27)           110.8301         estimate D2E/DX2                !
 ! A54   A(26,24,27)           110.6124         estimate D2E/DX2                !
 ! A55   A(19,28,29)           109.6906         estimate D2E/DX2                !
 ! A56   A(19,28,30)           109.8136         estimate D2E/DX2                !
 ! A57   A(19,28,31)           107.7461         estimate D2E/DX2                !
 ! A58   A(29,28,30)           108.2991         estimate D2E/DX2                !
 ! A59   A(29,28,31)           110.6959         estimate D2E/DX2                !
 ! A60   A(30,28,31)           110.5924         estimate D2E/DX2                !
 ! A61   A(9,32,33)            130.8733         estimate D2E/DX2                !
 ! A62   A(9,32,34)            118.7959         estimate D2E/DX2                !
 ! A63   A(33,32,34)           110.0731         estimate D2E/DX2                !
 ! A64   A(32,33,35)           113.5348         estimate D2E/DX2                !
 ! A65   A(32,33,36)           122.8059         estimate D2E/DX2                !
 ! A66   A(35,33,36)           123.6567         estimate D2E/DX2                !
 ! A67   A(32,34,37)            92.5887         estimate D2E/DX2                !
 ! A68   A(33,35,37)           114.4334         estimate D2E/DX2                !
 ! A69   A(33,35,38)           126.4726         estimate D2E/DX2                !
 ! A70   A(37,35,38)           119.094          estimate D2E/DX2                !
 ! A71   A(34,37,35)           109.3638         estimate D2E/DX2                !
 ! A72   A(34,37,39)           122.9261         estimate D2E/DX2                !
 ! A73   A(35,37,39)           127.6955         estimate D2E/DX2                !
 ! A74   A(35,38,40)           117.505          estimate D2E/DX2                !
 ! A75   A(37,39,41)           127.6247         estimate D2E/DX2                !
 ! A76   A(37,39,42)           123.0284         estimate D2E/DX2                !
 ! A77   A(41,39,42)           109.3469         estimate D2E/DX2                !
 ! A78   A(38,40,43)           105.9819         estimate D2E/DX2                !
 ! A79   A(38,40,44)           111.2204         estimate D2E/DX2                !
 ! A80   A(38,40,45)           111.1622         estimate D2E/DX2                !
 ! A81   A(43,40,44)           109.3557         estimate D2E/DX2                !
 ! A82   A(43,40,45)           109.6727         estimate D2E/DX2                !
 ! A83   A(44,40,45)           109.3815         estimate D2E/DX2                !
 ! A84   A(39,41,46)           114.1922         estimate D2E/DX2                !
 ! A85   A(39,41,47)           119.2369         estimate D2E/DX2                !
 ! A86   A(46,41,47)           126.5703         estimate D2E/DX2                !
 ! A87   A(39,42,48)            91.7788         estimate D2E/DX2                !
 ! A88   A(41,46,48)           111.9027         estimate D2E/DX2                !
 ! A89   A(41,46,49)           124.4909         estimate D2E/DX2                !
 ! A90   A(48,46,49)           123.6065         estimate D2E/DX2                !
 ! A91   A(41,47,50)           117.9566         estimate D2E/DX2                !
 ! A92   A(42,48,46)           112.7794         estimate D2E/DX2                !
 ! A93   A(42,48,51)           119.7577         estimate D2E/DX2                !
 ! A94   A(46,48,51)           127.4626         estimate D2E/DX2                !
 ! A95   A(47,50,52)           111.2473         estimate D2E/DX2                !
 ! A96   A(47,50,53)           106.0362         estimate D2E/DX2                !
 ! A97   A(47,50,54)           111.2844         estimate D2E/DX2                !
 ! A98   A(52,50,53)           109.3969         estimate D2E/DX2                !
 ! A99   A(52,50,54)           109.354          estimate D2E/DX2                !
 ! A100  A(53,50,54)           109.452          estimate D2E/DX2                !
 ! D1    D(19,1,2,3)             0.1578         estimate D2E/DX2                !
 ! D2    D(19,1,2,6)          -178.6792         estimate D2E/DX2                !
 ! D3    D(20,1,2,3)          -179.8231         estimate D2E/DX2                !
 ! D4    D(20,1,2,6)             1.3399         estimate D2E/DX2                !
 ! D5    D(2,1,19,5)            -0.124          estimate D2E/DX2                !
 ! D6    D(2,1,19,28)          179.8267         estimate D2E/DX2                !
 ! D7    D(20,1,19,5)          179.8575         estimate D2E/DX2                !
 ! D8    D(20,1,19,28)          -0.1919         estimate D2E/DX2                !
 ! D9    D(1,2,3,4)              0.0571         estimate D2E/DX2                !
 ! D10   D(1,2,3,7)            179.5453         estimate D2E/DX2                !
 ! D11   D(6,2,3,4)            178.8851         estimate D2E/DX2                !
 ! D12   D(6,2,3,7)             -1.6266         estimate D2E/DX2                !
 ! D13   D(1,2,6,9)            178.625          estimate D2E/DX2                !
 ! D14   D(1,2,6,17)             1.3881         estimate D2E/DX2                !
 ! D15   D(3,2,6,9)             -0.2173         estimate D2E/DX2                !
 ! D16   D(3,2,6,17)          -177.4541         estimate D2E/DX2                !
 ! D17   D(2,3,4,5)             -0.3074         estimate D2E/DX2                !
 ! D18   D(2,3,4,14)           179.3968         estimate D2E/DX2                !
 ! D19   D(7,3,4,5)           -179.7837         estimate D2E/DX2                !
 ! D20   D(7,3,4,14)            -0.0795         estimate D2E/DX2                !
 ! D21   D(2,3,7,8)              1.0523         estimate D2E/DX2                !
 ! D22   D(2,3,7,12)          -178.712          estimate D2E/DX2                !
 ! D23   D(4,3,7,8)           -179.4626         estimate D2E/DX2                !
 ! D24   D(4,3,7,12)             0.7731         estimate D2E/DX2                !
 ! D25   D(3,4,5,19)             0.3343         estimate D2E/DX2                !
 ! D26   D(3,4,5,21)          -179.7799         estimate D2E/DX2                !
 ! D27   D(14,4,5,19)         -179.3729         estimate D2E/DX2                !
 ! D28   D(14,4,5,21)            0.5129         estimate D2E/DX2                !
 ! D29   D(3,4,14,13)           -0.4559         estimate D2E/DX2                !
 ! D30   D(3,4,14,15)         -179.9937         estimate D2E/DX2                !
 ! D31   D(5,4,14,13)          179.252          estimate D2E/DX2                !
 ! D32   D(5,4,14,15)           -0.2858         estimate D2E/DX2                !
 ! D33   D(4,5,19,1)            -0.1141         estimate D2E/DX2                !
 ! D34   D(4,5,19,28)          179.9364         estimate D2E/DX2                !
 ! D35   D(21,5,19,1)          179.9992         estimate D2E/DX2                !
 ! D36   D(21,5,19,28)           0.0496         estimate D2E/DX2                !
 ! D37   D(2,6,9,8)              2.5984         estimate D2E/DX2                !
 ! D38   D(2,6,9,32)          -176.0103         estimate D2E/DX2                !
 ! D39   D(17,6,9,8)           179.77           estimate D2E/DX2                !
 ! D40   D(17,6,9,32)            1.1613         estimate D2E/DX2                !
 ! D41   D(3,7,8,9)              1.3551         estimate D2E/DX2                !
 ! D42   D(3,7,8,10)          -174.5099         estimate D2E/DX2                !
 ! D43   D(12,7,8,9)          -178.8921         estimate D2E/DX2                !
 ! D44   D(12,7,8,10)            5.2428         estimate D2E/DX2                !
 ! D45   D(3,7,12,11)          178.0768         estimate D2E/DX2                !
 ! D46   D(3,7,12,13)           -0.9621         estimate D2E/DX2                !
 ! D47   D(8,7,12,11)           -1.685          estimate D2E/DX2                !
 ! D48   D(8,7,12,13)          179.2761         estimate D2E/DX2                !
 ! D49   D(7,8,9,6)             -3.0809         estimate D2E/DX2                !
 ! D50   D(7,8,9,32)           175.3285         estimate D2E/DX2                !
 ! D51   D(10,8,9,6)           172.5381         estimate D2E/DX2                !
 ! D52   D(10,8,9,32)           -9.0525         estimate D2E/DX2                !
 ! D53   D(7,8,10,18)           -4.7549         estimate D2E/DX2                !
 ! D54   D(7,8,10,23)          174.4235         estimate D2E/DX2                !
 ! D55   D(9,8,10,18)          179.5335         estimate D2E/DX2                !
 ! D56   D(9,8,10,23)           -1.2882         estimate D2E/DX2                !
 ! D57   D(6,9,32,33)           68.438          estimate D2E/DX2                !
 ! D58   D(6,9,32,34)         -105.0913         estimate D2E/DX2                !
 ! D59   D(8,9,32,33)         -110.0035         Frozen                          !
 ! D60   D(8,9,32,34)           76.4672         estimate D2E/DX2                !
 ! D61   D(8,10,18,11)           0.7189         estimate D2E/DX2                !
 ! D62   D(8,10,18,24)        -179.4089         estimate D2E/DX2                !
 ! D63   D(23,10,18,11)       -178.5188         estimate D2E/DX2                !
 ! D64   D(23,10,18,24)          1.3535         estimate D2E/DX2                !
 ! D65   D(18,11,12,7)          -2.3856         estimate D2E/DX2                !
 ! D66   D(18,11,12,13)        176.6833         estimate D2E/DX2                !
 ! D67   D(22,11,12,7)         178.4862         estimate D2E/DX2                !
 ! D68   D(22,11,12,13)         -2.445          estimate D2E/DX2                !
 ! D69   D(12,11,18,10)          2.8444         estimate D2E/DX2                !
 ! D70   D(12,11,18,24)       -177.0251         estimate D2E/DX2                !
 ! D71   D(22,11,18,10)       -178.0181         estimate D2E/DX2                !
 ! D72   D(22,11,18,24)          2.1124         estimate D2E/DX2                !
 ! D73   D(7,12,13,14)           0.461          estimate D2E/DX2                !
 ! D74   D(7,12,13,16)        -179.8781         estimate D2E/DX2                !
 ! D75   D(11,12,13,14)       -178.6049         estimate D2E/DX2                !
 ! D76   D(11,12,13,16)          1.056          estimate D2E/DX2                !
 ! D77   D(12,13,14,4)           0.2708         estimate D2E/DX2                !
 ! D78   D(12,13,14,15)        179.7958         estimate D2E/DX2                !
 ! D79   D(16,13,14,4)        -179.3788         estimate D2E/DX2                !
 ! D80   D(16,13,14,15)          0.1463         estimate D2E/DX2                !
 ! D81   D(10,18,24,25)        -59.609          estimate D2E/DX2                !
 ! D82   D(10,18,24,26)         59.2209         estimate D2E/DX2                !
 ! D83   D(10,18,24,27)        179.6858         estimate D2E/DX2                !
 ! D84   D(11,18,24,25)        120.2739         estimate D2E/DX2                !
 ! D85   D(11,18,24,26)       -120.8962         estimate D2E/DX2                !
 ! D86   D(11,18,24,27)         -0.4313         estimate D2E/DX2                !
 ! D87   D(1,19,28,29)         -58.1407         estimate D2E/DX2                !
 ! D88   D(1,19,28,30)          60.7668         estimate D2E/DX2                !
 ! D89   D(1,19,28,31)        -178.7139         estimate D2E/DX2                !
 ! D90   D(5,19,28,29)         121.8132         estimate D2E/DX2                !
 ! D91   D(5,19,28,30)        -119.2792         estimate D2E/DX2                !
 ! D92   D(5,19,28,31)           1.2401         estimate D2E/DX2                !
 ! D93   D(9,32,33,35)        -174.2405         estimate D2E/DX2                !
 ! D94   D(9,32,33,36)           6.3179         estimate D2E/DX2                !
 ! D95   D(34,32,33,35)         -0.2761         estimate D2E/DX2                !
 ! D96   D(34,32,33,36)       -179.7177         estimate D2E/DX2                !
 ! D97   D(9,32,34,37)         175.3826         estimate D2E/DX2                !
 ! D98   D(33,32,34,37)          0.588          estimate D2E/DX2                !
 ! D99   D(32,33,35,37)         -0.3016         estimate D2E/DX2                !
 ! D100  D(32,33,35,38)        179.735          estimate D2E/DX2                !
 ! D101  D(36,33,35,37)        179.1345         estimate D2E/DX2                !
 ! D102  D(36,33,35,38)         -0.8289         estimate D2E/DX2                !
 ! D103  D(32,34,37,35)         -0.7414         estimate D2E/DX2                !
 ! D104  D(32,34,37,39)        177.9695         estimate D2E/DX2                !
 ! D105  D(33,35,37,34)          0.7311         estimate D2E/DX2                !
 ! D106  D(33,35,37,39)       -177.9014         estimate D2E/DX2                !
 ! D107  D(38,35,37,34)       -179.3026         estimate D2E/DX2                !
 ! D108  D(38,35,37,39)          2.0649         estimate D2E/DX2                !
 ! D109  D(33,35,38,40)          6.5139         estimate D2E/DX2                !
 ! D110  D(37,35,38,40)       -173.448          estimate D2E/DX2                !
 ! D111  D(34,37,39,41)          2.8029         estimate D2E/DX2                !
 ! D112  D(34,37,39,42)       -177.2151         estimate D2E/DX2                !
 ! D113  D(35,37,39,41)       -178.7342         estimate D2E/DX2                !
 ! D114  D(35,37,39,42)          1.2478         estimate D2E/DX2                !
 ! D115  D(35,38,40,43)        175.4548         estimate D2E/DX2                !
 ! D116  D(35,38,40,44)        -65.7919         estimate D2E/DX2                !
 ! D117  D(35,38,40,45)         56.3522         estimate D2E/DX2                !
 ! D118  D(37,39,41,46)       -179.9593         estimate D2E/DX2                !
 ! D119  D(37,39,41,47)         -0.2202         estimate D2E/DX2                !
 ! D120  D(42,39,41,46)          0.0567         estimate D2E/DX2                !
 ! D121  D(42,39,41,47)        179.7958         estimate D2E/DX2                !
 ! D122  D(37,39,42,48)        179.9589         estimate D2E/DX2                !
 ! D123  D(41,39,42,48)         -0.0563         estimate D2E/DX2                !
 ! D124  D(39,41,46,48)         -0.0256         estimate D2E/DX2                !
 ! D125  D(39,41,46,49)       -179.9912         estimate D2E/DX2                !
 ! D126  D(47,41,46,48)       -179.7421         estimate D2E/DX2                !
 ! D127  D(47,41,46,49)          0.2923         estimate D2E/DX2                !
 ! D128  D(39,41,47,50)        178.3707         estimate D2E/DX2                !
 ! D129  D(46,41,47,50)         -1.9256         estimate D2E/DX2                !
 ! D130  D(39,42,48,46)          0.0439         estimate D2E/DX2                !
 ! D131  D(39,42,48,51)        179.832          estimate D2E/DX2                !
 ! D132  D(41,46,48,42)         -0.0193         estimate D2E/DX2                !
 ! D133  D(41,46,48,51)       -179.7875         estimate D2E/DX2                !
 ! D134  D(49,46,48,42)        179.9466         estimate D2E/DX2                !
 ! D135  D(49,46,48,51)          0.1785         estimate D2E/DX2                !
 ! D136  D(41,47,50,52)         62.0456         estimate D2E/DX2                !
 ! D137  D(41,47,50,53)       -179.1045         estimate D2E/DX2                !
 ! D138  D(41,47,50,54)        -60.168          estimate D2E/DX2                !
 --------------------------------------------------------------------------------
 Trust Radius=3.00D-01 FncErr=1.00D-07 GrdErr=1.00D-06 EigMax=2.50D+02 EigMin=1.00D-04
 Number of steps in this run=    307 maximum allowed number of steps=    324.
 GradGradGradGradGradGradGradGradGradGradGradGradGradGradGradGradGradGrad

 Stoichiometry    C26H18N2O6S2(1-,2)
 Framework group  C1[X(C26H18N2O6S2)]
 Deg. of freedom   156
 Full point group                 C1      NOp   1
 Largest Abelian subgroup         C1      NOp   1
 Largest concise Abelian subgroup C1      NOp   1
                         Standard orientation:                         
 ---------------------------------------------------------------------
 Center     Atomic      Atomic             Coordinates (Angstroms)
 Number     Number       Type             X           Y           Z
 ---------------------------------------------------------------------
      1          6           0       -3.318402   -2.776819    0.475933
      2          6           0       -2.666325   -1.471739    0.190145
      3          6           0       -3.436878   -0.289730    0.089874
      4          6           0       -4.838062   -0.333964    0.261454
      5          6           0       -5.523528   -1.623466    0.542936
      6          6           0       -1.308362   -1.426192   -0.000123
      7          6           0       -2.769592    0.940346   -0.175514
      8          6           0       -1.350867    0.983243   -0.360679
      9          6           0       -0.599754   -0.222623   -0.307450
     10          6           0       -0.721898    2.323878   -0.508656
     11          6           0       -2.960212    3.436948   -0.470305
     12          6           0       -3.571546    2.110227   -0.241524
     13          6           0       -4.948819    2.047796   -0.074083
     14          6           0       -5.590253    0.828577    0.175032
     15          1           0       -6.663577    0.769375    0.310382
     16          1           0       -5.509125    2.974084   -0.137038
     17          1           0       -0.771406   -2.366359    0.045975
     18          7           0       -1.566955    3.449898   -0.559822
     19          7           0       -4.709671   -2.765634    0.632700
     20          8           0       -2.694223   -3.824093    0.574826
     21          8           0       -6.734093   -1.694620    0.692252
     22          8           0       -3.621465    4.464003   -0.560162
     23          8           0        0.484734    2.521177   -0.575214
     24          6           0       -0.895078    4.744360   -0.719843
     25          1           0       -0.210777    4.912214    0.113175
     26          1           0       -0.312329    4.749223   -1.644547
     27          1           0       -1.664331    5.511141   -0.748466
     28          6           0       -5.342657   -4.059742    0.910477
     29          1           0       -5.113245   -4.761780    0.106060
     30          1           0       -4.953097   -4.469326    1.844319
     31          1           0       -6.414424   -3.895490    0.982841
     32          6           0        0.829796   -0.394614   -0.563403
     33          6           0        1.493931   -1.011017   -1.606790
     34         16           0        1.980737    0.104395    0.676027
     35          6           0        2.889395   -1.077847   -1.424206
     36          1           0        0.986400   -1.392867   -2.477799
     37          6           0        3.344684   -0.506385   -0.232250
     38          8           0        3.790909   -1.630024   -2.279310
     39          6           0        4.702293   -0.380829    0.218992
     40          6           0        3.310844   -2.073689   -3.545138
     41          6           0        5.152649    0.167017    1.417650
     42         16           0        6.083432   -0.931416   -0.726532
     43          1           0        4.189104   -2.400978   -4.101211
     44          1           0        2.616986   -2.915118   -3.433675
     45          1           0        2.812470   -1.260058   -4.087158
     46          6           0        6.567445    0.146948    1.573039
     47          8           0        4.247573    0.660952    2.303336
     48          6           0        7.191880   -0.416542    0.492908
     49          1           0        7.094162    0.528271    2.437365
     50          6           0        4.735240    1.182430    3.535321
     51          1           0        8.253478   -0.561093    0.348645
     52          1           0        5.397602    2.041631    3.369148
     53          1           0        3.857885    1.504871    4.093777
     54          1           0        5.270866    0.416161    4.107525
 ---------------------------------------------------------------------
 Rotational constants (GHZ):           0.1623373           0.0546843           0.0469480
 Standard basis: 6-311+G(d,p) (5D, 7F)
 There are   952 symmetry adapted cartesian basis functions of A   symmetry.
 There are   916 symmetry adapted basis functions of A   symmetry.
   916 basis functions,  1468 primitive gaussians,   952 cartesian basis functions
   135 alpha electrons      134 beta electrons
       nuclear repulsion energy      4084.6615935080 Hartrees.
 NAtoms=   54 NActive=   54 NUniq=   54 SFac= 1.00D+00 NAtFMM=   60 NAOKFM=F Big=F
 Integral buffers will be    131072 words long.
 Raffenetti 2 integral format.
 Two-electron integral symmetry is turned on.
 ------------------------------------------------------------------------------
 Polarizable Continuum Model (PCM)
 =================================
 Model                : PCM.
 Atomic radii         : UFF (Universal Force Field).
 Polarization charges : Total charges.
 Charge compensation  : None.
 Solution method      : On-the-fly selection.
 Cavity type          : Scaled VdW (van der Waals Surface) (Alpha=1.100).
 Cavity algorithm     : GePol (No added spheres)
                        Default sphere list used, NSphG=   54.
                        Lebedev-Laikov grids with approx.  5.0 points / Ang**2.
                        Smoothing algorithm: York/Karplus (Gamma=1.0000).
                        Polarization charges: spherical gaussians, with
                                              point-specific exponents (IZeta= 3).
                        Self-potential: point-specific (ISelfS= 7).
                        Self-field    : sphere-specific E.n sum rule (ISelfD= 2).
 1st derivatives      : Analytical E(r).r(x)/FMM algorithm (CHGder, D1EAlg=3).
                        Cavity 1st derivative terms included.
 Solvent              : Water, Eps=  78.355300 Eps(inf)=   1.777849
 ------------------------------------------------------------------------------
 One-electron integrals computed using PRISM.
 NBasis=   916 RedAO= T EigKep=  1.10D-06  NBF=   916
 NBsUse=   902 1.00D-06 EigRej=  6.58D-07 NBFU=   902
 ExpMin= 4.05D-02 ExpMax= 9.34D+04 ExpMxC= 3.17D+03 IAcc=3 IRadAn=         5 AccDes= 0.00D+00
 Harris functional with IExCor=  402 and IRadAn=       5 diagonalized for initial guess.
 HarFok:  IExCor=  402 AccDes= 0.00D+00 IRadAn=         5 IDoV= 1 UseB2=F ITyADJ=14
 ICtDFT=  3500011 ScaDFX=  1.000000  1.000000  1.000000  1.000000
 FoFCou: FMM=F IPFlag=           0 FMFlag=      100000 FMFlg1=           0
         NFxFlg=           0 DoJE=T BraDBF=F KetDBF=T FulRan=T
         wScrn=  0.000000 ICntrl=       500 IOpCl=  0 I1Cent=   200000004 NGrid=           0
         NMat0=    1 NMatS0=      1 NMatT0=    0 NMatD0=    1 NMtDS0=    0 NMtDT0=    0
 Petite list used in FoFCou.
 Initial guess <Sx>= 0.0000 <Sy>= 0.0000 <Sz>= 0.5000 <S**2>= 0.7500 S= 0.5000
 Requested convergence on RMS density matrix=1.00D-08 within 128 cycles.
 Requested convergence on MAX density matrix=1.00D-06.
 Requested convergence on             energy=1.00D-06.
 No special actions if energy rises.
 Inv3:  Mode=1 IEnd=    53349267.
 Iteration    1 A*A^-1 deviation from unit magnitude is 6.00D-15 for   4203.
 Iteration    1 A*A^-1 deviation from orthogonality  is 2.76D-15 for   4204   4132.
 Iteration    1 A^-1*A deviation from unit magnitude is 6.00D-15 for   4203.
 Iteration    1 A^-1*A deviation from orthogonality  is 2.69D-14 for   2515   2486.
 Restarting incremental Fock formation.
 Error on total polarization charges =  0.02613
 SCF Done:  E(UB3LYP) =  -2359.49419629     A.U. after   22 cycles
            NFock= 22  Conv=0.38D-08     -V/T= 2.0031
 <Sx>= 0.0000 <Sy>= 0.0000 <Sz>= 0.5000 <S**2>= 0.7572 S= 0.5036
 <L.S>=  0.00000000000    
 Annihilation of the first spin contaminant:
 S**2 before annihilation     0.7572,   after     0.7500

 **********************************************************************

            Population analysis using the SCF Density.

 **********************************************************************

 Orbital symmetries:
 Alpha Orbitals:
       Occupied  (A) (A) (A) (A) (A) (A) (A) (A) (A) (A) (A) (A)
                 (A) (A) (A) (A) (A) (A) (A) (A) (A) (A) (A) (A)
                 (A) (A) (A) (A) (A) (A) (A) (A) (A) (A) (A) (A)
                 (A) (A) (A) (A) (A) (A) (A) (A) (A) (A) (A) (A)
                 (A) (A) (A) (A) (A) (A) (A) (A) (A) (A) (A) (A)
                 (A) (A) (A) (A) (A) (A) (A) (A) (A) (A) (A) (A)
                 (A) (A) (A) (A) (A) (A) (A) (A) (A) (A) (A) (A)
                 (A) (A) (A) (A) (A) (A) (A) (A) (A) (A) (A) (A)
                 (A) (A) (A) (A) (A) (A) (A) (A) (A) (A) (A) (A)
                 (A) (A) (A) (A) (A) (A) (A) (A) (A) (A) (A) (A)
                 (A) (A) (A) (A) (A) (A) (A) (A) (A) (A) (A) (A)
                 (A) (A) (A)
       Virtual   (A) (A) (A) (A) (A) (A) (A) (A) (A) (A) (A) (A)
                 (A) (A) (A) (A) (A) (A) (A) (A) (A) (A) (A) (A)
                 (A) (A) (A) (A) (A) (A) (A) (A) (A) (A) (A) (A)
                 (A) (A) (A) (A) (A) (A) (A) (A) (A) (A) (A) (A)
                 (A) (A) (A) (A) (A) (A) (A) (A) (A) (A) (A) (A)
                 (A) (A) (A) (A) (A) (A) (A) (A) (A) (A) (A) (A)
                 (A) (A) (A) (A) (A) (A) (A) (A) (A) (A) (A) (A)
                 (A) (A) (A) (A) (A) (A) (A) (A) (A) (A) (A) (A)
                 (A) (A) (A) (A) (A) (A) (A) (A) (A) (A) (A) (A)
                 (A) (A) (A) (A) (A) (A) (A) (A) (A) (A) (A) (A)
                 (A) (A) (A) (A) (A) (A) (A) (A) (A) (A) (A) (A)
                 (A) (A) (A) (A) (A) (A) (A) (A) (A) (A) (A) (A)
                 (A) (A) (A) (A) (A) (A) (A) (A) (A) (A) (A) (A)
                 (A) (A) (A) (A) (A) (A) (A) (A) (A) (A) (A) (A)
                 (A) (A) (A) (A) (A) (A) (A) (A) (A) (A) (A) (A)
                 (A) (A) (A) (A) (A) (A) (A) (A) (A) (A) (A) (A)
                 (A) (A) (A) (A) (A) (A) (A) (A) (A) (A) (A) (A)
                 (A) (A) (A) (A) (A) (A) (A) (A) (A) (A) (A) (A)
                 (A) (A) (A) (A) (A) (A) (A) (A) (A) (A) (A) (A)
                 (A) (A) (A) (A) (A) (A) (A) (A) (A) (A) (A) (A)
                 (A) (A) (A) (A) (A) (A) (A) (A) (A) (A) (A) (A)
                 (A) (A) (A) (A) (A) (A) (A) (A) (A) (A) (A) (A)
                 (A) (A) (A) (A) (A) (A) (A) (A) (A) (A) (A) (A)
                 (A) (A) (A) (A) (A) (A) (A) (A) (A) (A) (A) (A)
                 (A) (A) (A) (A) (A) (A) (A) (A) (A) (A) (A) (A)
                 (A) (A) (A) (A) (A) (A) (A) (A) (A) (A) (A) (A)
                 (A) (A) (A) (A) (A) (A) (A) (A) (A) (A) (A) (A)
                 (A) (A) (A) (A) (A) (A) (A) (A) (A) (A) (A) (A)
                 (A) (A) (A) (A) (A) (A) (A) (A) (A) (A) (A) (A)
                 (A) (A) (A) (A) (A) (A) (A) (A) (A) (A) (A) (A)
                 (A) (A) (A) (A) (A) (A) (A) (A) (A) (A) (A) (A)
                 (A) (A) (A) (A) (A) (A) (A) (A) (A) (A) (A) (A)
                 (A) (A) (A) (A) (A) (A) (A) (A) (A) (A) (A) (A)
                 (A) (A) (A) (A) (A) (A) (A) (A) (A) (A) (A) (A)
                 (A) (A) (A) (A) (A) (A) (A) (A) (A) (A) (A) (A)
                 (A) (A) (A) (A) (A) (A) (A) (A) (A) (A) (A) (A)
                 (A) (A) (A) (A) (A) (A) (A) (A) (A) (A) (A) (A)
                 (A) (A) (A) (A) (A) (A) (A) (A) (A) (A) (A) (A)
                 (A) (A) (A) (A) (A) (A) (A) (A) (A) (A) (A) (A)
                 (A) (A) (A) (A) (A) (A) (A) (A) (A) (A) (A) (A)
                 (A) (A) (A) (A) (A) (A) (A) (A) (A) (A) (A) (A)
                 (A) (A) (A) (A) (A) (A) (A) (A) (A) (A) (A) (A)
                 (A) (A) (A) (A) (A) (A) (A) (A) (A) (A) (A) (A)
                 (A) (A) (A) (A) (A) (A) (A) (A) (A) (A) (A) (A)
                 (A) (A) (A) (A) (A) (A) (A) (A) (A) (A) (A) (A)
                 (A) (A) (A) (A) (A) (A) (A) (A) (A) (A) (A) (A)
                 (A) (A) (A) (A) (A) (A) (A) (A) (A) (A) (A) (A)
                 (A) (A) (A) (A) (A) (A) (A) (A) (A) (A) (A) (A)
                 (A) (A) (A) (A) (A) (A) (A) (A) (A) (A) (A) (A)
                 (A) (A) (A) (A) (A) (A) (A) (A) (A) (A) (A) (A)
                 (A) (A) (A) (A) (A) (A) (A) (A) (A) (A) (A) (A)
                 (A) (A) (A) (A) (A) (A) (A) (A) (A) (A) (A) (A)
                 (A) (A) (A) (A) (A) (A) (A) (A) (A) (A) (A) (A)
                 (A) (A) (A) (A) (A) (A) (A) (A) (A) (A) (A) (A)
                 (A) (A) (A) (A) (A) (A) (A) (A) (A) (A) (A) (A)
                 (A) (A) (A) (A) (A) (A) (A) (A) (A) (A) (A) (A)
                 (A) (A) (A) (A) (A) (A) (A) (A) (A) (A) (A) (A)
                 (A) (A) (A) (A) (A) (A) (A) (A) (A) (A) (A) (A)
                 (A) (A) (A) (A) (A) (A) (A) (A) (A) (A) (A) (A)
                 (A) (A) (A) (A) (A) (A) (A) (A) (A) (A) (A) (A)
                 (A) (A) (A) (A) (A) (A) (A) (A) (A) (A) (A) (A)
                 (A) (A) (A) (A) (A) (A) (A) (A) (A) (A) (A) (A)
                 (A) (A) (A) (A) (A) (A) (A) (A) (A) (A) (A) (A)
                 (A) (A) (A) (A) (A) (A) (A) (A) (A) (A) (A)
 Beta  Orbitals:
       Occupied  (A) (A) (A) (A) (A) (A) (A) (A) (A) (A) (A) (A)
                 (A) (A) (A) (A) (A) (A) (A) (A) (A) (A) (A) (A)
                 (A) (A) (A) (A) (A) (A) (A) (A) (A) (A) (A) (A)
                 (A) (A) (A) (A) (A) (A) (A) (A) (A) (A) (A) (A)
                 (A) (A) (A) (A) (A) (A) (A) (A) (A) (A) (A) (A)
                 (A) (A) (A) (A) (A) (A) (A) (A) (A) (A) (A) (A)
                 (A) (A) (A) (A) (A) (A) (A) (A) (A) (A) (A) (A)
                 (A) (A) (A) (A) (A) (A) (A) (A) (A) (A) (A) (A)
                 (A) (A) (A) (A) (A) (A) (A) (A) (A) (A) (A) (A)
                 (A) (A) (A) (A) (A) (A) (A) (A) (A) (A) (A) (A)
                 (A) (A) (A) (A) (A) (A) (A) (A) (A) (A) (A) (A)
                 (A) (A)
       Virtual   (A) (A) (A) (A) (A) (A) (A) (A) (A) (A) (A) (A)
                 (A) (A) (A) (A) (A) (A) (A) (A) (A) (A) (A) (A)
                 (A) (A) (A) (A) (A) (A) (A) (A) (A) (A) (A) (A)
                 (A) (A) (A) (A) (A) (A) (A) (A) (A) (A) (A) (A)
                 (A) (A) (A) (A) (A) (A) (A) (A) (A) (A) (A) (A)
                 (A) (A) (A) (A) (A) (A) (A) (A) (A) (A) (A) (A)
                 (A) (A) (A) (A) (A) (A) (A) (A) (A) (A) (A) (A)
                 (A) (A) (A) (A) (A) (A) (A) (A) (A) (A) (A) (A)
                 (A) (A) (A) (A) (A) (A) (A) (A) (A) (A) (A) (A)
                 (A) (A) (A) (A) (A) (A) (A) (A) (A) (A) (A) (A)
                 (A) (A) (A) (A) (A) (A) (A) (A) (A) (A) (A) (A)
                 (A) (A) (A) (A) (A) (A) (A) (A) (A) (A) (A) (A)
                 (A) (A) (A) (A) (A) (A) (A) (A) (A) (A) (A) (A)
                 (A) (A) (A) (A) (A) (A) (A) (A) (A) (A) (A) (A)
                 (A) (A) (A) (A) (A) (A) (A) (A) (A) (A) (A) (A)
                 (A) (A) (A) (A) (A) (A) (A) (A) (A) (A) (A) (A)
                 (A) (A) (A) (A) (A) (A) (A) (A) (A) (A) (A) (A)
                 (A) (A) (A) (A) (A) (A) (A) (A) (A) (A) (A) (A)
                 (A) (A) (A) (A) (A) (A) (A) (A) (A) (A) (A) (A)
                 (A) (A) (A) (A) (A) (A) (A) (A) (A) (A) (A) (A)
                 (A) (A) (A) (A) (A) (A) (A) (A) (A) (A) (A) (A)
                 (A) (A) (A) (A) (A) (A) (A) (A) (A) (A) (A) (A)
                 (A) (A) (A) (A) (A) (A) (A) (A) (A) (A) (A) (A)
                 (A) (A) (A) (A) (A) (A) (A) (A) (A) (A) (A) (A)
                 (A) (A) (A) (A) (A) (A) (A) (A) (A) (A) (A) (A)
                 (A) (A) (A) (A) (A) (A) (A) (A) (A) (A) (A) (A)
                 (A) (A) (A) (A) (A) (A) (A) (A) (A) (A) (A) (A)
                 (A) (A) (A) (A) (A) (A) (A) (A) (A) (A) (A) (A)
                 (A) (A) (A) (A) (A) (A) (A) (A) (A) (A) (A) (A)
                 (A) (A) (A) (A) (A) (A) (A) (A) (A) (A) (A) (A)
                 (A) (A) (A) (A) (A) (A) (A) (A) (A) (A) (A) (A)
                 (A) (A) (A) (A) (A) (A) (A) (A) (A) (A) (A) (A)
                 (A) (A) (A) (A) (A) (A) (A) (A) (A) (A) (A) (A)
                 (A) (A) (A) (A) (A) (A) (A) (A) (A) (A) (A) (A)
                 (A) (A) (A) (A) (A) (A) (A) (A) (A) (A) (A) (A)
                 (A) (A) (A) (A) (A) (A) (A) (A) (A) (A) (A) (A)
                 (A) (A) (A) (A) (A) (A) (A) (A) (A) (A) (A) (A)
                 (A) (A) (A) (A) (A) (A) (A) (A) (A) (A) (A) (A)
                 (A) (A) (A) (A) (A) (A) (A) (A) (A) (A) (A) (A)
                 (A) (A) (A) (A) (A) (A) (A) (A) (A) (A) (A) (A)
                 (A) (A) (A) (A) (A) (A) (A) (A) (A) (A) (A) (A)
                 (A) (A) (A) (A) (A) (A) (A) (A) (A) (A) (A) (A)
                 (A) (A) (A) (A) (A) (A) (A) (A) (A) (A) (A) (A)
                 (A) (A) (A) (A) (A) (A) (A) (A) (A) (A) (A) (A)
                 (A) (A) (A) (A) (A) (A) (A) (A) (A) (A) (A) (A)
                 (A) (A) (A) (A) (A) (A) (A) (A) (A) (A) (A) (A)
                 (A) (A) (A) (A) (A) (A) (A) (A) (A) (A) (A) (A)
                 (A) (A) (A) (A) (A) (A) (A) (A) (A) (A) (A) (A)
                 (A) (A) (A) (A) (A) (A) (A) (A) (A) (A) (A) (A)
                 (A) (A) (A) (A) (A) (A) (A) (A) (A) (A) (A) (A)
                 (A) (A) (A) (A) (A) (A) (A) (A) (A) (A) (A) (A)
                 (A) (A) (A) (A) (A) (A) (A) (A) (A) (A) (A) (A)
                 (A) (A) (A) (A) (A) (A) (A) (A) (A) (A) (A) (A)
                 (A) (A) (A) (A) (A) (A) (A) (A) (A) (A) (A) (A)
                 (A) (A) (A) (A) (A) (A) (A) (A) (A) (A) (A) (A)
                 (A) (A) (A) (A) (A) (A) (A) (A) (A) (A) (A) (A)
                 (A) (A) (A) (A) (A) (A) (A) (A) (A) (A) (A) (A)
                 (A) (A) (A) (A) (A) (A) (A) (A) (A) (A) (A) (A)
                 (A) (A) (A) (A) (A) (A) (A) (A) (A) (A) (A) (A)
                 (A) (A) (A) (A) (A) (A) (A) (A) (A) (A) (A) (A)
                 (A) (A) (A) (A) (A) (A) (A) (A) (A) (A) (A) (A)
                 (A) (A) (A) (A) (A) (A) (A) (A) (A) (A) (A) (A)
                 (A) (A) (A) (A) (A) (A) (A) (A) (A) (A) (A) (A)
                 (A) (A) (A) (A) (A) (A) (A) (A) (A) (A) (A) (A)
 The electronic state is 2-A.
 Alpha  occ. eigenvalues --  -88.87951 -88.87091 -19.16314 -19.16235 -19.10170
 Alpha  occ. eigenvalues --  -19.10138 -19.09802 -19.09495 -14.36730 -14.36344
 Alpha  occ. eigenvalues --  -10.28501 -10.28309 -10.28129 -10.28032 -10.23898
 Alpha  occ. eigenvalues --  -10.23614 -10.22485 -10.22440 -10.21105 -10.21035
 Alpha  occ. eigenvalues --  -10.20789 -10.20446 -10.20225 -10.20108 -10.19879
 Alpha  occ. eigenvalues --  -10.19876 -10.19670 -10.19613 -10.18683 -10.18579
 Alpha  occ. eigenvalues --  -10.18530 -10.18258 -10.18251 -10.17990 -10.17931
 Alpha  occ. eigenvalues --  -10.17918  -7.96514  -7.95661  -5.92819  -5.92438
 Alpha  occ. eigenvalues --   -5.92087  -5.91980  -5.91592  -5.91211  -1.07889
 Alpha  occ. eigenvalues --   -1.07772  -1.06506  -1.06161  -1.04703  -1.04262
 Alpha  occ. eigenvalues --   -0.94181  -0.93701  -0.89741  -0.89109  -0.87579
 Alpha  occ. eigenvalues --   -0.83945  -0.81517  -0.78564  -0.76255  -0.75619
 Alpha  occ. eigenvalues --   -0.75170  -0.74286  -0.73268  -0.72101  -0.70827
 Alpha  occ. eigenvalues --   -0.69751  -0.69097  -0.67193  -0.65121  -0.63651
 Alpha  occ. eigenvalues --   -0.63147  -0.62430  -0.59630  -0.58504  -0.56598
 Alpha  occ. eigenvalues --   -0.55444  -0.55343  -0.54810  -0.53880  -0.52756
 Alpha  occ. eigenvalues --   -0.51361  -0.49394  -0.48955  -0.48294  -0.47907
 Alpha  occ. eigenvalues --   -0.47786  -0.47736  -0.47408  -0.47293  -0.47053
 Alpha  occ. eigenvalues --   -0.46547  -0.45121  -0.45045  -0.44805  -0.44563
 Alpha  occ. eigenvalues --   -0.43941  -0.43423  -0.42838  -0.42450  -0.42098
 Alpha  occ. eigenvalues --   -0.41236  -0.40943  -0.40809  -0.40568  -0.40479
 Alpha  occ. eigenvalues --   -0.40064  -0.39841  -0.39816  -0.39141  -0.38212
 Alpha  occ. eigenvalues --   -0.37906  -0.37658  -0.37129  -0.36920  -0.35661
 Alpha  occ. eigenvalues --   -0.34944  -0.33798  -0.33626  -0.33304  -0.32705
 Alpha  occ. eigenvalues --   -0.32339  -0.30078  -0.29219  -0.28583  -0.28185
 Alpha  occ. eigenvalues --   -0.27798  -0.27448  -0.27041  -0.26333  -0.26148
 Alpha  occ. eigenvalues --   -0.24583  -0.24334  -0.23734  -0.18573  -0.14727
 Alpha virt. eigenvalues --   -0.05494  -0.05000  -0.03563  -0.02939  -0.00278
 Alpha virt. eigenvalues --   -0.00031   0.00385   0.00819   0.00949   0.01252
 Alpha virt. eigenvalues --    0.01621   0.02338   0.02394   0.02601   0.02761
 Alpha virt. eigenvalues --    0.02963   0.03002   0.03240   0.03570   0.03937
 Alpha virt. eigenvalues --    0.04107   0.04153   0.04430   0.04768   0.05120
 Alpha virt. eigenvalues --    0.05306   0.05506   0.05710   0.05889   0.06409
 Alpha virt. eigenvalues --    0.06624   0.06830   0.07011   0.07597   0.07682
 Alpha virt. eigenvalues --    0.07729   0.08208   0.08431   0.08666   0.08819
 Alpha virt. eigenvalues --    0.09009   0.09197   0.09416   0.09552   0.10058
 Alpha virt. eigenvalues --    0.10318   0.10508   0.10853   0.10939   0.11213
 Alpha virt. eigenvalues --    0.11439   0.11700   0.12033   0.12202   0.12467
 Alpha virt. eigenvalues --    0.12912   0.13088   0.13578   0.13844   0.14171
 Alpha virt. eigenvalues --    0.14249   0.14358   0.14572   0.14892   0.15010
 Alpha virt. eigenvalues --    0.15164   0.15273   0.15726   0.15935   0.16139
 Alpha virt. eigenvalues --    0.16278   0.16488   0.16567   0.16920   0.17089
 Alpha virt. eigenvalues --    0.17416   0.17759   0.18105   0.18261   0.18299
 Alpha virt. eigenvalues --    0.18551   0.18725   0.19145   0.19447   0.19466
 Alpha virt. eigenvalues --    0.19705   0.19822   0.19945   0.20149   0.20327
 Alpha virt. eigenvalues --    0.20572   0.20728   0.20963   0.21124   0.21354
 Alpha virt. eigenvalues --    0.21652   0.21736   0.21858   0.21927   0.22275
 Alpha virt. eigenvalues --    0.22524   0.22602   0.22694   0.23147   0.23309
 Alpha virt. eigenvalues --    0.23428   0.23612   0.23820   0.23896   0.24101
 Alpha virt. eigenvalues --    0.24319   0.24567   0.24673   0.24839   0.25016
 Alpha virt. eigenvalues --    0.25492   0.25610   0.25768   0.26031   0.26275
 Alpha virt. eigenvalues --    0.26394   0.26450   0.26585   0.26867   0.27031
 Alpha virt. eigenvalues --    0.27164   0.27468   0.27681   0.27850   0.28088
 Alpha virt. eigenvalues --    0.28118   0.28592   0.28668   0.28769   0.28936
 Alpha virt. eigenvalues --    0.29365   0.29431   0.29675   0.29716   0.29926
 Alpha virt. eigenvalues --    0.30063   0.30240   0.30555   0.30953   0.31152
 Alpha virt. eigenvalues --    0.31201   0.31277   0.31668   0.31890   0.32122
 Alpha virt. eigenvalues --    0.32446   0.32707   0.32749   0.33262   0.33303
 Alpha virt. eigenvalues --    0.33614   0.33901   0.34447   0.34711   0.34783
 Alpha virt. eigenvalues --    0.35185   0.35502   0.35727   0.36134   0.36193
 Alpha virt. eigenvalues --    0.36706   0.37104   0.37528   0.37949   0.38278
 Alpha virt. eigenvalues --    0.38371   0.39017   0.39145   0.39753   0.40428
 Alpha virt. eigenvalues --    0.40766   0.41034   0.41346   0.41821   0.42690
 Alpha virt. eigenvalues --    0.42941   0.43320   0.43495   0.43951   0.44028
 Alpha virt. eigenvalues --    0.44788   0.45269   0.45750   0.45940   0.46143
 Alpha virt. eigenvalues --    0.46324   0.46439   0.46651   0.46997   0.47328
 Alpha virt. eigenvalues --    0.48036   0.48883   0.49471   0.49918   0.50480
 Alpha virt. eigenvalues --    0.50563   0.50721   0.51057   0.51141   0.52570
 Alpha virt. eigenvalues --    0.53190   0.53335   0.54127   0.55010   0.55091
 Alpha virt. eigenvalues --    0.55679   0.55861   0.56308   0.56445   0.56692
 Alpha virt. eigenvalues --    0.56821   0.57191   0.57366   0.58221   0.58677
 Alpha virt. eigenvalues --    0.58858   0.59255   0.60163   0.60207   0.60585
 Alpha virt. eigenvalues --    0.61317   0.61747   0.62024   0.62596   0.63117
 Alpha virt. eigenvalues --    0.63307   0.63600   0.63785   0.64039   0.64532
 Alpha virt. eigenvalues --    0.65085   0.65107   0.65354   0.65676   0.66078
 Alpha virt. eigenvalues --    0.66618   0.66937   0.67413   0.67606   0.68050
 Alpha virt. eigenvalues --    0.68333   0.68711   0.68829   0.69539   0.70114
 Alpha virt. eigenvalues --    0.70203   0.70788   0.71159   0.71254   0.71525
 Alpha virt. eigenvalues --    0.72508   0.72667   0.73137   0.73376   0.73706
 Alpha virt. eigenvalues --    0.74091   0.74467   0.74836   0.75010   0.75310
 Alpha virt. eigenvalues --    0.75569   0.75733   0.76315   0.76505   0.76805
 Alpha virt. eigenvalues --    0.77220   0.77248   0.77564   0.77919   0.78460
 Alpha virt. eigenvalues --    0.78909   0.79106   0.79157   0.79512   0.80133
 Alpha virt. eigenvalues --    0.81168   0.81645   0.82008   0.82384   0.82996
 Alpha virt. eigenvalues --    0.83760   0.84125   0.85179   0.85433   0.87327
 Alpha virt. eigenvalues --    0.87462   0.87900   0.88313   0.89102   0.89472
 Alpha virt. eigenvalues --    0.90058   0.90676   0.90771   0.91642   0.92266
 Alpha virt. eigenvalues --    0.92767   0.93032   0.93743   0.94662   0.95144
 Alpha virt. eigenvalues --    0.95258   0.95601   0.96302   0.96348   0.97021
 Alpha virt. eigenvalues --    0.97506   0.97727   0.97972   0.98262   0.98758
 Alpha virt. eigenvalues --    0.99541   1.00419   1.00627   1.01547   1.02092
 Alpha virt. eigenvalues --    1.02302   1.02447   1.02923   1.03167   1.03730
 Alpha virt. eigenvalues --    1.04114   1.04387   1.05290   1.05729   1.05888
 Alpha virt. eigenvalues --    1.06387   1.06508   1.06766   1.07235   1.07508
 Alpha virt. eigenvalues --    1.07921   1.08330   1.09112   1.09430   1.09833
 Alpha virt. eigenvalues --    1.10208   1.10439   1.10472   1.11892   1.12853
 Alpha virt. eigenvalues --    1.13233   1.13439   1.14363   1.14573   1.15536
 Alpha virt. eigenvalues --    1.16199   1.17277   1.17620   1.18017   1.18870
 Alpha virt. eigenvalues --    1.19461   1.19916   1.20876   1.21105   1.21698
 Alpha virt. eigenvalues --    1.22410   1.22947   1.24942   1.25502   1.26272
 Alpha virt. eigenvalues --    1.26768   1.26945   1.27285   1.28554   1.29099
 Alpha virt. eigenvalues --    1.29516   1.29710   1.30856   1.31227   1.31803
 Alpha virt. eigenvalues --    1.32536   1.33823   1.34615   1.35447   1.35855
 Alpha virt. eigenvalues --    1.36443   1.37565   1.38393   1.38780   1.40428
 Alpha virt. eigenvalues --    1.42085   1.42717   1.43612   1.43838   1.44030
 Alpha virt. eigenvalues --    1.44154   1.44450   1.44472   1.45016   1.45855
 Alpha virt. eigenvalues --    1.46033   1.46510   1.46839   1.47539   1.47679
 Alpha virt. eigenvalues --    1.48438   1.49008   1.49949   1.50197   1.50727
 Alpha virt. eigenvalues --    1.52098   1.52916   1.53462   1.54217   1.54638
 Alpha virt. eigenvalues --    1.54762   1.55047   1.55317   1.55797   1.56054
 Alpha virt. eigenvalues --    1.56433   1.56530   1.57165   1.57901   1.59495
 Alpha virt. eigenvalues --    1.60122   1.61011   1.61280   1.62399   1.62773
 Alpha virt. eigenvalues --    1.63462   1.63686   1.64408   1.64770   1.65314
 Alpha virt. eigenvalues --    1.65671   1.66134   1.67613   1.68052   1.68224
 Alpha virt. eigenvalues --    1.69173   1.69924   1.70632   1.70685   1.71245
 Alpha virt. eigenvalues --    1.71542   1.72151   1.72421   1.72792   1.73604
 Alpha virt. eigenvalues --    1.74150   1.75341   1.76234   1.76371   1.77151
 Alpha virt. eigenvalues --    1.77502   1.78208   1.78633   1.79069   1.80150
 Alpha virt. eigenvalues --    1.80788   1.81272   1.82366   1.83335   1.83859
 Alpha virt. eigenvalues --    1.84823   1.85181   1.85849   1.87144   1.87552
 Alpha virt. eigenvalues --    1.87926   1.88368   1.88624   1.90552   1.90821
 Alpha virt. eigenvalues --    1.91039   1.91795   1.92076   1.93129   1.93391
 Alpha virt. eigenvalues --    1.93590   1.94648   1.95093   1.96102   1.96607
 Alpha virt. eigenvalues --    1.97358   1.98037   1.98879   1.99711   2.00195
 Alpha virt. eigenvalues --    2.01052   2.02055   2.02717   2.02964   2.03485
 Alpha virt. eigenvalues --    2.03969   2.04478   2.05321   2.05379   2.06113
 Alpha virt. eigenvalues --    2.06387   2.07619   2.07955   2.08878   2.09445
 Alpha virt. eigenvalues --    2.09918   2.10946   2.12182   2.12304   2.12773
 Alpha virt. eigenvalues --    2.13342   2.13866   2.15268   2.15584   2.16225
 Alpha virt. eigenvalues --    2.16420   2.17843   2.19118   2.19640   2.20159
 Alpha virt. eigenvalues --    2.20620   2.21115   2.22588   2.22757   2.22982
 Alpha virt. eigenvalues --    2.24273   2.27561   2.27962   2.28640   2.30281
 Alpha virt. eigenvalues --    2.34098   2.34431   2.34847   2.36991   2.38441
 Alpha virt. eigenvalues --    2.39636   2.41276   2.41815   2.42012   2.43816
 Alpha virt. eigenvalues --    2.44418   2.44815   2.45572   2.47382   2.47543
 Alpha virt. eigenvalues --    2.48265   2.49436   2.49720   2.50048   2.51565
 Alpha virt. eigenvalues --    2.51790   2.52622   2.52896   2.53483   2.53772
 Alpha virt. eigenvalues --    2.54325   2.54847   2.54902   2.55451   2.57628
 Alpha virt. eigenvalues --    2.58452   2.58902   2.60098   2.60504   2.61347
 Alpha virt. eigenvalues --    2.63502   2.64299   2.66122   2.66578   2.67091
 Alpha virt. eigenvalues --    2.67926   2.68712   2.68874   2.69770   2.69911
 Alpha virt. eigenvalues --    2.70577   2.72101   2.72284   2.72982   2.73380
 Alpha virt. eigenvalues --    2.74140   2.74357   2.74762   2.75119   2.77657
 Alpha virt. eigenvalues --    2.78145   2.78517   2.79363   2.79680   2.81978
 Alpha virt. eigenvalues --    2.83846   2.84321   2.84741   2.85452   2.86056
 Alpha virt. eigenvalues --    2.86379   2.86863   2.87862   2.88354   2.88927
 Alpha virt. eigenvalues --    2.89147   2.90388   2.90963   2.92037   2.92427
 Alpha virt. eigenvalues --    2.93338   2.93817   2.94350   2.95313   2.95850
 Alpha virt. eigenvalues --    2.96577   2.97198   2.97736   2.99404   3.00801
 Alpha virt. eigenvalues --    3.00884   3.04025   3.04133   3.05314   3.06681
 Alpha virt. eigenvalues --    3.07870   3.08673   3.09358   3.10727   3.11356
 Alpha virt. eigenvalues --    3.13102   3.14858   3.15895   3.16354   3.16915
 Alpha virt. eigenvalues --    3.18043   3.19052   3.20901   3.22144   3.23277
 Alpha virt. eigenvalues --    3.23945   3.24395   3.25355   3.27080   3.29608
 Alpha virt. eigenvalues --    3.30485   3.31310   3.32698   3.32910   3.35478
 Alpha virt. eigenvalues --    3.35510   3.35953   3.36215   3.37063   3.39140
 Alpha virt. eigenvalues --    3.39573   3.41915   3.42311   3.44312   3.45387
 Alpha virt. eigenvalues --    3.46305   3.46905   3.47652   3.50338   3.50979
 Alpha virt. eigenvalues --    3.52364   3.55356   3.57058   3.59825   3.61377
 Alpha virt. eigenvalues --    3.62374   3.63819   3.67078   3.67490   3.68804
 Alpha virt. eigenvalues --    3.71270   3.72820   3.73387   3.73909   3.76748
 Alpha virt. eigenvalues --    3.77309   3.77530   3.83013   3.84308   3.85396
 Alpha virt. eigenvalues --    3.86685   3.87603   3.91899   3.94336   3.94953
 Alpha virt. eigenvalues --    3.95113   3.96026   3.99098   4.03216   4.04316
 Alpha virt. eigenvalues --    4.06426   4.08635   4.11196   4.14660   4.15103
 Alpha virt. eigenvalues --    4.20126   4.24308   4.27337   4.28603   4.37621
 Alpha virt. eigenvalues --    4.39592   4.42565   4.52498   4.67155   4.86936
 Alpha virt. eigenvalues --    4.88515   4.89005   4.92141   5.02438   5.03110
 Alpha virt. eigenvalues --    5.05370   5.06658   5.07090   5.10135   5.13269
 Alpha virt. eigenvalues --    5.14744   5.26479   5.28360   5.30435   5.33077
 Alpha virt. eigenvalues --    5.42936   5.44324   5.77077   5.77332   5.80810
 Alpha virt. eigenvalues --    5.81625   5.83543   5.87041   8.02647   8.06962
 Alpha virt. eigenvalues --   17.29431  17.36222  17.50076  17.53145  17.58005
 Alpha virt. eigenvalues --   17.64395  23.51500  23.57964  23.73516  23.81416
 Alpha virt. eigenvalues --   23.84045  23.84855  23.86307  23.89207  23.89309
 Alpha virt. eigenvalues --   23.90409  23.91170  23.91293  23.92331  23.95471
 Alpha virt. eigenvalues --   23.95885  23.97794  23.98631  24.00927  24.03034
 Alpha virt. eigenvalues --   24.03131  24.03579  24.08067  24.13301  24.15023
 Alpha virt. eigenvalues --   24.16454  24.17094  35.57761  35.60574  49.96769
 Alpha virt. eigenvalues --   49.97949  50.04017  50.05599  50.07761  50.09321
 Alpha virt. eigenvalues --  189.19930 189.25336
  Beta  occ. eigenvalues --  -88.87951 -88.87083 -19.16312 -19.16235 -19.09993
  Beta  occ. eigenvalues --  -19.09951 -19.09626 -19.09282 -14.36783 -14.36400
  Beta  occ. eigenvalues --  -10.28436 -10.28245 -10.28064 -10.27968 -10.23895
  Beta  occ. eigenvalues --  -10.23616 -10.22485 -10.22440 -10.21106 -10.21050
  Beta  occ. eigenvalues --  -10.20781 -10.20311 -10.20277 -10.20105 -10.19929
  Beta  occ. eigenvalues --  -10.19878 -10.19612 -10.19499 -10.18537 -10.18425
  Beta  occ. eigenvalues --  -10.18365 -10.18259 -10.18203 -10.17903 -10.17903
  Beta  occ. eigenvalues --  -10.17850  -7.96514  -7.95653  -5.92819  -5.92438
  Beta  occ. eigenvalues --   -5.92087  -5.91968  -5.91582  -5.91200  -1.07886
  Beta  occ. eigenvalues --   -1.07772  -1.06262  -1.05907  -1.04389  -1.03928
  Beta  occ. eigenvalues --   -0.94091  -0.93601  -0.89631  -0.89042  -0.87537
  Beta  occ. eigenvalues --   -0.83630  -0.81214  -0.78442  -0.76175  -0.75270
  Beta  occ. eigenvalues --   -0.75045  -0.74238  -0.73196  -0.72063  -0.70784
  Beta  occ. eigenvalues --   -0.69593  -0.68862  -0.67048  -0.64961  -0.63455
  Beta  occ. eigenvalues --   -0.63042  -0.62247  -0.59582  -0.58440  -0.56515
  Beta  occ. eigenvalues --   -0.55381  -0.55268  -0.54687  -0.53873  -0.52599
  Beta  occ. eigenvalues --   -0.51233  -0.49221  -0.48902  -0.48012  -0.47742
  Beta  occ. eigenvalues --   -0.47703  -0.47627  -0.47399  -0.47207  -0.46926
  Beta  occ. eigenvalues --   -0.46513  -0.45037  -0.44952  -0.44721  -0.44494
  Beta  occ. eigenvalues --   -0.43827  -0.43250  -0.42679  -0.42307  -0.41813
  Beta  occ. eigenvalues --   -0.41210  -0.40809  -0.40767  -0.40027  -0.39999
  Beta  occ. eigenvalues --   -0.39771  -0.39722  -0.39092  -0.39015  -0.38066
  Beta  occ. eigenvalues --   -0.37840  -0.37332  -0.37012  -0.36818  -0.35651
  Beta  occ. eigenvalues --   -0.34857  -0.33668  -0.33333  -0.33267  -0.32685
  Beta  occ. eigenvalues --   -0.31795  -0.29103  -0.29029  -0.28427  -0.27729
  Beta  occ. eigenvalues --   -0.27603  -0.27135  -0.26861  -0.26157  -0.25457
  Beta  occ. eigenvalues --   -0.24527  -0.23683  -0.22919  -0.18525
  Beta virt. eigenvalues --   -0.10190  -0.05066  -0.04074  -0.02924  -0.02144
  Beta virt. eigenvalues --   -0.00262   0.00004   0.00396   0.00829   0.00962
  Beta virt. eigenvalues --    0.01260   0.01635   0.02360   0.02621   0.02914
  Beta virt. eigenvalues --    0.02977   0.03177   0.03383   0.03604   0.03664
  Beta virt. eigenvalues --    0.03953   0.04131   0.04177   0.04474   0.04781
  Beta virt. eigenvalues --    0.05137   0.05349   0.05531   0.05733   0.05946
  Beta virt. eigenvalues --    0.06419   0.06661   0.06853   0.07024   0.07633
  Beta virt. eigenvalues --    0.07686   0.07873   0.08255   0.08488   0.08727
  Beta virt. eigenvalues --    0.08851   0.09092   0.09260   0.09436   0.09604
  Beta virt. eigenvalues --    0.10250   0.10349   0.10570   0.10914   0.10980
  Beta virt. eigenvalues --    0.11399   0.11626   0.11760   0.12079   0.12337
  Beta virt. eigenvalues --    0.12504   0.12975   0.13153   0.13590   0.13972
  Beta virt. eigenvalues --    0.14262   0.14308   0.14410   0.14641   0.14922
  Beta virt. eigenvalues --    0.15068   0.15194   0.15331   0.15780   0.15967
  Beta virt. eigenvalues --    0.16185   0.16303   0.16538   0.16601   0.16954
  Beta virt. eigenvalues --    0.17115   0.17452   0.17791   0.18143   0.18293
  Beta virt. eigenvalues --    0.18343   0.18585   0.18768   0.19183   0.19496
  Beta virt. eigenvalues --    0.19526   0.19738   0.19870   0.19981   0.20184
  Beta virt. eigenvalues --    0.20376   0.20612   0.20751   0.21009   0.21158
  Beta virt. eigenvalues --    0.21398   0.21718   0.21806   0.21902   0.22009
  Beta virt. eigenvalues --    0.22331   0.22566   0.22677   0.22892   0.23196
  Beta virt. eigenvalues --    0.23375   0.23519   0.23636   0.23848   0.23977
  Beta virt. eigenvalues --    0.24184   0.24422   0.24646   0.24711   0.24923
  Beta virt. eigenvalues --    0.25103   0.25529   0.25685   0.25818   0.26087
  Beta virt. eigenvalues --    0.26312   0.26447   0.26498   0.26612   0.26915
  Beta virt. eigenvalues --    0.27057   0.27241   0.27525   0.27719   0.27926
  Beta virt. eigenvalues --    0.28134   0.28159   0.28632   0.28708   0.28804
  Beta virt. eigenvalues --    0.28974   0.29406   0.29485   0.29731   0.29774
  Beta virt. eigenvalues --    0.29956   0.30125   0.30293   0.30604   0.31025
  Beta virt. eigenvalues --    0.31198   0.31260   0.31322   0.31730   0.31948
  Beta virt. eigenvalues --    0.32182   0.32505   0.32737   0.32825   0.33303
  Beta virt. eigenvalues --    0.33343   0.33694   0.33971   0.34543   0.34778
  Beta virt. eigenvalues --    0.34850   0.35216   0.35604   0.35779   0.36158
  Beta virt. eigenvalues --    0.36258   0.36769   0.37170   0.37576   0.38010
  Beta virt. eigenvalues --    0.38315   0.38432   0.39074   0.39252   0.39841
  Beta virt. eigenvalues --    0.40473   0.40865   0.41084   0.41402   0.41842
  Beta virt. eigenvalues --    0.42744   0.42998   0.43385   0.43528   0.44013
  Beta virt. eigenvalues --    0.44054   0.44826   0.45316   0.45776   0.45999
  Beta virt. eigenvalues --    0.46174   0.46371   0.46497   0.46691   0.47043
  Beta virt. eigenvalues --    0.47379   0.48069   0.48952   0.49499   0.49945
  Beta virt. eigenvalues --    0.50533   0.50641   0.50795   0.51111   0.51245
  Beta virt. eigenvalues --    0.52608   0.53281   0.53392   0.54164   0.55106
  Beta virt. eigenvalues --    0.55164   0.55746   0.55885   0.56370   0.56561
  Beta virt. eigenvalues --    0.56788   0.56934   0.57219   0.57400   0.58308
  Beta virt. eigenvalues --    0.58800   0.59017   0.59301   0.60217   0.60267
  Beta virt. eigenvalues --    0.60636   0.61384   0.61847   0.62160   0.62672
  Beta virt. eigenvalues --    0.63237   0.63487   0.63645   0.63844   0.64141
  Beta virt. eigenvalues --    0.64636   0.65180   0.65227   0.65455   0.65778
  Beta virt. eigenvalues --    0.66230   0.66743   0.66999   0.67537   0.67665
  Beta virt. eigenvalues --    0.68100   0.68398   0.68821   0.68973   0.69643
  Beta virt. eigenvalues --    0.70170   0.70296   0.70846   0.71222   0.71368
  Beta virt. eigenvalues --    0.71609   0.72680   0.72794   0.73217   0.73505
  Beta virt. eigenvalues --    0.73806   0.74156   0.74576   0.74887   0.75106
  Beta virt. eigenvalues --    0.75361   0.75677   0.75781   0.76385   0.76572
  Beta virt. eigenvalues --    0.76846   0.77299   0.77322   0.77622   0.77964
  Beta virt. eigenvalues --    0.78509   0.78995   0.79194   0.79251   0.79600
  Beta virt. eigenvalues --    0.80216   0.81206   0.81697   0.82103   0.82439
  Beta virt. eigenvalues --    0.83027   0.83805   0.84165   0.85224   0.85503
  Beta virt. eigenvalues --    0.87357   0.87515   0.87897   0.88349   0.89169
  Beta virt. eigenvalues --    0.89491   0.90091   0.90710   0.90859   0.91694
  Beta virt. eigenvalues --    0.92407   0.92838   0.93150   0.93892   0.94849
  Beta virt. eigenvalues --    0.95250   0.95324   0.95774   0.96375   0.96477
  Beta virt. eigenvalues --    0.97101   0.97621   0.97881   0.98165   0.98432
  Beta virt. eigenvalues --    0.98868   0.99667   1.00625   1.00712   1.01629
  Beta virt. eigenvalues --    1.02150   1.02389   1.02546   1.03053   1.03293
  Beta virt. eigenvalues --    1.03870   1.04176   1.04518   1.05349   1.05855
  Beta virt. eigenvalues --    1.06038   1.06492   1.06713   1.06999   1.07359
  Beta virt. eigenvalues --    1.07546   1.07976   1.08517   1.09270   1.09505
  Beta virt. eigenvalues --    1.09904   1.10259   1.10522   1.10724   1.12056
  Beta virt. eigenvalues --    1.13145   1.13339   1.13778   1.14521   1.14695
  Beta virt. eigenvalues --    1.15831   1.16342   1.17540   1.17735   1.18246
  Beta virt. eigenvalues --    1.18957   1.19765   1.20007   1.21139   1.21307
  Beta virt. eigenvalues --    1.21900   1.22509   1.23045   1.25013   1.25541
  Beta virt. eigenvalues --    1.26336   1.26852   1.26991   1.27390   1.28785
  Beta virt. eigenvalues --    1.29217   1.29607   1.29859   1.30959   1.31342
  Beta virt. eigenvalues --    1.31840   1.32578   1.33922   1.34671   1.35537
  Beta virt. eigenvalues --    1.35864   1.36512   1.37636   1.38522   1.38897
  Beta virt. eigenvalues --    1.40433   1.42181   1.42858   1.43656   1.43887
  Beta virt. eigenvalues --    1.44085   1.44229   1.44496   1.44532   1.45159
  Beta virt. eigenvalues --    1.45874   1.46117   1.46556   1.46937   1.47688
  Beta virt. eigenvalues --    1.47797   1.48538   1.49141   1.50097   1.50335
  Beta virt. eigenvalues --    1.50827   1.52170   1.53032   1.53600   1.54381
  Beta virt. eigenvalues --    1.54677   1.54818   1.55238   1.55373   1.55836
  Beta virt. eigenvalues --    1.56100   1.56452   1.56565   1.57263   1.57955
  Beta virt. eigenvalues --    1.59704   1.60196   1.61146   1.61368   1.62431
  Beta virt. eigenvalues --    1.62817   1.63479   1.63735   1.64450   1.64831
  Beta virt. eigenvalues --    1.65416   1.65775   1.66196   1.67648   1.68114
  Beta virt. eigenvalues --    1.68274   1.69227   1.69943   1.70670   1.70767
  Beta virt. eigenvalues --    1.71466   1.71664   1.72299   1.72560   1.72888
  Beta virt. eigenvalues --    1.73797   1.74243   1.75421   1.76331   1.76510
  Beta virt. eigenvalues --    1.77201   1.77573   1.78296   1.78729   1.79109
  Beta virt. eigenvalues --    1.80197   1.80899   1.81331   1.82428   1.83445
  Beta virt. eigenvalues --    1.84031   1.84897   1.85350   1.85907   1.87252
  Beta virt. eigenvalues --    1.87792   1.88088   1.88482   1.88742   1.90757
  Beta virt. eigenvalues --    1.90934   1.91227   1.91895   1.92200   1.93278
  Beta virt. eigenvalues --    1.93541   1.93783   1.94769   1.95141   1.96159
  Beta virt. eigenvalues --    1.96795   1.97611   1.98244   1.99073   1.99885
  Beta virt. eigenvalues --    2.00496   2.01157   2.02098   2.02844   2.03108
  Beta virt. eigenvalues --    2.03536   2.04060   2.04527   2.05388   2.05403
  Beta virt. eigenvalues --    2.06192   2.06412   2.07666   2.08093   2.08924
  Beta virt. eigenvalues --    2.09521   2.09990   2.11037   2.12228   2.12422
  Beta virt. eigenvalues --    2.12806   2.13354   2.13924   2.15307   2.15659
  Beta virt. eigenvalues --    2.16248   2.16506   2.17916   2.19328   2.19859
  Beta virt. eigenvalues --    2.20219   2.20704   2.21184   2.22638   2.22840
  Beta virt. eigenvalues --    2.23153   2.24353   2.27704   2.28121   2.28856
  Beta virt. eigenvalues --    2.30449   2.34233   2.34604   2.34974   2.37094
  Beta virt. eigenvalues --    2.38700   2.39690   2.41347   2.41937   2.42139
  Beta virt. eigenvalues --    2.43821   2.44420   2.44824   2.45612   2.47409
  Beta virt. eigenvalues --    2.47556   2.48360   2.49447   2.49771   2.50147
  Beta virt. eigenvalues --    2.51637   2.51933   2.52665   2.52917   2.53496
  Beta virt. eigenvalues --    2.53794   2.54350   2.54885   2.54910   2.55454
  Beta virt. eigenvalues --    2.57669   2.58504   2.58916   2.60129   2.60572
  Beta virt. eigenvalues --    2.61410   2.63588   2.64310   2.66470   2.66618
  Beta virt. eigenvalues --    2.67152   2.67961   2.68730   2.68904   2.69848
  Beta virt. eigenvalues --    2.69935   2.70646   2.72205   2.72329   2.73341
  Beta virt. eigenvalues --    2.73590   2.74217   2.74694   2.74840   2.75133
  Beta virt. eigenvalues --    2.77870   2.78277   2.78661   2.79482   2.79875
  Beta virt. eigenvalues --    2.82114   2.83876   2.84530   2.84830   2.85491
  Beta virt. eigenvalues --    2.86134   2.86508   2.87244   2.88306   2.88486
  Beta virt. eigenvalues --    2.89133   2.89617   2.90716   2.91427   2.92392
  Beta virt. eigenvalues --    2.92750   2.93566   2.94250   2.94622   2.95689
  Beta virt. eigenvalues --    2.96198   2.96755   2.97470   2.98088   2.99490
  Beta virt. eigenvalues --    3.00820   3.01313   3.04093   3.04523   3.05365
  Beta virt. eigenvalues --    3.06778   3.07970   3.09235   3.09417   3.10852
  Beta virt. eigenvalues --    3.11398   3.13236   3.14939   3.16128   3.16474
  Beta virt. eigenvalues --    3.17059   3.18096   3.19121   3.20955   3.22181
  Beta virt. eigenvalues --    3.23331   3.23954   3.24396   3.25405   3.27175
  Beta virt. eigenvalues --    3.29714   3.30499   3.31389   3.32709   3.33011
  Beta virt. eigenvalues --    3.35531   3.35968   3.36438   3.36695   3.37592
  Beta virt. eigenvalues --    3.39200   3.39689   3.41982   3.42353   3.44397
  Beta virt. eigenvalues --    3.45491   3.46349   3.46952   3.47766   3.50358
  Beta virt. eigenvalues --    3.51086   3.52493   3.55379   3.57103   3.59935
  Beta virt. eigenvalues --    3.61469   3.62456   3.63929   3.67137   3.67530
  Beta virt. eigenvalues --    3.68879   3.71330   3.72889   3.73360   3.73891
  Beta virt. eigenvalues --    3.76762   3.77310   3.77531   3.83022   3.84379
  Beta virt. eigenvalues --    3.85398   3.86726   3.87643   3.92105   3.94398
  Beta virt. eigenvalues --    3.95007   3.95126   3.95909   3.99247   4.03339
  Beta virt. eigenvalues --    4.04356   4.06563   4.08642   4.11200   4.14696
  Beta virt. eigenvalues --    4.15269   4.20193   4.24383   4.27527   4.28761
  Beta virt. eigenvalues --    4.37835   4.39741   4.42800   4.52629   4.67213
  Beta virt. eigenvalues --    4.87088   4.88691   4.89082   4.92145   5.02449
  Beta virt. eigenvalues --    5.03116   5.06111   5.07394   5.07852   5.11010
  Beta virt. eigenvalues --    5.13388   5.14865   5.26627   5.28513   5.30588
  Beta virt. eigenvalues --    5.33252   5.42939   5.44326   5.77147   5.77434
  Beta virt. eigenvalues --    5.80812   5.81795   5.83696   5.87210   8.02647
  Beta virt. eigenvalues --    8.06977  17.29431  17.36234  17.50077  17.53146
  Beta virt. eigenvalues --   17.58023  17.64403  23.51560  23.58001  23.73530
  Beta virt. eigenvalues --   23.81488  23.84103  23.84936  23.86384  23.89293
  Beta virt. eigenvalues --   23.89394  23.90459  23.91206  23.91348  23.92333
  Beta virt. eigenvalues --   23.95524  23.95908  23.97847  23.98702  24.01021
  Beta virt. eigenvalues --   24.03050  24.03123  24.03590  24.08192  24.13320
  Beta virt. eigenvalues --   24.15026  24.16551  24.17203  35.57705  35.60517
  Beta virt. eigenvalues --   49.96771  49.97949  50.04200  50.05789  50.07949
  Beta virt. eigenvalues --   50.09514 189.19930 189.25344
          Condensed to atoms (all electrons):
          Atomic-Atomic Spin Densities.
 Mulliken charges and spin densities:
               1          2
     1  C    0.372307   0.027173
     2  C   -0.045551   0.125112
     3  C    0.113312  -0.040381
     4  C    0.156671   0.102418
     5  C    0.241112   0.029101
     6  C   -0.554078   0.033533
     7  C    0.207454  -0.031138
[...]
     9   Atom        0.002257      0.015588      0.014893
    10   Atom        0.007594      0.021685      0.009535
    11   Atom       -0.000767      0.017366      0.005785
    12   Atom        0.005114      0.039387      0.013881
    13   Atom        0.005137      0.020710      0.008052
    14   Atom        0.002519      0.022705      0.008557
    15   Atom        0.002242     -0.001825     -0.000316
    16   Atom       -0.003406      0.000323      0.000014
    17   Atom       -0.002854     -0.000018     -0.000054
    18   Atom       -0.001119     -0.018936     -0.006951
    19   Atom       -0.000621     -0.015012     -0.005586
    20   Atom        0.007258      0.082557      0.031113
    21   Atom        0.006862      0.085394      0.029968
    22   Atom        0.007966      0.090456      0.029474
    23   Atom        0.022499      0.144604      0.067194
    24   Atom       -0.000059     -0.000596     -0.000194
    25   Atom        0.000470     -0.000239      0.000456
    26   Atom        0.000084     -0.000370     -0.001006
    27   Atom        0.001360     -0.000549     -0.000398
    28   Atom        0.000085     -0.000547     -0.000224
    29   Atom        0.000964      0.000133      0.000167
    30   Atom        0.000649     -0.000899     -0.000746
    31   Atom        0.000517     -0.000229     -0.000314
    32   Atom        0.000276     -0.001527      0.001938
    33   Atom       -0.004261     -0.001442      0.000190
    34   Atom        0.022803      0.015707      0.013510
    35   Atom       -0.001563      0.000613      0.000166
    36   Atom       -0.000314     -0.001571      0.001126
    37   Atom        0.001635     -0.000958     -0.002758
    38   Atom       -0.001524     -0.000063      0.000600
    39   Atom       -0.000107      0.000394      0.000557
    40   Atom       -0.000243     -0.000467      0.000174
    41   Atom        0.000144      0.000168     -0.000867
    42   Atom       -0.001231     -0.000057      0.000047
    43   Atom       -0.000163     -0.000301      0.000119
    44   Atom       -0.000321     -0.000473      0.000279
    45   Atom       -0.000181     -0.000573      0.000186
    46   Atom       -0.000090      0.000126      0.000263
    47   Atom       -0.000800      0.000894     -0.001319
    48   Atom       -0.000015      0.000045     -0.001096
    49   Atom       -0.000016      0.000112      0.000004
    50   Atom        0.000047      0.000339      0.000049
    51   Atom       -0.000053     -0.000011     -0.000050
    52   Atom        0.000080      0.000252      0.000057
    53   Atom        0.000055      0.000360      0.000056
    54   Atom       -0.000010      0.000256     -0.000010
 --------------------------------------------------------


 ---------------------------------------------------------------------------------
              Anisotropic Spin Dipole Couplings in Principal Axis System
 ---------------------------------------------------------------------------------

       Atom             a.u.   MegaHertz   Gauss  10(-4) cm-1        Axes

              Baa    -0.0339    -4.548    -1.623    -1.517  0.9666  0.1720 -0.1901
     1 C(13)  Bbb    -0.0229    -3.067    -1.095    -1.023 -0.1821  0.9826 -0.0366
              Bcc     0.0568     7.616     2.717     2.540  0.1805  0.0700  0.9811
 
              Baa    -0.0747   -10.029    -3.579    -3.345 -0.5642  0.8244  0.0440
     2 C(13)  Bbb    -0.0693    -9.301    -3.319    -3.103  0.8056  0.5614 -0.1895
              Bcc     0.1441    19.330     6.898     6.448  0.1809  0.0715  0.9809
 
              Baa    -0.0390    -5.237    -1.869    -1.747  0.1830  0.0712  0.9805
     3 C(13)  Bbb     0.0175     2.355     0.840     0.785  0.4865  0.8601 -0.1533
              Bcc     0.0215     2.882     1.028     0.961  0.8543 -0.5051 -0.1227
 
              Baa    -0.0689    -9.246    -3.299    -3.084  0.9811  0.0300 -0.1913
     4 C(13)  Bbb    -0.0636    -8.532    -3.044    -2.846 -0.0435  0.9968 -0.0667
              Bcc     0.1325    17.778     6.344     5.930  0.1886  0.0738  0.9793
 
              Baa    -0.0339    -4.550    -1.623    -1.518 -0.3615  0.9323  0.0084
     5 C(13)  Bbb    -0.0235    -3.147    -1.123    -1.050  0.9127  0.3557 -0.2012
              Bcc     0.0574     7.697     2.746     2.567  0.1905  0.0651  0.9795
 
              Baa    -0.0364    -4.881    -1.742    -1.628 -0.6182  0.7840  0.0558
     6 C(13)  Bbb    -0.0281    -3.777    -1.348    -1.260  0.7688  0.6179 -0.1647
              Bcc     0.0645     8.658     3.089     2.888  0.1636  0.0589  0.9848
 
              Baa    -0.0396    -5.308    -1.894    -1.771  0.1822  0.0844  0.9796
     7 C(13)  Bbb     0.0175     2.346     0.837     0.782  0.3934  0.9068 -0.1513
              Bcc     0.0221     2.963     1.057     0.988  0.9011 -0.4129 -0.1320
 
              Baa    -0.0774   -10.383    -3.705    -3.463  0.9827  0.0040 -0.1853
     8 C(13)  Bbb    -0.0720    -9.656    -3.445    -3.221 -0.0295  0.9904 -0.1347
              Bcc     0.1493    20.038     7.150     6.684  0.1830  0.1379  0.9734
 
              Baa    -0.0492    -6.604    -2.356    -2.203  0.9909 -0.0869 -0.1028
     9 C(13)  Bbb    -0.0427    -5.736    -2.047    -1.913  0.0742  0.9899 -0.1211
              Bcc     0.0920    12.340     4.403     4.116  0.1123  0.1124  0.9873
 
              Baa    -0.0315    -4.221    -1.506    -1.408 -0.4035  0.9150  0.0003
    10 C(13)  Bbb    -0.0199    -2.669    -0.952    -0.890  0.8551  0.3772 -0.3558
              Bcc     0.0513     6.890     2.459     2.298  0.3257  0.1433  0.9346
 
              Baa    -0.0324    -4.345    -1.551    -1.449  0.9583  0.1888 -0.2146
    11 C(13)  Bbb    -0.0219    -2.943    -1.050    -0.982 -0.1997  0.9794 -0.0304
              Bcc     0.0543     7.289     2.601     2.431  0.2044  0.0720  0.9762
 
              Baa    -0.0711    -9.545    -3.406    -3.184 -0.5115  0.8583  0.0413
    12 C(13)  Bbb    -0.0660    -8.852    -3.159    -2.953  0.8362  0.5082 -0.2060
              Bcc     0.1371    18.397     6.565     6.137  0.1978  0.0708  0.9777
 
              Baa    -0.0408    -5.478    -1.955    -1.827 -0.6304  0.7739  0.0617
    13 C(13)  Bbb    -0.0337    -4.520    -1.613    -1.508  0.7519  0.6284 -0.1994
              Bcc     0.0745     9.998     3.567     3.335  0.1931  0.0793  0.9780
 
              Baa    -0.0437    -5.865    -2.093    -1.956  0.9756 -0.1308 -0.1761
    14 C(13)  Bbb    -0.0370    -4.965    -1.772    -1.656  0.1149  0.9885 -0.0982
              Bcc     0.0807    10.830     3.864     3.612  0.1869  0.0756  0.9795
 
              Baa    -0.0045    -2.379    -0.849    -0.794 -0.2115  0.9768 -0.0345
    15 H(1)   Bbb    -0.0026    -1.374    -0.490    -0.458  0.1849  0.0746  0.9799
              Bcc     0.0070     3.754     1.339     1.252  0.9597  0.2009 -0.1963
 
              Baa    -0.0041    -2.174    -0.776    -0.725  0.9186  0.3272 -0.2217
    16 H(1)   Bbb    -0.0026    -1.412    -0.504    -0.471  0.2053  0.0842  0.9751
              Bcc     0.0067     3.586     1.279     1.196 -0.3377  0.9412 -0.0102
 
              Baa    -0.0035    -1.853    -0.661    -0.618  0.9502  0.3078  0.0497
    17 H(1)   Bbb    -0.0028    -1.491    -0.532    -0.497 -0.0488 -0.0105  0.9988
              Bcc     0.0063     3.345     1.193     1.116 -0.3079  0.9514 -0.0050
 
              Baa    -0.0548    -2.113    -0.754    -0.705  0.2378  0.0856  0.9675
    18 N(14)  Bbb     0.0268     1.034     0.369     0.345  0.7422 -0.6586 -0.1241
              Bcc     0.0280     1.079     0.385     0.360  0.6266  0.7476 -0.2202
 
              Baa    -0.0553    -2.134    -0.761    -0.712  0.1849  0.0674  0.9804
    19 N(14)  Bbb     0.0271     1.046     0.373     0.349  0.8871 -0.4408 -0.1370
              Bcc     0.0282     1.088     0.388     0.363  0.4230  0.8950 -0.1413
 
              Baa    -0.1591    11.515     4.109     3.841  0.7537 -0.6507 -0.0918
    20 O(17)  Bbb    -0.1559    11.282     4.026     3.763  0.6326  0.7563 -0.1669
              Bcc     0.3150   -22.796    -8.134    -7.604  0.1781  0.0677  0.9817
 
              Baa    -0.1543    11.166     3.984     3.725  0.9398 -0.3011 -0.1616
    21 O(17)  Bbb    -0.1507    10.907     3.892     3.638  0.2840  0.9512 -0.1207
              Bcc     0.3051   -22.074    -7.876    -7.363  0.1901  0.0675  0.9794
 
              Baa    -0.1480    10.707     3.821     3.572  0.7848 -0.6066 -0.1268
    22 O(17)  Bbb    -0.1448    10.476     3.738     3.494  0.5826  0.7919 -0.1829
              Bcc     0.2927   -21.183    -7.559    -7.066  0.2113  0.0697  0.9749
 
              Baa    -0.1694    12.258     4.374     4.089  0.9299 -0.2589 -0.2611
    23 O(17)  Bbb    -0.1664    12.038     4.295     4.015  0.2066  0.9553 -0.2113
              Bcc     0.3358   -24.296    -8.670    -8.104  0.3042  0.1425  0.9419
 
              Baa    -0.0020    -0.264    -0.094    -0.088  0.2171  0.0657  0.9739
    24 C(13)  Bbb     0.0009     0.114     0.041     0.038  0.9735  0.0591 -0.2210
              Bcc     0.0011     0.150     0.053     0.050 -0.0721  0.9961 -0.0511
 
              Baa    -0.0015    -0.818    -0.292    -0.273  0.2560 -0.1704  0.9515
    25 H(1)   Bbb    -0.0003    -0.180    -0.064    -0.060  0.9469 -0.1537 -0.2823
              Bcc     0.0019     0.998     0.356     0.333  0.1944  0.9733  0.1220
 
              Baa    -0.0015    -0.804    -0.287    -0.268  0.2321  0.3313  0.9145
    26 H(1)   Bbb    -0.0001    -0.061    -0.022    -0.021  0.9654 -0.1933 -0.1750
              Bcc     0.0016     0.865     0.309     0.289  0.1189  0.9235 -0.3647
 
              Baa    -0.0016    -0.878    -0.313    -0.293  0.1965  0.0507  0.9792
    27 H(1)   Bbb    -0.0006    -0.315    -0.113    -0.105 -0.6900  0.7167  0.1013
              Bcc     0.0022     1.193     0.426     0.398  0.6967  0.6955 -0.1759
 
              Baa    -0.0020    -0.263    -0.094    -0.088  0.1888  0.0688  0.9796
    28 C(13)  Bbb     0.0009     0.114     0.041     0.038  0.7688 -0.6310 -0.1039
              Bcc     0.0011     0.149     0.053     0.050  0.6110  0.7727 -0.1721
 
              Baa    -0.0015    -0.792    -0.282    -0.264 -0.0340 -0.0600  0.9976
    29 H(1)   Bbb    -0.0002    -0.122    -0.044    -0.041  0.7100 -0.7040 -0.0182
              Bcc     0.0017     0.914     0.326     0.305  0.7034  0.7077  0.0666
 
              Baa    -0.0015    -0.784    -0.280    -0.262  0.3834  0.2028  0.9011
    30 H(1)   Bbb    -0.0002    -0.093    -0.033    -0.031 -0.6985  0.7019  0.1393
              Bcc     0.0016     0.877     0.313     0.292  0.6042  0.6828 -0.4107
 
              Baa    -0.0017    -0.893    -0.319    -0.298  0.1845  0.0547  0.9813
    31 H(1)   Bbb    -0.0007    -0.356    -0.127    -0.119  0.9664 -0.1917 -0.1710
              Bcc     0.0023     1.249     0.446     0.417  0.1788  0.9799 -0.0882
 
              Baa    -0.0045    -0.610    -0.218    -0.203 -0.1293  0.7388 -0.6615
    32 C(13)  Bbb    -0.0006    -0.084    -0.030    -0.028  0.1671  0.6737  0.7198
              Bcc     0.0052     0.694     0.247     0.231  0.9774 -0.0175 -0.2106
 
              Baa    -0.0044    -0.591    -0.211    -0.197  0.4254  0.2238  0.8769
    33 C(13)  Bbb    -0.0020    -0.265    -0.094    -0.088  0.6583  0.5884 -0.4695
              Bcc     0.0064     0.856     0.305     0.285 -0.6210  0.7770  0.1030
 
              Baa    -0.0185    -0.760    -0.271    -0.253 -0.5338  0.0385  0.8447
    34 S(33)  Bbb    -0.0184    -0.755    -0.270    -0.252 -0.4878  0.8020 -0.3448
              Bcc     0.0370     1.515     0.541     0.505  0.6907  0.5961  0.4094
 
              Baa    -0.0025    -0.338    -0.121    -0.113  0.3483  0.9261 -0.1453
    35 C(13)  Bbb    -0.0000    -0.006    -0.002    -0.002 -0.1408  0.2049  0.9686
              Bcc     0.0026     0.344     0.123     0.115  0.9268 -0.3169  0.2017
 
              Baa    -0.0017    -0.900    -0.321    -0.300  0.4779 -0.5372  0.6950
    36 H(1)   Bbb    -0.0005    -0.285    -0.102    -0.095  0.6270  0.7627  0.1583
              Bcc     0.0022     1.185     0.423     0.395 -0.6152  0.3601  0.7013
 
              Baa    -0.0031    -0.415    -0.148    -0.138  0.0461  0.4506  0.8915
    37 C(13)  Bbb    -0.0013    -0.171    -0.061    -0.057  0.9320 -0.3405  0.1239
              Bcc     0.0044     0.586     0.209     0.195  0.3594  0.8252 -0.4357
 
              Baa    -0.0017     0.123     0.044     0.041  0.4250  0.8119 -0.4002
    38 O(17)  Bbb    -0.0004     0.028     0.010     0.009  0.3160  0.2813  0.9061
              Bcc     0.0021    -0.151    -0.054    -0.050  0.8482 -0.5116 -0.1370
 
              Baa    -0.0015    -0.196    -0.070    -0.065  0.0929  0.8966 -0.4331
    39 C(13)  Bbb    -0.0000    -0.005    -0.002    -0.002 -0.2055  0.4429  0.8727
              Bcc     0.0015     0.201     0.072     0.067  0.9742  0.0079  0.2254
 
              Baa    -0.0004    -0.053    -0.019    -0.018  0.5756 -0.0097  0.8177
    40 C(13)  Bbb    -0.0003    -0.040    -0.014    -0.013  0.2661  0.9477 -0.1760
              Bcc     0.0007     0.093     0.033     0.031  0.7733 -0.3189 -0.5481
 
              Baa    -0.0013    -0.169    -0.060    -0.056 -0.2324  0.3223  0.9177
    41 C(13)  Bbb    -0.0004    -0.047    -0.017    -0.016  0.9718  0.0375  0.2330
              Bcc     0.0016     0.216     0.077     0.072  0.0407  0.9459 -0.3219
 
              Baa    -0.0009    -0.035    -0.013    -0.012  0.1552  0.1007  0.9827
    42 S(33)  Bbb    -0.0008    -0.033    -0.012    -0.011  0.7292  0.6595 -0.1827
              Bcc     0.0017     0.069     0.024     0.023 -0.6665  0.7449  0.0289
 
              Baa    -0.0003    -0.134    -0.048    -0.045  0.5022 -0.1810  0.8456
    43 H(1)   Bbb    -0.0002    -0.114    -0.041    -0.038  0.3604  0.9327 -0.0144
              Bcc     0.0005     0.248     0.089     0.083  0.7861 -0.3120 -0.5336
 
              Baa    -0.0004    -0.234    -0.084    -0.078  0.4912 -0.2431  0.8364
    44 H(1)   Bbb    -0.0003    -0.172    -0.061    -0.057  0.4933  0.8690 -0.0372
              Bcc     0.0008     0.406     0.145     0.135  0.7179 -0.4309 -0.5468
 
              Baa    -0.0004    -0.232    -0.083    -0.078  0.6412 -0.1555  0.7514
    45 H(1)   Bbb    -0.0003    -0.184    -0.066    -0.061  0.2797  0.9592 -0.0402
              Bcc     0.0008     0.417     0.149     0.139  0.7146 -0.2359 -0.6586
 
              Baa    -0.0007    -0.099    -0.035    -0.033  0.0944  0.9350 -0.3419
    46 C(13)  Bbb     0.0001     0.013     0.005     0.004 -0.1646  0.3534  0.9209
              Bcc     0.0006     0.086     0.031     0.029  0.9818 -0.0307  0.1873
 
              Baa    -0.0016     0.119     0.042     0.040 -0.4581  0.2647  0.8486
    47 O(17)  Bbb    -0.0007     0.049     0.018     0.016  0.8041  0.5303  0.2687
              Bcc     0.0023    -0.168    -0.060    -0.056 -0.3789  0.8055 -0.4557
 
              Baa    -0.0011    -0.146    -0.052    -0.049 -0.0701  0.4379  0.8963
    48 C(13)  Bbb    -0.0006    -0.081    -0.029    -0.027  0.9974  0.0438  0.0567
              Bcc     0.0017     0.227     0.081     0.076 -0.0145  0.8979 -0.4399
 
              Baa    -0.0002    -0.083    -0.030    -0.028  0.1306  0.9289 -0.3465
    49 H(1)   Bbb    -0.0001    -0.070    -0.025    -0.024 -0.2449  0.3689  0.8966
              Bcc     0.0003     0.154     0.055     0.051  0.9607 -0.0322  0.2757
 
              Baa    -0.0003    -0.035    -0.012    -0.012  0.1218  0.9448 -0.3040
    50 C(13)  Bbb    -0.0002    -0.030    -0.011    -0.010 -0.5939  0.3148  0.7404
              Bcc     0.0005     0.065     0.023     0.022  0.7953  0.0903  0.5995
 
              Baa    -0.0002    -0.123    -0.044    -0.041  0.0616  0.4695  0.8808
    51 H(1)   Bbb    -0.0001    -0.058    -0.021    -0.019  0.0941  0.8758 -0.4734
              Bcc     0.0003     0.181     0.065     0.060  0.9937 -0.1121 -0.0098
 
              Baa    -0.0002    -0.109    -0.039    -0.036 -0.4173 -0.3876  0.8220
    52 H(1)   Bbb    -0.0002    -0.098    -0.035    -0.033 -0.3395  0.9055  0.2546
              Bcc     0.0004     0.206     0.074     0.069  0.8430  0.1728  0.5094
 
              Baa    -0.0003    -0.136    -0.048    -0.045  0.1720  0.9235 -0.3428
    53 H(1)   Bbb    -0.0002    -0.127    -0.045    -0.042 -0.6444  0.3687  0.6700
              Bcc     0.0005     0.263     0.094     0.088  0.7451  0.1056  0.6585
 
              Baa    -0.0002    -0.099    -0.035    -0.033 -0.3089  0.8254  0.4725
    54 H(1)   Bbb    -0.0002    -0.095    -0.034    -0.032 -0.4886 -0.5640  0.6657
              Bcc     0.0004     0.194     0.069     0.065  0.8160 -0.0252  0.5775
 

 ---------------------------------------------------------------------------------

 Unable to Open any file for archive entry.
 1\1\GINC-CX3-5-18\FOpt\UB3LYP\6-311+G(d,p)\C26H18N2O6S2(1-,2)\NS5018\2
 8-Oct-2021\0\\# opt=modredundant b3lyp/6-311+g(d,p) scrf=(pcm, solvent
 =water)\\NDI_-110.pdb\\-1,2\C,-2.5772461103,-2.9828250563,-0.503378076
 \C,-2.2620599656,-1.5751727981,-0.3013987433\C,-3.2943220221,-0.645723
 2122,-0.0417817653\C,-4.6444636997,-1.063053497,0.0301896805\C,-4.9905
 036451,-2.4667410092,-0.1641962714\C,-0.9288443414,-1.1419134863,-0.34
 16801679\C,-2.9576575371,0.7359875151,0.1433771984\C,-1.6000509793,1.1
 588896684,0.0652499826\C,-0.5746841465,0.1892982375,-0.1541335787\C,-1
 .3089462407,2.5890912482,0.1548231557\C,-3.7209284703,3.0708106176,0.5
 809174786\C,-4.0072742709,1.6552224437,0.3955631373\C,-5.3428115168,1.
 2107841694,0.4662524779\C,-5.6586278121,-0.1206632335,0.2880645187\H,-
 6.6853992442,-0.4587331377,0.3404239009\H,-6.1173874775,1.94093443,0.6
 617542469\H,-0.1528488341,-1.8784283163,-0.5047230292\N,-2.381053163,3
 .4504671216,0.4543229515\N,-3.9277445203,-3.3475445375,-0.4269770034\O
 ,-1.7258323071,-3.8508124135,-0.734507018\O,-6.152030009,-2.8888835415
 ,-0.108464296\O,-4.594821396,3.912624273,0.8270437666\O,-0.1939280944,
 3.088737125,-0.0210960395\C,-2.0446094573,4.8731176736,0.5861391503\H,
 -1.2340478424,4.9938607698,1.3037511532\H,-1.719373096,5.2766719911,-0
 .3744332057\H,-2.9317921696,5.3974112227,0.9250428834\C,-4.2296070877,
 -4.768304361,-0.6371653725\H,-3.8613662315,-5.0849216596,-1.6132425597
 \H,-3.7424631179,-5.3719507967,0.1297142393\H,-5.3054844372,-4.8951557
 069,-0.5828728156\C,0.8763631994,0.4902818715,-0.1731456178\C,1.718882
 5369,0.4774202572,-1.2507933843\S,1.754721445,0.7660459186,1.308551123
 2\C,3.0774814539,0.7243398023,-0.8987724414\H,1.371222069,0.3162934314
 ,-2.2610465218\C,3.2939490264,0.9081395962,0.4579061507\O,4.1292385807
 ,0.7846417032,-1.7640876644\C,4.5421004652,1.1604971541,1.1390980391\C
 ,3.8641673266,0.5936874766,-3.1572601925\C,4.7601765603,1.3332097448,2
 .4991681398\S,6.0784402632,1.3008868409,0.2860756285\H,4.8258717533,0.
 6839515893,-3.6583904499\H,3.4465321053,-0.3994512276,-3.344528617\H,3
 .1817538575,1.3600093268,-3.5351665452\C,6.1212088402,1.5736849824,2.8
 496581878\O,3.7096848409,1.26237357,3.3650963402\C,6.9419646142,1.5836
 693914,1.758176875\H,6.4731510579,1.7306507499,3.8589212311\C,3.973583
 9615,1.4682234911,4.7560960188\H,8.0093928767,1.74030827,1.7302409842\
 H,4.3849868721,2.465785195,4.9338507292\H,3.0126031265,1.3764982379,5.
 2582825058\H,4.6607324103,0.7097708835,5.1414895013\\Version=ES64L-G16
 RevC.01\State=2-A\HF=-2359.5037802\S2=0.757721\S2-1=0.\S2A=0.75005\RMS
 D=3.635e-09\RMSF=1.312e-04\Dipole=5.4780855,0.7584713,0.662149\Quadrup
 ole=-31.8739273,-13.5355409,45.4094681,-3.8048566,5.742931,-1.5547771\
 PG=C01 [X(C26H18N2O6S2)]\\@
 The archive entry for this job was punched.


 THERE IS NO SUBJECT, HOWEVER COMPLEX,
 WHICH, IF STUDIED WITH PATIENCE AND INTELLIGIENCE
 WILL NOT BECOME
 MORE COMPLEX
                        QUOTED BY D. GORDON ROHMAN
 Job cpu time:       5 days  1 hours 49 minutes 37.1 seconds.
 Elapsed time:       0 days  7 hours 42 minutes  3.1 seconds.
 File lengths (MBytes):  RWF=   1193 Int=      0 D2E=      0 Chk=     90 Scr=      1
 Normal termination of Gaussian 16 at Thu Oct 28 07:37:51 2021.
