 Entering Gaussian System, Link 0=g16
 Input=pBTTT_-175.gjf
 Output=pBTTT_-175.log
 Initial command:
 /apps/gaussian/g16-c01-avx/g16/l1.exe "/tmp/pbs.4729018[0].pbs/Gau-1170421.inp" -scrdir="/tmp/pbs.4729018[0].pbs/"
 Entering Link 1 = /apps/gaussian/g16-c01-avx/g16/l1.exe PID=   1170422.
  
 Copyright (c) 1988-2019, Gaussian, Inc.  All Rights Reserved.
  
 This is part of the Gaussian(R) 16 program.  It is based on
 the Gaussian(R) 09 system (copyright 2009, Gaussian, Inc.),
 the Gaussian(R) 03 system (copyright 2003, Gaussian, Inc.),
 the Gaussian(R) 98 system (copyright 1998, Gaussian, Inc.),
 the Gaussian(R) 94 system (copyright 1995, Gaussian, Inc.),
 the Gaussian 92(TM) system (copyright 1992, Gaussian, Inc.),
 the Gaussian 90(TM) system (copyright 1990, Gaussian, Inc.),
 the Gaussian 88(TM) system (copyright 1988, Gaussian, Inc.),
 the Gaussian 86(TM) system (copyright 1986, Carnegie Mellon
 University), and the Gaussian 82(TM) system (copyright 1983,
 Carnegie Mellon University). Gaussian is a federally registered
 trademark of Gaussian, Inc.
  
 This software contains proprietary and confidential information,
 including trade secrets, belonging to Gaussian, Inc.
  
 This software is provided under written license and may be
 used, copied, transmitted, or stored only in accord with that
 written license.
  
 The following legend is applicable only to US Government
 contracts under FAR:
  
                    RESTRICTED RIGHTS LEGEND
  
 Use, reproduction and disclosure by the US Government is
 subject to restrictions as set forth in subparagraphs (a)
 and (c) of the Commercial Computer Software - Restricted
 Rights clause in FAR 52.227-19.
  
 Gaussian, Inc.
 340 Quinnipiac St., Bldg. 40, Wallingford CT 06492
  
  
 ---------------------------------------------------------------
 Warning -- This program may not be used in any manner that
 competes with the business of Gaussian, Inc. or will provide
 assistance to any competitor of Gaussian, Inc.  The licensee
 of this program is prohibited from giving any competitor of
 Gaussian, Inc. access to this program.  By using this program,
 the user acknowledges that Gaussian, Inc. is engaged in the
 business of creating and licensing software in the field of
 computational chemistry and represents and warrants to the
 licensee that it is not a competitor of Gaussian, Inc. and that
 it will not use this program in any manner prohibited above.
 ---------------------------------------------------------------
  

 Cite this work as:
 Gaussian 16, Revision C.01,
 M. J. Frisch, G. W. Trucks, H. B. Schlegel, G. E. Scuseria, 
 M. A. Robb, J. R. Cheeseman, G. Scalmani, V. Barone, 
 G. A. Petersson, H. Nakatsuji, X. Li, M. Caricato, A. V. Marenich, 
 J. Bloino, B. G. Janesko, R. Gomperts, B. Mennucci, H. P. Hratchian, 
 J. V. Ortiz, A. F. Izmaylov, J. L. Sonnenberg, D. Williams-Young, 
 F. Ding, F. Lipparini, F. Egidi, J. Goings, B. Peng, A. Petrone, 
 T. Henderson, D. Ranasinghe, V. G. Zakrzewski, J. Gao, N. Rega, 
 G. Zheng, W. Liang, M. Hada, M. Ehara, K. Toyota, R. Fukuda, 
 J. Hasegawa, M. Ishida, T. Nakajima, Y. Honda, O. Kitao, H. Nakai, 
 T. Vreven, K. Throssell, J. A. Montgomery, Jr., J. E. Peralta, 
 F. Ogliaro, M. J. Bearpark, J. J. Heyd, E. N. Brothers, K. N. Kudin, 
 V. N. Staroverov, T. A. Keith, R. Kobayashi, J. Normand, 
 K. Raghavachari, A. P. Rendell, J. C. Burant, S. S. Iyengar, 
 J. Tomasi, M. Cossi, J. M. Millam, M. Klene, C. Adamo, R. Cammi, 
 J. W. Ochterski, R. L. Martin, K. Morokuma, O. Farkas, 
 J. B. Foresman, and D. J. Fox, Gaussian, Inc., Wallingford CT, 2019.
 
 ******************************************
 Gaussian 16:  ES64L-G16RevC.01  3-Jul-2019
                17-Oct-2021 
 ******************************************
 %mem=10GB
 %nprocshared=8
 Will use up to    8 processors via shared memory.
 -------------------------------------
 # opt=modredundant b3lyp/6-311+g(d,p)
 -------------------------------------
 1/18=120,19=15,26=3,38=1/1,3;
 2/9=110,12=2,17=6,18=5,40=1/2;
 3/5=4,6=6,7=111,11=2,25=1,30=1,71=1,74=-5/1,2,3;
 4//1;
 5/5=2,38=5/2;
 6/7=2,8=2,9=2,10=2,28=1/1;
 7//1,2,3,16;
 1/18=20,19=15,26=3/3(2);
 2/9=110/2;
 99//99;
 2/9=110/2;
 3/5=4,6=6,7=111,11=2,25=1,30=1,71=1,74=-5/1,2,3;
 4/5=5,16=3,69=1/1;
 5/5=2,38=5/2;
 7//1,2,3,16;
 1/18=20,19=15,26=3/3(-5);
 2/9=110/2;
 6/7=2,8=2,9=2,10=2,19=2,28=1/1;
 99/9=1/99;
 --------------
 pBTTT_-175.pdb
 --------------
 Symbolic Z-matrix:
 Charge =  0 Multiplicity = 1
 C                    -4.25     -1.36     -0.21 
 C                    -2.93     -0.95     -0.61 
 C                    -1.97     -2.05     -0.62 
 C                    -4.33     -2.76      0.1 
 H                    -5.1      -0.7      -0.14 
 S                    -2.8      -3.56     -0.11 
 H                    -5.23     -3.27      0.41 
 C                    -0.56     -2.13     -0.97 
 S                     0.323    -3.687    -1. 
 C                     1.804    -2.934    -1.48 
 C                     1.665    -1.511    -1.655 
 C                     0.336    -1.049    -1.387 
 H                     0.002    -0.05     -1.621 
 S                     2.822    -0.858    -2.768 
 C                     3.535    -2.453    -3.023 
 C                     2.859    -3.483    -2.268 
 H                     4.263    -2.644    -3.798 
 H                     2.963    -4.541    -2.494 
 O                    -2.4       0.49     -0.72 
 H                    -2.92      1.52     -0.76 
 
 Add virtual bond connecting atoms H20        and O19        Dist= 2.18D+00.
 The following ModRedundant input section has been read:
 D       2       3       8       9 F                                           
 

 GradGradGradGradGradGradGradGradGradGradGradGradGradGradGradGradGradGrad
 Berny optimization.
 Initialization pass.
                           ----------------------------
                           !    Initial Parameters    !
                           ! (Angstroms and Degrees)  !
 --------------------------                            --------------------------
 ! Name  Definition              Value          Derivative Info.                !
 --------------------------------------------------------------------------------
 ! R1    R(1,2)                  1.4389         estimate D2E/DX2                !
 ! R2    R(1,4)                  1.4361         estimate D2E/DX2                !
 ! R3    R(1,5)                  1.0784         estimate D2E/DX2                !
 ! R4    R(2,3)                  1.46           estimate D2E/DX2                !
 ! R5    R(2,19)                 1.5384         estimate D2E/DX2                !
 ! R6    R(3,6)                  1.797          estimate D2E/DX2                !
 ! R7    R(3,8)                  1.455          estimate D2E/DX2                !
 ! R8    R(4,6)                  1.7393         estimate D2E/DX2                !
 ! R9    R(4,7)                  1.0799         estimate D2E/DX2                !
 ! R10   R(8,9)                  1.7902         estimate D2E/DX2                !
 ! R11   R(8,12)                 1.4647         estimate D2E/DX2                !
 ! R12   R(9,10)                 1.7294         estimate D2E/DX2                !
 ! R13   R(10,11)                1.4404         estimate D2E/DX2                !
 ! R14   R(10,16)                1.4267         estimate D2E/DX2                !
 ! R15   R(11,12)                1.4323         estimate D2E/DX2                !
 ! R16   R(11,14)                1.7332         estimate D2E/DX2                !
 ! R17   R(12,13)                1.079          estimate D2E/DX2                !
 ! R18   R(14,15)                1.7656         estimate D2E/DX2                !
 ! R19   R(15,16)                1.445          estimate D2E/DX2                !
 ! R20   R(15,17)                1.0803         estimate D2E/DX2                !
 ! R21   R(16,18)                1.0869         estimate D2E/DX2                !
 ! R22   R(19,20)                1.1545         estimate D2E/DX2                !
 ! A1    A(2,1,4)              112.8843         estimate D2E/DX2                !
 ! A2    A(2,1,5)              124.5209         estimate D2E/DX2                !
 ! A3    A(4,1,5)              122.5942         estimate D2E/DX2                !
 ! A4    A(1,2,3)              112.9799         estimate D2E/DX2                !
 ! A5    A(1,2,19)             127.059          estimate D2E/DX2                !
 ! A6    A(3,2,19)             118.5686         estimate D2E/DX2                !
 ! A7    A(2,3,6)              109.1138         estimate D2E/DX2                !
 ! A8    A(2,3,8)              132.8639         estimate D2E/DX2                !
 ! A9    A(6,3,8)              118.0132         estimate D2E/DX2                !
 ! A10   A(1,4,6)              111.9209         estimate D2E/DX2                !
 ! A11   A(1,4,7)              124.6643         estimate D2E/DX2                !
 ! A12   A(6,4,7)              123.4062         estimate D2E/DX2                !
 ! A13   A(3,6,4)               93.0997         estimate D2E/DX2                !
 ! A14   A(3,8,9)              121.9946         estimate D2E/DX2                !
 ! A15   A(3,8,12)             128.3695         estimate D2E/DX2                !
 ! A16   A(9,8,12)             109.5968         estimate D2E/DX2                !
 ! A17   A(8,9,10)              92.7716         estimate D2E/DX2                !
 ! A18   A(9,10,11)            112.4095         estimate D2E/DX2                !
 ! A19   A(9,10,16)            128.2452         estimate D2E/DX2                !
 ! A20   A(11,10,16)           112.6071         estimate D2E/DX2                !
 ! A21   A(10,11,12)           112.6721         estimate D2E/DX2                !
 ! A22   A(10,11,14)           112.6938         estimate D2E/DX2                !
 ! A23   A(12,11,14)           128.1737         estimate D2E/DX2                !
 ! A24   A(8,12,11)            112.5089         estimate D2E/DX2                !
 ! A25   A(8,12,13)            123.7584         estimate D2E/DX2                !
 ! A26   A(11,12,13)           123.0428         estimate D2E/DX2                !
 ! A27   A(11,14,15)            91.2587         estimate D2E/DX2                !
 ! A28   A(14,15,16)           112.3061         estimate D2E/DX2                !
 ! A29   A(14,15,17)           122.3744         estimate D2E/DX2                !
 ! A30   A(16,15,17)           124.3378         estimate D2E/DX2                !
 ! A31   A(10,16,15)           111.1157         estimate D2E/DX2                !
 ! A32   A(10,16,18)           124.0703         estimate D2E/DX2                !
 ! A33   A(15,16,18)           122.7165         estimate D2E/DX2                !
 ! A34   A(2,19,20)            133.0318         estimate D2E/DX2                !
 ! D1    D(4,1,2,3)              0.3915         estimate D2E/DX2                !
 ! D2    D(4,1,2,19)          -165.8104         estimate D2E/DX2                !
 ! D3    D(5,1,2,3)           -179.8811         estimate D2E/DX2                !
 ! D4    D(5,1,2,19)            13.9169         estimate D2E/DX2                !
 ! D5    D(2,1,4,6)             -0.3845         estimate D2E/DX2                !
 ! D6    D(2,1,4,7)           -179.3471         estimate D2E/DX2                !
 ! D7    D(5,1,4,6)            179.8822         estimate D2E/DX2                !
 ! D8    D(5,1,4,7)              0.9196         estimate D2E/DX2                !
 ! D9    D(1,2,3,6)             -0.2224         estimate D2E/DX2                !
 ! D10   D(1,2,3,8)            178.6265         estimate D2E/DX2                !
 ! D11   D(19,2,3,6)           167.2616         estimate D2E/DX2                !
 ! D12   D(19,2,3,8)           -13.8895         estimate D2E/DX2                !
 ! D13   D(1,2,19,20)          -16.0519         estimate D2E/DX2                !
 ! D14   D(3,2,19,20)          178.4264         estimate D2E/DX2                !
 ! D15   D(2,3,6,4)              0.0033         estimate D2E/DX2                !
 ! D16   D(8,3,6,4)           -179.041          estimate D2E/DX2                !
 ! D17   D(2,3,8,9)           -174.9967         Frozen                          !
 ! D18   D(2,3,8,12)             2.4834         estimate D2E/DX2                !
 ! D19   D(6,3,8,9)              3.7712         estimate D2E/DX2                !
 ! D20   D(6,3,8,12)          -178.7487         estimate D2E/DX2                !
 ! D21   D(1,4,6,3)              0.2153         estimate D2E/DX2                !
 ! D22   D(7,4,6,3)            179.1932         estimate D2E/DX2                !
 ! D23   D(3,8,9,10)           179.7674         estimate D2E/DX2                !
 ! D24   D(12,8,9,10)            1.8643         estimate D2E/DX2                !
 ! D25   D(3,8,12,11)         -179.8109         estimate D2E/DX2                !
 ! D26   D(3,8,12,13)           -9.092          estimate D2E/DX2                !
 ! D27   D(9,8,12,11)           -2.0793         estimate D2E/DX2                !
 ! D28   D(9,8,12,13)          168.6397         estimate D2E/DX2                !
 ! D29   D(8,9,10,11)           -1.2108         estimate D2E/DX2                !
 ! D30   D(8,9,10,16)         -149.9123         estimate D2E/DX2                !
 ! D31   D(9,10,11,12)           0.203          estimate D2E/DX2                !
 ! D32   D(9,10,11,14)        -154.0479         estimate D2E/DX2                !
 ! D33   D(16,10,11,12)        153.9743         estimate D2E/DX2                !
 ! D34   D(16,10,11,14)         -0.2765         estimate D2E/DX2                !
 ! D35   D(9,10,16,15)         149.7744         estimate D2E/DX2                !
 ! D36   D(9,10,16,18)         -14.0926         estimate D2E/DX2                !
 ! D37   D(11,10,16,15)          1.1227         estimate D2E/DX2                !
 ! D38   D(11,10,16,18)       -162.7443         estimate D2E/DX2                !
 ! D39   D(10,11,12,8)           1.2459         estimate D2E/DX2                !
 ! D40   D(10,11,12,13)       -169.5498         estimate D2E/DX2                !
 ! D41   D(14,11,12,8)         150.5935         estimate D2E/DX2                !
 ! D42   D(14,11,12,13)        -20.2023         estimate D2E/DX2                !
 ! D43   D(10,11,14,15)         -0.4944         estimate D2E/DX2                !
 ! D44   D(12,11,14,15)       -149.8366         estimate D2E/DX2                !
 ! D45   D(11,14,15,16)          1.1391         estimate D2E/DX2                !
 ! D46   D(11,14,15,17)        170.2513         estimate D2E/DX2                !
 ! D47   D(14,15,16,10)         -1.49           estimate D2E/DX2                !
 ! D48   D(14,15,16,18)        162.633          estimate D2E/DX2                !
 ! D49   D(17,15,16,10)       -170.3506         estimate D2E/DX2                !
 ! D50   D(17,15,16,18)         -6.2276         estimate D2E/DX2                !
 --------------------------------------------------------------------------------
 Trust Radius=3.00D-01 FncErr=1.00D-07 GrdErr=1.00D-06 EigMax=2.50D+02 EigMin=1.00D-04
 Number of steps in this run=    116 maximum allowed number of steps=    120.
 GradGradGradGradGradGradGradGradGradGradGradGradGradGradGradGradGradGrad

                          Input orientation:                          
 ---------------------------------------------------------------------
 Center     Atomic      Atomic             Coordinates (Angstroms)
 Number     Number       Type             X           Y           Z
 ---------------------------------------------------------------------
      1          6           0       -4.250000   -1.360000   -0.210000
      2          6           0       -2.930000   -0.950000   -0.610000
      3          6           0       -1.970000   -2.050000   -0.620000
      4          6           0       -4.330000   -2.760000    0.100000
      5          1           0       -5.100000   -0.700000   -0.140000
      6         16           0       -2.800000   -3.560000   -0.110000
      7          1           0       -5.230000   -3.270000    0.410000
      8          6           0       -0.560000   -2.130000   -0.970000
      9         16           0        0.323000   -3.687000   -1.000000
     10          6           0        1.804000   -2.934000   -1.480000
     11          6           0        1.665000   -1.511000   -1.655000
     12          6           0        0.336000   -1.049000   -1.387000
     13          1           0        0.002000   -0.050000   -1.621000
     14         16           0        2.822000   -0.858000   -2.768000
     15          6           0        3.535000   -2.453000   -3.023000
     16          6           0        2.859000   -3.483000   -2.268000
     17          1           0        4.263000   -2.644000   -3.798000
     18          1           0        2.963000   -4.541000   -2.494000
     19          8           0       -2.400000    0.490000   -0.720000
     20          1           0       -2.920000    1.520000   -0.760000
 ---------------------------------------------------------------------
                    Distance matrix (angstroms):
                    1          2          3          4          5
     1  C    0.000000
     2  C    1.438923   0.000000
     3  C    2.417147   1.460034   0.000000
     4  C    1.436141   2.395871   2.567509   0.000000
     5  H    1.078425   2.234346   3.442354   2.212261   0.000000
     6  S    2.636759   2.660639   1.796970   1.739253   3.670218
     7  H    2.234480   3.422397   3.630000   1.079907   2.631406
     8  C    3.845335   2.671872   1.454991   3.969219   4.831708
     9  S    5.191470   4.269107   2.842889   4.870291   6.250656
    10  C    6.382891   5.206142   3.970407   6.336610   7.379131
    11  C    6.090817   4.745605   3.817718   6.370247   6.979840
    12  C    4.744834   3.358614   2.628293   5.187509   5.588104
    13  H    4.667604   3.229357   2.981742   5.391861   5.352221
    14  S    7.537145   6.144179   5.384982   7.936884   8.348020
    15  C    8.349482   7.062422   6.020120   8.467916   9.270810
    16  C    7.699375   6.532808   5.299871   7.603412   8.695927
    17  H    9.327034   8.048120   7.021596   9.436499  10.238451
    18  H    8.207484   7.153474   5.835362   7.942836   9.236155
    19  O    2.665539   1.538376   2.578081   3.867790   3.007075
    20  H    3.219596   2.474571   3.696891   4.587603   3.172570
                    6          7          8          9         10
     6  S    0.000000
     7  H    2.501879   0.000000
     8  C    2.793224   5.001290   0.000000
     9  S    3.249824   5.744371   1.790206   0.000000
    10  C    4.844130   7.291238   2.548531   1.729384   0.000000
    11  C    5.149918   7.409408   2.408944   2.639122   1.440443
    12  C    4.215489   6.256389   1.464673   2.666267   2.391004
    13  H    4.738610   6.470486   2.250788   3.703573   3.403607
    14  S    6.780314   8.986219   4.035928   4.168221   2.646704
    15  C    7.059975   9.448714   4.592185   3.991520   2.368242
    16  C    6.056994   8.523437   3.899356   2.842664   1.426664
    17  H    8.020372  10.402701   5.614544   4.943708   3.391741
    18  H    6.313318   8.784868   4.532883   3.151341   2.225742
    19  O    4.115167   4.839773   3.211308   4.994042   5.474942
    20  H    5.122821   5.445099   4.351574   6.139014   6.532434
                   11         12         13         14         15
    11  C    0.000000
    12  C    1.432309   0.000000
    13  H    2.213876   1.079033   0.000000
    14  S    1.733155   2.850235   3.149742   0.000000
    15  C    2.501137   3.857630   4.496899   1.765621   0.000000
    16  C    2.385412   3.614699   4.512931   2.672451   1.444957
    17  H    3.553272   4.876297   5.442820   2.515388   1.080319
    18  H    3.401415   4.507842   5.449654   3.695869   2.228625
    19  O    4.626278   3.209222   2.621642   5.768942   7.013507
    20  H    5.568681   4.194571   3.426996   6.531272   7.910305
                   16         17         18         19         20
    16  C    0.000000
    17  H    2.239651   0.000000
    18  H    1.086856   2.643676   0.000000
    19  O    6.770385   7.980702   7.564377   0.000000
    20  H    7.791079   8.841031   8.622770   1.154513   0.000000
 Stoichiometry    C10H6OS3
 Framework group  C1[X(C10H6OS3)]
 Deg. of freedom    54
 Full point group                 C1      NOp   1
 Largest Abelian subgroup         C1      NOp   1
 Largest concise Abelian subgroup C1      NOp   1
                         Standard orientation:                         
 ---------------------------------------------------------------------
 Center     Atomic      Atomic             Coordinates (Angstroms)
 Number     Number       Type             X           Y           Z
 ---------------------------------------------------------------------
      1          6           0        4.010993    0.812219    0.264096
      2          6           0        2.634827    1.206990    0.119802
      3          6           0        1.727629    0.071454   -0.018947
      4          6           0        4.189765   -0.612362    0.230811
      5          1           0        4.834606    1.498486    0.381145
      6         16           0        2.679194   -1.451931    0.035107
      7          1           0        5.140392   -1.114631    0.331985
      8          6           0        0.283110   -0.029781   -0.160784
      9         16           0       -0.559637   -1.609089   -0.180829
     10          6           0       -2.113768   -0.872275   -0.361258
     11          6           0       -2.040419    0.566144   -0.382364
     12          6           0       -0.699350    1.052512   -0.253944
     13          1           0       -0.464097    2.092023   -0.085467
     14         16           0       -3.508268    1.318408    0.149936
     15          6           0       -4.268864   -0.254883    0.402259
     16          6           0       -3.376607   -1.350317    0.099268
     17          1           0       -5.219425   -0.364066    0.903860
     18          1           0       -3.554249   -2.365403    0.444664
     19          8           0        2.102395    2.616302   -0.191574
     20          1           0        2.579095    3.666757   -0.144657
 ---------------------------------------------------------------------
 Rotational constants (GHZ):           1.1675682           0.2804871           0.2285686
 Standard basis: 6-311+G(d,p) (5D, 7F)
 There are   382 symmetry adapted cartesian basis functions of A   symmetry.
 There are   368 symmetry adapted basis functions of A   symmetry.
   368 basis functions,   594 primitive gaussians,   382 cartesian basis functions
    61 alpha electrons       61 beta electrons
       nuclear repulsion energy      1105.1195472887 Hartrees.
 NAtoms=   20 NActive=   20 NUniq=   20 SFac= 1.00D+00 NAtFMM=   60 NAOKFM=F Big=F
 Integral buffers will be    131072 words long.
 Raffenetti 2 integral format.
 Two-electron integral symmetry is turned on.
 One-electron integrals computed using PRISM.
 NBasis=   368 RedAO= T EigKep=  1.84D-06  NBF=   368
 NBsUse=   367 1.00D-06 EigRej=  3.70D-07 NBFU=   367
 ExpMin= 4.05D-02 ExpMax= 9.34D+04 ExpMxC= 3.17D+03 IAcc=3 IRadAn=         5 AccDes= 0.00D+00
 Harris functional with IExCor=  402 and IRadAn=       5 diagonalized for initial guess.
 HarFok:  IExCor=  402 AccDes= 0.00D+00 IRadAn=         5 IDoV= 1 UseB2=F ITyADJ=14
 ICtDFT=  3500011 ScaDFX=  1.000000  1.000000  1.000000  1.000000
 FoFCou: FMM=F IPFlag=           0 FMFlag=      100000 FMFlg1=           0
         NFxFlg=           0 DoJE=T BraDBF=F KetDBF=T FulRan=T
         wScrn=  0.000000 ICntrl=       500 IOpCl=  0 I1Cent=   200000004 NGrid=           0
         NMat0=    1 NMatS0=      1 NMatT0=    0 NMatD0=    1 NMtDS0=    0 NMtDT0=    0
 Petite list used in FoFCou.
 Requested convergence on RMS density matrix=1.00D-08 within 128 cycles.
 Requested convergence on MAX density matrix=1.00D-06.
 Requested convergence on             energy=1.00D-06.
 No special actions if energy rises.
 SCF Done:  E(RB3LYP) =  -1654.53529543     A.U. after   17 cycles
            NFock= 17  Conv=0.54D-08     -V/T= 2.0031

 **********************************************************************

            Population analysis using the SCF Density.

 **********************************************************************

 Orbital symmetries:
       Occupied  (A) (A) (A) (A) (A) (A) (A) (A) (A) (A) (A) (A)
                 (A) (A) (A) (A) (A) (A) (A) (A) (A) (A) (A) (A)
                 (A) (A) (A) (A) (A) (A) (A) (A) (A) (A) (A) (A)
                 (A) (A) (A) (A) (A) (A) (A) (A) (A) (A) (A) (A)
                 (A) (A) (A) (A) (A) (A) (A) (A) (A) (A) (A) (A)
                 (A)
       Virtual   (A) (A) (A) (A) (A) (A) (A) (A) (A) (A) (A) (A)
                 (A) (A) (A) (A) (A) (A) (A) (A) (A) (A) (A) (A)
                 (A) (A) (A) (A) (A) (A) (A) (A) (A) (A) (A) (A)
                 (A) (A) (A) (A) (A) (A) (A) (A) (A) (A) (A) (A)
                 (A) (A) (A) (A) (A) (A) (A) (A) (A) (A) (A) (A)
                 (A) (A) (A) (A) (A) (A) (A) (A) (A) (A) (A) (A)
                 (A) (A) (A) (A) (A) (A) (A) (A) (A) (A) (A) (A)
                 (A) (A) (A) (A) (A) (A) (A) (A) (A) (A) (A) (A)
                 (A) (A) (A) (A) (A) (A) (A) (A) (A) (A) (A) (A)
                 (A) (A) (A) (A) (A) (A) (A) (A) (A) (A) (A) (A)
                 (A) (A) (A) (A) (A) (A) (A) (A) (A) (A) (A) (A)
                 (A) (A) (A) (A) (A) (A) (A) (A) (A) (A) (A) (A)
                 (A) (A) (A) (A) (A) (A) (A) (A) (A) (A) (A) (A)
                 (A) (A) (A) (A) (A) (A) (A) (A) (A) (A) (A) (A)
                 (A) (A) (A) (A) (A) (A) (A) (A) (A) (A) (A) (A)
                 (A) (A) (A) (A) (A) (A) (A) (A) (A) (A) (A) (A)
                 (A) (A) (A) (A) (A) (A) (A) (A) (A) (A) (A) (A)
                 (A) (A) (A) (A) (A) (A) (A) (A) (A) (A) (A) (A)
                 (A) (A) (A) (A) (A) (A) (A) (A) (A) (A) (A) (A)
                 (A) (A) (A) (A) (A) (A) (A) (A) (A) (A) (A) (A)
                 (A) (A) (A) (A) (A) (A) (A) (A) (A) (A) (A) (A)
                 (A) (A) (A) (A) (A) (A) (A) (A) (A) (A) (A) (A)
                 (A) (A) (A) (A) (A) (A) (A) (A) (A) (A) (A) (A)
                 (A) (A) (A) (A) (A) (A) (A) (A) (A) (A) (A) (A)
                 (A) (A) (A) (A) (A) (A) (A) (A) (A) (A) (A) (A)
                 (A) (A) (A) (A) (A) (A)
 The electronic state is 1-A.
 Alpha  occ. eigenvalues --  -88.89695 -88.88873 -88.88627 -19.16279 -10.27302
 Alpha  occ. eigenvalues --  -10.24024 -10.23659 -10.22359 -10.21849 -10.21736
 Alpha  occ. eigenvalues --  -10.21684 -10.20536 -10.20156 -10.19844  -7.98169
 Alpha  occ. eigenvalues --   -7.97393  -7.97183  -5.94480  -5.94115  -5.93738
 Alpha  occ. eigenvalues --   -5.93704  -5.93514  -5.93348  -5.93148  -5.92947
 Alpha  occ. eigenvalues --   -5.92694  -0.98434  -0.90438  -0.87900  -0.83544
 Alpha  occ. eigenvalues --   -0.77199  -0.75422  -0.74020  -0.70864  -0.68651
 Alpha  occ. eigenvalues --   -0.61714  -0.58390  -0.57344  -0.54183  -0.53242
 Alpha  occ. eigenvalues --   -0.51344  -0.48757  -0.45897  -0.44741  -0.43249
 Alpha  occ. eigenvalues --   -0.41555  -0.40192  -0.39831  -0.39582  -0.38708
 Alpha  occ. eigenvalues --   -0.37578  -0.36244  -0.34592  -0.34410  -0.33842
 Alpha  occ. eigenvalues --   -0.33191  -0.29341  -0.26415  -0.25337  -0.23403
 Alpha  occ. eigenvalues --   -0.19385
 Alpha virt. eigenvalues --   -0.07700  -0.05486  -0.02921  -0.01857  -0.00752
 Alpha virt. eigenvalues --   -0.00101   0.00651   0.00934   0.01297   0.02366
 Alpha virt. eigenvalues --    0.02731   0.03259   0.03548   0.04184   0.04385
 Alpha virt. eigenvalues --    0.05031   0.05295   0.05705   0.06433   0.06752
 Alpha virt. eigenvalues --    0.07446   0.07571   0.08107   0.08622   0.08924
 Alpha virt. eigenvalues --    0.09447   0.09754   0.10166   0.11149   0.11463
 Alpha virt. eigenvalues --    0.11847   0.12278   0.12708   0.12791   0.13210
 Alpha virt. eigenvalues --    0.13903   0.14362   0.15271   0.15316   0.15608
 Alpha virt. eigenvalues --    0.16305   0.16549   0.16851   0.17088   0.17552
 Alpha virt. eigenvalues --    0.18448   0.18726   0.18976   0.19270   0.19382
 Alpha virt. eigenvalues --    0.19890   0.20379   0.20451   0.20709   0.21032
 Alpha virt. eigenvalues --    0.21679   0.22138   0.22448   0.22870   0.23235
 Alpha virt. eigenvalues --    0.23624   0.24149   0.24599   0.25198   0.25536
 Alpha virt. eigenvalues --    0.26091   0.26794   0.27912   0.28115   0.28156
 Alpha virt. eigenvalues --    0.28761   0.30576   0.31349   0.31598   0.31985
 Alpha virt. eigenvalues --    0.32467   0.33603   0.33776   0.34846   0.34941
 Alpha virt. eigenvalues --    0.35902   0.36348   0.37197   0.39223   0.40014
 Alpha virt. eigenvalues --    0.41039   0.41683   0.41981   0.44338   0.44551
 Alpha virt. eigenvalues --    0.45223   0.46861   0.48453   0.50909   0.51397
 Alpha virt. eigenvalues --    0.54447   0.54619   0.55323   0.55694   0.56738
 Alpha virt. eigenvalues --    0.57490   0.58133   0.58540   0.59682   0.60459
 Alpha virt. eigenvalues --    0.61338   0.61885   0.63449   0.63822   0.64708
 Alpha virt. eigenvalues --    0.66234   0.67478   0.68946   0.69949   0.70157
 Alpha virt. eigenvalues --    0.71027   0.71907   0.72607   0.73462   0.73702
 Alpha virt. eigenvalues --    0.74037   0.74638   0.76072   0.76198   0.77531
 Alpha virt. eigenvalues --    0.78066   0.80436   0.80579   0.80972   0.81067
 Alpha virt. eigenvalues --    0.82064   0.82259   0.83408   0.84828   0.85551
 Alpha virt. eigenvalues --    0.87584   0.87924   0.90187   0.90719   0.91563
 Alpha virt. eigenvalues --    0.92035   0.93475   0.94113   0.95022   0.96313
 Alpha virt. eigenvalues --    0.97818   0.98036   0.99528   1.00825   1.01941
 Alpha virt. eigenvalues --    1.03610   1.04074   1.05763   1.07361   1.09649
 Alpha virt. eigenvalues --    1.10507   1.12285   1.14130   1.17676   1.19025
 Alpha virt. eigenvalues --    1.21648   1.24270   1.27397   1.28632   1.29500
 Alpha virt. eigenvalues --    1.31887   1.33260   1.35324   1.38675   1.40531
 Alpha virt. eigenvalues --    1.44302   1.45035   1.48589   1.49884   1.51938
 Alpha virt. eigenvalues --    1.53213   1.54316   1.57698   1.58280   1.59337
 Alpha virt. eigenvalues --    1.60183   1.62448   1.63767   1.64600   1.65451
 Alpha virt. eigenvalues --    1.67291   1.67752   1.69446   1.70860   1.71347
 Alpha virt. eigenvalues --    1.73120   1.74185   1.75962   1.77750   1.78522
 Alpha virt. eigenvalues --    1.79391   1.80317   1.81853   1.84252   1.85526
 Alpha virt. eigenvalues --    1.87007   1.88194   1.89821   1.90861   1.93285
 Alpha virt. eigenvalues --    1.93895   1.94869   1.97050   1.99222   1.99768
 Alpha virt. eigenvalues --    2.01273   2.02837   2.03766   2.07516   2.08047
 Alpha virt. eigenvalues --    2.09431   2.10100   2.11009   2.12783   2.14358
 Alpha virt. eigenvalues --    2.15255   2.17735   2.22573   2.29549   2.31047
 Alpha virt. eigenvalues --    2.36172   2.38198   2.41041   2.46453   2.47628
 Alpha virt. eigenvalues --    2.53056   2.54688   2.56176   2.61926   2.64347
 Alpha virt. eigenvalues --    2.65391   2.68576   2.70428   2.70665   2.71510
 Alpha virt. eigenvalues --    2.72077   2.73912   2.75221   2.77214   2.79463
 Alpha virt. eigenvalues --    2.81248   2.83874   2.88500   2.91720   2.92682
 Alpha virt. eigenvalues --    2.93356   2.96847   2.99113   3.01713   3.02358
 Alpha virt. eigenvalues --    3.04901   3.05448   3.09581   3.13358   3.19165
 Alpha virt. eigenvalues --    3.20322   3.25850   3.28758   3.33911   3.36813
 Alpha virt. eigenvalues --    3.39690   3.46825   3.54713   3.63983   3.71139
 Alpha virt. eigenvalues --    3.86915   3.93819   4.01242   4.05593   4.12693
 Alpha virt. eigenvalues --    4.30561   4.52133   5.01427   5.19032   5.43937
 Alpha virt. eigenvalues --    7.92782   7.95736   8.04138  17.27011  17.28882
 Alpha virt. eigenvalues --   17.30079  17.42570  17.44683  17.46310  17.47254
 Alpha virt. eigenvalues --   17.52118  17.53763  23.43665  23.59144  23.69903
 Alpha virt. eigenvalues --   23.76571  23.79370  23.84776  23.87150  23.94836
 Alpha virt. eigenvalues --   23.95730  23.96168  49.85493 189.08911 189.12008
 Alpha virt. eigenvalues --  189.22337
          Condensed to atoms (all electrons):
               1          2          3          4          5          6
     1  C    9.626423  -4.049434   1.064590  -0.698238   0.433124   0.760757
     2  C   -4.049434  22.335745  -7.881127   2.470908  -0.144860  -4.420650
     3  C    1.064590  -7.881127  13.907050  -1.502136   0.079768   0.507892
     4  C   -0.698238   2.470908  -1.502136   6.058081  -0.033127  -0.465336
     5  H    0.433124  -0.144860   0.079768  -0.033127   0.519158   0.010330
     6  S    0.760757  -4.420650   0.507892  -0.465336   0.010330  18.442480
     7  H    0.042030  -0.046782   0.027567   0.366329  -0.004572  -0.022794
     8  C   -0.050302   0.074615  -2.095065  -0.169025  -0.002492   1.236987
     9  S   -0.115798   1.711147   0.774508   0.086182  -0.001413  -0.960507
    10  C   -0.107836   0.152250  -0.255560   0.030375  -0.000148  -0.140336
    11  C   -0.241583  -0.736132   0.126899  -0.001238   0.000519   0.159578
    12  C   -0.001567  -4.710926   1.195034  -0.161407   0.007414   1.396867
    13  H    0.006393   0.041121  -0.012470  -0.000498   0.000001  -0.003133
    14  S   -0.004329  -0.083580   0.017689   0.000172   0.000008   0.020111
    15  C   -0.001729   0.005127  -0.016950  -0.000203  -0.000000  -0.010370
    16  C   -0.003897   0.029265   0.114351   0.001985  -0.000003  -0.001427
    17  H    0.000001  -0.000051  -0.000024   0.000000  -0.000000   0.000045
    18  H    0.000009  -0.000174  -0.002156   0.000017  -0.000000   0.000863
    19  O   -0.213022   0.563188  -0.194327   0.017673  -0.001425   0.017287
    20  H   -0.120652   0.020149   0.062172  -0.003795   0.000207  -0.004554
               7          8          9         10         11         12
     1  C    0.042030  -0.050302  -0.115798  -0.107836  -0.241583  -0.001567
     2  C   -0.046782   0.074615   1.711147   0.152250  -0.736132  -4.710926
     3  C    0.027567  -2.095065   0.774508  -0.255560   0.126899   1.195034
     4  C    0.366329  -0.169025   0.086182   0.030375  -0.001238  -0.161407
     5  H   -0.004572  -0.002492  -0.001413  -0.000148   0.000519   0.007414
     6  S   -0.022794   1.236987  -0.960507  -0.140336   0.159578   1.396867
     7  H    0.475281  -0.004657   0.000367   0.000055  -0.000280  -0.000580
     8  C   -0.004657  12.960753   0.002841  -1.735103   1.512224  -5.290394
     9  S    0.000367   0.002841  18.882440  -0.893269   1.388523  -4.411263
    10  C    0.000055  -1.735103  -0.893269  14.109199  -5.646029   1.831601
    11  C   -0.000280   1.512224   1.388523  -5.646029  18.626431  -7.699945
    12  C   -0.000580  -5.290394  -4.411263   1.831601  -7.699945  22.243714
    13  H    0.000000   0.174599   0.019617  -0.059521   0.048125   0.139882
    14  S   -0.000003  -0.500584   0.115053   0.874503  -1.271165   0.703378
    15  C    0.000001   0.074784   0.047573   0.625026  -0.209026  -0.532235
    16  C   -0.000007   0.061712  -0.006996  -3.021410  -0.135917   0.821048
    17  H    0.000000  -0.004013   0.001159  -0.015066   0.000013   0.017440
    18  H    0.000000   0.007822   0.026819   0.021638  -0.038169  -0.001069
    19  O   -0.000185  -0.059933  -0.003602  -0.002451  -0.073362   0.073633
    20  H   -0.000012   0.031759   0.000538   0.000026   0.013051  -0.008432
              13         14         15         16         17         18
     1  C    0.006393  -0.004329  -0.001729  -0.003897   0.000001   0.000009
     2  C    0.041121  -0.083580   0.005127   0.029265  -0.000051  -0.000174
     3  C   -0.012470   0.017689  -0.016950   0.114351  -0.000024  -0.002156
     4  C   -0.000498   0.000172  -0.000203   0.001985   0.000000   0.000017
     5  H    0.000001   0.000008  -0.000000  -0.000003  -0.000000  -0.000000
     6  S   -0.003133   0.020111  -0.010370  -0.001427   0.000045   0.000863
     7  H    0.000000  -0.000003   0.000001  -0.000007   0.000000   0.000000
     8  C    0.174599  -0.500584   0.074784   0.061712  -0.004013   0.007822
     9  S    0.019617   0.115053   0.047573  -0.006996   0.001159   0.026819
    10  C   -0.059521   0.874503   0.625026  -3.021410  -0.015066   0.021638
    11  C    0.048125  -1.271165  -0.209026  -0.135917   0.000013  -0.038169
    12  C    0.139882   0.703378  -0.532235   0.821048   0.017440  -0.001069
    13  H    0.496582   0.001501   0.002346  -0.013637  -0.000003   0.000016
    14  S    0.001501  16.595769   0.341366  -0.678401  -0.020819   0.003434
    15  C    0.002346   0.341366   5.636860  -0.085674   0.365980  -0.000105
    16  C   -0.013637  -0.678401  -0.085674   8.705802   0.010043   0.327797
    17  H   -0.000003  -0.020819   0.365980   0.010043   0.474824  -0.003610
    18  H    0.000016   0.003434  -0.000105   0.327797  -0.003610   0.517791
    19  O   -0.003807   0.001586  -0.000552   0.001577  -0.000000  -0.000001
    20  H    0.000251  -0.000068   0.000015   0.000040  -0.000000  -0.000000
              19         20
     1  C   -0.213022  -0.120652
     2  C    0.563188   0.020149
     3  C   -0.194327   0.062172
     4  C    0.017673  -0.003795
     5  H   -0.001425   0.000207
     6  S    0.017287  -0.004554
     7  H   -0.000185  -0.000012
     8  C   -0.059933   0.031759
     9  S   -0.003602   0.000538
    10  C   -0.002451   0.000026
    11  C   -0.073362   0.013051
    12  C    0.073633  -0.008432
    13  H   -0.003807   0.000251
    14  S    0.001586  -0.000068
    15  C   -0.000552   0.000015
    16  C    0.001577   0.000040
    17  H   -0.000000  -0.000000
    18  H   -0.000001  -0.000000
    19  O    8.080093   0.204368
    20  H    0.204368   0.509294
 Mulliken charges:
               1
     1  C   -0.324938
     2  C    0.670201
     3  C    0.082297
     4  C    0.003280
     5  H    0.137511
     6  S   -0.524089
     7  H    0.168242
     8  C   -0.226530
     9  S   -0.663918
    10  C    0.232056
    11  C    0.177484
    12  C    0.387811
    13  H    0.162634
    14  S   -0.115622
    15  C   -0.242232
    16  C   -0.126250
    17  H    0.174080
    18  H    0.139078
    19  O   -0.406738
    20  H    0.295642
 Sum of Mulliken charges =  -0.00000
 Mulliken charges with hydrogens summed into heavy atoms:
               1
     1  C   -0.187427
     2  C    0.670201
     3  C    0.082297
     4  C    0.171522
     6  S   -0.524089
     8  C   -0.226530
     9  S   -0.663918
    10  C    0.232056
    11  C    0.177484
    12  C    0.550445
    14  S   -0.115622
    15  C   -0.068151
    16  C    0.012828
    19  O   -0.111096
 Electronic spatial extent (au):  <R**2>=           4401.8148
 Charge=             -0.0000 electrons
 Dipole moment (field-independent basis, Debye):
    X=              1.7890    Y=              1.0069    Z=              1.3571  Tot=              2.4610
 Quadrupole moment (field-independent basis, Debye-Ang):
   XX=            -82.9931   YY=            -89.8156   ZZ=           -109.6746
   XY=              7.4592   XZ=             -2.9242   YZ=             -0.3903
 Traceless Quadrupole moment (field-independent basis, Debye-Ang):
   XX=             11.1680   YY=              4.3455   ZZ=            -15.5135
   XY=              7.4592   XZ=             -2.9242   YZ=             -0.3903
 Octapole moment (field-independent basis, Debye-Ang**2):
  XXX=             56.3018  YYY=             51.9006  ZZZ=              0.6688  XYY=             33.8838
  XXY=              8.6080  XXZ=             31.8494  XZZ=             -3.0065  YZZ=              1.4311
  YYZ=              3.5768  XYZ=              3.7183
 Hexadecapole moment (field-independent basis, Debye-Ang**3):
 XXXX=          -4228.1893 YYYY=           -917.1294 ZZZZ=           -176.3700 XXXY=             75.2710
 XXXZ=            -90.9700 YYYX=            168.2370 YYYZ=            -13.1295 ZZZX=            -12.9861
 ZZZY=             -1.0522 XXYY=           -847.4301 XXZZ=           -893.6175 YYZZ=           -238.0883
 XXYZ=            -11.5813 YYXZ=            -10.8309 ZZXY=             -0.8787
 N-N= 1.105119547289D+03 E-N=-6.120507022568D+03  KE= 1.649485933941D+03
 Calling FoFJK, ICntrl=      2127 FMM=F ISym2X=0 I1Cent= 0 IOpClX= 0 NMat=1 NMatS=1 NMatT=0.
 ***** Axes restored to original set *****
 -------------------------------------------------------------------
 Center     Atomic                   Forces (Hartrees/Bohr)
 Number     Number              X              Y              Z
 -------------------------------------------------------------------
      1        6           0.017918367   -0.039795343    0.004452007
      2        6           0.022938289    0.022152033    0.012980496
      3        6          -0.021272121    0.022046797    0.000125785
      4        6           0.008520861    0.053490983   -0.015422006
      5        1          -0.000441684    0.001763179    0.000542252
      6       16          -0.005528461    0.023340284   -0.005292113
      7        1           0.003222981   -0.003239402   -0.000072803
      8        6           0.029828743    0.044079058   -0.014655011
      9       16          -0.008125040    0.009091684    0.010398898
     10        6           0.009560351    0.026529465   -0.024336984
     11        6          -0.031910447   -0.028828434    0.003743685
     12        6          -0.019172358   -0.042682041    0.012492577
     13        1          -0.004501597    0.000669721    0.006435069
     14       16           0.013964248   -0.012850529    0.001788067
     15        6          -0.032490966   -0.038564622    0.028940822
     16        6           0.015151655    0.042460040   -0.030637323
     17        1           0.003812211    0.005137884    0.003455027
     18        1           0.006509583    0.003560448    0.005432801
     19        8          -0.029673822    0.017728149   -0.004640330
     20        1           0.021689208   -0.106089354    0.004269083
 -------------------------------------------------------------------
 Cartesian Forces:  Max     0.106089354 RMS     0.024705942

 GradGradGradGradGradGradGradGradGradGradGradGradGradGradGradGradGradGrad
 Berny optimization.
 FormGI is forming the generalized inverse of G from B-inverse, IUseBI=4.
 Internal  Forces:  Max     0.104564664 RMS     0.019680531
 Search for a local minimum.
 Step number   1 out of a maximum of  116
 All quantities printed in internal units (Hartrees-Bohrs-Radians)
 Mixed Optimization -- RFO/linear search
 Second derivative matrix not updated -- first step.
 ITU=  0
     Eigenvalues ---    0.00230   0.00994   0.01056   0.01221   0.01272
     Eigenvalues ---    0.01296   0.01362   0.01420   0.01458   0.01495
     Eigenvalues ---    0.01500   0.01592   0.01595   0.01766   0.02199
     Eigenvalues ---    0.02651   0.15079   0.15681   0.15737   0.15997
     Eigenvalues ---    0.16000   0.16000   0.18005   0.22444   0.22526
     Eigenvalues ---    0.23321   0.23978   0.24118   0.24633   0.24978
     Eigenvalues ---    0.24995   0.26145   0.26558   0.28307   0.28353
     Eigenvalues ---    0.28663   0.30910   0.31247   0.31627   0.34829
     Eigenvalues ---    0.35179   0.35872   0.35956   0.36006   0.36111
     Eigenvalues ---    0.36185   0.36328   0.37598   0.38292   0.38435
     Eigenvalues ---    0.39456   0.39736   0.405541000.000001000.00000
     Eigenvalues --- 1000.000001000.000001000.000001000.000001000.00000
     Eigenvalues --- 1000.000001000.000001000.000001000.000001000.00000
     Eigenvalues --- 1000.000001000.000001000.000001000.000001000.00000
     Eigenvalues --- 1000.000001000.000001000.000001000.000001000.00000
     Eigenvalues --- 1000.000001000.000001000.000001000.000001000.00000
     Eigenvalues --- 1000.000001000.000001000.000001000.000001000.00000
     Eigenvalues --- 1000.000001000.000001000.000001000.000001000.00000
     Eigenvalues --- 1000.000001000.000001000.000001000.000001000.00000
     Eigenvalues --- 1000.000001000.000001000.000001000.000001000.00000
     Eigenvalues --- 1000.000001000.000001000.000001000.000001000.00000
     Eigenvalues --- 1000.00000
 RFO step:  Lambda=-1.05628551D-01 EMin= 2.30000000D-03
 Linear search not attempted -- first point.
 Maximum step size (   0.300) exceeded in Quadratic search.
    -- Step size scaled by   0.585
 Iteration  1 RMS(Cart)=  0.07014496 RMS(Int)=  0.00171068
 Iteration  2 RMS(Cart)=  0.00185092 RMS(Int)=  0.00013820
 Iteration  3 RMS(Cart)=  0.00001109 RMS(Int)=  0.00013793
 Iteration  4 RMS(Cart)=  0.00000000 RMS(Int)=  0.00013793
 Iteration  1 RMS(Cart)=  0.00000020 RMS(Int)=  0.00000008
 Variable       Old X    -DE/DX   Delta X   Delta X   Delta X     New X
                                 (Linear)    (Quad)   (Total)
    R1        2.71917  -0.02433   0.00000  -0.02968  -0.02958   2.68959
    R2        2.71391  -0.05475   0.00000  -0.06373  -0.06372   2.65020
    R3        2.03793   0.00146   0.00000   0.00183   0.00183   2.03976
    R4        2.75906  -0.06103   0.00000  -0.07570  -0.07564   2.68343
    R5        2.90711  -0.08544   0.00000  -0.12742  -0.12742   2.77969
    R6        3.39578  -0.02136   0.00000  -0.03244  -0.03249   3.36329
    R7        2.74954  -0.01804   0.00000  -0.02192  -0.02192   2.72762
    R8        3.28671  -0.01029   0.00000  -0.01312  -0.01321   3.27350
    R9        2.04073  -0.00118   0.00000  -0.00148  -0.00148   2.03925
   R10        3.38300  -0.01047   0.00000  -0.01472  -0.01484   3.36816
   R11        2.76783  -0.05985   0.00000  -0.07481  -0.07487   2.69296
   R12        3.26806   0.00142   0.00000   0.00277   0.00279   3.27085
   R13        2.72204  -0.03066   0.00000  -0.03701  -0.03677   2.68528
   R14        2.69600  -0.00394   0.00000  -0.00564  -0.00553   2.69047
   R15        2.70667  -0.01330   0.00000  -0.01652  -0.01644   2.69023
   R16        3.27519   0.00140   0.00000   0.00304   0.00303   3.27822
   R17        2.03908   0.00062   0.00000   0.00077   0.00077   2.03985
   R18        3.33654  -0.01231   0.00000  -0.01712  -0.01727   3.31927
   R19        2.73057  -0.05729   0.00000  -0.06830  -0.06834   2.66223
   R20        2.04151  -0.00082   0.00000  -0.00103  -0.00103   2.04048
   R21        2.05386  -0.00397   0.00000  -0.00508  -0.00508   2.04878
   R22        2.18171  -0.10456   0.00000  -0.15737  -0.15737   2.02434
    A1        1.97020  -0.00242   0.00000  -0.00756  -0.00743   1.96277
    A2        2.17330   0.00025   0.00000   0.00167   0.00160   2.17490
    A3        2.13967   0.00218   0.00000   0.00591   0.00584   2.14551
    A4        1.97187   0.01599   0.00000   0.02436   0.02450   1.99637
    A5        2.21760  -0.00360   0.00000  -0.00360  -0.00373   2.21387
    A6        2.06941  -0.01159   0.00000  -0.01706  -0.01722   2.05220
    A7        1.90440  -0.00676   0.00000  -0.01075  -0.01073   1.89367
    A8        2.31891  -0.01152   0.00000  -0.01917  -0.01918   2.29973
    A9        2.05972   0.01827   0.00000   0.02986   0.02984   2.08956
   A10        1.95339  -0.00158   0.00000  -0.00248  -0.00253   1.95086
   A11        2.17580   0.00529   0.00000   0.01116   0.01118   2.18698
   A12        2.15384  -0.00372   0.00000  -0.00869  -0.00867   2.14518
   A13        1.62490  -0.00523   0.00000  -0.00355  -0.00380   1.62110
   A14        2.12921   0.00074   0.00000   0.00149   0.00149   2.13069
   A15        2.24047  -0.00812   0.00000  -0.01309  -0.01310   2.22737
   A16        1.91283   0.00745   0.00000   0.01190   0.01189   1.92471
   A17        1.61917  -0.00688   0.00000  -0.00874  -0.00867   1.61050
   A18        1.96192  -0.01076   0.00000  -0.01529  -0.01550   1.94641
   A19        2.23830   0.00802   0.00000   0.02012   0.01973   2.25804
   A20        1.96536   0.00637   0.00000   0.01025   0.01034   1.97570
   A21        1.96650   0.00861   0.00000   0.01331   0.01333   1.97983
   A22        1.96688  -0.01374   0.00000  -0.01982  -0.02000   1.94688
   A23        2.23705   0.00871   0.00000   0.02117   0.02079   2.25785
   A24        1.96365   0.00160   0.00000  -0.00107  -0.00094   1.96271
   A25        2.15999  -0.00614   0.00000  -0.01046  -0.01061   2.14938
   A26        2.14750   0.00514   0.00000   0.01445   0.01431   2.16181
   A27        1.59277   0.00061   0.00000   0.00275   0.00278   1.59554
   A28        1.96011   0.00125   0.00000   0.00091   0.00084   1.96096
   A29        2.13584  -0.00450   0.00000  -0.00789  -0.00804   2.12780
   A30        2.17010   0.00428   0.00000   0.01172   0.01161   2.18171
   A31        1.93934   0.00550   0.00000   0.00588   0.00599   1.94532
   A32        2.16544   0.00007   0.00000   0.00567   0.00537   2.17080
   A33        2.14181  -0.00366   0.00000  -0.00285  -0.00317   2.13864
   A34        2.32184  -0.06203   0.00000  -0.13661  -0.13661   2.18523
    D1        0.00683  -0.00088   0.00000  -0.00397  -0.00396   0.00287
    D2       -2.89394  -0.00358   0.00000  -0.02020  -0.02029  -2.91422
    D3       -3.13952   0.00022   0.00000   0.00176   0.00177  -3.13775
    D4        0.24290  -0.00249   0.00000  -0.01446  -0.01456   0.22834
    D5       -0.00671   0.00055   0.00000   0.00183   0.00175  -0.00496
    D6       -3.13020   0.00057   0.00000   0.00274   0.00272  -3.12747
    D7        3.13954  -0.00052   0.00000  -0.00377  -0.00385   3.13568
    D8        0.01605  -0.00049   0.00000  -0.00286  -0.00288   0.01317
    D9       -0.00388   0.00091   0.00000   0.00437   0.00435   0.00047
   D10        3.11762   0.00050   0.00000   0.00086   0.00092   3.11854
   D11        2.91927   0.00415   0.00000   0.02049   0.02042   2.93969
   D12       -0.24242   0.00375   0.00000   0.01698   0.01700  -0.22542
   D13       -0.28016   0.00214   0.00000   0.00579   0.00568  -0.27448
   D14        3.11413  -0.00408   0.00000  -0.01633  -0.01621   3.09792
   D15        0.00006  -0.00052   0.00000  -0.00287  -0.00284  -0.00278
   D16       -3.12486   0.00015   0.00000   0.00060   0.00068  -3.12417
   D17       -3.05427  -0.00061   0.00000   0.00000  -0.00000  -3.05427
   D18        0.04334   0.00175   0.00000   0.00992   0.00992   0.05327
   D19        0.06582  -0.00130   0.00000  -0.00417  -0.00418   0.06164
   D20       -3.11975   0.00106   0.00000   0.00574   0.00575  -3.11401
   D21        0.00376   0.00003   0.00000   0.00071   0.00071   0.00447
   D22        3.12751   0.00011   0.00000   0.00005   0.00001   3.12752
   D23        3.13753   0.00090   0.00000   0.00463   0.00467  -3.14098
   D24        0.03254  -0.00073   0.00000  -0.00309  -0.00317   0.02937
   D25       -3.13829  -0.00187   0.00000  -0.00731  -0.00722   3.13767
   D26       -0.15868   0.00274   0.00000   0.01369   0.01366  -0.14503
   D27       -0.03629   0.00016   0.00000   0.00149   0.00161  -0.03468
   D28        2.94332   0.00478   0.00000   0.02249   0.02248   2.96580
   D29       -0.02113   0.00148   0.00000   0.00451   0.00448  -0.01665
   D30       -2.61646  -0.00724   0.00000  -0.02908  -0.02912  -2.64558
   D31        0.00354  -0.00127   0.00000  -0.00397  -0.00392  -0.00038
   D32       -2.68864  -0.01041   0.00000  -0.03706  -0.03657  -2.72522
   D33        2.68736   0.00760   0.00000   0.02896   0.02865   2.71601
   D34       -0.00483  -0.00153   0.00000  -0.00413  -0.00401  -0.00883
   D35        2.61406   0.00580   0.00000   0.03114   0.03150   2.64556
   D36       -0.24596  -0.00084   0.00000  -0.00099  -0.00083  -0.24679
   D37        0.01959   0.00139   0.00000   0.00393   0.00387   0.02346
   D38       -2.84042  -0.00526   0.00000  -0.02821  -0.02846  -2.86889
   D39        0.02175   0.00072   0.00000   0.00151   0.00144   0.02319
   D40       -2.95920  -0.00265   0.00000  -0.01666  -0.01692  -2.97612
   D41        2.62835   0.00449   0.00000   0.02740   0.02778   2.65614
   D42       -0.35260   0.00112   0.00000   0.00923   0.00942  -0.34317
   D43       -0.00863   0.00123   0.00000   0.00274   0.00267  -0.00596
   D44       -2.61514  -0.00808   0.00000  -0.03137  -0.03130  -2.64645
   D45        0.01988  -0.00034   0.00000  -0.00037  -0.00039   0.01949
   D46        2.97145   0.00585   0.00000   0.02709   0.02691   2.99835
   D47       -0.02601  -0.00043   0.00000  -0.00181  -0.00173  -0.02773
   D48        2.83848   0.00678   0.00000   0.03140   0.03148   2.86997
   D49       -2.97318  -0.00563   0.00000  -0.02736  -0.02745  -3.00063
   D50       -0.10869   0.00159   0.00000   0.00585   0.00576  -0.10293
         Item               Value     Threshold  Converged?
 Maximum Force            0.104565     0.000450     NO 
 RMS     Force            0.019774     0.000300     NO 
 Maximum Displacement     0.452943     0.001800     NO 
 RMS     Displacement     0.070307     0.001200     NO 
 Predicted change in Energy=-4.910860D-02
 GradGradGradGradGradGradGradGradGradGradGradGradGradGradGradGradGradGrad

                          Input orientation:                          
 ---------------------------------------------------------------------
 Center     Atomic      Atomic             Coordinates (Angstroms)
 Number     Number       Type             X           Y           Z
 ---------------------------------------------------------------------
      1          6           0       -4.200501   -1.322125   -0.202828
      2          6           0       -2.880530   -0.976644   -0.607820
      3          6           0       -1.967548   -2.064182   -0.620149
      4          6           0       -4.326400   -2.683869    0.107969
      5          1           0       -5.023597   -0.626882   -0.137719
      6         16           0       -2.831395   -3.532561   -0.105143
      7          1           0       -5.236388   -3.169707    0.424820
      8          6           0       -0.573127   -2.144766   -0.984123
      9         16           0        0.306265   -3.694510   -1.025867
     10          6           0        1.777482   -2.925498   -1.515783
     11          6           0        1.606905   -1.523057   -1.668321
     12          6           0        0.283549   -1.079774   -1.387450
     13          1           0       -0.071690   -0.080675   -1.589452
     14         16           0        2.786067   -0.851622   -2.749127
     15          6           0        3.519984   -2.427986   -2.997481
     16          6           0        2.856010   -3.446316   -2.285556
     17          1           0        4.285583   -2.590378   -3.741390
     18          1           0        3.002305   -4.498795   -2.500738
     19          8           0       -2.326848    0.379034   -0.746630
     20          1           0       -2.904127    1.280313   -0.791213
 ---------------------------------------------------------------------
                    Distance matrix (angstroms):
                    1          2          3          4          5
     1  C    0.000000
     2  C    1.423270   0.000000
     3  C    2.389746   1.420010   0.000000
     4  C    1.402424   2.348939   2.545261   0.000000
     5  H    1.079393   2.221726   3.411453   2.185782   0.000000
     6  S    2.601927   2.605343   1.779775   1.732263   3.640025
     7  H    2.209200   3.380228   3.605476   1.079125   2.612985
     8  C    3.800658   2.613470   1.443393   3.945930   4.777767
     9  S    5.159123   4.209183   2.827155   4.875302   6.213420
    10  C    6.327001   5.130254   3.945792   6.320786   7.310087
    11  C    5.992830   4.643308   3.764067   6.301334   6.863631
    12  C    4.644219   3.260346   2.573956   5.105001   5.471082
    13  H    4.528907   3.107401   2.910004   5.268815   5.189148
    14  S    7.450983   6.058973   5.347870   7.880820   8.237768
    15  C    8.284859   6.984515   5.991416   8.442454   9.187763
    16  C    7.657956   6.466991   5.286832   7.609028   8.640059
    17  H    9.281353   7.986024   7.008615   9.433587  10.173623
    18  H    8.200734   7.113117   5.844946   7.988068   9.219039
    19  O    2.588481   1.470950   2.472731   3.756318   2.941954
    20  H    2.966389   2.264519   3.477369   4.306522   2.925167
                    6          7          8          9         10
     6  S    0.000000
     7  H    2.489280   0.000000
     8  C    2.792554   4.978115   0.000000
     9  S    3.273969   5.753340   1.782352   0.000000
    10  C    4.858002   7.281480   2.533292   1.730860   0.000000
    11  C    5.116653   7.343252   2.367950   2.611440   1.420987
    12  C    4.166936   6.174289   1.425052   2.639716   2.378025
    13  H    4.662044   6.346141   2.208694   3.676993   3.393800
    14  S    6.762689   8.933490   4.008945   4.147415   2.615213
    15  C    7.065813   9.430606   4.570271   3.977352   2.340781
    16  C    6.091651   8.538709   3.891881   2.854753   1.423736
    17  H    8.047445  10.409652   5.604298   4.942483   3.369896
    18  H    6.380011   8.843157   4.541507   3.176594   2.223869
    19  O    3.995829   4.736167   3.082451   4.858499   5.325134
    20  H    4.862072   5.169222   4.147522   5.925415   6.334928
                   11         12         13         14         15
    11  C    0.000000
    12  C    1.423608   0.000000
    13  H    2.214581   1.079443   0.000000
    14  S    1.734759   2.858114   3.178991   0.000000
    15  C    2.499086   3.858028   4.515809   1.756484   0.000000
    16  C    2.374903   3.608971   4.514812   2.636708   1.408792
    17  H    3.551352   4.882544   5.469486   2.501281   1.079775
    18  H    3.390439   4.507854   5.458907   3.662012   2.191574
    19  O    4.465633   3.058258   2.451004   5.627291   6.865211
    20  H    5.383086   4.010834   3.242248   6.384112   7.738753
                   16         17         18         19         20
    16  C    0.000000
    17  H    2.212636   0.000000
    18  H    1.084167   2.613058   0.000000
    19  O    6.622961   7.842846   7.434378   0.000000
    20  H    7.599557   8.682035   8.438395   1.071234   0.000000
 Stoichiometry    C10H6OS3
 Framework group  C1[X(C10H6OS3)]
 Deg. of freedom    54
 Full point group                 C1      NOp   1
 Largest Abelian subgroup         C1      NOp   1
 Largest concise Abelian subgroup C1      NOp   1
                         Standard orientation:                         
 ---------------------------------------------------------------------
 Center     Atomic      Atomic             Coordinates (Angstroms)
 Number     Number       Type             X           Y           Z
 ---------------------------------------------------------------------
      1          6           0        3.957208    0.855867    0.234822
      2          6           0        2.578479    1.183763    0.103340
      3          6           0        1.718077    0.060919   -0.020585
      4          6           0        4.183448   -0.527978    0.210701
      5          1           0        4.751705    1.578508    0.342775
      6         16           0        2.707394   -1.417499    0.035343
      7          1           0        5.147077   -1.004139    0.306621
      8          6           0        0.283871   -0.042051   -0.146409
      9         16           0       -0.554986   -1.614626   -0.156732
     10          6           0       -2.105188   -0.864437   -0.329836
     11          6           0       -1.998529    0.552268   -0.357660
     12          6           0       -0.659908    1.021754   -0.237921
     13          1           0       -0.396918    2.058389   -0.091563
     14         16           0       -3.479061    1.312416    0.131818
     15          6           0       -4.252880   -0.246829    0.366754
     16          6           0       -3.383179   -1.322346    0.099212
     17          1           0       -5.228473   -0.337308    0.820566
     18          1           0       -3.594411   -2.336489    0.419078
     19          8           0        2.010361    2.511342   -0.176788
     20          1           0        2.536180    3.440077   -0.084553
 ---------------------------------------------------------------------
 Rotational constants (GHZ):           1.2201049           0.2843408           0.2326770
 Standard basis: 6-311+G(d,p) (5D, 7F)
 There are   382 symmetry adapted cartesian basis functions of A   symmetry.
 There are   368 symmetry adapted basis functions of A   symmetry.
   368 basis functions,   594 primitive gaussians,   382 cartesian basis functions
    61 alpha electrons       61 beta electrons
       nuclear repulsion energy      1117.3049194589 Hartrees.
 NAtoms=   20 NActive=   20 NUniq=   20 SFac= 1.00D+00 NAtFMM=   60 NAOKFM=F Big=F
 Integral buffers will be    131072 words long.
 Raffenetti 2 integral format.
 Two-electron integral symmetry is turned on.
 One-electron integrals computed using PRISM.
 NBasis=   368 RedAO= T EigKep=  1.49D-06  NBF=   368
 NBsUse=   367 1.00D-06 EigRej=  3.13D-07 NBFU=   367
 Initial guess from the checkpoint file:  "/tmp/pbs.4729018[0].pbs/Gau-1170422.chk"
 B after Tr=    -0.000000    0.000000    0.000000
         Rot=    0.999995    0.002544    0.000118   -0.002054 Ang=   0.37 deg.
 ExpMin= 4.05D-02 ExpMax= 9.34D+04 ExpMxC= 3.17D+03 IAcc=3 IRadAn=         5 AccDes= 0.00D+00
 Harris functional with IExCor=  402 and IRadAn=       5 diagonalized for initial guess.
 HarFok:  IExCor=  402 AccDes= 0.00D+00 IRadAn=         5 IDoV= 1 UseB2=F ITyADJ=14
 ICtDFT=  3500011 ScaDFX=  1.000000  1.000000  1.000000  1.000000
 FoFCou: FMM=F IPFlag=           0 FMFlag=      100000 FMFlg1=           0
         NFxFlg=           0 DoJE=T BraDBF=F KetDBF=T FulRan=T
         wScrn=  0.000000 ICntrl=       500 IOpCl=  0 I1Cent=   200000004 NGrid=           0
         NMat0=    1 NMatS0=      1 NMatT0=    0 NMatD0=    1 NMtDS0=    0 NMtDT0=    0
 Petite list used in FoFCou.
 Requested convergence on RMS density matrix=1.00D-08 within 128 cycles.
 Requested convergence on MAX density matrix=1.00D-06.
 Requested convergence on             energy=1.00D-06.
 No special actions if energy rises.
 SCF Done:  E(RB3LYP) =  -1654.58776155     A.U. after   15 cycles
            NFock= 15  Conv=0.32D-08     -V/T= 2.0027
 Calling FoFJK, ICntrl=      2127 FMM=F ISym2X=0 I1Cent= 0 IOpClX= 0 NMat=1 NMatS=1 NMatT=0.
 ***** Axes restored to original set *****
 -------------------------------------------------------------------
 Center     Atomic                   Forces (Hartrees/Bohr)
 Number     Number              X              Y              Z
 -------------------------------------------------------------------
      1        6           0.005585763   -0.024622220    0.003152297
      2        6           0.025670195    0.032192670    0.008689011
      3        6          -0.019307435    0.007655074    0.000680194
      4        6           0.004548604    0.031966846   -0.009992000
      5        1          -0.000141994    0.001791774    0.000561276
      6       16          -0.002487859    0.011042516   -0.003302756
      7        1           0.002496454   -0.003457155    0.000188280
      8        6           0.022264365    0.029428905   -0.009305417
      9       16          -0.006620082    0.003702024    0.009882105
     10        6           0.003837622    0.017946736   -0.017288210
     11        6          -0.018447491   -0.021365541   -0.001751755
     12        6          -0.012931776   -0.024715007    0.007559663
     13        1          -0.002175572    0.000241385    0.005766377
     14       16           0.011905925   -0.004254633    0.001235333
     15        6          -0.021139267   -0.025556970    0.016957840
     16        6           0.009481217    0.025151954   -0.020649446
     17        1           0.003322797    0.004615643    0.002957228
     18        1           0.005221685    0.001572395    0.005599105
     19        8          -0.033939120    0.014312693   -0.005297901
     20        1           0.022855967   -0.077649088    0.004358776
 -------------------------------------------------------------------
 Cartesian Forces:  Max     0.077649088 RMS     0.017711223

 GradGradGradGradGradGradGradGradGradGradGradGradGradGradGradGradGradGrad
 Berny optimization.
 Using GEDIIS/GDIIS optimizer.
 FormGI is forming the generalized inverse of G from B-inverse, IUseBI=4.
 Internal  Forces:  Max     0.077828140 RMS     0.013152890
 Search for a local minimum.
 Step number   2 out of a maximum of  116
 All quantities printed in internal units (Hartrees-Bohrs-Radians)
 Mixed Optimization -- RFO/linear search
 Update second derivatives using D2CorX and points    1    2
 DE= -5.25D-02 DEPred=-4.91D-02 R= 1.07D+00
 TightC=F SS=  1.41D+00  RLast= 3.19D-01 DXNew= 5.0454D-01 9.5819D-01
 Trust test= 1.07D+00 RLast= 3.19D-01 DXMaxT set to 5.05D-01
 ITU=  1  0
 Use linear search instead of GDIIS.
     Eigenvalues ---    0.00230   0.00996   0.01052   0.01218   0.01270
     Eigenvalues ---    0.01292   0.01344   0.01399   0.01460   0.01488
     Eigenvalues ---    0.01498   0.01591   0.01592   0.01732   0.02111
     Eigenvalues ---    0.02487   0.14312   0.15294   0.15763   0.15831
     Eigenvalues ---    0.16000   0.16024   0.18390   0.21109   0.22459
     Eigenvalues ---    0.22540   0.23401   0.24131   0.24412   0.24904
     Eigenvalues ---    0.25051   0.25724   0.26255   0.26614   0.28403
     Eigenvalues ---    0.28541   0.30888   0.31234   0.31598   0.34900
     Eigenvalues ---    0.35182   0.35956   0.36005   0.36101   0.36130
     Eigenvalues ---    0.36183   0.36450   0.37598   0.38189   0.39310
     Eigenvalues ---    0.39621   0.40472   0.429141000.000001000.00000
     Eigenvalues --- 1000.000001000.000001000.000001000.000001000.00000
     Eigenvalues --- 1000.000001000.000001000.000001000.000001000.00000
     Eigenvalues --- 1000.000001000.000001000.000001000.000001000.00000
     Eigenvalues --- 1000.000001000.000001000.000001000.000001000.00000
     Eigenvalues --- 1000.000001000.000001000.000001000.000001000.00000
     Eigenvalues --- 1000.000001000.000001000.000001000.000001000.00000
     Eigenvalues --- 1000.000001000.000001000.000001000.000001000.00000
     Eigenvalues --- 1000.000001000.000001000.000001000.000001000.00000
     Eigenvalues --- 1000.000001000.000001000.000001000.000001000.00000
     Eigenvalues --- 1000.000001000.000001000.000001000.000001000.00000
     Eigenvalues --- 1000.00000
 RFO step:  Lambda=-9.08271267D-03 EMin= 2.30056845D-03
 Quartic linear search produced a step of  1.37048.
 Iteration  1 RMS(Cart)=  0.08662323 RMS(Int)=  0.01654979
 Iteration  2 RMS(Cart)=  0.01911186 RMS(Int)=  0.00106174
 Iteration  3 RMS(Cart)=  0.00035780 RMS(Int)=  0.00101965
 Iteration  4 RMS(Cart)=  0.00000050 RMS(Int)=  0.00101965
 Iteration  1 RMS(Cart)=  0.00003199 RMS(Int)=  0.00001296
 Iteration  2 RMS(Cart)=  0.00001741 RMS(Int)=  0.00001447
 Iteration  3 RMS(Cart)=  0.00000948 RMS(Int)=  0.00001634
 Iteration  4 RMS(Cart)=  0.00000516 RMS(Int)=  0.00001758
 Iteration  5 RMS(Cart)=  0.00000281 RMS(Int)=  0.00001829
 Iteration  6 RMS(Cart)=  0.00000153 RMS(Int)=  0.00001870
 Iteration  7 RMS(Cart)=  0.00000083 RMS(Int)=  0.00001892
 Variable       Old X    -DE/DX   Delta X   Delta X   Delta X     New X
                                 (Linear)    (Quad)   (Total)
    R1        2.68959  -0.00915  -0.04054   0.03408  -0.00605   2.68354
    R2        2.65020  -0.03033  -0.08732   0.01899  -0.06838   2.58181
    R3        2.03976   0.00130   0.00251   0.00248   0.00498   2.04474
    R4        2.68343  -0.03268  -0.10366   0.03159  -0.07168   2.61175
    R5        2.77969  -0.06246  -0.17462  -0.06470  -0.23932   2.54037
    R6        3.36329  -0.01148  -0.04453   0.01829  -0.02639   3.33690
    R7        2.72762  -0.00572  -0.03004   0.03313   0.00309   2.73070
    R8        3.27350  -0.00545  -0.01810   0.00695  -0.01161   3.26190
    R9        2.03925  -0.00049  -0.00203   0.00151  -0.00052   2.03873
   R10        3.36816  -0.00603  -0.02034   0.00745  -0.01384   3.35431
   R11        2.69296  -0.03553  -0.10261   0.01135  -0.09182   2.60114
   R12        3.27085   0.00341   0.00382   0.01644   0.02047   3.29132
   R13        2.68528  -0.01836  -0.05039  -0.00082  -0.04942   2.63586
   R14        2.69047  -0.00063  -0.00758   0.00955   0.00250   2.69297
   R15        2.69023  -0.00498  -0.02253   0.01767  -0.00434   2.68589
   R16        3.27822   0.00329   0.00415   0.01576   0.02000   3.29822
   R17        2.03985  -0.00014   0.00106  -0.00333  -0.00226   2.03759
   R18        3.31927  -0.00687  -0.02366   0.00944  -0.01507   3.30420
   R19        2.66223  -0.03414  -0.09366   0.00814  -0.08594   2.57629
   R20        2.04048  -0.00038  -0.00141   0.00084  -0.00057   2.03991
   R21        2.04878  -0.00193  -0.00696   0.00350  -0.00346   2.04532
   R22        2.02434  -0.07783  -0.21568  -0.09056  -0.30624   1.71810
    A1        1.96277  -0.00066  -0.01018   0.01057   0.00105   1.96382
    A2        2.17490  -0.00076   0.00219  -0.01130  -0.00947   2.16543
    A3        2.14551   0.00142   0.00801   0.00073   0.00839   2.15390
    A4        1.99637   0.00617   0.03357  -0.03278  -0.00003   1.99634
    A5        2.21387  -0.00477  -0.00511  -0.01852  -0.02641   2.18746
    A6        2.05220  -0.00064  -0.02360   0.06834   0.04247   2.09467
    A7        1.89367  -0.00162  -0.01470   0.02298   0.00892   1.90259
    A8        2.29973  -0.00812  -0.02629  -0.00508  -0.03169   2.26804
    A9        2.08956   0.00974   0.04090  -0.01774   0.02282   2.11238
   A10        1.95086  -0.00021  -0.00347   0.00718   0.00361   1.95447
   A11        2.18698   0.00443   0.01532   0.01368   0.02906   2.21604
   A12        2.14518  -0.00422  -0.01188  -0.02090  -0.03272   2.11246
   A13        1.62110  -0.00368  -0.00521  -0.00797  -0.01376   1.60734
   A14        2.13069  -0.00198   0.00204  -0.02290  -0.02084   2.10985
   A15        2.22737  -0.00260  -0.01796   0.02357   0.00565   2.23301
   A16        1.92471   0.00464   0.01629  -0.00066   0.01546   1.94017
   A17        1.61050  -0.00409  -0.01188  -0.00150  -0.01282   1.59768
   A18        1.94641  -0.00640  -0.02125   0.00578  -0.01639   1.93002
   A19        2.25804   0.00584   0.02705   0.01527   0.03917   2.29721
   A20        1.97570   0.00357   0.01417  -0.00443   0.00969   1.98540
   A21        1.97983   0.00456   0.01827  -0.00568   0.01208   1.99191
   A22        1.94688  -0.00768  -0.02741   0.01331  -0.01541   1.93147
   A23        2.25785   0.00612   0.02850   0.01458   0.03957   2.29742
   A24        1.96271   0.00132  -0.00129   0.00260   0.00216   1.96486
   A25        2.14938  -0.00383  -0.01455   0.00594  -0.00963   2.13975
   A26        2.16181   0.00300   0.01961  -0.00610   0.01250   2.17431
   A27        1.59554  -0.00071   0.00381  -0.01473  -0.01010   1.58544
   A28        1.96096   0.00185   0.00116   0.01330   0.01384   1.97479
   A29        2.12780  -0.00452  -0.01102  -0.01780  -0.03004   2.09776
   A30        2.18171   0.00348   0.01591   0.00993   0.02483   2.20654
   A31        1.94532   0.00296   0.00821  -0.00676   0.00221   1.94753
   A32        2.17080  -0.00014   0.00736  -0.00411   0.00154   2.17235
   A33        2.13864  -0.00135  -0.00434   0.01511   0.00915   2.14779
   A34        2.18523  -0.04584  -0.18722  -0.04772  -0.23495   1.95028
    D1        0.00287  -0.00042  -0.00543   0.02409   0.01865   0.02152
    D2       -2.91422  -0.00459  -0.02780  -0.07535  -0.10106  -3.01528
    D3       -3.13775   0.00064   0.00242   0.02419   0.02607  -3.11168
    D4        0.22834  -0.00353  -0.01995  -0.07525  -0.09364   0.13470
    D5       -0.00496   0.00016   0.00240  -0.01125  -0.00852  -0.01348
    D6       -3.12747   0.00041   0.00373  -0.00894  -0.00531  -3.13279
    D7        3.13568  -0.00088  -0.00528  -0.01135  -0.01589   3.11979
    D8        0.01317  -0.00062  -0.00395  -0.00904  -0.01269   0.00048
    D9        0.00047   0.00050   0.00596  -0.02508  -0.01941  -0.01894
   D10        3.11854   0.00041   0.00126  -0.01680  -0.01609   3.10245
   D11        2.93969   0.00358   0.02799   0.05410   0.08425   3.02394
   D12       -0.22542   0.00349   0.02329   0.06238   0.08757  -0.13785
   D13       -0.27448   0.00182   0.00778   0.08350   0.09133  -0.18315
   D14        3.09792  -0.00320  -0.02222  -0.00695  -0.02922   3.06870
   D15       -0.00278  -0.00033  -0.00389   0.01557   0.01219   0.00942
   D16       -3.12417   0.00001   0.00094   0.00834   0.01006  -3.11411
   D17       -3.05427  -0.00081  -0.00000   0.00000   0.00000  -3.05427
   D18        0.05327   0.00136   0.01360   0.00010   0.01388   0.06715
   D19        0.06164  -0.00107  -0.00573   0.00950   0.00340   0.06504
   D20       -3.11401   0.00111   0.00787   0.00961   0.01728  -3.09673
   D21        0.00447   0.00011   0.00098  -0.00273  -0.00210   0.00238
   D22        3.12752  -0.00003   0.00001  -0.00454  -0.00433   3.12319
   D23       -3.14098   0.00090   0.00640  -0.00963  -0.00335   3.13885
   D24        0.02937  -0.00083  -0.00434  -0.01025  -0.01505   0.01432
   D25        3.13767  -0.00135  -0.00989   0.01684   0.00706  -3.13845
   D26       -0.14503   0.00267   0.01871   0.03471   0.05317  -0.09186
   D27       -0.03468   0.00053   0.00221   0.01649   0.01926  -0.01542
   D28        2.96580   0.00454   0.03081   0.03437   0.06536   3.03117
   D29       -0.01665   0.00111   0.00614   0.00127   0.00729  -0.00936
   D30       -2.64558  -0.00619  -0.03991  -0.03546  -0.07599  -2.72157
   D31       -0.00038  -0.00080  -0.00537   0.00813   0.00284   0.00246
   D32       -2.72522  -0.00834  -0.05012  -0.03952  -0.08670  -2.81191
   D33        2.71601   0.00654   0.03926   0.04421   0.08111   2.79711
   D34       -0.00883  -0.00100  -0.00549  -0.00343  -0.00843  -0.01726
   D35        2.64556   0.00584   0.04318   0.02431   0.06913   2.71469
   D36       -0.24679  -0.00030  -0.00113   0.00384   0.00383  -0.24295
   D37        0.02346   0.00074   0.00530  -0.01539  -0.01051   0.01295
   D38       -2.86889  -0.00539  -0.03901  -0.03586  -0.07580  -2.94469
   D39        0.02319   0.00020   0.00197  -0.01612  -0.01458   0.00861
   D40       -2.97612  -0.00320  -0.02319  -0.03528  -0.05964  -3.03576
   D41        2.65614   0.00521   0.03808   0.04015   0.07998   2.73612
   D42       -0.34317   0.00181   0.01292   0.02099   0.03492  -0.30826
   D43       -0.00596   0.00094   0.00367   0.01590   0.01902   0.01307
   D44       -2.64645  -0.00673  -0.04290  -0.03515  -0.07879  -2.72523
   D45        0.01949  -0.00047  -0.00053  -0.02479  -0.02553  -0.00604
   D46        2.99835   0.00510   0.03688   0.01094   0.04614   3.04449
   D47       -0.02773   0.00000  -0.00237   0.02701   0.02514  -0.00259
   D48        2.86997   0.00619   0.04315   0.04393   0.08811   2.95808
   D49       -3.00063  -0.00488  -0.03762  -0.00698  -0.04570  -3.04634
   D50       -0.10293   0.00131   0.00789   0.00994   0.01727  -0.08567
         Item               Value     Threshold  Converged?
 Maximum Force            0.077828     0.000450     NO 
 RMS     Force            0.013215     0.000300     NO 
 Maximum Displacement     0.719809     0.001800     NO 
 RMS     Displacement     0.095197     0.001200     NO 
 Predicted change in Energy=-4.846458D-02
 GradGradGradGradGradGradGradGradGradGradGradGradGradGradGradGradGradGrad

                          Input orientation:                          
 ---------------------------------------------------------------------
 Center     Atomic      Atomic             Coordinates (Angstroms)
 Number     Number       Type             X           Y           Z
 ---------------------------------------------------------------------
      1          6           0       -4.147994   -1.264402   -0.179429
      2          6           0       -2.820774   -0.958196   -0.581079
      3          6           0       -1.969251   -2.046299   -0.614057
      4          6           0       -4.311214   -2.586674    0.123163
      5          1           0       -4.947744   -0.537614   -0.124928
      6         16           0       -2.853656   -3.484671   -0.097331
      7          1           0       -5.219942   -3.071378    0.444400
      8          6           0       -0.581675   -2.126984   -1.009306
      9         16           0        0.255264   -3.690569   -1.083157
     10          6           0        1.733072   -2.928226   -1.601240
     11          6           0        1.559606   -1.548889   -1.714859
     12          6           0        0.252010   -1.098768   -1.386661
     13          1           0       -0.093608   -0.084282   -1.504891
     14         16           0        2.809567   -0.851075   -2.713290
     15          6           0        3.519467   -2.427995   -2.971442
     16          6           0        2.851009   -3.428159   -2.329987
     17          1           0        4.347474   -2.545450   -3.653991
     18          1           0        3.046386   -4.477722   -2.508025
     19          8           0       -2.341244    0.277947   -0.802806
     20          1           0       -3.004753    0.899406   -0.815082
 ---------------------------------------------------------------------
                    Distance matrix (angstroms):
                    1          2          3          4          5
     1  C    0.000000
     2  C    1.420070   0.000000
     3  C    2.355246   1.382081   0.000000
     4  C    1.366237   2.317177   2.514018   0.000000
     5  H    1.082031   2.215617   3.374432   2.159945   0.000000
     6  S    2.571312   2.572580   1.765811   1.726121   3.615399
     7  H    2.191665   3.357552   3.569049   1.078851   2.611166
     8  C    3.761831   2.561837   1.445026   3.924699   4.729775
     9  S    5.108003   4.144871   2.805735   4.850414   6.158783
    10  C    6.275093   5.065497   3.931859   6.294729   7.247607
    11  C    5.917362   4.563124   3.729881   6.238737   6.774670
    12  C    4.565619   3.179737   2.535494   5.031545   5.379991
    13  H    4.425786   3.009085   2.856770   5.167275   5.066798
    14  S    7.416128   6.021507   5.354666   7.858963   8.183749
    15  C    8.242527   6.933456   5.985732   8.421480   9.130709
    16  C    7.634971   6.428727   5.299893   7.617315   8.604538
    17  H    9.267505   7.959017   7.027899   9.446770  10.143311
    18  H    8.216257   7.108006   5.886896   8.039495   9.225492
    19  O    2.455970   1.344308   2.361382   3.597813   2.813983
    20  H    2.528463   1.881300   3.128874   3.839258   2.513275
                    6          7          8          9         10
     6  S    0.000000
     7  H    2.462437   0.000000
     8  C    2.799447   4.951633   0.000000
     9  S    3.267970   5.717929   1.775026   0.000000
    10  C    4.858954   7.249106   2.520005   1.741692   0.000000
    11  C    5.083357   7.276170   2.327462   2.585952   1.394837
    12  C    4.123113   6.098052   1.376465   2.609513   2.363578
    13  H    4.600188   6.245141   2.157880   3.647585   3.381428
    14  S    6.771348   8.909196   4.004002   4.152653   2.590377
    15  C    7.070628   9.405275   4.556309   3.976775   2.306273
    16  C    6.126267   8.541942   3.901355   2.891598   1.425058
    17  H    8.086299  10.421558   5.609455   4.966555   3.345954
    18  H    6.450433   8.889702   4.575472   3.231133   2.224408
    19  O    3.862325   4.589162   2.987042   4.750744   5.245673
    20  H    4.445012   4.718102   3.881761   5.636262   6.141319
                   11         12         13         14         15
    11  C    0.000000
    12  C    1.421312   0.000000
    13  H    2.218619   1.078245   0.000000
    14  S    1.745340   2.891781   3.236761   0.000000
    15  C    2.488551   3.867125   4.549513   1.748507   0.000000
    16  C    2.361729   3.615345   4.531342   2.605763   1.363316
    17  H    3.539149   4.899643   5.513545   2.474062   1.079474
    18  H    3.379007   4.525850   5.492553   3.640163   2.154053
    19  O    4.402930   2.993526   2.382436   5.608519   6.809775
    20  H    5.257102   3.863406   3.149325   6.361894   7.634588
                   16         17         18         19         20
    16  C    0.000000
    17  H    2.184392   0.000000
    18  H    1.082336   2.596101   0.000000
[...]
 Stoichiometry    C10H6OS3
 Framework group  C1[X(C10H6OS3)]
 Deg. of freedom    54
 Full point group                 C1      NOp   1
 Largest Abelian subgroup         C1      NOp   1
 Largest concise Abelian subgroup C1      NOp   1
                         Standard orientation:                         
 ---------------------------------------------------------------------
 Center     Atomic      Atomic             Coordinates (Angstroms)
 Number     Number       Type             X           Y           Z
 ---------------------------------------------------------------------
      1          6           0        3.930760    0.888549    0.021358
      2          6           0        2.534234    1.165291    0.036368
      3          6           0        1.734026    0.039102   -0.005291
      4          6           0        4.198275   -0.447964   -0.034191
      5          1           0        4.695719    1.655183    0.050472
      6         16           0        2.751209   -1.391642   -0.075524
      7          1           0        5.159391   -0.936926   -0.056612
      8          6           0        0.290165   -0.036659   -0.002532
      9         16           0       -0.527819   -1.610525    0.071637
     10          6           0       -2.091254   -0.841860    0.033170
     11          6           0       -1.954297    0.538241   -0.025396
     12          6           0       -0.614441    1.002699   -0.046376
     13          1           0       -0.311617    2.036841   -0.092882
     14         16           0       -3.520178    1.306458   -0.061069
     15          6           0       -4.313999   -0.251240    0.003600
     16          6           0       -3.438099   -1.298589    0.050194
     17          1           0       -5.392467   -0.291329    0.003207
     18          1           0       -3.745516   -2.334175    0.093870
     19          8           0        1.998287    2.423031    0.086652
     20          1           0        2.704593    3.072088    0.162613
 ---------------------------------------------------------------------
 Rotational constants (GHZ):           1.2961874           0.2821715           0.2318854

 **********************************************************************

            Population analysis using the SCF Density.

 **********************************************************************

 Orbital symmetries:
       Occupied  (A) (A) (A) (A) (A) (A) (A) (A) (A) (A) (A) (A)
                 (A) (A) (A) (A) (A) (A) (A) (A) (A) (A) (A) (A)
                 (A) (A) (A) (A) (A) (A) (A) (A) (A) (A) (A) (A)
                 (A) (A) (A) (A) (A) (A) (A) (A) (A) (A) (A) (A)
                 (A) (A) (A) (A) (A) (A) (A) (A) (A) (A) (A) (A)
                 (A)
       Virtual   (A) (A) (A) (A) (A) (A) (A) (A) (A) (A) (A) (A)
                 (A) (A) (A) (A) (A) (A) (A) (A) (A) (A) (A) (A)
                 (A) (A) (A) (A) (A) (A) (A) (A) (A) (A) (A) (A)
                 (A) (A) (A) (A) (A) (A) (A) (A) (A) (A) (A) (A)
                 (A) (A) (A) (A) (A) (A) (A) (A) (A) (A) (A) (A)
                 (A) (A) (A) (A) (A) (A) (A) (A) (A) (A) (A) (A)
                 (A) (A) (A) (A) (A) (A) (A) (A) (A) (A) (A) (A)
                 (A) (A) (A) (A) (A) (A) (A) (A) (A) (A) (A) (A)
                 (A) (A) (A) (A) (A) (A) (A) (A) (A) (A) (A) (A)
                 (A) (A) (A) (A) (A) (A) (A) (A) (A) (A) (A) (A)
                 (A) (A) (A) (A) (A) (A) (A) (A) (A) (A) (A) (A)
                 (A) (A) (A) (A) (A) (A) (A) (A) (A) (A) (A) (A)
                 (A) (A) (A) (A) (A) (A) (A) (A) (A) (A) (A) (A)
                 (A) (A) (A) (A) (A) (A) (A) (A) (A) (A) (A) (A)
                 (A) (A) (A) (A) (A) (A) (A) (A) (A) (A) (A) (A)
                 (A) (A) (A) (A) (A) (A) (A) (A) (A) (A) (A) (A)
                 (A) (A) (A) (A) (A) (A) (A) (A) (A) (A) (A) (A)
                 (A) (A) (A) (A) (A) (A) (A) (A) (A) (A) (A) (A)
                 (A) (A) (A) (A) (A) (A) (A) (A) (A) (A) (A) (A)
                 (A) (A) (A) (A) (A) (A) (A) (A) (A) (A) (A) (A)
                 (A) (A) (A) (A) (A) (A) (A) (A) (A) (A) (A) (A)
                 (A) (A) (A) (A) (A) (A) (A) (A) (A) (A) (A) (A)
                 (A) (A) (A) (A) (A) (A) (A) (A) (A) (A) (A) (A)
                 (A) (A) (A) (A) (A) (A) (A) (A) (A) (A) (A) (A)
                 (A) (A) (A) (A) (A) (A) (A) (A) (A) (A) (A) (A)
                 (A) (A) (A) (A) (A)
 The electronic state is 1-A.
 Alpha  occ. eigenvalues --  -88.88694 -88.87953 -88.87877 -19.17430 -10.25029
 Alpha  occ. eigenvalues --  -10.22220 -10.21712 -10.21494 -10.20671 -10.20605
 Alpha  occ. eigenvalues --  -10.20552 -10.19412 -10.18938 -10.18361  -7.97302
 Alpha  occ. eigenvalues --   -7.96527  -7.96468  -5.93612  -5.93234  -5.92859
 Alpha  occ. eigenvalues --   -5.92839  -5.92795  -5.92476  -5.92435  -5.92076
 Alpha  occ. eigenvalues --   -5.91977  -1.08383  -0.91248  -0.89459  -0.84629
 Alpha  occ. eigenvalues --   -0.77114  -0.76217  -0.74472  -0.70936  -0.70095
 Alpha  occ. eigenvalues --   -0.62037  -0.61274  -0.57015  -0.56232  -0.53770
 Alpha  occ. eigenvalues --   -0.51878  -0.49446  -0.48440  -0.45434  -0.43813
 Alpha  occ. eigenvalues --   -0.43666  -0.41145  -0.40886  -0.39890  -0.39133
 Alpha  occ. eigenvalues --   -0.37820  -0.36742  -0.36655  -0.35581  -0.34205
 Alpha  occ. eigenvalues --   -0.33603  -0.28909  -0.26960  -0.24966  -0.23313
 Alpha  occ. eigenvalues --   -0.19832
 Alpha virt. eigenvalues --   -0.05959  -0.02400  -0.01109  -0.00975   0.00387
 Alpha virt. eigenvalues --    0.00580   0.01347   0.01448   0.02149   0.02688
 Alpha virt. eigenvalues --    0.03402   0.03792   0.04233   0.04726   0.04852
 Alpha virt. eigenvalues --    0.05399   0.05706   0.06150   0.06945   0.07173
 Alpha virt. eigenvalues --    0.07879   0.08306   0.08469   0.09145   0.09255
 Alpha virt. eigenvalues --    0.10187   0.10248   0.11532   0.11910   0.11987
 Alpha virt. eigenvalues --    0.12204   0.12725   0.13005   0.13586   0.13734
 Alpha virt. eigenvalues --    0.14075   0.14720   0.15180   0.15749   0.16315
 Alpha virt. eigenvalues --    0.16843   0.16911   0.16964   0.17179   0.17877
 Alpha virt. eigenvalues --    0.18474   0.18875   0.19023   0.19484   0.20011
 Alpha virt. eigenvalues --    0.20565   0.20653   0.21310   0.21621   0.21899
 Alpha virt. eigenvalues --    0.22167   0.23340   0.23745   0.24004   0.24168
 Alpha virt. eigenvalues --    0.25024   0.25420   0.25997   0.26467   0.26815
 Alpha virt. eigenvalues --    0.27360   0.28522   0.28926   0.30408   0.31215
 Alpha virt. eigenvalues --    0.31941   0.32172   0.33153   0.33625   0.33665
 Alpha virt. eigenvalues --    0.34106   0.35314   0.36490   0.36617   0.37890
 Alpha virt. eigenvalues --    0.38756   0.39495   0.40501   0.42407   0.44216
 Alpha virt. eigenvalues --    0.44836   0.45169   0.46439   0.46907   0.48319
 Alpha virt. eigenvalues --    0.51577   0.51926   0.52941   0.54063   0.54822
 Alpha virt. eigenvalues --    0.55142   0.55910   0.56061   0.57097   0.58466
 Alpha virt. eigenvalues --    0.58764   0.59783   0.60048   0.60841   0.61291
 Alpha virt. eigenvalues --    0.63147   0.63844   0.65374   0.66418   0.67635
 Alpha virt. eigenvalues --    0.70012   0.71217   0.71887   0.72615   0.72727
 Alpha virt. eigenvalues --    0.73178   0.73909   0.74663   0.75728   0.77370
 Alpha virt. eigenvalues --    0.77886   0.78842   0.79416   0.79944   0.80812
 Alpha virt. eigenvalues --    0.81912   0.82517   0.83013   0.84111   0.85007
 Alpha virt. eigenvalues --    0.85688   0.86576   0.86790   0.87880   0.88741
 Alpha virt. eigenvalues --    0.88965   0.90648   0.91549   0.93883   0.94826
 Alpha virt. eigenvalues --    0.95652   0.96972   0.98163   0.99669   1.00798
 Alpha virt. eigenvalues --    1.02610   1.03454   1.03761   1.04747   1.05955
 Alpha virt. eigenvalues --    1.06723   1.07165   1.08167   1.09394   1.09713
 Alpha virt. eigenvalues --    1.13796   1.14827   1.16661   1.17300   1.18834
 Alpha virt. eigenvalues --    1.22528   1.28112   1.29702   1.30869   1.33857
 Alpha virt. eigenvalues --    1.34520   1.34643   1.36605   1.38563   1.40934
 Alpha virt. eigenvalues --    1.44620   1.49678   1.50299   1.54592   1.57270
 Alpha virt. eigenvalues --    1.58723   1.59192   1.59545   1.61645   1.62716
 Alpha virt. eigenvalues --    1.64066   1.65152   1.65754   1.69108   1.69595
 Alpha virt. eigenvalues --    1.71889   1.73580   1.74440   1.74906   1.77502
 Alpha virt. eigenvalues --    1.77914   1.78926   1.80254   1.81550   1.82917
 Alpha virt. eigenvalues --    1.85593   1.86265   1.87343   1.90738   1.90972
 Alpha virt. eigenvalues --    1.92964   1.94068   1.95711   1.97677   1.98694
 Alpha virt. eigenvalues --    2.00912   2.03360   2.04108   2.06947   2.07811
 Alpha virt. eigenvalues --    2.08576   2.09533   2.09940   2.11455   2.13120
 Alpha virt. eigenvalues --    2.13752   2.15849   2.17946   2.18136   2.20362
 Alpha virt. eigenvalues --    2.22479   2.26263   2.33179   2.39699   2.41327
 Alpha virt. eigenvalues --    2.43184   2.47848   2.51874   2.54097   2.60441
 Alpha virt. eigenvalues --    2.63161   2.63545   2.64698   2.69237   2.70198
 Alpha virt. eigenvalues --    2.70608   2.71296   2.72657   2.73486   2.73677
 Alpha virt. eigenvalues --    2.75149   2.79802   2.80265   2.84222   2.90228
 Alpha virt. eigenvalues --    2.91986   2.94095   2.95937   2.96416   3.01500
 Alpha virt. eigenvalues --    3.05564   3.07311   3.11200   3.13363   3.16319
 Alpha virt. eigenvalues --    3.17222   3.20237   3.26449   3.29259   3.30355
 Alpha virt. eigenvalues --    3.35112   3.37758   3.44704   3.46842   3.49129
 Alpha virt. eigenvalues --    3.53310   3.58159   3.70214   3.88301   3.91658
 Alpha virt. eigenvalues --    3.97238   4.05639   4.11597   4.20950   4.37472
 Alpha virt. eigenvalues --    4.62970   4.98898   5.45442   5.73281   7.96810
 Alpha virt. eigenvalues --    7.99948   8.05856  17.27541  17.28664  17.30321
 Alpha virt. eigenvalues --   17.45786  17.47321  17.50045  17.53643  17.55846
 Alpha virt. eigenvalues --   17.59531  23.46564  23.63736  23.77695  23.81414
 Alpha virt. eigenvalues --   23.87112  24.02494  24.03475  24.11741  24.14904
 Alpha virt. eigenvalues --   24.15410  49.92980 189.13472 189.16861 189.24049
          Condensed to atoms (all electrons):
               1          2          3          4          5          6
     1  C   10.269283  -4.513753   0.781065  -0.802185   0.391462   0.634654
     2  C   -4.513753  23.950557  -5.098182   2.627102  -0.105555  -4.959854
     3  C    0.781065  -5.098182  12.902183  -1.195361   0.008816  -0.243819
     4  C   -0.802185   2.627102  -1.195361   5.992796   0.038979  -0.455578
     5  H    0.391462  -0.105555   0.008816   0.038979   0.540680   0.012999
     6  S    0.634654  -4.959854  -0.243819  -0.455578   0.012999  18.567204
     7  H    0.071594  -0.061467   0.039065   0.346905  -0.005547  -0.026306
     8  C    0.324398  -0.857094  -2.061369  -0.343045  -0.007006   1.989952
     9  S    0.044643   1.454795   1.306138   0.057670  -0.001260  -0.823037
    10  C   -0.210840   0.395671  -0.644932   0.067795  -0.000163  -0.227434
    11  C   -0.016386  -2.683673  -0.340063  -0.073892   0.001110   0.762140
    12  C   -0.380876  -4.730464  -0.429031  -0.172305   0.009248   1.368362
    13  H    0.015685   0.045097   0.003420   0.000172   0.000005  -0.001898
    14  S    0.003142  -0.109151  -0.080631   0.000256   0.000018   0.025301
    15  C    0.001920  -0.007060  -0.032664  -0.001039  -0.000001  -0.002720
    16  C   -0.037697   0.221431   0.477267   0.016513  -0.000008  -0.127837
    17  H    0.000001   0.000049   0.000049  -0.000000   0.000000  -0.000009
    18  H   -0.000030  -0.000511  -0.002723   0.000023  -0.000000   0.000612
    19  O   -0.018979  -0.384021   0.159969  -0.029305  -0.006601   0.068507
    20  H   -0.180679   0.294815  -0.040391   0.012270   0.004452  -0.013325
               7          8          9         10         11         12
     1  C    0.071594   0.324398   0.044643  -0.210840  -0.016386  -0.380876
     2  C   -0.061467  -0.857094   1.454795   0.395671  -2.683673  -4.730464
     3  C    0.039065  -2.061369   1.306138  -0.644932  -0.340063  -0.429031
     4  C    0.346905  -0.343045   0.057670   0.067795  -0.073892  -0.172305
     5  H   -0.005547  -0.007006  -0.001260  -0.000163   0.001110   0.009248
     6  S   -0.026306   1.989952  -0.823037  -0.227434   0.762140   1.368362
     7  H    0.481684  -0.006123   0.000848  -0.000133  -0.000343  -0.001942
     8  C   -0.006123  13.698488   0.047954  -1.701636  -2.806954  -1.082659
     9  S    0.000848   0.047954  18.582804  -0.358466  -1.608330  -1.952659
    10  C   -0.000133  -1.701636  -0.358466  14.235671  -3.305544   0.052935
    11  C   -0.000343  -2.806954  -1.608330  -3.305544  13.191283   2.985694
    12  C   -0.001942  -1.082659  -1.952659   0.052935   2.985694  10.609527
    13  H   -0.000000   0.083086   0.018838  -0.095452  -0.104017   0.376701
    14  S   -0.000005  -0.997042   0.026784   0.565340  -0.453658   0.097579
    15  C    0.000001  -0.136593  -0.006770   0.624443  -0.746058   0.066088
    16  C   -0.000025  -0.043009  -0.184018  -3.696990   0.912830  -1.005054
    17  H    0.000000   0.005899  -0.001378   0.024663   0.022527  -0.001575
    18  H    0.000000  -0.013101   0.022955   0.008534  -0.072065  -0.002810
    19  O   -0.000342  -0.110025  -0.013015  -0.003440   0.076078   0.191131
    20  H   -0.000001   0.040377   0.002309  -0.000768  -0.016556  -0.051789
              13         14         15         16         17         18
     1  C    0.015685   0.003142   0.001920  -0.037697   0.000001  -0.000030
     2  C    0.045097  -0.109151  -0.007060   0.221431   0.000049  -0.000511
     3  C    0.003420  -0.080631  -0.032664   0.477267   0.000049  -0.002723
     4  C    0.000172   0.000256  -0.001039   0.016513  -0.000000   0.000023
     5  H    0.000005   0.000018  -0.000001  -0.000008   0.000000  -0.000000
     6  S   -0.001898   0.025301  -0.002720  -0.127837  -0.000009   0.000612
     7  H   -0.000000  -0.000005   0.000001  -0.000025   0.000000   0.000000
     8  C    0.083086  -0.997042  -0.136593  -0.043009   0.005899  -0.013101
     9  S    0.018838   0.026784  -0.006770  -0.184018  -0.001378   0.022955
    10  C   -0.095452   0.565340   0.624443  -3.696990   0.024663   0.008534
    11  C   -0.104017  -0.453658  -0.746058   0.912830   0.022527  -0.072065
    12  C    0.376701   0.097579   0.066088  -1.005054  -0.001575  -0.002810
    13  H    0.496638   0.011853  -0.002577  -0.003457  -0.000001   0.000003
    14  S    0.011853  17.464064   0.441150  -0.559659  -0.042284   0.012320
    15  C   -0.002577   0.441150   5.604813  -0.052918   0.384362   0.021983
    16  C   -0.003457  -0.559659  -0.052918   9.886192  -0.033256   0.372486
    17  H   -0.000001  -0.042284   0.384362  -0.033256   0.479884  -0.005010
    18  H    0.000003   0.012320   0.021983   0.372486  -0.005010   0.524536
    19  O    0.004605   0.002306   0.000362  -0.000606  -0.000000  -0.000000
    20  H   -0.000577  -0.000297   0.000001  -0.000022  -0.000000  -0.000000
              19         20
     1  C   -0.018979  -0.180679
     2  C   -0.384021   0.294815
     3  C    0.159969  -0.040391
     4  C   -0.029305   0.012270
     5  H   -0.006601   0.004452
     6  S    0.068507  -0.013325
     7  H   -0.000342  -0.000001
     8  C   -0.110025   0.040377
     9  S   -0.013015   0.002309
    10  C   -0.003440  -0.000768
    11  C    0.076078  -0.016556
    12  C    0.191131  -0.051789
    13  H    0.004605  -0.000577
    14  S    0.002306  -0.000297
    15  C    0.000362   0.000001
    16  C   -0.000606  -0.000022
    17  H   -0.000000  -0.000000
    18  H   -0.000000  -0.000000
    19  O    8.153009   0.154374
    20  H    0.154374   0.536360
 Mulliken charges:
               1
     1  C   -0.376423
     2  C    0.521269
     3  C    0.491192
     4  C   -0.087771
     5  H    0.118371
     6  S   -0.547917
     7  H    0.162136
     8  C   -0.024498
     9  S   -0.616805
    10  C    0.270746
    11  C    0.275876
    12  C    0.053899
    13  H    0.151875
    14  S   -0.407385
    15  C   -0.156723
    16  C   -0.142163
    17  H    0.166080
    18  H    0.132798
    19  O   -0.244005
    20  H    0.259448
 Sum of Mulliken charges =  -0.00000
 Mulliken charges with hydrogens summed into heavy atoms:
               1
     1  C   -0.258052
     2  C    0.521269
     3  C    0.491192
     4  C    0.074366
     6  S   -0.547917
     8  C   -0.024498
     9  S   -0.616805
    10  C    0.270746
    11  C    0.275876
    12  C    0.205775
    14  S   -0.407385
    15  C    0.009357
    16  C   -0.009365
    19  O    0.015443
 Electronic spatial extent (au):  <R**2>=           4319.9471
 Charge=              0.0000 electrons
 Dipole moment (field-independent basis, Debye):
    X=              2.1651    Y=              1.1431    Z=              0.1095  Tot=              2.4508
 Quadrupole moment (field-independent basis, Debye-Ang):
   XX=            -79.5510   YY=            -93.2131   ZZ=           -109.0439
   XY=              9.8115   XZ=              0.3015   YZ=              0.3314
 Traceless Quadrupole moment (field-independent basis, Debye-Ang):
   XX=             14.3850   YY=              0.7229   ZZ=            -15.1079
   XY=              9.8115   XZ=              0.3015   YZ=              0.3314
 Octapole moment (field-independent basis, Debye-Ang**2):
  XXX=             41.8409  YYY=             30.2901  ZZZ=              0.3571  XYY=             26.9526
  XXY=              9.7854  XXZ=              1.8047  XZZ=              3.3931  YZZ=              3.5475
  YYZ=              2.0553  XYZ=              3.1756
 Hexadecapole moment (field-independent basis, Debye-Ang**3):
 XXXX=          -4086.8734 YYYY=           -961.1220 ZZZZ=           -139.2943 XXXY=            115.2935
 XXXZ=              1.6501 YYYX=            130.7992 YYYZ=              6.0305 ZZZX=              1.4093
 ZZZY=              1.3879 XXYY=           -840.1263 XXZZ=           -907.8807 YYZZ=           -215.7618
 XXYZ=              6.7636 YYXZ=              4.9987 ZZXY=              1.8473
 N-N= 1.126331789972D+03 E-N=-6.164267938904D+03  KE= 1.651068837913D+03
 Unable to Open any file for archive entry.
 1\1\GINC-CX3-12-15\FOpt\RB3LYP\6-311+G(d,p)\C10H6O1S3\NS5018\17-Oct-20
 21\0\\# opt=modredundant b3lyp/6-311+g(d,p)\\pBTTT_-175.pdb\\0,1\C,-4.
 1127888708,-1.2306501079,-0.0318394722\C,-2.8200835012,-0.9649472181,-
 0.5660784887\C,-2.015886248,-2.0829225106,-0.6834066317\C,-4.296140991
 1,-2.5502378447,0.2613942881\H,-4.8667420678,-0.4685238624,0.124550141
 9\S,-2.8928045287,-3.4904153049,-0.1032331836\H,-5.1709116927,-3.02817
 70048,0.6733162908\C,-0.6619719384,-2.1661636887,-1.1838756603\S,0.134
 4754555,-3.7423246203,-1.3656545604\C,1.5845534368,-2.9827104366,-1.96
 30781402\C,1.4273694971,-1.6044330123,-2.0131834177\C,0.1633117732,-1.
 1335649999,-1.5752143441\H,-0.1410408011,-0.0994214435,-1.5401236887\S
 ,2.8787792239,-0.8456006064,-2.6140130893\C,3.655334893,-2.404471171,-
 2.7802715729\C,2.8562597106,-3.4454788865,-2.4006727525\H,4.6668845388
 ,-2.4499744383,-3.1536310714\H,3.1659519525,-4.4807527441,-2.434582404
 7\O,-2.3806936377,0.2755872358,-0.9398297188\H,-3.0918562038,0.9151826
 653,-0.8345725237\\Version=ES64L-G16RevC.01\State=1-A\HF=-1654.6325814
 \RMSD=2.972e-09\RMSF=2.605e-05\Dipole=-0.8288371,0.4462064,0.2088982\Q
 uadrupole=8.6546019,0.3990499,-9.0536518,-7.3740531,-6.304464,1.049868
 7\PG=C01 [X(C10H6O1S3)]\\@
 The archive entry for this job was punched.


 The mind is not a vessel to be filled but a fire to be kindled.
                                  -- Plutarch
 Job cpu time:       0 days  1 hours 48 minutes 46.4 seconds.
 Elapsed time:       0 days  0 hours 13 minutes 44.9 seconds.
 File lengths (MBytes):  RWF=     86 Int=      0 D2E=      0 Chk=     11 Scr=      1
 Normal termination of Gaussian 16 at Sun Oct 17 01:35:33 2021.
