 Entering Gaussian System, Link 0=g16
 Input=pBTTT_85.gjf
 Output=pBTTT_85.log
 Initial command:
 /apps/gaussian/g16-c01-avx/g16/l1.exe "/tmp/pbs.4729018[260].pbs/Gau-61292.inp" -scrdir="/tmp/pbs.4729018[260].pbs/"
 Entering Link 1 = /apps/gaussian/g16-c01-avx/g16/l1.exe PID=     61293.
  
 Copyright (c) 1988-2019, Gaussian, Inc.  All Rights Reserved.
  
 This is part of the Gaussian(R) 16 program.  It is based on
 the Gaussian(R) 09 system (copyright 2009, Gaussian, Inc.),
 the Gaussian(R) 03 system (copyright 2003, Gaussian, Inc.),
 the Gaussian(R) 98 system (copyright 1998, Gaussian, Inc.),
 the Gaussian(R) 94 system (copyright 1995, Gaussian, Inc.),
 the Gaussian 92(TM) system (copyright 1992, Gaussian, Inc.),
 the Gaussian 90(TM) system (copyright 1990, Gaussian, Inc.),
 the Gaussian 88(TM) system (copyright 1988, Gaussian, Inc.),
 the Gaussian 86(TM) system (copyright 1986, Carnegie Mellon
 University), and the Gaussian 82(TM) system (copyright 1983,
 Carnegie Mellon University). Gaussian is a federally registered
 trademark of Gaussian, Inc.
  
 This software contains proprietary and confidential information,
 including trade secrets, belonging to Gaussian, Inc.
  
 This software is provided under written license and may be
 used, copied, transmitted, or stored only in accord with that
 written license.
  
 The following legend is applicable only to US Government
 contracts under FAR:
  
                    RESTRICTED RIGHTS LEGEND
  
 Use, reproduction and disclosure by the US Government is
 subject to restrictions as set forth in subparagraphs (a)
 and (c) of the Commercial Computer Software - Restricted
 Rights clause in FAR 52.227-19.
  
 Gaussian, Inc.
 340 Quinnipiac St., Bldg. 40, Wallingford CT 06492
  
  
 ---------------------------------------------------------------
 Warning -- This program may not be used in any manner that
 competes with the business of Gaussian, Inc. or will provide
 assistance to any competitor of Gaussian, Inc.  The licensee
 of this program is prohibited from giving any competitor of
 Gaussian, Inc. access to this program.  By using this program,
 the user acknowledges that Gaussian, Inc. is engaged in the
 business of creating and licensing software in the field of
 computational chemistry and represents and warrants to the
 licensee that it is not a competitor of Gaussian, Inc. and that
 it will not use this program in any manner prohibited above.
 ---------------------------------------------------------------
  

 Cite this work as:
 Gaussian 16, Revision C.01,
 M. J. Frisch, G. W. Trucks, H. B. Schlegel, G. E. Scuseria, 
 M. A. Robb, J. R. Cheeseman, G. Scalmani, V. Barone, 
 G. A. Petersson, H. Nakatsuji, X. Li, M. Caricato, A. V. Marenich, 
 J. Bloino, B. G. Janesko, R. Gomperts, B. Mennucci, H. P. Hratchian, 
 J. V. Ortiz, A. F. Izmaylov, J. L. Sonnenberg, D. Williams-Young, 
 F. Ding, F. Lipparini, F. Egidi, J. Goings, B. Peng, A. Petrone, 
 T. Henderson, D. Ranasinghe, V. G. Zakrzewski, J. Gao, N. Rega, 
 G. Zheng, W. Liang, M. Hada, M. Ehara, K. Toyota, R. Fukuda, 
 J. Hasegawa, M. Ishida, T. Nakajima, Y. Honda, O. Kitao, H. Nakai, 
 T. Vreven, K. Throssell, J. A. Montgomery, Jr., J. E. Peralta, 
 F. Ogliaro, M. J. Bearpark, J. J. Heyd, E. N. Brothers, K. N. Kudin, 
 V. N. Staroverov, T. A. Keith, R. Kobayashi, J. Normand, 
 K. Raghavachari, A. P. Rendell, J. C. Burant, S. S. Iyengar, 
 J. Tomasi, M. Cossi, J. M. Millam, M. Klene, C. Adamo, R. Cammi, 
 J. W. Ochterski, R. L. Martin, K. Morokuma, O. Farkas, 
 J. B. Foresman, and D. J. Fox, Gaussian, Inc., Wallingford CT, 2019.
 
 ******************************************
 Gaussian 16:  ES64L-G16RevC.01  3-Jul-2019
                17-Oct-2021 
 ******************************************
 %mem=10GB
 %nprocshared=8
 Will use up to    8 processors via shared memory.
 -------------------------------------
 # opt=modredundant b3lyp/6-311+g(d,p)
 -------------------------------------
 1/18=120,19=15,26=3,38=1/1,3;
 2/9=110,12=2,17=6,18=5,40=1/2;
 3/5=4,6=6,7=111,11=2,25=1,30=1,71=1,74=-5/1,2,3;
 4//1;
 5/5=2,38=5/2;
 6/7=2,8=2,9=2,10=2,28=1/1;
 7//1,2,3,16;
 1/18=20,19=15,26=3/3(2);
 2/9=110/2;
 99//99;
 2/9=110/2;
 3/5=4,6=6,7=111,11=2,25=1,30=1,71=1,74=-5/1,2,3;
 4/5=5,16=3,69=1/1;
 5/5=2,38=5/2;
 7//1,2,3,16;
 1/18=20,19=15,26=3/3(-5);
 2/9=110/2;
 6/7=2,8=2,9=2,10=2,19=2,28=1/1;
 99/9=1/99;
 ------------
 pBTTT_85.pdb
 ------------
 Symbolic Z-matrix:
 Charge =  0 Multiplicity = 1
 C                    -4.25     -1.36     -0.21 
 C                    -2.93     -0.95     -0.61 
 C                    -1.97     -2.05     -0.62 
 C                    -4.33     -2.76      0.1 
 H                    -5.1      -0.7      -0.14 
 S                    -2.8      -3.56     -0.11 
 H                    -5.23     -3.27      0.41 
 C                    -0.56     -2.13     -0.97 
 S                     0.732    -1.74      0.206 
 C                     1.988    -2.075    -0.936 
 C                     1.471    -2.511    -2.208 
 C                     0.04     -2.562    -2.234 
 H                    -0.518    -3.017    -3.038 
 S                     2.594    -3.5      -3.082 
 C                     3.789    -3.352    -1.792 
 C                     3.304    -2.562    -0.683 
 H                     4.693    -3.945    -1.769 
 H                     3.768    -2.583     0.3 
 O                    -2.4       0.49     -0.72 
 H                    -2.92      1.52     -0.76 
 
 Add virtual bond connecting atoms H20        and O19        Dist= 2.18D+00.
 The following ModRedundant input section has been read:
 D       2       3       8       9 F                                           
 

 GradGradGradGradGradGradGradGradGradGradGradGradGradGradGradGradGradGrad
 Berny optimization.
 Initialization pass.
                           ----------------------------
                           !    Initial Parameters    !
                           ! (Angstroms and Degrees)  !
 --------------------------                            --------------------------
 ! Name  Definition              Value          Derivative Info.                !
 --------------------------------------------------------------------------------
 ! R1    R(1,2)                  1.4389         estimate D2E/DX2                !
 ! R2    R(1,4)                  1.4361         estimate D2E/DX2                !
 ! R3    R(1,5)                  1.0784         estimate D2E/DX2                !
 ! R4    R(2,3)                  1.46           estimate D2E/DX2                !
 ! R5    R(2,19)                 1.5384         estimate D2E/DX2                !
 ! R6    R(3,6)                  1.797          estimate D2E/DX2                !
 ! R7    R(3,8)                  1.455          estimate D2E/DX2                !
 ! R8    R(4,6)                  1.7393         estimate D2E/DX2                !
 ! R9    R(4,7)                  1.0799         estimate D2E/DX2                !
 ! R10   R(8,9)                  1.7901         estimate D2E/DX2                !
 ! R11   R(8,12)                 1.4643         estimate D2E/DX2                !
 ! R12   R(9,10)                 1.7303         estimate D2E/DX2                !
 ! R13   R(10,11)                1.4406         estimate D2E/DX2                !
 ! R14   R(10,16)                1.4258         estimate D2E/DX2                !
 ! R15   R(11,12)                1.4321         estimate D2E/DX2                !
 ! R16   R(11,14)                1.733          estimate D2E/DX2                !
 ! R17   R(12,13)                1.0793         estimate D2E/DX2                !
 ! R18   R(14,15)                1.7647         estimate D2E/DX2                !
 ! R19   R(15,16)                1.4454         estimate D2E/DX2                !
 ! R20   R(15,17)                1.0814         estimate D2E/DX2                !
 ! R21   R(16,18)                1.0872         estimate D2E/DX2                !
 ! R22   R(19,20)                1.1545         estimate D2E/DX2                !
 ! A1    A(2,1,4)              112.8843         estimate D2E/DX2                !
 ! A2    A(2,1,5)              124.5209         estimate D2E/DX2                !
 ! A3    A(4,1,5)              122.5942         estimate D2E/DX2                !
 ! A4    A(1,2,3)              112.9799         estimate D2E/DX2                !
 ! A5    A(1,2,19)             127.059          estimate D2E/DX2                !
 ! A6    A(3,2,19)             118.5686         estimate D2E/DX2                !
 ! A7    A(2,3,6)              109.1138         estimate D2E/DX2                !
 ! A8    A(2,3,8)              132.8639         estimate D2E/DX2                !
 ! A9    A(6,3,8)              118.0132         estimate D2E/DX2                !
 ! A10   A(1,4,6)              111.9209         estimate D2E/DX2                !
 ! A11   A(1,4,7)              124.6643         estimate D2E/DX2                !
 ! A12   A(6,4,7)              123.4062         estimate D2E/DX2                !
 ! A13   A(3,6,4)               93.0997         estimate D2E/DX2                !
 ! A14   A(3,8,9)              121.967          estimate D2E/DX2                !
 ! A15   A(3,8,12)             128.384          estimate D2E/DX2                !
 ! A16   A(9,8,12)             109.61           estimate D2E/DX2                !
 ! A17   A(8,9,10)              92.7594         estimate D2E/DX2                !
 ! A18   A(9,10,11)            112.3861         estimate D2E/DX2                !
 ! A19   A(9,10,16)            128.2419         estimate D2E/DX2                !
 ! A20   A(11,10,16)           112.6144         estimate D2E/DX2                !
 ! A21   A(10,11,12)           112.6683         estimate D2E/DX2                !
 ! A22   A(10,11,14)           112.6731         estimate D2E/DX2                !
 ! A23   A(12,11,14)           128.1724         estimate D2E/DX2                !
 ! A24   A(8,12,11)            112.5342         estimate D2E/DX2                !
 ! A25   A(8,12,13)            123.7493         estimate D2E/DX2                !
 ! A26   A(11,12,13)           123.0345         estimate D2E/DX2                !
 ! A27   A(11,14,15)            91.277          estimate D2E/DX2                !
 ! A28   A(14,15,16)           112.3023         estimate D2E/DX2                !
 ! A29   A(14,15,17)           122.3886         estimate D2E/DX2                !
 ! A30   A(16,15,17)           124.3261         estimate D2E/DX2                !
 ! A31   A(10,16,15)           111.1145         estimate D2E/DX2                !
 ! A32   A(10,16,18)           124.1201         estimate D2E/DX2                !
 ! A33   A(15,16,18)           122.6805         estimate D2E/DX2                !
 ! A34   A(2,19,20)            133.0318         estimate D2E/DX2                !
 ! D1    D(4,1,2,3)              0.3915         estimate D2E/DX2                !
 ! D2    D(4,1,2,19)          -165.8104         estimate D2E/DX2                !
 ! D3    D(5,1,2,3)           -179.8811         estimate D2E/DX2                !
 ! D4    D(5,1,2,19)            13.9169         estimate D2E/DX2                !
 ! D5    D(2,1,4,6)             -0.3845         estimate D2E/DX2                !
 ! D6    D(2,1,4,7)           -179.3471         estimate D2E/DX2                !
 ! D7    D(5,1,4,6)            179.8822         estimate D2E/DX2                !
 ! D8    D(5,1,4,7)              0.9196         estimate D2E/DX2                !
 ! D9    D(1,2,3,6)             -0.2224         estimate D2E/DX2                !
 ! D10   D(1,2,3,8)            178.6265         estimate D2E/DX2                !
 ! D11   D(19,2,3,6)           167.2616         estimate D2E/DX2                !
 ! D12   D(19,2,3,8)           -13.8895         estimate D2E/DX2                !
 ! D13   D(1,2,19,20)          -16.0519         estimate D2E/DX2                !
 ! D14   D(3,2,19,20)          178.4264         estimate D2E/DX2                !
 ! D15   D(2,3,6,4)              0.0033         estimate D2E/DX2                !
 ! D16   D(8,3,6,4)           -179.041          estimate D2E/DX2                !
 ! D17   D(2,3,8,9)             84.9974         Frozen                          !
 ! D18   D(2,3,8,12)           -97.5201         estimate D2E/DX2                !
 ! D19   D(6,3,8,9)            -96.2346         estimate D2E/DX2                !
 ! D20   D(6,3,8,12)            81.2478         estimate D2E/DX2                !
 ! D21   D(1,4,6,3)              0.2153         estimate D2E/DX2                !
 ! D22   D(7,4,6,3)            179.1932         estimate D2E/DX2                !
 ! D23   D(3,8,9,10)           179.7865         estimate D2E/DX2                !
 ! D24   D(12,8,9,10)            1.8813         estimate D2E/DX2                !
 ! D25   D(3,8,12,11)         -179.8426         estimate D2E/DX2                !
 ! D26   D(3,8,12,13)           -9.0709         estimate D2E/DX2                !
 ! D27   D(9,8,12,11)           -2.1097         estimate D2E/DX2                !
 ! D28   D(9,8,12,13)          168.662          estimate D2E/DX2                !
 ! D29   D(8,9,10,11)           -1.2109         estimate D2E/DX2                !
 ! D30   D(8,9,10,16)         -149.8722         estimate D2E/DX2                !
 ! D31   D(9,10,11,12)           0.1859         estimate D2E/DX2                !
 ! D32   D(9,10,11,14)        -154.0174         estimate D2E/DX2                !
 ! D33   D(16,10,11,12)        153.9219         estimate D2E/DX2                !
 ! D34   D(16,10,11,14)         -0.2814         estimate D2E/DX2                !
 ! D35   D(9,10,16,15)         149.733          estimate D2E/DX2                !
 ! D36   D(9,10,16,18)         -14.1739         estimate D2E/DX2                !
 ! D37   D(11,10,16,15)          1.1293         estimate D2E/DX2                !
 ! D38   D(11,10,16,18)       -162.7775         estimate D2E/DX2                !
 ! D39   D(10,11,12,8)           1.2763         estimate D2E/DX2                !
 ! D40   D(10,11,12,13)       -169.5717         estimate D2E/DX2                !
 ! D41   D(14,11,12,8)         150.5608         estimate D2E/DX2                !
 ! D42   D(14,11,12,13)        -20.2871         estimate D2E/DX2                !
 ! D43   D(10,11,14,15)         -0.4937         estimate D2E/DX2                !
 ! D44   D(12,11,14,15)       -149.7771         estimate D2E/DX2                !
 ! D45   D(11,14,15,16)          1.1419         estimate D2E/DX2                !
 ! D46   D(11,14,15,17)        170.2454         estimate D2E/DX2                !
 ! D47   D(14,15,16,10)         -1.4962         estimate D2E/DX2                !
 ! D48   D(14,15,16,18)        162.6821         estimate D2E/DX2                !
 ! D49   D(17,15,16,10)       -170.3512         estimate D2E/DX2                !
 ! D50   D(17,15,16,18)         -6.1729         estimate D2E/DX2                !
 --------------------------------------------------------------------------------
 Trust Radius=3.00D-01 FncErr=1.00D-07 GrdErr=1.00D-06 EigMax=2.50D+02 EigMin=1.00D-04
 Number of steps in this run=    116 maximum allowed number of steps=    120.
 GradGradGradGradGradGradGradGradGradGradGradGradGradGradGradGradGradGrad

                          Input orientation:                          
 ---------------------------------------------------------------------
 Center     Atomic      Atomic             Coordinates (Angstroms)
 Number     Number       Type             X           Y           Z
 ---------------------------------------------------------------------
      1          6           0       -4.250000   -1.360000   -0.210000
      2          6           0       -2.930000   -0.950000   -0.610000
      3          6           0       -1.970000   -2.050000   -0.620000
      4          6           0       -4.330000   -2.760000    0.100000
      5          1           0       -5.100000   -0.700000   -0.140000
      6         16           0       -2.800000   -3.560000   -0.110000
      7          1           0       -5.230000   -3.270000    0.410000
      8          6           0       -0.560000   -2.130000   -0.970000
      9         16           0        0.732000   -1.740000    0.206000
     10          6           0        1.988000   -2.075000   -0.936000
     11          6           0        1.471000   -2.511000   -2.208000
     12          6           0        0.040000   -2.562000   -2.234000
     13          1           0       -0.518000   -3.017000   -3.038000
     14         16           0        2.594000   -3.500000   -3.082000
     15          6           0        3.789000   -3.352000   -1.792000
     16          6           0        3.304000   -2.562000   -0.683000
     17          1           0        4.693000   -3.945000   -1.769000
     18          1           0        3.768000   -2.583000    0.300000
     19          8           0       -2.400000    0.490000   -0.720000
     20          1           0       -2.920000    1.520000   -0.760000
 ---------------------------------------------------------------------
                    Distance matrix (angstroms):
                    1          2          3          4          5
     1  C    0.000000
     2  C    1.438923   0.000000
     3  C    2.417147   1.460034   0.000000
     4  C    1.436141   2.395871   2.567509   0.000000
     5  H    1.078425   2.234346   3.442354   2.212261   0.000000
     6  S    2.636759   2.660639   1.796970   1.739253   3.670218
     7  H    2.234480   3.422397   3.630000   1.079907   2.631406
     8  C    3.845335   2.671872   1.454991   3.969219   4.831708
     9  S    5.013759   3.834084   2.842390   5.164831   5.934100
    10  C    6.320676   5.055554   3.970673   6.438916   7.263882
    11  C    6.168196   4.935497   3.817689   6.248237   7.122807
    12  C    4.893412   3.749243   2.628163   4.958191   5.854185
    13  H    4.966997   3.998177   2.981630   4.944132   5.895898
    14  S    7.724527   6.567181   5.384611   7.656011   8.700172
    15  C    8.431863   7.232682   6.019541   8.357529   9.422130
    16  C    7.663645   6.439459   5.299169   7.676604   8.624912
    17  H    9.438748   8.271846   7.021880   9.290421  10.444449
    18  H    8.126755   6.953991   5.835678   8.102403   9.076382
    19  O    2.665539   1.538376   2.578081   3.867790   3.007075
    20  H    3.219596   2.474571   3.696891   4.587603   3.172570
                    6          7          8          9         10
     6  S    0.000000
     7  H    2.501879   0.000000
     8  C    2.793224   5.001290   0.000000
     9  S    3.985885   6.158568   1.790067   0.000000
    10  C    5.080595   7.439037   2.548820   1.730296   0.000000
    11  C    4.872725   7.234183   2.408893   2.639689   1.440614
    12  C    3.684153   5.938426   1.464350   2.666111   2.390957
    13  H    3.751741   5.844284   2.250590   3.703615   3.403793
    14  S    6.158865   8.570994   4.035488   4.168404   2.646352
    15  C    6.803478   9.284282   4.591598   3.991967   2.367924
    16  C    6.211534   8.632790   3.898652   2.842743   1.425845
    17  H    7.684111  10.181827   5.614858   4.944914   3.392317
    18  H    6.652913   9.024859   4.533177   3.152266   2.225794
    19  O    4.115167   4.839773   3.211308   3.954719   5.087281
    20  H    5.122821   5.445099   4.351574   4.989776   6.086334
                   11         12         13         14         15
    11  C    0.000000
    12  C    1.432145   0.000000
    13  H    2.213833   1.079261   0.000000
    14  S    1.732953   2.849888   3.149566   0.000000
    15  C    2.500692   3.856743   4.496108   1.764661   0.000000
    16  C    2.384977   3.613765   4.512287   2.671918   1.445409
    17  H    3.553922   4.876405   5.442983   2.515511   1.081385
    18  H    3.401684   4.507725   5.449807   3.695550   2.228961
    19  O    5.119061   4.190525   4.605876   6.814630   7.363007
    20  H    6.134048   5.253285   5.616338   7.810012   8.355363
                   16         17         18         19         20
    16  C    0.000000
    17  H    2.240849   0.000000
    18  H    1.087210   2.644131   0.000000
    19  O    6.469288   8.430912   6.966201   0.000000
    20  H    7.443576   9.425607   7.917547   1.154513   0.000000
 Stoichiometry    C10H6OS3
 Framework group  C1[X(C10H6OS3)]
 Deg. of freedom    54
 Full point group                 C1      NOp   1
 Largest Abelian subgroup         C1      NOp   1
 Largest concise Abelian subgroup C1      NOp   1
                         Standard orientation:                         
 ---------------------------------------------------------------------
 Center     Atomic      Atomic             Coordinates (Angstroms)
 Number     Number       Type             X           Y           Z
 ---------------------------------------------------------------------
      1          6           0        4.117262    0.105314    0.370473
      2          6           0        2.833592    0.702756    0.626899
      3          6           0        1.724418   -0.072056    0.078173
      4          6           0        4.024843   -1.117550   -0.376898
      5          1           0        5.059407    0.519237    0.693011
      6         16           0        2.376124   -1.528773   -0.747874
      7          1           0        4.868761   -1.726833   -0.664605
      8          6           0        0.281148    0.110382    0.104385
      9         16           0       -0.566063    1.138197   -1.091512
     10          6           0       -2.116537    0.817085   -0.393772
     11          6           0       -2.037691   -0.084446    0.727118
     12          6           0       -0.696507   -0.501903    1.006393
     13          1           0       -0.459383   -1.295976    1.697787
     14         16           0       -3.508330   -0.965421    0.980551
     15          6           0       -4.276790   -0.152599   -0.384300
     16          6           0       -3.385030    0.774455   -1.043498
     17          1           0       -5.233801   -0.464081   -0.779905
     18          1           0       -3.570917    1.157108   -2.044022
     19          8           0        2.558854    2.134508    1.118026
     20          1           0        3.225153    2.941813    1.605063
 ---------------------------------------------------------------------
 Rotational constants (GHZ):           1.1612719           0.2593833           0.2451987
 Standard basis: 6-311+G(d,p) (5D, 7F)
 There are   382 symmetry adapted cartesian basis functions of A   symmetry.
 There are   368 symmetry adapted basis functions of A   symmetry.
   368 basis functions,   594 primitive gaussians,   382 cartesian basis functions
    61 alpha electrons       61 beta electrons
       nuclear repulsion energy      1100.5422688234 Hartrees.
 NAtoms=   20 NActive=   20 NUniq=   20 SFac= 1.00D+00 NAtFMM=   60 NAOKFM=F Big=F
 Integral buffers will be    131072 words long.
 Raffenetti 2 integral format.
 Two-electron integral symmetry is turned on.
 One-electron integrals computed using PRISM.
 NBasis=   368 RedAO= T EigKep=  3.55D-06  NBF=   368
 NBsUse=   367 1.00D-06 EigRej=  5.43D-07 NBFU=   367
 ExpMin= 4.05D-02 ExpMax= 9.34D+04 ExpMxC= 3.17D+03 IAcc=3 IRadAn=         5 AccDes= 0.00D+00
 Harris functional with IExCor=  402 and IRadAn=       5 diagonalized for initial guess.
 HarFok:  IExCor=  402 AccDes= 0.00D+00 IRadAn=         5 IDoV= 1 UseB2=F ITyADJ=14
 ICtDFT=  3500011 ScaDFX=  1.000000  1.000000  1.000000  1.000000
 FoFCou: FMM=F IPFlag=           0 FMFlag=      100000 FMFlg1=           0
         NFxFlg=           0 DoJE=T BraDBF=F KetDBF=T FulRan=T
         wScrn=  0.000000 ICntrl=       500 IOpCl=  0 I1Cent=   200000004 NGrid=           0
         NMat0=    1 NMatS0=      1 NMatT0=    0 NMatD0=    1 NMtDS0=    0 NMtDT0=    0
 Petite list used in FoFCou.
 Requested convergence on RMS density matrix=1.00D-08 within 128 cycles.
 Requested convergence on MAX density matrix=1.00D-06.
 Requested convergence on             energy=1.00D-06.
 No special actions if energy rises.
 SCF Done:  E(RB3LYP) =  -1654.52989786     A.U. after   17 cycles
            NFock= 17  Conv=0.51D-08     -V/T= 2.0031

 **********************************************************************

            Population analysis using the SCF Density.

 **********************************************************************

 Orbital symmetries:
       Occupied  (A) (A) (A) (A) (A) (A) (A) (A) (A) (A) (A) (A)
                 (A) (A) (A) (A) (A) (A) (A) (A) (A) (A) (A) (A)
                 (A) (A) (A) (A) (A) (A) (A) (A) (A) (A) (A) (A)
                 (A) (A) (A) (A) (A) (A) (A) (A) (A) (A) (A) (A)
                 (A) (A) (A) (A) (A) (A) (A) (A) (A) (A) (A) (A)
                 (A)
       Virtual   (A) (A) (A) (A) (A) (A) (A) (A) (A) (A) (A) (A)
                 (A) (A) (A) (A) (A) (A) (A) (A) (A) (A) (A) (A)
                 (A) (A) (A) (A) (A) (A) (A) (A) (A) (A) (A) (A)
                 (A) (A) (A) (A) (A) (A) (A) (A) (A) (A) (A) (A)
                 (A) (A) (A) (A) (A) (A) (A) (A) (A) (A) (A) (A)
                 (A) (A) (A) (A) (A) (A) (A) (A) (A) (A) (A) (A)
                 (A) (A) (A) (A) (A) (A) (A) (A) (A) (A) (A) (A)
                 (A) (A) (A) (A) (A) (A) (A) (A) (A) (A) (A) (A)
                 (A) (A) (A) (A) (A) (A) (A) (A) (A) (A) (A) (A)
                 (A) (A) (A) (A) (A) (A) (A) (A) (A) (A) (A) (A)
                 (A) (A) (A) (A) (A) (A) (A) (A) (A) (A) (A) (A)
                 (A) (A) (A) (A) (A) (A) (A) (A) (A) (A) (A) (A)
                 (A) (A) (A) (A) (A) (A) (A) (A) (A) (A) (A) (A)
                 (A) (A) (A) (A) (A) (A) (A) (A) (A) (A) (A) (A)
                 (A) (A) (A) (A) (A) (A) (A) (A) (A) (A) (A) (A)
                 (A) (A) (A) (A) (A) (A) (A) (A) (A) (A) (A) (A)
                 (A) (A) (A) (A) (A) (A) (A) (A) (A) (A) (A) (A)
                 (A) (A) (A) (A) (A) (A) (A) (A) (A) (A) (A) (A)
                 (A) (A) (A) (A) (A) (A) (A) (A) (A) (A) (A) (A)
                 (A) (A) (A) (A) (A) (A) (A) (A) (A) (A) (A) (A)
                 (A) (A) (A) (A) (A) (A) (A) (A) (A) (A) (A) (A)
                 (A) (A) (A) (A) (A) (A) (A) (A) (A) (A) (A) (A)
                 (A) (A) (A) (A) (A) (A) (A) (A) (A) (A) (A) (A)
                 (A) (A) (A) (A) (A) (A) (A) (A) (A) (A) (A) (A)
                 (A) (A) (A) (A) (A) (A) (A) (A) (A) (A) (A) (A)
                 (A) (A) (A) (A) (A) (A)
 The electronic state is 1-A.
 Alpha  occ. eigenvalues --  -88.89630 -88.88887 -88.88306 -19.15779 -10.27374
 Alpha  occ. eigenvalues --  -10.23292 -10.23138 -10.22436 -10.21936 -10.21673
 Alpha  occ. eigenvalues --  -10.21613 -10.20377 -10.20326 -10.20110  -7.98066
 Alpha  occ. eigenvalues --   -7.97411  -7.96826  -5.94362  -5.94000  -5.93721
 Alpha  occ. eigenvalues --   -5.93671  -5.93365  -5.93141  -5.92966  -5.92776
 Alpha  occ. eigenvalues --   -5.92375  -0.97936  -0.90297  -0.87635  -0.83359
 Alpha  occ. eigenvalues --   -0.77178  -0.75149  -0.73869  -0.70754  -0.68604
 Alpha  occ. eigenvalues --   -0.61616  -0.57961  -0.57360  -0.53915  -0.53302
 Alpha  occ. eigenvalues --   -0.51301  -0.48855  -0.45759  -0.44602  -0.42695
 Alpha  occ. eigenvalues --   -0.42200  -0.40386  -0.39808  -0.39321  -0.38612
 Alpha  occ. eigenvalues --   -0.37064  -0.36457  -0.34365  -0.34083  -0.33236
 Alpha  occ. eigenvalues --   -0.32661  -0.28771  -0.25727  -0.23676  -0.23387
 Alpha  occ. eigenvalues --   -0.21268
 Alpha virt. eigenvalues --   -0.05954  -0.05488  -0.04729  -0.01787  -0.00711
 Alpha virt. eigenvalues --    0.00022   0.00318   0.00970   0.01287   0.01773
 Alpha virt. eigenvalues --    0.02359   0.02981   0.03398   0.03983   0.04079
 Alpha virt. eigenvalues --    0.04468   0.04703   0.05984   0.06087   0.06752
 Alpha virt. eigenvalues --    0.07133   0.07678   0.08014   0.08482   0.08922
 Alpha virt. eigenvalues --    0.09319   0.10083   0.10583   0.10943   0.11177
 Alpha virt. eigenvalues --    0.11709   0.12231   0.12590   0.13076   0.13287
 Alpha virt. eigenvalues --    0.13621   0.14354   0.14560   0.14992   0.15261
 Alpha virt. eigenvalues --    0.15776   0.16328   0.17034   0.17415   0.17489
 Alpha virt. eigenvalues --    0.17852   0.18289   0.18529   0.18927   0.19453
 Alpha virt. eigenvalues --    0.20159   0.20504   0.20601   0.20824   0.21022
 Alpha virt. eigenvalues --    0.21541   0.21834   0.22108   0.22556   0.23131
 Alpha virt. eigenvalues --    0.23271   0.23568   0.24036   0.24371   0.25174
 Alpha virt. eigenvalues --    0.26074   0.26439   0.26830   0.27216   0.27554
 Alpha virt. eigenvalues --    0.28161   0.29162   0.29673   0.30851   0.31536
 Alpha virt. eigenvalues --    0.32535   0.33391   0.33735   0.33931   0.34532
 Alpha virt. eigenvalues --    0.36472   0.36664   0.37760   0.38438   0.39361
 Alpha virt. eigenvalues --    0.41179   0.42296   0.42487   0.42889   0.44567
 Alpha virt. eigenvalues --    0.45289   0.46991   0.47799   0.49749   0.51717
 Alpha virt. eigenvalues --    0.53384   0.55414   0.55592   0.56087   0.56729
 Alpha virt. eigenvalues --    0.57507   0.58957   0.59077   0.59732   0.60617
 Alpha virt. eigenvalues --    0.61423   0.62339   0.62994   0.64883   0.65284
 Alpha virt. eigenvalues --    0.66106   0.67127   0.67954   0.69132   0.70381
 Alpha virt. eigenvalues --    0.70436   0.71145   0.71645   0.72542   0.73094
 Alpha virt. eigenvalues --    0.73589   0.74154   0.74811   0.75746   0.75835
 Alpha virt. eigenvalues --    0.77505   0.78930   0.80047   0.80647   0.80988
 Alpha virt. eigenvalues --    0.81200   0.83097   0.83573   0.85100   0.85477
 Alpha virt. eigenvalues --    0.87312   0.87580   0.89108   0.89856   0.92262
 Alpha virt. eigenvalues --    0.92627   0.93988   0.94352   0.95259   0.97155
 Alpha virt. eigenvalues --    0.97377   0.98302   1.00020   1.00932   1.01413
 Alpha virt. eigenvalues --    1.03058   1.03666   1.04057   1.06698   1.07631
 Alpha virt. eigenvalues --    1.11084   1.11910   1.13820   1.16059   1.17550
 Alpha virt. eigenvalues --    1.21354   1.24948   1.26207   1.27988   1.31248
 Alpha virt. eigenvalues --    1.33470   1.35370   1.37928   1.39006   1.41961
 Alpha virt. eigenvalues --    1.45084   1.45671   1.47707   1.50364   1.52477
 Alpha virt. eigenvalues --    1.53717   1.54351   1.56005   1.58099   1.58597
 Alpha virt. eigenvalues --    1.60490   1.62160   1.63180   1.64902   1.66432
 Alpha virt. eigenvalues --    1.67183   1.68467   1.69610   1.69914   1.71028
 Alpha virt. eigenvalues --    1.73908   1.74182   1.76140   1.78226   1.78935
 Alpha virt. eigenvalues --    1.79929   1.81700   1.81952   1.84700   1.84953
 Alpha virt. eigenvalues --    1.87541   1.88353   1.90008   1.91361   1.91861
 Alpha virt. eigenvalues --    1.94295   1.95552   1.97787   1.98009   2.00087
 Alpha virt. eigenvalues --    2.01811   2.02203   2.03586   2.05583   2.05979
 Alpha virt. eigenvalues --    2.09172   2.09615   2.10848   2.11766   2.12807
 Alpha virt. eigenvalues --    2.14486   2.17777   2.24787   2.28748   2.33980
 Alpha virt. eigenvalues --    2.34805   2.36110   2.37045   2.45236   2.48025
 Alpha virt. eigenvalues --    2.49316   2.52503   2.55578   2.57787   2.65039
 Alpha virt. eigenvalues --    2.67436   2.68615   2.69792   2.71028   2.72056
 Alpha virt. eigenvalues --    2.73949   2.75012   2.76280   2.76576   2.79715
 Alpha virt. eigenvalues --    2.83604   2.86525   2.88787   2.90763   2.93037
 Alpha virt. eigenvalues --    2.94464   2.98139   2.98358   3.01473   3.02989
 Alpha virt. eigenvalues --    3.03708   3.06021   3.07604   3.12987   3.20330
 Alpha virt. eigenvalues --    3.22965   3.24075   3.26078   3.32771   3.36546
 Alpha virt. eigenvalues --    3.39670   3.46108   3.55310   3.63319   3.72291
 Alpha virt. eigenvalues --    3.90588   3.94415   4.00960   4.04516   4.12675
 Alpha virt. eigenvalues --    4.30269   4.41585   5.02621   5.19649   5.44301
 Alpha virt. eigenvalues --    7.93656   7.94906   7.97199  17.28712  17.29014
 Alpha virt. eigenvalues --   17.31595  17.42761  17.43871  17.46580  17.47794
 Alpha virt. eigenvalues --   17.49125  17.51846  23.44655  23.58547  23.71757
 Alpha virt. eigenvalues --   23.77153  23.79693  23.85276  23.86554  23.94233
 Alpha virt. eigenvalues --   23.95321  23.96234  49.86174 189.09830 189.11052
 Alpha virt. eigenvalues --  189.13924
          Condensed to atoms (all electrons):
               1          2          3          4          5          6
     1  C    6.938607  -1.690388   0.355176  -0.231171   0.419272   0.386725
     2  C   -1.690388  11.825824  -2.885325   1.104213  -0.067684  -1.251874
     3  C    0.355176  -2.885325   9.283420  -0.795033   0.015370   0.126737
     4  C   -0.231171   1.104213  -0.795033   5.869084  -0.013216  -0.100212
     5  H    0.419272  -0.067684   0.015370  -0.013216   0.518260   0.003380
     6  S    0.386725  -1.251874   0.126737  -0.100212   0.003380  16.847691
     7  H    0.019781  -0.044622   0.021665   0.369650  -0.004390  -0.010028
     8  C    0.031778  -0.973808   0.832850  -0.117719  -0.006941  -0.162191
     9  S   -0.129961   0.333807   0.301335   0.066365  -0.000449  -0.071371
    10  C    0.079862  -0.332371  -0.736806  -0.037618  -0.000189   0.175853
    11  C   -0.100252   0.494510   0.607832   0.074224   0.000145  -0.249206
    12  C    0.296320  -0.806567  -1.084328  -0.101669   0.000382   0.382394
    13  H    0.001659  -0.001024   0.020894  -0.000342   0.000001   0.000982
    14  S    0.002621  -0.003062  -0.023912   0.000701  -0.000006  -0.008032
    15  C    0.000422  -0.003062  -0.025849  -0.000867   0.000001  -0.000308
    16  C    0.011349  -0.181304   0.003810  -0.005807  -0.000018   0.074791
    17  H   -0.000001   0.000041   0.000171   0.000001  -0.000000  -0.000025
    18  H    0.000006   0.000205  -0.000473  -0.000005   0.000000  -0.000264
    19  O   -0.180930   0.575253  -0.226699   0.025309  -0.003433   0.012554
    20  H   -0.041315  -0.036023   0.049996   0.001322   0.000022  -0.010141
               7          8          9         10         11         12
     1  C    0.019781   0.031778  -0.129961   0.079862  -0.100252   0.296320
     2  C   -0.044622  -0.973808   0.333807  -0.332371   0.494510  -0.806567
     3  C    0.021665   0.832850   0.301335  -0.736806   0.607832  -1.084328
     4  C    0.369650  -0.117719   0.066365  -0.037618   0.074224  -0.101669
     5  H   -0.004390  -0.006941  -0.000449  -0.000189   0.000145   0.000382
     6  S   -0.010028  -0.162191  -0.071371   0.175853  -0.249206   0.382394
     7  H    0.478544   0.000121  -0.000299   0.000218  -0.000301  -0.000376
     8  C    0.000121   8.682323   0.252396  -1.204106   1.002938  -2.427993
     9  S   -0.000299   0.252396  17.814730  -1.863095   2.148099  -2.698042
    10  C    0.000218  -1.204106  -1.863095  14.985156  -6.635605   3.445809
    11  C   -0.000301   1.002938   2.148099  -6.635605  16.721678  -6.471504
    12  C   -0.000376  -2.427993  -2.698042   3.445809  -6.471504  14.716851
    13  H   -0.000001   0.069316   0.010890  -0.043008   0.056503   0.229419
    14  S    0.000007  -0.199757   0.254380   0.232133  -0.675037  -0.038052
    15  C   -0.000002   0.063204  -0.029094   0.564691  -0.405581  -0.184602
    16  C    0.000021  -0.237836  -0.133346  -3.045105  -0.679214   1.023910
    17  H    0.000000  -0.002408   0.001416  -0.003401   0.006960   0.007554
    18  H    0.000000   0.006462   0.016105   0.028250  -0.026070  -0.011396
    19  O   -0.000177  -0.061607  -0.015091   0.010977   0.007002   0.037932
    20  H   -0.000012   0.016028   0.009394  -0.002729   0.003870  -0.006326
              13         14         15         16         17         18
     1  C    0.001659   0.002621   0.000422   0.011349  -0.000001   0.000006
     2  C   -0.001024  -0.003062  -0.003062  -0.181304   0.000041   0.000205
     3  C    0.020894  -0.023912  -0.025849   0.003810   0.000171  -0.000473
     4  C   -0.000342   0.000701  -0.000867  -0.005807   0.000001  -0.000005
     5  H    0.000001  -0.000006   0.000001  -0.000018  -0.000000   0.000000
     6  S    0.000982  -0.008032  -0.000308   0.074791  -0.000025  -0.000264
     7  H   -0.000001   0.000007  -0.000002   0.000021   0.000000   0.000000
     8  C    0.069316  -0.199757   0.063204  -0.237836  -0.002408   0.006462
     9  S    0.010890   0.254380  -0.029094  -0.133346   0.001416   0.016105
    10  C   -0.043008   0.232133   0.564691  -3.045105  -0.003401   0.028250
    11  C    0.056503  -0.675037  -0.405581  -0.679214   0.006960  -0.026070
    12  C    0.229419  -0.038052  -0.184602   1.023910   0.007554  -0.011396
    13  H    0.516907   0.008151   0.000776  -0.012731  -0.000002   0.000014
    14  S    0.008151  16.605740   0.290533  -0.293678  -0.019515   0.004773
    15  C    0.000776   0.290533   5.546300   0.088221   0.371147   0.013688
    16  C   -0.012731  -0.293678   0.088221   9.354088  -0.008139   0.315751
    17  H   -0.000002  -0.019515   0.371147  -0.008139   0.475257  -0.003583
    18  H    0.000014   0.004773   0.013688   0.315751  -0.003583   0.514790
    19  O   -0.000232   0.000151   0.000050  -0.001195  -0.000000   0.000001
    20  H   -0.000008   0.000069  -0.000012   0.000140  -0.000000   0.000000
              19         20
     1  C   -0.180930  -0.041315
     2  C    0.575253  -0.036023
     3  C   -0.226699   0.049996
     4  C    0.025309   0.001322
     5  H   -0.003433   0.000022
     6  S    0.012554  -0.010141
     7  H   -0.000177  -0.000012
     8  C   -0.061607   0.016028
     9  S   -0.015091   0.009394
    10  C    0.010977  -0.002729
    11  C    0.007002   0.003870
    12  C    0.037932  -0.006326
    13  H   -0.000232  -0.000008
    14  S    0.000151   0.000069
    15  C    0.000050  -0.000012
    16  C   -0.001195   0.000140
    17  H   -0.000000  -0.000000
    18  H    0.000001   0.000000
    19  O    8.016549   0.202058
    20  H    0.202058   0.518795
 Mulliken charges:
               1
     1  C   -0.169559
     2  C   -0.056739
     3  C    0.159167
     4  C   -0.107208
     5  H    0.139495
     6  S   -0.147454
     7  H    0.170199
     8  C    0.436952
     9  S   -0.268166
    10  C    0.381086
    11  C    0.119010
    12  C   -0.309717
    13  H    0.141835
    14  S   -0.138208
    15  C   -0.289655
    16  C   -0.273711
    17  H    0.174527
    18  H    0.141747
    19  O   -0.398472
    20  H    0.294873
 Sum of Mulliken charges =  -0.00000
 Mulliken charges with hydrogens summed into heavy atoms:
               1
     1  C   -0.030064
     2  C   -0.056739
     3  C    0.159167
     4  C    0.062990
     6  S   -0.147454
     8  C    0.436952
     9  S   -0.268166
    10  C    0.381086
    11  C    0.119010
    12  C   -0.167882
    14  S   -0.138208
    15  C   -0.115128
    16  C   -0.131964
    19  O   -0.103600
 Electronic spatial extent (au):  <R**2>=           4402.8780
 Charge=             -0.0000 electrons
 Dipole moment (field-independent basis, Debye):
    X=              1.9214    Y=             -0.5428    Z=             -0.2499  Tot=              2.0121
 Quadrupole moment (field-independent basis, Debye-Ang):
   XX=            -80.8540   YY=            -99.1772   ZZ=           -101.6808
   XY=              5.0372   XZ=              7.6918   YZ=              1.5324
 Traceless Quadrupole moment (field-independent basis, Debye-Ang):
   XX=             13.0500   YY=             -5.2732   ZZ=             -7.7768
   XY=              5.0372   XZ=              7.6918   YZ=              1.5324
 Octapole moment (field-independent basis, Debye-Ang**2):
  XXX=             66.4923  YYY=             20.2080  ZZZ=              0.3939  XYY=             34.3192
  XXY=              4.3819  XXZ=             -8.0491  XZZ=              0.4966  YZZ=              8.4972
  YYZ=             11.5154  XYZ=             28.0934
 Hexadecapole moment (field-independent basis, Debye-Ang**3):
 XXXX=          -4167.5324 YYYY=           -726.7969 ZZZZ=           -539.2579 XXXY=            141.6662
 XXXZ=            166.5157 YYYX=            103.5836 YYYZ=             63.2705 ZZZX=             36.5069
 ZZZY=              5.2284 XXYY=           -830.1814 XXZZ=           -876.2712 YYZZ=           -188.5493
 XXYZ=             83.3950 YYXZ=             43.9403 ZZXY=             26.6239
 N-N= 1.100542268823D+03 E-N=-6.111520375037D+03  KE= 1.649474182139D+03
 Calling FoFJK, ICntrl=      2127 FMM=F ISym2X=0 I1Cent= 0 IOpClX= 0 NMat=1 NMatS=1 NMatT=0.
 ***** Axes restored to original set *****
 -------------------------------------------------------------------
 Center     Atomic                   Forces (Hartrees/Bohr)
 Number     Number              X              Y              Z
 -------------------------------------------------------------------
      1        6           0.015643251   -0.039359353    0.004809899
      2        6           0.027845265    0.020490598    0.014329249
      3        6          -0.037264859    0.029550448   -0.000806369
      4        6           0.011738938    0.051142213   -0.015694137
      5        1          -0.000594272    0.001703420    0.000541798
      6       16          -0.005442145    0.024644856   -0.005285450
      7        1           0.002497118   -0.002976357   -0.000244741
      8        6           0.033230147   -0.010837486   -0.049153433
      9       16          -0.011914478    0.007500037   -0.009342627
     10        6           0.001291983   -0.026273153   -0.022131444
     11        6          -0.019628798    0.002947821    0.035375432
     12        6          -0.009950343    0.018146587    0.052167807
     13        1          -0.005165445    0.004950660   -0.001021203
     14       16           0.016668529    0.005896968    0.006895377
     15        6          -0.025030691    0.029171585    0.044930523
     16        6           0.011299127   -0.035244522   -0.042713834
     17        1           0.000629929    0.003440208   -0.006448695
     18        1           0.003593732    0.005884243   -0.006267206
     19        8          -0.031018446    0.015249866   -0.003804341
     20        1           0.021571456   -0.106028641    0.003863396
 -------------------------------------------------------------------
 Cartesian Forces:  Max     0.106028641 RMS     0.025572988

 GradGradGradGradGradGradGradGradGradGradGradGradGradGradGradGradGradGrad
 Berny optimization.
 FormGI is forming the generalized inverse of G from B-inverse, IUseBI=4.
 Internal  Forces:  Max     0.104443315 RMS     0.019874931
 Search for a local minimum.
 Step number   1 out of a maximum of  116
 All quantities printed in internal units (Hartrees-Bohrs-Radians)
 Mixed Optimization -- RFO/linear search
 Second derivative matrix not updated -- first step.
 ITU=  0
     Eigenvalues ---    0.00230   0.00994   0.01058   0.01222   0.01273
     Eigenvalues ---    0.01298   0.01362   0.01420   0.01458   0.01497
     Eigenvalues ---    0.01500   0.01592   0.01597   0.01768   0.02202
     Eigenvalues ---    0.02656   0.15084   0.15684   0.15737   0.15997
     Eigenvalues ---    0.16000   0.16000   0.17988   0.22443   0.22526
     Eigenvalues ---    0.23319   0.23977   0.24118   0.24633   0.24978
     Eigenvalues ---    0.24995   0.26145   0.26568   0.28307   0.28426
     Eigenvalues ---    0.28663   0.30910   0.31264   0.31551   0.34832
     Eigenvalues ---    0.35137   0.35827   0.35872   0.36006   0.36084
     Eigenvalues ---    0.36185   0.36327   0.37598   0.38254   0.38435
     Eigenvalues ---    0.39456   0.39758   0.406541000.000001000.00000
     Eigenvalues --- 1000.000001000.000001000.000001000.000001000.00000
     Eigenvalues --- 1000.000001000.000001000.000001000.000001000.00000
     Eigenvalues --- 1000.000001000.000001000.000001000.000001000.00000
     Eigenvalues --- 1000.000001000.000001000.000001000.000001000.00000
     Eigenvalues --- 1000.000001000.000001000.000001000.000001000.00000
     Eigenvalues --- 1000.000001000.000001000.000001000.000001000.00000
     Eigenvalues --- 1000.000001000.000001000.000001000.000001000.00000
     Eigenvalues --- 1000.000001000.000001000.000001000.000001000.00000
     Eigenvalues --- 1000.000001000.000001000.000001000.000001000.00000
     Eigenvalues --- 1000.000001000.000001000.000001000.000001000.00000
     Eigenvalues --- 1000.00000
 RFO step:  Lambda=-1.06907327D-01 EMin= 2.30000000D-03
 Linear search not attempted -- first point.
 Maximum step size (   0.300) exceeded in Quadratic search.
    -- Step size scaled by   0.583
 Iteration  1 RMS(Cart)=  0.06438963 RMS(Int)=  0.00172272
 Iteration  2 RMS(Cart)=  0.00190998 RMS(Int)=  0.00013527
 Iteration  3 RMS(Cart)=  0.00001168 RMS(Int)=  0.00013503
 Iteration  4 RMS(Cart)=  0.00000000 RMS(Int)=  0.00013503
 Iteration  1 RMS(Cart)=  0.00000178 RMS(Int)=  0.00000073
 Iteration  2 RMS(Cart)=  0.00000096 RMS(Int)=  0.00000081
 Variable       Old X    -DE/DX   Delta X   Delta X   Delta X     New X
                                 (Linear)    (Quad)   (Total)
    R1        2.71917  -0.02233   0.00000  -0.02717  -0.02707   2.69210
    R2        2.71391  -0.05445   0.00000  -0.06296  -0.06294   2.65097
    R3        2.03793   0.00155   0.00000   0.00192   0.00192   2.03985
    R4        2.75906  -0.06495   0.00000  -0.08014  -0.08008   2.67898
    R5        2.90711  -0.08823   0.00000  -0.13080  -0.13080   2.77631
    R6        3.39578  -0.02213   0.00000  -0.03358  -0.03363   3.36215
    R7        2.74954  -0.00568   0.00000  -0.00686  -0.00686   2.74267
    R8        3.28671  -0.01304   0.00000  -0.01681  -0.01690   3.26981
    R9        2.04073  -0.00075   0.00000  -0.00093  -0.00093   2.03980
   R10        3.38274  -0.01106   0.00000  -0.01567  -0.01579   3.36695
   R11        2.76722  -0.06404   0.00000  -0.07959  -0.07966   2.68756
   R12        3.26979  -0.00141   0.00000  -0.00102  -0.00100   3.26879
   R13        2.72237  -0.03080   0.00000  -0.03681  -0.03657   2.68580
   R14        2.69446  -0.00168   0.00000  -0.00303  -0.00292   2.69154
   R15        2.70636  -0.01189   0.00000  -0.01478  -0.01471   2.69165
   R16        3.27481   0.00178   0.00000   0.00355   0.00354   3.27835
   R17        2.03951   0.00134   0.00000   0.00168   0.00168   2.04118
   R18        3.33473  -0.01207   0.00000  -0.01674  -0.01689   3.31784
   R19        2.73143  -0.05833   0.00000  -0.06929  -0.06933   2.66209
   R20        2.04352  -0.00150   0.00000  -0.00188  -0.00188   2.04164
   R21        2.05453  -0.00425   0.00000  -0.00541  -0.00541   2.04912
   R22        2.18171  -0.10444   0.00000  -0.15624  -0.15624   2.02547
    A1        1.97020  -0.00308   0.00000  -0.00845  -0.00832   1.96188
    A2        2.17330   0.00071   0.00000   0.00243   0.00235   2.17565
    A3        2.13967   0.00237   0.00000   0.00605   0.00597   2.14565
    A4        1.97187   0.01596   0.00000   0.02423   0.02436   1.99623
    A5        2.21760  -0.00437   0.00000  -0.00479  -0.00493   2.21267
    A6        2.06941  -0.01073   0.00000  -0.01547  -0.01563   2.05378
    A7        1.90440  -0.00637   0.00000  -0.01026  -0.01023   1.89416
    A8        2.31891  -0.00425   0.00000  -0.00706  -0.00708   2.31184
    A9        2.05972   0.01062   0.00000   0.01726   0.01724   2.07696
   A10        1.95339  -0.00188   0.00000  -0.00281  -0.00285   1.95054
   A11        2.17580   0.00483   0.00000   0.00990   0.00992   2.18572
   A12        2.15384  -0.00295   0.00000  -0.00711  -0.00709   2.14676
   A13        1.62490  -0.00463   0.00000  -0.00270  -0.00295   1.62195
   A14        2.12873  -0.00322   0.00000  -0.00492  -0.00492   2.12381
   A15        2.24072  -0.00380   0.00000  -0.00589  -0.00589   2.23483
   A16        1.91306   0.00709   0.00000   0.01102   0.01101   1.92407
   A17        1.61896  -0.00616   0.00000  -0.00759  -0.00752   1.61144
   A18        1.96151  -0.01090   0.00000  -0.01523  -0.01547   1.94604
   A19        2.23824   0.00907   0.00000   0.02178   0.02139   2.25964
   A20        1.96549   0.00567   0.00000   0.00920   0.00926   1.97475
   A21        1.96643   0.00749   0.00000   0.01134   0.01138   1.97781
   A22        1.96652  -0.01331   0.00000  -0.01907  -0.01922   1.94730
   A23        2.23703   0.00931   0.00000   0.02168   0.02131   2.25834
   A24        1.96409   0.00253   0.00000   0.00060   0.00073   1.96482
   A25        2.15983  -0.00539   0.00000  -0.00857  -0.00871   2.15112
   A26        2.14736   0.00345   0.00000   0.01074   0.01060   2.15795
   A27        1.59308   0.00045   0.00000   0.00237   0.00240   1.59548
   A28        1.96004   0.00167   0.00000   0.00157   0.00150   1.96154
   A29        2.13608  -0.00473   0.00000  -0.00819  -0.00835   2.12774
   A30        2.16990   0.00410   0.00000   0.01138   0.01126   2.18116
   A31        1.93931   0.00552   0.00000   0.00592   0.00605   1.94536
   A32        2.16631  -0.00007   0.00000   0.00519   0.00490   2.17121
   A33        2.14118  -0.00361   0.00000  -0.00279  -0.00310   2.13808
   A34        2.32184  -0.06214   0.00000  -0.13582  -0.13582   2.18602
    D1        0.00683  -0.00063   0.00000  -0.00298  -0.00296   0.00387
    D2       -2.89394  -0.00379   0.00000  -0.02074  -0.02082  -2.91476
    D3       -3.13952   0.00052   0.00000   0.00297   0.00298  -3.13653
    D4        0.24290  -0.00264   0.00000  -0.01479  -0.01488   0.22802
    D5       -0.00671   0.00063   0.00000   0.00215   0.00209  -0.00462
    D6       -3.13020   0.00067   0.00000   0.00327   0.00326  -3.12694
    D7        3.13954  -0.00049   0.00000  -0.00366  -0.00373   3.13581
    D8        0.01605  -0.00045   0.00000  -0.00254  -0.00256   0.01349
    D9       -0.00388   0.00046   0.00000   0.00256   0.00254  -0.00134
   D10        3.11762   0.00026   0.00000  -0.00105  -0.00103   3.11659
   D11        2.91927   0.00387   0.00000   0.01968   0.01964   2.93891
   D12       -0.24242   0.00368   0.00000   0.01607   0.01608  -0.22634
   D13       -0.28016   0.00199   0.00000   0.00483   0.00471  -0.27544
   D14        3.11413  -0.00458   0.00000  -0.01867  -0.01855   3.09557
   D15        0.00006  -0.00010   0.00000  -0.00118  -0.00116  -0.00110
   D16       -3.12486   0.00022   0.00000   0.00208   0.00211  -3.12274
   D17        1.48349  -0.00126   0.00000   0.00000  -0.00000   1.48348
   D18       -1.70205   0.00088   0.00000   0.00735   0.00736  -1.69468
   D19       -1.67961  -0.00163   0.00000  -0.00414  -0.00414  -1.68376
   D20        1.41804   0.00051   0.00000   0.00321   0.00322   1.42126
   D21        0.00376  -0.00026   0.00000  -0.00046  -0.00046   0.00330
   D22        3.12751  -0.00021   0.00000  -0.00136  -0.00139   3.12612
   D23        3.13787   0.00054   0.00000   0.00169   0.00168   3.13955
   D24        0.03283  -0.00104   0.00000  -0.00411  -0.00418   0.02865
   D25       -3.13885  -0.00137   0.00000  -0.00425  -0.00419   3.14015
   D26       -0.15832   0.00297   0.00000   0.01545   0.01542  -0.14290
   D27       -0.03682   0.00038   0.00000   0.00209   0.00221  -0.03461
   D28        2.94371   0.00472   0.00000   0.02179   0.02182   2.96552
   D29       -0.02113   0.00183   0.00000   0.00573   0.00567  -0.01547
   D30       -2.61576  -0.00705   0.00000  -0.02882  -0.02890  -2.64467
   D31        0.00325  -0.00153   0.00000  -0.00502  -0.00496  -0.00172
   D32       -2.68811  -0.01066   0.00000  -0.03692  -0.03642  -2.72453
   D33        2.68644   0.00803   0.00000   0.02955   0.02922   2.71566
   D34       -0.00491  -0.00110   0.00000  -0.00234  -0.00224  -0.00715
   D35        2.61333   0.00570   0.00000   0.03053   0.03089   2.64422
   D36       -0.24738  -0.00075   0.00000  -0.00033  -0.00015  -0.24753
   D37        0.01971   0.00098   0.00000   0.00207   0.00200   0.02171
   D38       -2.84100  -0.00547   0.00000  -0.02879  -0.02904  -2.87005
   D39        0.02228   0.00077   0.00000   0.00180   0.00174   0.02401
   D40       -2.95958  -0.00259   0.00000  -0.01568  -0.01590  -2.97548
   D41        2.62778   0.00434   0.00000   0.02615   0.02650   2.65428
   D42       -0.35408   0.00097   0.00000   0.00867   0.00886  -0.34521
   D43       -0.00862   0.00098   0.00000   0.00182   0.00177  -0.00684
   D44       -2.61410  -0.00775   0.00000  -0.03007  -0.03002  -2.64413
   D45        0.01993  -0.00031   0.00000  -0.00051  -0.00053   0.01940
   D46        2.97134   0.00590   0.00000   0.02692   0.02674   2.99808
   D47       -0.02611  -0.00022   0.00000  -0.00065  -0.00058  -0.02669
   D48        2.83934   0.00676   0.00000   0.03116   0.03125   2.87058
   D49       -2.97319  -0.00544   0.00000  -0.02616  -0.02627  -2.99946
   D50       -0.10774   0.00154   0.00000   0.00565   0.00555  -0.10218
         Item               Value     Threshold  Converged?
 Maximum Force            0.104443     0.000450     NO 
 RMS     Force            0.019969     0.000300     NO 
 Maximum Displacement     0.451484     0.001800     NO 
 RMS     Displacement     0.064488     0.001200     NO 
 Predicted change in Energy=-4.961253D-02
 GradGradGradGradGradGradGradGradGradGradGradGradGradGradGradGradGradGrad

                          Input orientation:                          
 ---------------------------------------------------------------------
 Center     Atomic      Atomic             Coordinates (Angstroms)
 Number     Number       Type             X           Y           Z
 ---------------------------------------------------------------------
      1          6           0       -4.212227   -1.332292   -0.221318
      2          6           0       -2.887670   -0.975799   -0.605953
      3          6           0       -1.969504   -2.055930   -0.612230
      4          6           0       -4.332495   -2.697047    0.080220
      5          1           0       -5.041247   -0.643336   -0.164190
      6         16           0       -2.829764   -3.532096   -0.115907
      7          1           0       -5.244260   -3.190317    0.381060
      8          6           0       -0.562503   -2.143807   -0.957294
      9         16           0        0.716249   -1.764806    0.224081
     10          6           0        1.970063   -2.103144   -0.918537
     11          6           0        1.437078   -2.516580   -2.169532
     12          6           0        0.013458   -2.557641   -2.190034
     13          1           0       -0.561253   -2.986375   -2.997880
     14         16           0        2.578936   -3.465314   -3.067132
     15          6           0        3.776237   -3.309495   -1.792470
     16          6           0        3.297760   -2.567614   -0.694671
     17          1           0        4.701953   -3.866340   -1.807317
     18          1           0        3.790070   -2.573332    0.271461
     19          8           0       -2.343316    0.383181   -0.729591
     20          1           0       -2.926563    1.281085   -0.778764
 ---------------------------------------------------------------------
                    Distance matrix (angstroms):
                    1          2          3          4          5
     1  C    0.000000
     2  C    1.424599   0.000000
     3  C    2.388780   1.417657   0.000000
     4  C    1.402834   2.349690   2.544454   0.000000
     5  H    1.079443   2.223416   3.410537   2.186274   0.000000
     6  S    2.600280   2.603488   1.779171   1.730311   3.638396
     7  H    2.209119   3.381094   3.605203   1.079414   2.612590
     8  C    3.810605   2.625659   1.451360   3.949095   4.789528
     9  S    4.967426   3.781497   2.827974   5.136106   5.878537
    10  C    6.269054   4.996617   3.951739   6.408781   7.201287
    11  C    6.092022   4.849973   3.773883   6.195315   7.035562
    12  C    4.820139   3.664434   2.583277   4.905180   5.772231
    13  H    4.875952   3.895632   2.922367   4.876544   5.795686
    14  S    7.666051   6.491446   5.357352   7.633082   8.628894
    15  C    8.378151   7.159722   5.998161   8.344675   9.354556
    16  C    7.625614   6.387589   5.292701   7.670593   8.574572
    17  H    9.402096   8.209804   7.015280   9.303294  10.393149
    18  H    8.112939   6.922007   5.849899   8.125758   9.050240
    19  O    2.587280   1.469161   2.470378   3.755054   2.941470
    20  H    2.965370   2.263825   3.475538   4.305814   2.924548
                    6          7          8          9         10
     6  S    0.000000
     7  H    2.488691   0.000000
     8  C    2.788503   4.980485   0.000000
     9  S    3.976570   6.130611   1.781711   0.000000
    10  C    5.071928   7.410624   2.533188   1.729769   0.000000
    11  C    4.842994   7.183295   2.367869   2.610392   1.421264
    12  C    3.651776   5.886799   1.422195   2.636372   2.377304
    13  H    3.708061   5.778355   2.207695   3.674953   3.392834
    14  S    6.161836   8.553832   4.008296   4.146495   2.615855
    15  C    6.819065   9.279429   4.569574   3.976943   2.341219
    16  C    6.229906   8.631979   3.892327   2.855312   1.424299
    17  H    7.726534  10.206525   5.603941   4.942556   3.370759
    18  H    6.700111   9.056037   4.543041   3.178732   2.224770
    19  O    3.992822   4.734861   3.099808   3.858014   4.982243
    20  H    4.859574   5.168205   4.165398   4.853167   5.953947
                   11         12         13         14         15
    11  C    0.000000
    12  C    1.424360   0.000000
    13  H    2.213639   1.080149   0.000000
    14  S    1.734826   2.859169   3.177257   0.000000
    15  C    2.498510   3.857700   4.513451   1.755725   0.000000
    16  C    2.374859   3.608718   4.513548   2.636503   1.408720
    17  H    3.551402   4.882740   5.467459   2.501031   1.080392
    18  H    3.390906   4.507994   5.458316   3.661787   2.191334
    19  O    4.977291   4.041746   4.435628   6.671100   7.225960
    20  H    5.949610   5.036986   5.360074   7.620726   8.187097
                   16         17         18         19         20
    16  C    0.000000
    17  H    2.212787   0.000000
    18  H    1.084350   2.612417   0.000000
    19  O    6.366329   8.297936   6.881969   0.000000
    20  H    7.318590   9.260030   7.814900   1.071834   0.000000
 Stoichiometry    C10H6OS3
 Framework group  C1[X(C10H6OS3)]
 Deg. of freedom    54
 Full point group                 C1      NOp   1
 Largest Abelian subgroup         C1      NOp   1
 Largest concise Abelian subgroup C1      NOp   1
                         Standard orientation:                         
 ---------------------------------------------------------------------
 Center     Atomic      Atomic             Coordinates (Angstroms)
 Number     Number       Type             X           Y           Z
 ---------------------------------------------------------------------
      1          6           0        4.076071    0.140598    0.394228
      2          6           0        2.779442    0.675351    0.643780
      3          6           0        1.718802   -0.069837    0.069770
      4          6           0        4.032712   -1.026388   -0.383081
      5          1           0        4.997597    0.571153    0.755626
      6         16           0        2.409780   -1.462765   -0.794956
      7          1           0        4.891759   -1.607092   -0.683009
      8          6           0        0.277282    0.096562    0.097626
      9         16           0       -0.563916    1.164623   -1.053951
     10          6           0       -2.111079    0.797398   -0.373120
     11          6           0       -2.002328   -0.133504    0.695330
     12          6           0       -0.662584   -0.543532    0.951773
     13          1           0       -0.401384   -1.350554    1.620512
     14         16           0       -3.484936   -1.000717    0.939129
     15          6           0       -4.263084   -0.124645   -0.368371
     16          6           0       -3.394204    0.792659   -0.991342
     17          1           0       -5.242578   -0.396424   -0.734395
     18          1           0       -3.611074    1.237718   -1.956071
     19          8           0        2.465345    2.005716    1.182209
     20          1           0        3.161891    2.653235    1.676549
 ---------------------------------------------------------------------
 Rotational constants (GHZ):           1.2121861           0.2623773           0.2492048
 Standard basis: 6-311+G(d,p) (5D, 7F)
 There are   382 symmetry adapted cartesian basis functions of A   symmetry.
 There are   368 symmetry adapted basis functions of A   symmetry.
   368 basis functions,   594 primitive gaussians,   382 cartesian basis functions
    61 alpha electrons       61 beta electrons
       nuclear repulsion energy      1112.4723116426 Hartrees.
 NAtoms=   20 NActive=   20 NUniq=   20 SFac= 1.00D+00 NAtFMM=   60 NAOKFM=F Big=F
 Integral buffers will be    131072 words long.
 Raffenetti 2 integral format.
 Two-electron integral symmetry is turned on.
 One-electron integrals computed using PRISM.
 NBasis=   368 RedAO= T EigKep=  2.98D-06  NBF=   368
 NBsUse=   367 1.00D-06 EigRej=  4.75D-07 NBFU=   367
 Initial guess from the checkpoint file:  "/tmp/pbs.4729018[260].pbs/Gau-61293.chk"
 B after Tr=     0.000000   -0.000000    0.000000
         Rot=    0.999783   -0.020552    0.000875   -0.003258 Ang=  -2.39 deg.
 ExpMin= 4.05D-02 ExpMax= 9.34D+04 ExpMxC= 3.17D+03 IAcc=3 IRadAn=         5 AccDes= 0.00D+00
 Harris functional with IExCor=  402 and IRadAn=       5 diagonalized for initial guess.
 HarFok:  IExCor=  402 AccDes= 0.00D+00 IRadAn=         5 IDoV= 1 UseB2=F ITyADJ=14
 ICtDFT=  3500011 ScaDFX=  1.000000  1.000000  1.000000  1.000000
 FoFCou: FMM=F IPFlag=           0 FMFlag=      100000 FMFlg1=           0
         NFxFlg=           0 DoJE=T BraDBF=F KetDBF=T FulRan=T
         wScrn=  0.000000 ICntrl=       500 IOpCl=  0 I1Cent=   200000004 NGrid=           0
         NMat0=    1 NMatS0=      1 NMatT0=    0 NMatD0=    1 NMtDS0=    0 NMtDT0=    0
 Petite list used in FoFCou.
 Requested convergence on RMS density matrix=1.00D-08 within 128 cycles.
 Requested convergence on MAX density matrix=1.00D-06.
 Requested convergence on             energy=1.00D-06.
 No special actions if energy rises.
 SCF Done:  E(RB3LYP) =  -1654.58310237     A.U. after   14 cycles
            NFock= 14  Conv=0.71D-08     -V/T= 2.0027
 Calling FoFJK, ICntrl=      2127 FMM=F ISym2X=0 I1Cent= 0 IOpClX= 0 NMat=1 NMatS=1 NMatT=0.
 ***** Axes restored to original set *****
 -------------------------------------------------------------------
 Center     Atomic                   Forces (Hartrees/Bohr)
 Number     Number              X              Y              Z
 -------------------------------------------------------------------
      1        6           0.004118625   -0.024673606    0.003292304
      2        6           0.029257124    0.031841051    0.010144538
      3        6          -0.029108546    0.013734315   -0.000597070
      4        6           0.006486398    0.030803622   -0.009898109
      5        1          -0.000197359    0.001769996    0.000519102
      6       16          -0.002229986    0.010904269   -0.002992288
      7        1           0.002065611   -0.003182162    0.000012510
      8        6           0.023909411   -0.005195174   -0.031947594
      9       16          -0.009055045    0.008126049   -0.003542074
     10        6          -0.001106196   -0.019428679   -0.013994925
     11        6          -0.008736472   -0.001365630    0.024603258
     12        6          -0.008995669    0.010700232    0.032398915
     13        1          -0.003378384    0.004697470   -0.001245561
     14       16           0.012179550    0.003710926   -0.000226275
     15        6          -0.016254328    0.017196927    0.029918074
     16        6           0.008129459   -0.022957167   -0.025639107
     17        1           0.000726081    0.002797025   -0.005722822
     18        1           0.002986509    0.006181035   -0.003837888
     19        8          -0.034297301    0.012223455   -0.005242751
     20        1           0.023500517   -0.077883953    0.003997764
 -------------------------------------------------------------------
 Cartesian Forces:  Max     0.077883953 RMS     0.018330884

 GradGradGradGradGradGradGradGradGradGradGradGradGradGradGradGradGradGrad
 Berny optimization.
 Using GEDIIS/GDIIS optimizer.
 FormGI is forming the generalized inverse of G from B-inverse, IUseBI=4.
 Internal  Forces:  Max     0.078216843 RMS     0.013442508
 Search for a local minimum.
 Step number   2 out of a maximum of  116
 All quantities printed in internal units (Hartrees-Bohrs-Radians)
 Mixed Optimization -- RFO/linear search
 Update second derivatives using D2CorX and points    1    2
 DE= -5.32D-02 DEPred=-4.96D-02 R= 1.07D+00
 TightC=F SS=  1.41D+00  RLast= 3.19D-01 DXNew= 5.0454D-01 9.5658D-01
 Trust test= 1.07D+00 RLast= 3.19D-01 DXMaxT set to 5.05D-01
 ITU=  1  0
 Use linear search instead of GDIIS.
     Eigenvalues ---    0.00230   0.00995   0.01054   0.01219   0.01272
     Eigenvalues ---    0.01294   0.01343   0.01400   0.01460   0.01490
     Eigenvalues ---    0.01499   0.01592   0.01593   0.01735   0.02115
     Eigenvalues ---    0.02492   0.14375   0.15294   0.15761   0.15831
     Eigenvalues ---    0.15999   0.16028   0.18355   0.20993   0.22462
     Eigenvalues ---    0.22539   0.23393   0.24137   0.24337   0.24980
     Eigenvalues ---    0.25009   0.25644   0.26273   0.26620   0.28471
     Eigenvalues ---    0.28543   0.30897   0.31248   0.31520   0.34865
     Eigenvalues ---    0.35141   0.35827   0.36005   0.36081   0.36084
     Eigenvalues ---    0.36184   0.36384   0.37569   0.38137   0.39299
     Eigenvalues ---    0.39616   0.40579   0.424521000.000001000.00000
     Eigenvalues --- 1000.000001000.000001000.000001000.000001000.00000
     Eigenvalues --- 1000.000001000.000001000.000001000.000001000.00000
     Eigenvalues --- 1000.000001000.000001000.000001000.000001000.00000
     Eigenvalues --- 1000.000001000.000001000.000001000.000001000.00000
     Eigenvalues --- 1000.000001000.000001000.000001000.000001000.00000
     Eigenvalues --- 1000.000001000.000001000.000001000.000001000.00000
     Eigenvalues --- 1000.000001000.000001000.000001000.000001000.00000
     Eigenvalues --- 1000.000001000.000001000.000001000.000001000.00000
     Eigenvalues --- 1000.000001000.000001000.000001000.000001000.00000
     Eigenvalues --- 1000.000001000.000001000.000001000.000001000.00000
     Eigenvalues --- 1000.00000
 RFO step:  Lambda=-8.31049266D-03 EMin= 2.30083607D-03
 Quartic linear search produced a step of  1.40324.
 Iteration  1 RMS(Cart)=  0.09564289 RMS(Int)=  0.01544125
 Iteration  2 RMS(Cart)=  0.01828282 RMS(Int)=  0.00094105
 Iteration  3 RMS(Cart)=  0.00026752 RMS(Int)=  0.00091117
 Iteration  4 RMS(Cart)=  0.00000029 RMS(Int)=  0.00091117
 Iteration  1 RMS(Cart)=  0.00001861 RMS(Int)=  0.00000788
 Iteration  2 RMS(Cart)=  0.00001015 RMS(Int)=  0.00000880
 Iteration  3 RMS(Cart)=  0.00000554 RMS(Int)=  0.00000994
 Iteration  4 RMS(Cart)=  0.00000302 RMS(Int)=  0.00001070
 Iteration  5 RMS(Cart)=  0.00000165 RMS(Int)=  0.00001114
 Iteration  6 RMS(Cart)=  0.00000090 RMS(Int)=  0.00001139
 Variable       Old X    -DE/DX   Delta X   Delta X   Delta X     New X
                                 (Linear)    (Quad)   (Total)
    R1        2.69210  -0.00791  -0.03798   0.03620  -0.00142   2.69069
    R2        2.65097  -0.02996  -0.08832   0.02401  -0.06441   2.58657
    R3        2.03985   0.00131   0.00270   0.00215   0.00485   2.04471
    R4        2.67898  -0.03683  -0.11237   0.02551  -0.08647   2.59251
    R5        2.77631  -0.06463  -0.18354  -0.06099  -0.24453   2.53178
    R6        3.36215  -0.01157  -0.04720   0.02419  -0.02310   3.33905
    R7        2.74267  -0.00006  -0.00963   0.02182   0.01219   2.75487
    R8        3.26981  -0.00672  -0.02371   0.01172  -0.01244   3.25738
    R9        2.03980  -0.00029  -0.00131   0.00119  -0.00012   2.03968
   R10        3.36695  -0.00644  -0.02216   0.00797  -0.01504   3.35190
   R11        2.68756  -0.03948  -0.11178   0.00707  -0.10523   2.58233
   R12        3.26879   0.00193  -0.00140   0.01913   0.01793   3.28672
   R13        2.68580  -0.01826  -0.05131   0.00290  -0.04677   2.63903
   R14        2.69154   0.00060  -0.00410   0.00909   0.00548   2.69701
   R15        2.69165  -0.00410  -0.02064   0.01895  -0.00123   2.69042
   R16        3.27835   0.00344   0.00497   0.01524   0.02030   3.29865
   R17        2.04118   0.00086   0.00235   0.00011   0.00246   2.04364
   R18        3.31784  -0.00676  -0.02370   0.00997  -0.01451   3.30333
   R19        2.66209  -0.03490  -0.09729   0.01134  -0.08635   2.57574
   R20        2.04164  -0.00074  -0.00263   0.00133  -0.00130   2.04034
   R21        2.04912  -0.00210  -0.00759   0.00393  -0.00366   2.04546
   R22        2.02547  -0.07822  -0.21924  -0.08631  -0.30556   1.71992
    A1        1.96188  -0.00120  -0.01167   0.01023  -0.00087   1.96102
    A2        2.17565  -0.00047   0.00330  -0.01214  -0.00915   2.16651
    A3        2.14565   0.00167   0.00838   0.00192   0.01000   2.15564
    A4        1.99623   0.00591   0.03418  -0.03800  -0.00468   1.99155
    A5        2.21267  -0.00383  -0.00692  -0.00485  -0.01440   2.19827
    A6        2.05378  -0.00127  -0.02193   0.05913   0.03489   2.08868
    A7        1.89416  -0.00034  -0.01436   0.03323   0.01952   1.91368
    A8        2.31184  -0.00605  -0.00993  -0.02869  -0.03900   2.27284
    A9        2.07696   0.00639   0.02420  -0.00413   0.01968   2.09664
   A10        1.95054  -0.00011  -0.00400   0.01106   0.00690   1.95744
   A11        2.18572   0.00391   0.01392   0.01079   0.02478   2.21051
   A12        2.14676  -0.00380  -0.00995  -0.02190  -0.03176   2.11500
   A13        1.62195  -0.00426  -0.00413  -0.01660  -0.02122   1.60073
   A14        2.12381  -0.00295  -0.00690  -0.00802  -0.01491   2.10889
   A15        2.23483  -0.00214  -0.00826   0.00308  -0.00517   2.22966
   A16        1.92407   0.00514   0.01545   0.00491   0.02029   1.94436
   A17        1.61144  -0.00427  -0.01055  -0.00678  -0.01669   1.59475
   A18        1.94604  -0.00626  -0.02170   0.00962  -0.01306   1.93298
   A19        2.25964   0.00653   0.03002   0.01269   0.03975   2.29939
   A20        1.97475   0.00290   0.01299  -0.00713   0.00563   1.98038
   A21        1.97781   0.00355   0.01596  -0.00945   0.00609   1.98390
   A22        1.94730  -0.00720  -0.02697   0.01633  -0.01173   1.93557
   A23        2.25834   0.00657   0.02991   0.01289   0.03968   2.29802
   A24        1.96482   0.00187   0.00102   0.00190   0.00369   1.96851
   A25        2.15112  -0.00344  -0.01223   0.00493  -0.00828   2.14284
   A26        2.15795   0.00205   0.01487  -0.00424   0.00965   2.16760
   A27        1.59548  -0.00099   0.00336  -0.01649  -0.01240   1.58308
   A28        1.96154   0.00227   0.00211   0.01456   0.01609   1.97763
   A29        2.12774  -0.00476  -0.01171  -0.01878  -0.03155   2.09618
   A30        2.18116   0.00332   0.01581   0.00859   0.02355   2.20471
   A31        1.94536   0.00303   0.00849  -0.00655   0.00270   1.94806
   A32        2.17121  -0.00031   0.00688  -0.00631  -0.00089   2.17032
   A33        2.13808  -0.00129  -0.00434   0.01534   0.00964   2.14772
   A34        2.18602  -0.04596  -0.19059  -0.03866  -0.22925   1.95677
    D1        0.00387  -0.00019  -0.00415   0.02748   0.02323   0.02710
    D2       -2.91476  -0.00454  -0.02922  -0.06687  -0.09473  -3.00949
    D3       -3.13653   0.00085   0.00419   0.02410   0.02792  -3.10862
    D4        0.22802  -0.00349  -0.02088  -0.07024  -0.09004   0.13798
    D5       -0.00462   0.00024   0.00293  -0.01421  -0.01097  -0.01559
    D6       -3.12694   0.00048   0.00457  -0.01128  -0.00668  -3.13362
    D7        3.13581  -0.00079  -0.00523  -0.01091  -0.01564   3.12017
    D8        0.01349  -0.00055  -0.00359  -0.00798  -0.01135   0.00215
    D9       -0.00134   0.00009   0.00356  -0.02732  -0.02400  -0.02534
   D10        3.11659   0.00021  -0.00144  -0.00526  -0.00724   3.10936
   D11        2.93891   0.00355   0.02756   0.05055   0.07954   3.01845
   D12       -0.22634   0.00368   0.02256   0.07260   0.09630  -0.13004
   D13       -0.27544   0.00164   0.00661   0.08633   0.09321  -0.18223
   D14        3.09557  -0.00362  -0.02604   0.00042  -0.02588   3.06969
   D15       -0.00110   0.00004  -0.00163   0.01606   0.01490   0.01380
   D16       -3.12274   0.00012   0.00296  -0.00206   0.00104  -3.12170
   D17        1.48348  -0.00123  -0.00000   0.00000   0.00001   1.48349
   D18       -1.69468   0.00071   0.01033  -0.00109   0.00943  -1.68526
   D19       -1.68376  -0.00119  -0.00582   0.02426   0.01814  -1.66561
   D20        1.42126   0.00075   0.00452   0.02317   0.02756   1.44882
   D21        0.00330  -0.00015  -0.00064  -0.00129  -0.00211   0.00119
   D22        3.12612  -0.00029  -0.00196  -0.00373  -0.00543   3.12068
   D23        3.13955   0.00052   0.00236  -0.00289  -0.00061   3.13894
   D24        0.02865  -0.00100  -0.00587  -0.00199  -0.00824   0.02041
   D25        3.14015  -0.00103  -0.00588   0.00837   0.00264  -3.14040
   D26       -0.14290   0.00285   0.02163   0.02757   0.04904  -0.09386
   D27       -0.03461   0.00061   0.00310   0.00716   0.01076  -0.02385
   D28        2.96552   0.00449   0.03061   0.02635   0.05717   3.02269
   D29       -0.01547   0.00133   0.00795  -0.00380   0.00405  -0.01142
   D30       -2.64467  -0.00613  -0.04056  -0.03685  -0.07816  -2.72282
   D31       -0.00172  -0.00100  -0.00696   0.00884   0.00197   0.00025
   D32       -2.72453  -0.00848  -0.05111  -0.03333  -0.08164  -2.80617
   D33        2.71566   0.00686   0.04100   0.04146   0.08010   2.79576
   D34       -0.00715  -0.00063  -0.00315  -0.00070  -0.00351  -0.01067
   D35        2.64422   0.00584   0.04335   0.01941   0.06428   2.70851
   D36       -0.24753  -0.00015  -0.00021   0.00647   0.00736  -0.24017
   D37        0.02171   0.00037   0.00280  -0.01806  -0.01566   0.00605
   D38       -2.87005  -0.00562  -0.04075  -0.03100  -0.07258  -2.94263
   D39        0.02401   0.00028   0.00244  -0.01049  -0.00840   0.01561
   D40       -2.97548  -0.00311  -0.02231  -0.03064  -0.05387  -3.02935
   D41        2.65428   0.00509   0.03718   0.04034   0.07899   2.73327
   D42       -0.34521   0.00171   0.01244   0.02020   0.03352  -0.31169
   D43       -0.00684   0.00073   0.00249   0.01432   0.01634   0.00949
   D44       -2.64413  -0.00643  -0.04213  -0.02987  -0.07288  -2.71700
   D45        0.01940  -0.00045  -0.00074  -0.02473  -0.02571  -0.00631
   D46        2.99808   0.00515   0.03752   0.00416   0.04009   3.03816
   D47       -0.02669   0.00018  -0.00081   0.02843   0.02810   0.00141
   D48        2.87058   0.00619   0.04385   0.03755   0.08243   2.95301
   D49       -2.99946  -0.00472  -0.03686   0.00149  -0.03642  -3.03588
   D50       -0.10218   0.00129   0.00779   0.01062   0.01791  -0.08428
         Item               Value     Threshold  Converged?
 Maximum Force            0.078217     0.000450     NO 
 RMS     Force            0.013505     0.000300     NO 
 Maximum Displacement     0.750468     0.001800     NO 
 RMS     Displacement     0.104636     0.001200     NO 
 Predicted change in Energy=-4.981673D-02
 GradGradGradGradGradGradGradGradGradGradGradGradGradGradGradGradGradGrad

                          Input orientation:                          
 ---------------------------------------------------------------------
 Center     Atomic      Atomic             Coordinates (Angstroms)
 Number     Number       Type             X           Y           Z
 ---------------------------------------------------------------------
      1          6           0       -4.160449   -1.273891   -0.233729
      2          6           0       -2.813533   -0.977751   -0.587944
      3          6           0       -1.982452   -2.069257   -0.592712
      4          6           0       -4.341344   -2.597372    0.064860
      5          1           0       -4.956361   -0.541376   -0.207356
      6         16           0       -2.886489   -3.506402   -0.103388
      7          1           0       -5.266585   -3.072046    0.354021
      8          6           0       -0.568581   -2.174505   -0.931991
      9         16           0        0.684107   -1.836380    0.277404
     10          6           0        1.944451   -2.176891   -0.871771
     11          6           0        1.403074   -2.543217   -2.105855
     12          6           0       -0.020473   -2.549428   -2.126293
     13          1           0       -0.614836   -2.901008   -2.958554
     14         16           0        2.581280   -3.390508   -3.075876
     15          6           0        3.766527   -3.248543   -1.798886
     16          6           0        3.300149   -2.588983   -0.701021
     17          1           0        4.723275   -3.740398   -1.890937
     18          1           0        3.834093   -2.557714    0.240013
     19          8           0       -2.303987    0.244716   -0.790164
     20          1           0       -2.950869    0.883955   -0.825822
 ---------------------------------------------------------------------
                    Distance matrix (angstroms):
                    1          2          3          4          5
     1  C    0.000000
     2  C    1.423851   0.000000
     3  C    2.346305   1.371897   0.000000
     4  C    1.368751   2.320244   2.505131   0.000000
     5  H    1.082012   2.219681   3.365569   2.163208   0.000000
     6  S    2.573726   2.575692   1.766949   1.723730   3.617535
     7  H    2.191426   3.360184   3.561941   1.079352   2.610685
     8  C    3.768314   2.567176   1.457813   3.925082   4.737596
     9  S    4.903812   3.703991   2.814581   5.087184   5.807487
    10  C    6.204217   4.914967   3.938277   6.369090   7.123030
    11  C    6.005733   4.747053   3.738452   6.141114   6.932105
    12  C    4.727388   3.554978   2.536099   4.844933   5.663708
    13  H    4.758524   3.762044   2.856464   4.808335   5.655598
    14  S    7.616350   6.412114   5.360920   7.643037   8.553479
    15  C    8.317807   7.065413   5.991355   8.344768   9.270949
    16  C    7.590017   6.323445   5.309211   7.679783   8.520936
    17  H    9.367526   8.132249   7.031704   9.343391  10.332644
    18  H    8.110815   6.882784   5.896118   8.177409   9.029830
    19  O    2.462162   1.339760   2.344534   3.599911   2.827135
    20  H    2.543611   1.881860   3.116670   3.853099   2.536940
                    6          7          8          9         10
     6  S    0.000000
     7  H    2.462264   0.000000
     8  C    2.798791   4.952843   0.000000
     9  S    3.960193   6.078115   1.773750   0.000000
    10  C    5.069122   7.369051   2.513755   1.739258   0.000000
    11  C    4.830937   7.128465   2.324076   2.587751   1.396512
    12  C    3.636206   5.826387   1.366509   2.604348   2.360834
    13  H    3.698497   5.713246   2.153347   3.645834   3.380675
    14  S    6.224598   8.570566   3.999567   4.154403   2.595477
    15  C    6.870504   9.287803   4.549531   3.975739   2.308234
    16  C    6.282779   8.644964   3.897719   2.892646   1.427198
    17  H    7.820396  10.260791   5.601369   4.964057   3.347404
    18  H    6.795892   9.115913   4.572087   3.231738   2.225272
    19  O    3.857701   4.592065   2.980667   3.794650   4.890814
    20  H    4.449864   4.733341   3.878239   4.672299   5.773651
                   11         12         13         14         15
    11  C    0.000000
    12  C    1.423707   0.000000
    13  H    2.219701   1.081450   0.000000
    14  S    1.745570   2.894519   3.235512   0.000000
    15  C    2.485483   3.864884   4.545542   1.748047   0.000000
    16  C    2.361048   3.613793   4.530003   2.607519   1.363025
    17  H    3.535981   4.896625   5.508158   2.472780   1.079704
    18  H    3.378336   4.522958   5.490141   3.641182   2.153815
    19  O    4.821402   3.847976   4.177406   6.504242   7.076123
    20  H    5.686898   4.697506   4.932701   7.344280   7.946559
                   16         17         18         19         20
    16  C    0.000000
    17  H    2.183333   0.000000
    18  H    1.082413   2.594289   0.000000
[...]
 ---------------------------------------------------------------------
 Center     Atomic      Atomic             Coordinates (Angstroms)
 Number     Number       Type             X           Y           Z
 ---------------------------------------------------------------------
      1          6           0        3.983563    0.378717    0.544066
      2          6           0        2.608067    0.722594    0.714826
      3          6           0        1.740387   -0.098048    0.033904
      4          6           0        4.150611   -0.703183   -0.271160
      5          1           0        4.801880    0.912791    1.011813
      6         16           0        2.644876   -1.321355   -0.843378
      7          1           0        5.076398   -1.174384   -0.563664
      8          6           0        0.282313   -0.038202   -0.011338
      9         16           0       -0.528502    1.030266   -1.169859
     10          6           0       -2.091431    0.515387   -0.604789
     11          6           0       -1.961255   -0.425678    0.409136
     12          6           0       -0.617585   -0.743106    0.744219
     13          1           0       -0.312754   -1.446795    1.506449
     14         16           0       -3.527781   -0.939590    0.978401
     15          6           0       -4.316735    0.125829   -0.161965
     16          6           0       -3.440978    0.833824   -0.933025
     17          1           0       -5.395259    0.158906   -0.188402
     18          1           0       -3.747415    1.540893   -1.691280
     19          8           0        2.154578    1.756367    1.481431
     20          1           0        2.901292    2.239711    1.847756
 ---------------------------------------------------------------------
 Rotational constants (GHZ):           1.2953500           0.2568591           0.2520825

 **********************************************************************

            Population analysis using the SCF Density.

 **********************************************************************

 Orbital symmetries:
       Occupied  (A) (A) (A) (A) (A) (A) (A) (A) (A) (A) (A) (A)
                 (A) (A) (A) (A) (A) (A) (A) (A) (A) (A) (A) (A)
                 (A) (A) (A) (A) (A) (A) (A) (A) (A) (A) (A) (A)
                 (A) (A) (A) (A) (A) (A) (A) (A) (A) (A) (A) (A)
                 (A) (A) (A) (A) (A) (A) (A) (A) (A) (A) (A) (A)
                 (A)
       Virtual   (A) (A) (A) (A) (A) (A) (A) (A) (A) (A) (A) (A)
                 (A) (A) (A) (A) (A) (A) (A) (A) (A) (A) (A) (A)
                 (A) (A) (A) (A) (A) (A) (A) (A) (A) (A) (A) (A)
                 (A) (A) (A) (A) (A) (A) (A) (A) (A) (A) (A) (A)
                 (A) (A) (A) (A) (A) (A) (A) (A) (A) (A) (A) (A)
                 (A) (A) (A) (A) (A) (A) (A) (A) (A) (A) (A) (A)
                 (A) (A) (A) (A) (A) (A) (A) (A) (A) (A) (A) (A)
                 (A) (A) (A) (A) (A) (A) (A) (A) (A) (A) (A) (A)
                 (A) (A) (A) (A) (A) (A) (A) (A) (A) (A) (A) (A)
                 (A) (A) (A) (A) (A) (A) (A) (A) (A) (A) (A) (A)
                 (A) (A) (A) (A) (A) (A) (A) (A) (A) (A) (A) (A)
                 (A) (A) (A) (A) (A) (A) (A) (A) (A) (A) (A) (A)
                 (A) (A) (A) (A) (A) (A) (A) (A) (A) (A) (A) (A)
                 (A) (A) (A) (A) (A) (A) (A) (A) (A) (A) (A) (A)
                 (A) (A) (A) (A) (A) (A) (A) (A) (A) (A) (A) (A)
                 (A) (A) (A) (A) (A) (A) (A) (A) (A) (A) (A) (A)
                 (A) (A) (A) (A) (A) (A) (A) (A) (A) (A) (A) (A)
                 (A) (A) (A) (A) (A) (A) (A) (A) (A) (A) (A) (A)
                 (A) (A) (A) (A) (A) (A) (A) (A) (A) (A) (A) (A)
                 (A) (A) (A) (A) (A) (A) (A) (A) (A) (A) (A) (A)
                 (A) (A) (A) (A) (A) (A) (A) (A) (A) (A) (A) (A)
                 (A) (A) (A) (A) (A) (A) (A) (A) (A) (A) (A) (A)
                 (A) (A) (A) (A) (A) (A) (A) (A) (A) (A) (A) (A)
                 (A) (A) (A) (A) (A) (A) (A) (A) (A) (A) (A) (A)
                 (A) (A) (A) (A) (A) (A) (A) (A) (A) (A) (A) (A)
                 (A) (A) (A) (A) (A) (A)
 The electronic state is 1-A.
 Alpha  occ. eigenvalues --  -88.88416 -88.88090 -88.87732 -19.16710 -10.24853
 Alpha  occ. eigenvalues --  -10.21813 -10.21368 -10.20936 -10.20751 -10.20741
 Alpha  occ. eigenvalues --  -10.20672 -10.19144 -10.19002 -10.18968  -7.97007
 Alpha  occ. eigenvalues --   -7.96665  -7.96303  -5.93305  -5.92977  -5.92930
 Alpha  occ. eigenvalues --   -5.92618  -5.92613  -5.92588  -5.92255  -5.92214
 Alpha  occ. eigenvalues --   -5.91840  -1.07804  -0.91215  -0.89169  -0.84619
 Alpha  occ. eigenvalues --   -0.76936  -0.76018  -0.74118  -0.71002  -0.70148
 Alpha  occ. eigenvalues --   -0.61699  -0.60791  -0.57152  -0.55797  -0.53784
 Alpha  occ. eigenvalues --   -0.51899  -0.49356  -0.48356  -0.45247  -0.43649
 Alpha  occ. eigenvalues --   -0.43272  -0.41388  -0.40925  -0.39468  -0.39006
 Alpha  occ. eigenvalues --   -0.37736  -0.36862  -0.36047  -0.35655  -0.33864
 Alpha  occ. eigenvalues --   -0.33372  -0.28635  -0.25801  -0.23440  -0.23193
 Alpha  occ. eigenvalues --   -0.22141
 Alpha virt. eigenvalues --   -0.04307  -0.03406  -0.01649  -0.00220   0.00138
 Alpha virt. eigenvalues --    0.00293   0.00727   0.01648   0.02091   0.02821
 Alpha virt. eigenvalues --    0.03071   0.03629   0.03825   0.04304   0.04718
 Alpha virt. eigenvalues --    0.04827   0.05278   0.06137   0.06261   0.06705
 Alpha virt. eigenvalues --    0.07742   0.08181   0.08529   0.09082   0.09454
 Alpha virt. eigenvalues --    0.09668   0.10243   0.10681   0.11521   0.12148
 Alpha virt. eigenvalues --    0.12433   0.12880   0.13150   0.13283   0.13375
 Alpha virt. eigenvalues --    0.14134   0.14586   0.14943   0.15168   0.15557
 Alpha virt. eigenvalues --    0.16152   0.16642   0.17221   0.17317   0.17611
 Alpha virt. eigenvalues --    0.18351   0.18395   0.19099   0.19261   0.19808
 Alpha virt. eigenvalues --    0.19939   0.20741   0.20826   0.21166   0.21427
 Alpha virt. eigenvalues --    0.21954   0.22404   0.22663   0.23074   0.24080
 Alpha virt. eigenvalues --    0.24318   0.24789   0.25154   0.25639   0.26422
 Alpha virt. eigenvalues --    0.26692   0.27695   0.27957   0.29121   0.29692
 Alpha virt. eigenvalues --    0.30337   0.30758   0.31775   0.32691   0.33275
 Alpha virt. eigenvalues --    0.33718   0.34681   0.35243   0.35458   0.36100
 Alpha virt. eigenvalues --    0.37073   0.38486   0.39696   0.40992   0.42233
 Alpha virt. eigenvalues --    0.42717   0.44447   0.45399   0.46288   0.46791
 Alpha virt. eigenvalues --    0.47872   0.49101   0.50090   0.52643   0.52961
 Alpha virt. eigenvalues --    0.55572   0.56178   0.56369   0.56636   0.58239
 Alpha virt. eigenvalues --    0.58879   0.59313   0.59513   0.60937   0.61382
 Alpha virt. eigenvalues --    0.62249   0.63230   0.64285   0.65320   0.66173
 Alpha virt. eigenvalues --    0.66392   0.68963   0.70026   0.70830   0.71671
 Alpha virt. eigenvalues --    0.72443   0.73315   0.73552   0.73839   0.75047
 Alpha virt. eigenvalues --    0.76335   0.77063   0.78560   0.79264   0.79586
 Alpha virt. eigenvalues --    0.80983   0.81615   0.82488   0.82872   0.83396
 Alpha virt. eigenvalues --    0.83694   0.84786   0.85794   0.86233   0.86602
 Alpha virt. eigenvalues --    0.88407   0.89504   0.90442   0.91687   0.93124
 Alpha virt. eigenvalues --    0.93890   0.95715   0.96311   0.96656   0.98603
 Alpha virt. eigenvalues --    1.00835   1.02250   1.03146   1.03992   1.04680
 Alpha virt. eigenvalues --    1.05336   1.06612   1.06758   1.08784   1.09957
 Alpha virt. eigenvalues --    1.10828   1.12496   1.14321   1.16642   1.18051
 Alpha virt. eigenvalues --    1.19260   1.21044   1.24126   1.29126   1.30261
 Alpha virt. eigenvalues --    1.34464   1.34823   1.36126   1.38008   1.40569
 Alpha virt. eigenvalues --    1.43655   1.46986   1.50051   1.51558   1.54577
 Alpha virt. eigenvalues --    1.56208   1.57554   1.59768   1.60047   1.60246
 Alpha virt. eigenvalues --    1.62736   1.63377   1.64477   1.67584   1.68808
 Alpha virt. eigenvalues --    1.71090   1.71989   1.72779   1.73377   1.74798
 Alpha virt. eigenvalues --    1.77112   1.77543   1.78335   1.79554   1.81334
 Alpha virt. eigenvalues --    1.84263   1.85395   1.87473   1.88523   1.89490
 Alpha virt. eigenvalues --    1.90851   1.92389   1.93836   1.96653   1.97173
 Alpha virt. eigenvalues --    1.99759   1.99875   2.01936   2.04382   2.05705
 Alpha virt. eigenvalues --    2.06195   2.08142   2.08948   2.09699   2.10597
 Alpha virt. eigenvalues --    2.11613   2.13878   2.14808   2.16648   2.17847
 Alpha virt. eigenvalues --    2.19111   2.19816   2.28594   2.33097   2.37700
 Alpha virt. eigenvalues --    2.41055   2.42444   2.43951   2.49983   2.53143
 Alpha virt. eigenvalues --    2.56164   2.58579   2.62786   2.63513   2.69066
 Alpha virt. eigenvalues --    2.70252   2.70560   2.71226   2.72929   2.73872
 Alpha virt. eigenvalues --    2.74184   2.77795   2.78810   2.83395   2.87843
 Alpha virt. eigenvalues --    2.89892   2.91932   2.95040   2.96363   2.97601
 Alpha virt. eigenvalues --    3.02207   3.05652   3.08364   3.10843   3.11566
 Alpha virt. eigenvalues --    3.16446   3.17266   3.20127   3.28873   3.29694
 Alpha virt. eigenvalues --    3.30965   3.31417   3.36759   3.44156   3.46890
 Alpha virt. eigenvalues --    3.47367   3.52228   3.58086   3.70056   3.87882
 Alpha virt. eigenvalues --    3.93838   3.98239   4.05671   4.10972   4.19831
 Alpha virt. eigenvalues --    4.35429   4.49309   5.01020   5.46066   5.73721
 Alpha virt. eigenvalues --    7.97256   7.99037   8.00274  17.28620  17.29772
 Alpha virt. eigenvalues --   17.31405  17.45796  17.46404  17.50180  17.51833
 Alpha virt. eigenvalues --   17.54260  17.56979  23.47235  23.62879  23.77408
 Alpha virt. eigenvalues --   23.80706  23.86324  24.02144  24.05910  24.13921
 Alpha virt. eigenvalues --   24.14174  24.15571  49.93692 189.13586 189.15884
 Alpha virt. eigenvalues --  189.17545
          Condensed to atoms (all electrons):
               1          2          3          4          5          6
     1  C    8.296980  -2.888325   0.660551  -0.817954   0.377133   0.507235
     2  C   -2.888325  13.833108  -3.312882   1.952553  -0.032830  -1.677996
     3  C    0.660551  -3.312882  10.389611  -1.275578  -0.027171   0.400761
     4  C   -0.817954   1.952553  -1.275578   6.418630   0.040680  -0.111633
     5  H    0.377133  -0.032830  -0.027171   0.040680   0.538027   0.005707
     6  S    0.507235  -1.677996   0.400761  -0.111633   0.005707  16.741199
     7  H    0.033064  -0.041028   0.026902   0.353056  -0.005281  -0.014493
     8  C    0.338896  -1.637779   1.375826  -0.402248  -0.012488   0.081367
     9  S   -0.117987   0.271789   0.644877   0.047729   0.000003   0.022633
    10  C    0.020276  -0.053996  -1.393517  -0.011152  -0.000457   0.006422
    11  C   -0.239119  -0.092319   1.629441   0.107384   0.000389   0.026997
    12  C    0.009622   0.053204  -3.278285  -0.084675  -0.001055   0.075679
    13  H    0.001926   0.008018   0.047077   0.002558   0.000001  -0.002116
    14  S   -0.010735  -0.004113  -0.002563   0.003457  -0.000002  -0.002310
    15  C   -0.003199  -0.001718   0.026280   0.001006   0.000001  -0.004066
    16  C    0.000676  -0.103165  -0.229499  -0.001260  -0.000035   0.022014
    17  H    0.000001  -0.000010  -0.000095  -0.000001   0.000000   0.000013
    18  H   -0.000019  -0.000112  -0.000598   0.000004   0.000000  -0.000026
    19  O    0.103794  -0.048915   0.040062  -0.032203  -0.007218   0.053534
    20  H   -0.214610   0.245064  -0.044650   0.017621   0.004554  -0.023171
               7          8          9         10         11         12
     1  C    0.033064   0.338896  -0.117987   0.020276  -0.239119   0.009622
     2  C   -0.041028  -1.637779   0.271789  -0.053996  -0.092319   0.053204
     3  C    0.026902   1.375826   0.644877  -1.393517   1.629441  -3.278285
     4  C    0.353056  -0.402248   0.047729  -0.011152   0.107384  -0.084675
     5  H   -0.005281  -0.012488   0.000003  -0.000457   0.000389  -0.001055
     6  S   -0.014493   0.081367   0.022633   0.006422   0.026997   0.075679
     7  H    0.484461   0.001469  -0.000349   0.000085  -0.000706  -0.000607
     8  C    0.001469  11.705941   1.262268  -0.925906   3.044350  -6.297951
     9  S   -0.000349   1.262268  18.308008  -0.232063   2.833795  -4.913845
    10  C    0.000085  -0.925906  -0.232063  19.912769  -4.158461   0.025280
    11  C   -0.000706   3.044350   2.833795  -4.158461  21.878121 -15.176048
    12  C   -0.000607  -6.297951  -4.913845   0.025280 -15.176048  29.903153
    13  H   -0.000001   0.058473   0.020596  -0.078644   0.106884   0.178015
    14  S   -0.000002  -0.696571   0.249911   0.327384  -0.553592  -0.460900
    15  C   -0.000002   0.132906   0.392046   1.793470   0.000215  -1.343079
    16  C    0.000005  -2.352885  -2.332166  -9.465554  -2.911076   6.874256
    17  H    0.000000   0.004307  -0.001948   0.001714   0.023105   0.008288
    18  H    0.000000  -0.007423   0.018947   0.029766  -0.063016  -0.009909
    19  O   -0.000382  -0.028584  -0.011549   0.003979   0.025408  -0.048162
    20  H   -0.000042   0.007607   0.006816   0.003988   0.002073   0.016977
              13         14         15         16         17         18
     1  C    0.001926  -0.010735  -0.003199   0.000676   0.000001  -0.000019
     2  C    0.008018  -0.004113  -0.001718  -0.103165  -0.000010  -0.000112
     3  C    0.047077  -0.002563   0.026280  -0.229499  -0.000095  -0.000598
     4  C    0.002558   0.003457   0.001006  -0.001260  -0.000001   0.000004
     5  H    0.000001  -0.000002   0.000001  -0.000035   0.000000   0.000000
     6  S   -0.002116  -0.002310  -0.004066   0.022014   0.000013  -0.000026
     7  H   -0.000001  -0.000002  -0.000002   0.000005   0.000000   0.000000
     8  C    0.058473  -0.696571   0.132906  -2.352885   0.004307  -0.007423
     9  S    0.020596   0.249911   0.392046  -2.332166  -0.001948   0.018947
    10  C   -0.078644   0.327384   1.793470  -9.465554   0.001714   0.029766
    11  C    0.106884  -0.553592   0.000215  -2.911076   0.023105  -0.063016
    12  C    0.178015  -0.460900  -1.343079   6.874256   0.008288  -0.009909
    13  H    0.522668   0.009944   0.001365  -0.009931  -0.000006   0.000008
    14  S    0.009944  17.239797   0.477033  -0.164560  -0.042513   0.013539
    15  C    0.001365   0.477033   5.961325  -1.621776   0.370209   0.035273
    16  C   -0.009931  -0.164560  -1.621776  17.645756  -0.004052   0.332851
    17  H   -0.000006  -0.042513   0.370209  -0.004052   0.479566  -0.005020
    18  H    0.000008   0.013539   0.035273   0.332851  -0.005020   0.520958
    19  O   -0.000068  -0.000502   0.000238  -0.001593  -0.000000   0.000003
    20  H   -0.000018   0.000143   0.000073   0.000176  -0.000000   0.000000
              19         20
     1  C    0.103794  -0.214610
     2  C   -0.048915   0.245064
     3  C    0.040062  -0.044650
     4  C   -0.032203   0.017621
     5  H   -0.007218   0.004554
     6  S    0.053534  -0.023171
     7  H   -0.000382  -0.000042
     8  C   -0.028584   0.007607
     9  S   -0.011549   0.006816
    10  C    0.003979   0.003988
    11  C    0.025408   0.002073
    12  C   -0.048162   0.016977
    13  H   -0.000068  -0.000018
    14  S   -0.000502   0.000143
    15  C    0.000238   0.000073
    16  C   -0.001593   0.000176
    17  H   -0.000000  -0.000000
    18  H    0.000003   0.000000
    19  O    8.025574   0.165375
    20  H    0.165375   0.553684
 Mulliken charges:
               1
     1  C   -0.058204
     2  C   -0.468548
     3  C    0.323448
     4  C   -0.207974
     5  H    0.120042
     6  S   -0.107750
     7  H    0.163852
     8  C    0.348427
     9  S   -0.469511
    10  C    0.194617
    11  C   -0.483824
    12  C    0.470041
    13  H    0.133252
    14  S   -0.382846
    15  C   -0.217601
    16  C    0.321817
    17  H    0.166442
    18  H    0.134772
    19  O   -0.238792
    20  H    0.258340
 Sum of Mulliken charges =  -0.00000
 Mulliken charges with hydrogens summed into heavy atoms:
               1
     1  C    0.061837
     2  C   -0.468548
     3  C    0.323448
     4  C   -0.044122
     6  S   -0.107750
     8  C    0.348427
     9  S   -0.469511
    10  C    0.194617
    11  C   -0.483824
    12  C    0.603293
    14  S   -0.382846
    15  C   -0.051159
    16  C    0.456589
    19  O    0.019548
 Electronic spatial extent (au):  <R**2>=           4322.0387
 Charge=             -0.0000 electrons
 Dipole moment (field-independent basis, Debye):
    X=              1.9585    Y=              0.6742    Z=              0.6176  Tot=              2.1614
 Quadrupole moment (field-independent basis, Debye-Ang):
   XX=            -78.8532   YY=           -100.7028   ZZ=           -102.1231
   XY=              1.8079   XZ=              6.5311   YZ=              0.0963
 Traceless Quadrupole moment (field-independent basis, Debye-Ang):
   XX=             15.0398   YY=             -6.8098   ZZ=             -8.2301
   XY=              1.8079   XZ=              6.5311   YZ=              0.0963
 Octapole moment (field-independent basis, Debye-Ang**2):
  XXX=             41.2476  YYY=             14.4062  ZZZ=              9.8717  XYY=             20.0729
  XXY=             25.9281  XXZ=              7.5095  XZZ=              9.2063  YZZ=              8.6071
  YYZ=              7.2810  XYZ=             26.9765
 Hexadecapole moment (field-independent basis, Debye-Ang**3):
 XXXX=          -4074.0388 YYYY=           -640.1649 ZZZZ=           -567.5730 XXXY=             10.8694
 XXXZ=             95.2298 YYYX=             44.5509 YYYZ=             27.4305 ZZZX=             36.1553
 ZZZY=             13.0744 XXYY=           -861.3775 XXZZ=           -884.3599 YYZZ=           -174.3079
 XXYZ=             53.8040 YYXZ=             36.9056 ZZXY=             21.3453
 N-N= 1.122018468228D+03 E-N=-6.155805783701D+03  KE= 1.651062368856D+03
 Unable to Open any file for archive entry.
 1\1\GINC-CX3-5-13\FOpt\RB3LYP\6-311+G(d,p)\C10H6O1S3\NS5018\17-Oct-202
 1\0\\# opt=modredundant b3lyp/6-311+g(d,p)\\pBTTT_85.pdb\\0,1\C,-4.131
 1621776,-1.177334134,-0.2342496853\C,-2.7582132585,-1.0099456405,-0.58
 97631986\C,-2.0320895134,-2.1771573977,-0.5713780688\C,-4.4375845326,-
 2.4754584,0.055552385\H,-4.8495778713,-0.3670709567,-0.2023381241\S,-3
 .0682962365,-3.513818132,-0.0982818724\H,-5.3947321962,-2.8800327746,0
 .346859515\C,-0.6186514875,-2.3709597964,-0.8816035633\S,0.6099347501,
 -2.1143220828,0.3697669679\C,1.8806714771,-2.5355010611,-0.74153296\C,
 1.356714534,-2.8544669038,-1.9882581286\C,-0.0589423087,-2.7652556173,
 -2.0685454101\H,-0.6493289589,-2.9699134852,-2.9509583396\S,2.63046705
 21,-3.2733825499,-3.1037121427\C,3.8345554869,-3.0074654649,-1.8637678
 392\C,3.3011123311,-2.6215123036,-0.6682689608\H,4.8761027792,-3.15722
 2105,-2.1040994103\H,3.893265103,-2.4122927421,0.2117216577\O,-2.18310
 86132,0.1793723331,-0.9315224815\H,-2.8301363591,0.8867392143,-0.85162
 03402\\Version=ES64L-G16RevC.01\State=1-A\HF=-1654.6292686\RMSD=4.958e
 -09\RMSF=1.536e-04\Dipole=-0.7058505,0.4634887,0.1002156\Quadrupole=10
 .4989042,-3.7900072,-6.7088971,-5.6712915,-0.7860326,1.3639911\PG=C01 
 [X(C10H6O1S3)]\\@
 The archive entry for this job was punched.


 ADAM SMITH SAID, "THE REAL PRICE OF ANYTHING IS THE TOIL AND TROUBLE
 OF ACQUIRING IT."  BUT IN ALL UNDERTAKINGS WITH NATURE WE SHOULD FIRST
 READ CAREFULLY THE SMALL PRINT IN THE CONTRACT. THIS MIGHT DISCLOSE
 THAT THE REAL PRICE IS TO BE PAID BY THOSE WHO INHERIT THE DEPLETION
 AND DESPOILATION THAT FOLLOWS.
                               -- E. R. HARRISON IN "COSMOLOGY" (1980)
 Job cpu time:       0 days  3 hours  3 minutes  3.7 seconds.
 Elapsed time:       0 days  0 hours 23 minutes 18.9 seconds.
 File lengths (MBytes):  RWF=     86 Int=      0 D2E=      0 Chk=     11 Scr=      1
 Normal termination of Gaussian 16 at Sun Oct 17 02:28:54 2021.
