 Entering Gaussian System, Link 0=g16
 Input=pBTTT_110.gjf
 Output=pBTTT_110.log
 Initial command:
 /apps/gaussian/g16-c01-avx/g16/l1.exe "/tmp/pbs.4729018[285].pbs/Gau-3024660.inp" -scrdir="/tmp/pbs.4729018[285].pbs/"
 Entering Link 1 = /apps/gaussian/g16-c01-avx/g16/l1.exe PID=   3024661.
  
 Copyright (c) 1988-2019, Gaussian, Inc.  All Rights Reserved.
  
 This is part of the Gaussian(R) 16 program.  It is based on
 the Gaussian(R) 09 system (copyright 2009, Gaussian, Inc.),
 the Gaussian(R) 03 system (copyright 2003, Gaussian, Inc.),
 the Gaussian(R) 98 system (copyright 1998, Gaussian, Inc.),
 the Gaussian(R) 94 system (copyright 1995, Gaussian, Inc.),
 the Gaussian 92(TM) system (copyright 1992, Gaussian, Inc.),
 the Gaussian 90(TM) system (copyright 1990, Gaussian, Inc.),
 the Gaussian 88(TM) system (copyright 1988, Gaussian, Inc.),
 the Gaussian 86(TM) system (copyright 1986, Carnegie Mellon
 University), and the Gaussian 82(TM) system (copyright 1983,
 Carnegie Mellon University). Gaussian is a federally registered
 trademark of Gaussian, Inc.
  
 This software contains proprietary and confidential information,
 including trade secrets, belonging to Gaussian, Inc.
  
 This software is provided under written license and may be
 used, copied, transmitted, or stored only in accord with that
 written license.
  
 The following legend is applicable only to US Government
 contracts under FAR:
  
                    RESTRICTED RIGHTS LEGEND
  
 Use, reproduction and disclosure by the US Government is
 subject to restrictions as set forth in subparagraphs (a)
 and (c) of the Commercial Computer Software - Restricted
 Rights clause in FAR 52.227-19.
  
 Gaussian, Inc.
 340 Quinnipiac St., Bldg. 40, Wallingford CT 06492
  
  
 ---------------------------------------------------------------
 Warning -- This program may not be used in any manner that
 competes with the business of Gaussian, Inc. or will provide
 assistance to any competitor of Gaussian, Inc.  The licensee
 of this program is prohibited from giving any competitor of
 Gaussian, Inc. access to this program.  By using this program,
 the user acknowledges that Gaussian, Inc. is engaged in the
 business of creating and licensing software in the field of
 computational chemistry and represents and warrants to the
 licensee that it is not a competitor of Gaussian, Inc. and that
 it will not use this program in any manner prohibited above.
 ---------------------------------------------------------------
  

 Cite this work as:
 Gaussian 16, Revision C.01,
 M. J. Frisch, G. W. Trucks, H. B. Schlegel, G. E. Scuseria, 
 M. A. Robb, J. R. Cheeseman, G. Scalmani, V. Barone, 
 G. A. Petersson, H. Nakatsuji, X. Li, M. Caricato, A. V. Marenich, 
 J. Bloino, B. G. Janesko, R. Gomperts, B. Mennucci, H. P. Hratchian, 
 J. V. Ortiz, A. F. Izmaylov, J. L. Sonnenberg, D. Williams-Young, 
 F. Ding, F. Lipparini, F. Egidi, J. Goings, B. Peng, A. Petrone, 
 T. Henderson, D. Ranasinghe, V. G. Zakrzewski, J. Gao, N. Rega, 
 G. Zheng, W. Liang, M. Hada, M. Ehara, K. Toyota, R. Fukuda, 
 J. Hasegawa, M. Ishida, T. Nakajima, Y. Honda, O. Kitao, H. Nakai, 
 T. Vreven, K. Throssell, J. A. Montgomery, Jr., J. E. Peralta, 
 F. Ogliaro, M. J. Bearpark, J. J. Heyd, E. N. Brothers, K. N. Kudin, 
 V. N. Staroverov, T. A. Keith, R. Kobayashi, J. Normand, 
 K. Raghavachari, A. P. Rendell, J. C. Burant, S. S. Iyengar, 
 J. Tomasi, M. Cossi, J. M. Millam, M. Klene, C. Adamo, R. Cammi, 
 J. W. Ochterski, R. L. Martin, K. Morokuma, O. Farkas, 
 J. B. Foresman, and D. J. Fox, Gaussian, Inc., Wallingford CT, 2019.
 
 ******************************************
 Gaussian 16:  ES64L-G16RevC.01  3-Jul-2019
                17-Oct-2021 
 ******************************************
 %mem=10GB
 %nprocshared=8
 Will use up to    8 processors via shared memory.
 -------------------------------------
 # opt=modredundant b3lyp/6-311+g(d,p)
 -------------------------------------
 1/18=120,19=15,26=3,38=1/1,3;
 2/9=110,12=2,17=6,18=5,40=1/2;
 3/5=4,6=6,7=111,11=2,25=1,30=1,71=1,74=-5/1,2,3;
 4//1;
 5/5=2,38=5/2;
 6/7=2,8=2,9=2,10=2,28=1/1;
 7//1,2,3,16;
 1/18=20,19=15,26=3/3(2);
 2/9=110/2;
 99//99;
 2/9=110/2;
 3/5=4,6=6,7=111,11=2,25=1,30=1,71=1,74=-5/1,2,3;
 4/5=5,16=3,69=1/1;
 5/5=2,38=5/2;
 7//1,2,3,16;
 1/18=20,19=15,26=3/3(-5);
 2/9=110/2;
 6/7=2,8=2,9=2,10=2,19=2,28=1/1;
 99/9=1/99;
 -------------
 pBTTT_110.pdb
 -------------
 Symbolic Z-matrix:
 Charge =  0 Multiplicity = 1
 C                    -4.25     -1.36     -0.21 
 C                    -2.93     -0.95     -0.61 
 C                    -1.97     -2.05     -0.62 
 C                    -4.33     -2.76      0.1 
 H                    -5.1      -0.7      -0.14 
 S                    -2.8      -3.56     -0.11 
 H                    -5.23     -3.27      0.41 
 C                    -0.56     -2.13     -0.97 
 S                     0.71     -2.394     0.264 
 C                     1.977    -2.366    -0.913 
 C                     1.478    -2.187    -2.253 
 C                     0.051    -2.07     -2.299 
 H                    -0.51     -2.094    -3.22 
 S                     2.539    -2.846    -3.454 
 C                     3.683    -3.366    -2.215 
 C                     3.228    -3.051    -0.881 
 H                     4.523    -4.009    -2.437 
 H                     3.642    -3.521     0.007 
 O                    -2.4       0.49     -0.72 
 H                    -2.92      1.52     -0.76 
 
 Add virtual bond connecting atoms H20        and O19        Dist= 2.18D+00.
 The following ModRedundant input section has been read:
 D       2       3       8       9 F                                           
 

 GradGradGradGradGradGradGradGradGradGradGradGradGradGradGradGradGradGrad
 Berny optimization.
 Initialization pass.
                           ----------------------------
                           !    Initial Parameters    !
                           ! (Angstroms and Degrees)  !
 --------------------------                            --------------------------
 ! Name  Definition              Value          Derivative Info.                !
 --------------------------------------------------------------------------------
 ! R1    R(1,2)                  1.4389         estimate D2E/DX2                !
 ! R2    R(1,4)                  1.4361         estimate D2E/DX2                !
 ! R3    R(1,5)                  1.0784         estimate D2E/DX2                !
 ! R4    R(2,3)                  1.46           estimate D2E/DX2                !
 ! R5    R(2,19)                 1.5384         estimate D2E/DX2                !
 ! R6    R(3,6)                  1.797          estimate D2E/DX2                !
 ! R7    R(3,8)                  1.455          estimate D2E/DX2                !
 ! R8    R(4,6)                  1.7393         estimate D2E/DX2                !
 ! R9    R(4,7)                  1.0799         estimate D2E/DX2                !
 ! R10   R(8,9)                  1.7903         estimate D2E/DX2                !
 ! R11   R(8,12)                 1.464          estimate D2E/DX2                !
 ! R12   R(9,10)                 1.7296         estimate D2E/DX2                !
 ! R13   R(10,11)                1.4411         estimate D2E/DX2                !
 ! R14   R(10,16)                1.4266         estimate D2E/DX2                !
 ! R15   R(11,12)                1.4325         estimate D2E/DX2                !
 ! R16   R(11,14)                1.7327         estimate D2E/DX2                !
 ! R17   R(12,13)                1.0787         estimate D2E/DX2                !
 ! R18   R(14,15)                1.7647         estimate D2E/DX2                !
 ! R19   R(15,16)                1.4442         estimate D2E/DX2                !
 ! R20   R(15,17)                1.0809         estimate D2E/DX2                !
 ! R21   R(16,18)                1.0867         estimate D2E/DX2                !
 ! R22   R(19,20)                1.1545         estimate D2E/DX2                !
 ! A1    A(2,1,4)              112.8843         estimate D2E/DX2                !
 ! A2    A(2,1,5)              124.5209         estimate D2E/DX2                !
 ! A3    A(4,1,5)              122.5942         estimate D2E/DX2                !
 ! A4    A(1,2,3)              112.9799         estimate D2E/DX2                !
 ! A5    A(1,2,19)             127.059          estimate D2E/DX2                !
 ! A6    A(3,2,19)             118.5686         estimate D2E/DX2                !
 ! A7    A(2,3,6)              109.1138         estimate D2E/DX2                !
 ! A8    A(2,3,8)              132.8639         estimate D2E/DX2                !
 ! A9    A(6,3,8)              118.0132         estimate D2E/DX2                !
 ! A10   A(1,4,6)              111.9209         estimate D2E/DX2                !
 ! A11   A(1,4,7)              124.6643         estimate D2E/DX2                !
 ! A12   A(6,4,7)              123.4062         estimate D2E/DX2                !
 ! A13   A(3,6,4)               93.0997         estimate D2E/DX2                !
 ! A14   A(3,8,9)              121.9873         estimate D2E/DX2                !
 ! A15   A(3,8,12)             128.3585         estimate D2E/DX2                !
 ! A16   A(9,8,12)             109.6149         estimate D2E/DX2                !
 ! A17   A(8,9,10)              92.7632         estimate D2E/DX2                !
 ! A18   A(9,10,11)            112.4044         estimate D2E/DX2                !
 ! A19   A(9,10,16)            128.2677         estimate D2E/DX2                !
 ! A20   A(11,10,16)           112.5908         estimate D2E/DX2                !
 ! A21   A(10,11,12)           112.6402         estimate D2E/DX2                !
 ! A22   A(10,11,14)           112.6587         estimate D2E/DX2                !
 ! A23   A(12,11,14)           128.2261         estimate D2E/DX2                !
 ! A24   A(8,12,11)            112.5354         estimate D2E/DX2                !
 ! A25   A(8,12,13)            123.8583         estimate D2E/DX2                !
 ! A26   A(11,12,13)           122.9343         estimate D2E/DX2                !
 ! A27   A(11,14,15)            91.2822         estimate D2E/DX2                !
 ! A28   A(14,15,16)           112.3339         estimate D2E/DX2                !
 ! A29   A(14,15,17)           122.3353         estimate D2E/DX2                !
 ! A30   A(16,15,17)           124.353          estimate D2E/DX2                !
 ! A31   A(10,16,15)           111.1168         estimate D2E/DX2                !
 ! A32   A(10,16,18)           124.0618         estimate D2E/DX2                !
 ! A33   A(15,16,18)           122.7139         estimate D2E/DX2                !
 ! A34   A(2,19,20)            133.0318         estimate D2E/DX2                !
 ! D1    D(4,1,2,3)              0.3915         estimate D2E/DX2                !
 ! D2    D(4,1,2,19)          -165.8104         estimate D2E/DX2                !
 ! D3    D(5,1,2,3)           -179.8811         estimate D2E/DX2                !
 ! D4    D(5,1,2,19)            13.9169         estimate D2E/DX2                !
 ! D5    D(2,1,4,6)             -0.3845         estimate D2E/DX2                !
 ! D6    D(2,1,4,7)           -179.3471         estimate D2E/DX2                !
 ! D7    D(5,1,4,6)            179.8822         estimate D2E/DX2                !
 ! D8    D(5,1,4,7)              0.9196         estimate D2E/DX2                !
 ! D9    D(1,2,3,6)             -0.2224         estimate D2E/DX2                !
 ! D10   D(1,2,3,8)            178.6265         estimate D2E/DX2                !
 ! D11   D(19,2,3,6)           167.2616         estimate D2E/DX2                !
 ! D12   D(19,2,3,8)           -13.8895         estimate D2E/DX2                !
 ! D13   D(1,2,19,20)          -16.0519         estimate D2E/DX2                !
 ! D14   D(3,2,19,20)          178.4264         estimate D2E/DX2                !
 ! D15   D(2,3,6,4)              0.0033         estimate D2E/DX2                !
 ! D16   D(8,3,6,4)           -179.041          estimate D2E/DX2                !
 ! D17   D(2,3,8,9)            109.9813         Frozen                          !
 ! D18   D(2,3,8,12)           -72.546          estimate D2E/DX2                !
 ! D19   D(6,3,8,9)            -71.2508         estimate D2E/DX2                !
 ! D20   D(6,3,8,12)           106.2219         estimate D2E/DX2                !
 ! D21   D(1,4,6,3)              0.2153         estimate D2E/DX2                !
 ! D22   D(7,4,6,3)            179.1932         estimate D2E/DX2                !
 ! D23   D(3,8,9,10)           179.7714         estimate D2E/DX2                !
 ! D24   D(12,8,9,10)            1.875          estimate D2E/DX2                !
 ! D25   D(3,8,12,11)         -179.8341         estimate D2E/DX2                !
 ! D26   D(3,8,12,13)           -9.006          estimate D2E/DX2                !
 ! D27   D(9,8,12,11)           -2.1096         estimate D2E/DX2                !
 ! D28   D(9,8,12,13)          168.7185         estimate D2E/DX2                !
 ! D29   D(8,9,10,11)           -1.1993         estimate D2E/DX2                !
 ! D30   D(8,9,10,16)         -149.8965         estimate D2E/DX2                !
 ! D31   D(9,10,11,12)           0.1726         estimate D2E/DX2                !
 ! D32   D(9,10,11,14)        -154.0671         estimate D2E/DX2                !
 ! D33   D(16,10,11,12)        153.9525         estimate D2E/DX2                !
 ! D34   D(16,10,11,14)         -0.2871         estimate D2E/DX2                !
 ! D35   D(9,10,16,15)         149.7545         estimate D2E/DX2                !
 ! D36   D(9,10,16,18)         -14.0748         estimate D2E/DX2                !
 ! D37   D(11,10,16,15)          1.1042         estimate D2E/DX2                !
 ! D38   D(11,10,16,18)       -162.7251         estimate D2E/DX2                !
 ! D39   D(10,11,12,8)           1.2848         estimate D2E/DX2                !
 ! D40   D(10,11,12,13)       -169.6411         estimate D2E/DX2                !
 ! D41   D(14,11,12,8)         150.5854         estimate D2E/DX2                !
 ! D42   D(14,11,12,13)        -20.3405         estimate D2E/DX2                !
 ! D43   D(10,11,14,15)         -0.4664         estimate D2E/DX2                !
 ! D44   D(12,11,14,15)       -149.7624         estimate D2E/DX2                !
 ! D45   D(11,14,15,16)          1.1012         estimate D2E/DX2                !
 ! D46   D(11,14,15,17)        170.2383         estimate D2E/DX2                !
 ! D47   D(14,15,16,10)         -1.4513         estimate D2E/DX2                !
 ! D48   D(14,15,16,18)        162.6335         estimate D2E/DX2                !
 ! D49   D(17,15,16,10)       -170.3305         estimate D2E/DX2                !
 ! D50   D(17,15,16,18)         -6.2457         estimate D2E/DX2                !
 --------------------------------------------------------------------------------
 Trust Radius=3.00D-01 FncErr=1.00D-07 GrdErr=1.00D-06 EigMax=2.50D+02 EigMin=1.00D-04
 Number of steps in this run=    116 maximum allowed number of steps=    120.
 GradGradGradGradGradGradGradGradGradGradGradGradGradGradGradGradGradGrad

                          Input orientation:                          
 ---------------------------------------------------------------------
 Center     Atomic      Atomic             Coordinates (Angstroms)
 Number     Number       Type             X           Y           Z
 ---------------------------------------------------------------------
      1          6           0       -4.250000   -1.360000   -0.210000
      2          6           0       -2.930000   -0.950000   -0.610000
      3          6           0       -1.970000   -2.050000   -0.620000
      4          6           0       -4.330000   -2.760000    0.100000
      5          1           0       -5.100000   -0.700000   -0.140000
      6         16           0       -2.800000   -3.560000   -0.110000
      7          1           0       -5.230000   -3.270000    0.410000
      8          6           0       -0.560000   -2.130000   -0.970000
      9         16           0        0.710000   -2.394000    0.264000
     10          6           0        1.977000   -2.366000   -0.913000
     11          6           0        1.478000   -2.187000   -2.253000
     12          6           0        0.051000   -2.070000   -2.299000
     13          1           0       -0.510000   -2.094000   -3.220000
     14         16           0        2.539000   -2.846000   -3.454000
     15          6           0        3.683000   -3.366000   -2.215000
     16          6           0        3.228000   -3.051000   -0.881000
     17          1           0        4.523000   -4.009000   -2.437000
     18          1           0        3.642000   -3.521000    0.007000
     19          8           0       -2.400000    0.490000   -0.720000
     20          1           0       -2.920000    1.520000   -0.760000
 ---------------------------------------------------------------------
                    Distance matrix (angstroms):
                    1          2          3          4          5
     1  C    0.000000
     2  C    1.438923   0.000000
     3  C    2.417147   1.460034   0.000000
     4  C    1.436141   2.395871   2.567509   0.000000
     5  H    1.078425   2.234346   3.442354   2.212261   0.000000
     6  S    2.636759   2.660639   1.796970   1.739253   3.670218
     7  H    2.234480   3.422397   3.630000   1.079907   2.631406
     8  C    3.845335   2.671872   1.454991   3.969219   4.831708
     9  S    5.088755   4.012308   2.842920   5.055932   6.065390
    10  C    6.346792   5.116201   3.970455   6.399973   7.311430
    11  C    6.137407   4.864163   3.817612   6.292678   7.067250
    12  C    4.833903   3.604647   2.627524   5.042268   5.750738
    13  H    4.856589   3.738614   2.982203   5.104739   5.700679
    14  S    7.669567   6.449272   5.384817   7.734434   8.598967
    15  C    8.424758   7.221139   6.019326   8.362693   9.410328
    16  C    7.696116   6.512189   5.299936   7.626953   8.685152
    17  H    9.430920   8.260909   7.021269   9.293653  10.432057
    18  H    8.185394   7.083919   5.835368   8.008780   9.187068
    19  O    2.665539   1.538376   2.578081   3.867790   3.007075
    20  H    3.219596   2.474571   3.696891   4.587603   3.172570
                    6          7          8          9         10
     6  S    0.000000
     7  H    2.501879   0.000000
     8  C    2.793224   5.001290   0.000000
     9  S    3.717463   6.006021   1.790350   0.000000
    10  C    4.989005   7.382980   2.548591   1.729567   0.000000
    11  C    4.977837   7.298063   2.408896   2.639690   1.441056
    12  C    3.891018   6.055381   1.463954   2.666126   2.391252
    13  H    4.131024   6.069454   2.250843   3.703600   3.403146
    14  S    6.340115   8.687211   4.035680   4.168101   2.646304
    15  C    6.818941   9.292008   4.591380   3.991109   2.367623
    16  C    6.098386   8.558762   3.899373   2.843061   1.426622
    17  H    7.696938  10.186881   5.614234   4.943945   3.391775
    18  H    6.443180   8.884694   4.532793   3.151635   2.225455
    19  O    4.115167   4.839773   3.211308   4.354057   5.229925
    20  H    5.122821   5.445099   4.351574   5.435519   6.253400
                   11         12         13         14         15
    11  C    0.000000
    12  C    1.432527   0.000000
    13  H    2.212664   1.078674   0.000000
    14  S    1.732744   2.850674   3.149073   0.000000
    15  C    2.500702   3.857214   4.495471   1.764726   0.000000
    16  C    2.385661   3.614750   4.512141   2.671530   1.444232
    17  H    3.553247   4.876223   5.441636   2.514580   1.080895
    18  H    3.401478   4.507584   5.448758   3.694693   2.227777
    19  O    4.955331   3.879980   4.061915   6.557238   7.355722
    20  H    5.942500   4.907490   4.992063   7.491347   8.342040
                   16         17         18         19         20
    16  C    0.000000
    17  H    2.239626   0.000000
    18  H    1.086665   2.643377   0.000000
    19  O    6.651239   8.433091   7.288512   0.000000
    20  H    7.662022   9.422336   8.310223   1.154513   0.000000
 Stoichiometry    C10H6OS3
 Framework group  C1[X(C10H6OS3)]
 Deg. of freedom    54
 Full point group                 C1      NOp   1
 Largest Abelian subgroup         C1      NOp   1
 Largest concise Abelian subgroup C1      NOp   1
                         Standard orientation:                         
 ---------------------------------------------------------------------
 Center     Atomic      Atomic             Coordinates (Angstroms)
 Number     Number       Type             X           Y           Z
 ---------------------------------------------------------------------
      1          6           0       -4.099143    0.496411   -0.150780
      2          6           0       -2.799646    0.995774    0.213150
      3          6           0       -1.725159    0.048806   -0.070451
      4          6           0       -4.053525   -0.827771   -0.704821
      5          1           0       -5.020866    1.041776   -0.024270
      6         16           0       -2.428487   -1.442440   -0.785025
      7          1           0       -4.915463   -1.379085   -1.050243
      8          6           0       -0.280949    0.112020    0.094653
      9         16           0        0.576543   -0.864844    1.325830
     10          6           0        2.122163   -0.238246    0.867752
     11          6           0        2.034665    0.690948   -0.230240
     12          6           0        0.689651    0.882878   -0.684369
     13          1           0        0.447238    1.411083   -1.593090
     14         16           0        3.499726    0.775438   -1.151578
     15          6           0        4.276671   -0.408915   -0.098999
     16          6           0        3.393448   -0.881407    0.941421
     17          1           0        5.232773   -0.853872   -0.336096
     18          1           0        3.583799   -1.790582    1.505343
     19          8           0       -2.489565    2.217898    1.094548
     20          1           0       -3.124521    3.114033    1.450460
 ---------------------------------------------------------------------
 Rotational constants (GHZ):           1.1594994           0.2571042           0.2472161
 Standard basis: 6-311+G(d,p) (5D, 7F)
 There are   382 symmetry adapted cartesian basis functions of A   symmetry.
 There are   368 symmetry adapted basis functions of A   symmetry.
   368 basis functions,   594 primitive gaussians,   382 cartesian basis functions
    61 alpha electrons       61 beta electrons
       nuclear repulsion energy      1100.6711472573 Hartrees.
 NAtoms=   20 NActive=   20 NUniq=   20 SFac= 1.00D+00 NAtFMM=   60 NAOKFM=F Big=F
 Integral buffers will be    131072 words long.
 Raffenetti 2 integral format.
 Two-electron integral symmetry is turned on.
 One-electron integrals computed using PRISM.
 NBasis=   368 RedAO= T EigKep=  3.56D-06  NBF=   368
 NBsUse=   367 1.00D-06 EigRej=  5.43D-07 NBFU=   367
 ExpMin= 4.05D-02 ExpMax= 9.34D+04 ExpMxC= 3.17D+03 IAcc=3 IRadAn=         5 AccDes= 0.00D+00
 Harris functional with IExCor=  402 and IRadAn=       5 diagonalized for initial guess.
 HarFok:  IExCor=  402 AccDes= 0.00D+00 IRadAn=         5 IDoV= 1 UseB2=F ITyADJ=14
 ICtDFT=  3500011 ScaDFX=  1.000000  1.000000  1.000000  1.000000
 FoFCou: FMM=F IPFlag=           0 FMFlag=      100000 FMFlg1=           0
         NFxFlg=           0 DoJE=T BraDBF=F KetDBF=T FulRan=T
         wScrn=  0.000000 ICntrl=       500 IOpCl=  0 I1Cent=   200000004 NGrid=           0
         NMat0=    1 NMatS0=      1 NMatT0=    0 NMatD0=    1 NMtDS0=    0 NMtDT0=    0
 Petite list used in FoFCou.
 Requested convergence on RMS density matrix=1.00D-08 within 128 cycles.
 Requested convergence on MAX density matrix=1.00D-06.
 Requested convergence on             energy=1.00D-06.
 No special actions if energy rises.
 SCF Done:  E(RB3LYP) =  -1654.53071304     A.U. after   17 cycles
            NFock= 17  Conv=0.48D-08     -V/T= 2.0031

 **********************************************************************

            Population analysis using the SCF Density.

 **********************************************************************

 Orbital symmetries:
       Occupied  (A) (A) (A) (A) (A) (A) (A) (A) (A) (A) (A) (A)
                 (A) (A) (A) (A) (A) (A) (A) (A) (A) (A) (A) (A)
                 (A) (A) (A) (A) (A) (A) (A) (A) (A) (A) (A) (A)
                 (A) (A) (A) (A) (A) (A) (A) (A) (A) (A) (A) (A)
                 (A) (A) (A) (A) (A) (A) (A) (A) (A) (A) (A) (A)
                 (A)
       Virtual   (A) (A) (A) (A) (A) (A) (A) (A) (A) (A) (A) (A)
                 (A) (A) (A) (A) (A) (A) (A) (A) (A) (A) (A) (A)
                 (A) (A) (A) (A) (A) (A) (A) (A) (A) (A) (A) (A)
                 (A) (A) (A) (A) (A) (A) (A) (A) (A) (A) (A) (A)
                 (A) (A) (A) (A) (A) (A) (A) (A) (A) (A) (A) (A)
                 (A) (A) (A) (A) (A) (A) (A) (A) (A) (A) (A) (A)
                 (A) (A) (A) (A) (A) (A) (A) (A) (A) (A) (A) (A)
                 (A) (A) (A) (A) (A) (A) (A) (A) (A) (A) (A) (A)
                 (A) (A) (A) (A) (A) (A) (A) (A) (A) (A) (A) (A)
                 (A) (A) (A) (A) (A) (A) (A) (A) (A) (A) (A) (A)
                 (A) (A) (A) (A) (A) (A) (A) (A) (A) (A) (A) (A)
                 (A) (A) (A) (A) (A) (A) (A) (A) (A) (A) (A) (A)
                 (A) (A) (A) (A) (A) (A) (A) (A) (A) (A) (A) (A)
                 (A) (A) (A) (A) (A) (A) (A) (A) (A) (A) (A) (A)
                 (A) (A) (A) (A) (A) (A) (A) (A) (A) (A) (A) (A)
                 (A) (A) (A) (A) (A) (A) (A) (A) (A) (A) (A) (A)
                 (A) (A) (A) (A) (A) (A) (A) (A) (A) (A) (A) (A)
                 (A) (A) (A) (A) (A) (A) (A) (A) (A) (A) (A) (A)
                 (A) (A) (A) (A) (A) (A) (A) (A) (A) (A) (A) (A)
                 (A) (A) (A) (A) (A) (A) (A) (A) (A) (A) (A) (A)
                 (A) (A) (A) (A) (A) (A) (A) (A) (A) (A) (A) (A)
                 (A) (A) (A) (A) (A) (A) (A) (A) (A) (A) (A) (A)
                 (A) (A) (A) (A) (A) (A) (A) (A) (A) (A) (A) (A)
                 (A) (A) (A) (A) (A) (A) (A) (A) (A) (A) (A) (A)
                 (A) (A) (A) (A) (A) (A) (A) (A) (A) (A) (A) (A)
                 (A) (A) (A) (A) (A) (A)
 The electronic state is 1-A.
 Alpha  occ. eigenvalues --  -88.89630 -88.88861 -88.88360 -19.15803 -10.27453
 Alpha  occ. eigenvalues --  -10.23389 -10.23155 -10.22528 -10.21883 -10.21647
 Alpha  occ. eigenvalues --  -10.21607 -10.20448 -10.20252 -10.20076  -7.98076
 Alpha  occ. eigenvalues --   -7.97386  -7.96888  -5.94370  -5.94010  -5.93697
 Alpha  occ. eigenvalues --   -5.93681  -5.93340  -5.93206  -5.92940  -5.92839
 Alpha  occ. eigenvalues --   -5.92434  -0.97959  -0.90296  -0.87698  -0.83380
 Alpha  occ. eigenvalues --   -0.77152  -0.75218  -0.73894  -0.70769  -0.68607
 Alpha  occ. eigenvalues --   -0.61629  -0.57998  -0.57366  -0.53946  -0.53326
 Alpha  occ. eigenvalues --   -0.51304  -0.48836  -0.45806  -0.44641  -0.42894
 Alpha  occ. eigenvalues --   -0.41928  -0.40414  -0.39794  -0.39268  -0.38688
 Alpha  occ. eigenvalues --   -0.37078  -0.36474  -0.34404  -0.34124  -0.33232
 Alpha  occ. eigenvalues --   -0.32775  -0.28774  -0.25783  -0.24151  -0.23185
 Alpha  occ. eigenvalues --   -0.21065
 Alpha virt. eigenvalues --   -0.06568  -0.04956  -0.04613  -0.01530  -0.00635
 Alpha virt. eigenvalues --   -0.00084   0.00342   0.00951   0.01293   0.01979
 Alpha virt. eigenvalues --    0.02196   0.02986   0.03234   0.03925   0.04164
 Alpha virt. eigenvalues --    0.04378   0.04650   0.05870   0.06167   0.06820
 Alpha virt. eigenvalues --    0.07337   0.07467   0.07609   0.08479   0.09063
 Alpha virt. eigenvalues --    0.09204   0.10486   0.10748   0.11080   0.11410
 Alpha virt. eigenvalues --    0.11436   0.12105   0.12460   0.13058   0.13245
 Alpha virt. eigenvalues --    0.13411   0.14504   0.14737   0.14916   0.15348
 Alpha virt. eigenvalues --    0.15760   0.16492   0.16852   0.17319   0.17515
 Alpha virt. eigenvalues --    0.17689   0.18333   0.18842   0.19052   0.19704
 Alpha virt. eigenvalues --    0.19900   0.20352   0.20736   0.21042   0.21067
 Alpha virt. eigenvalues --    0.21311   0.21881   0.22222   0.22404   0.22715
 Alpha virt. eigenvalues --    0.22981   0.23757   0.23919   0.24405   0.25143
 Alpha virt. eigenvalues --    0.25718   0.26585   0.26756   0.27105   0.28087
 Alpha virt. eigenvalues --    0.28449   0.29271   0.29987   0.30839   0.31596
 Alpha virt. eigenvalues --    0.32451   0.32957   0.34436   0.34536   0.35197
 Alpha virt. eigenvalues --    0.36462   0.36917   0.37853   0.37984   0.39399
 Alpha virt. eigenvalues --    0.41408   0.42211   0.42553   0.42891   0.44765
 Alpha virt. eigenvalues --    0.45322   0.45969   0.47529   0.49731   0.52149
 Alpha virt. eigenvalues --    0.53908   0.55276   0.55311   0.56107   0.56434
 Alpha virt. eigenvalues --    0.57221   0.58331   0.58772   0.60394   0.61212
 Alpha virt. eigenvalues --    0.61461   0.62296   0.63146   0.64264   0.64812
 Alpha virt. eigenvalues --    0.65711   0.67586   0.67951   0.69098   0.69958
 Alpha virt. eigenvalues --    0.70655   0.71023   0.71407   0.72449   0.72969
 Alpha virt. eigenvalues --    0.73435   0.74413   0.75065   0.75299   0.76594
 Alpha virt. eigenvalues --    0.77971   0.78686   0.79913   0.80899   0.80955
 Alpha virt. eigenvalues --    0.81606   0.83291   0.83524   0.84837   0.86043
 Alpha virt. eigenvalues --    0.87163   0.88289   0.88980   0.90804   0.92117
 Alpha virt. eigenvalues --    0.92636   0.93363   0.94192   0.95057   0.96795
 Alpha virt. eigenvalues --    0.97571   0.98397   1.00097   1.00366   1.01242
 Alpha virt. eigenvalues --    1.02436   1.03249   1.04199   1.06612   1.07707
 Alpha virt. eigenvalues --    1.11053   1.12354   1.13908   1.16678   1.17991
 Alpha virt. eigenvalues --    1.21780   1.24992   1.25846   1.28350   1.30242
 Alpha virt. eigenvalues --    1.33331   1.35356   1.38184   1.38986   1.42111
 Alpha virt. eigenvalues --    1.45250   1.46976   1.49331   1.50181   1.51575
 Alpha virt. eigenvalues --    1.52206   1.53347   1.54756   1.56343   1.58387
 Alpha virt. eigenvalues --    1.61211   1.61909   1.63057   1.64773   1.66095
 Alpha virt. eigenvalues --    1.67166   1.68561   1.69773   1.70376   1.71556
 Alpha virt. eigenvalues --    1.72461   1.75315   1.76420   1.77334   1.78768
 Alpha virt. eigenvalues --    1.79550   1.81478   1.82075   1.84082   1.84861
 Alpha virt. eigenvalues --    1.87347   1.89888   1.90256   1.91041   1.91877
 Alpha virt. eigenvalues --    1.94516   1.95706   1.96498   1.98868   1.99771
 Alpha virt. eigenvalues --    2.01880   2.02624   2.03458   2.04695   2.07332
 Alpha virt. eigenvalues --    2.08569   2.10116   2.10785   2.11889   2.14372
 Alpha virt. eigenvalues --    2.14721   2.17752   2.24134   2.28469   2.32400
 Alpha virt. eigenvalues --    2.35419   2.36289   2.37433   2.45378   2.47429
 Alpha virt. eigenvalues --    2.50008   2.52555   2.55718   2.58076   2.65199
 Alpha virt. eigenvalues --    2.67631   2.68527   2.69679   2.71248   2.71671
 Alpha virt. eigenvalues --    2.74119   2.74816   2.76106   2.76983   2.80019
 Alpha virt. eigenvalues --    2.82824   2.86126   2.88653   2.91350   2.92970
 Alpha virt. eigenvalues --    2.93961   2.97908   2.98589   3.01269   3.02624
 Alpha virt. eigenvalues --    3.03952   3.05782   3.08195   3.13148   3.20170
 Alpha virt. eigenvalues --    3.22396   3.23856   3.26293   3.32801   3.36724
 Alpha virt. eigenvalues --    3.39636   3.46223   3.55029   3.62968   3.72476
 Alpha virt. eigenvalues --    3.90400   3.94251   4.01082   4.04690   4.12738
 Alpha virt. eigenvalues --    4.30302   4.42553   5.02486   5.19992   5.44377
 Alpha virt. eigenvalues --    7.92953   7.95053   7.97607  17.28595  17.29012
 Alpha virt. eigenvalues --   17.31406  17.42284  17.43618  17.46825  17.47223
 Alpha virt. eigenvalues --   17.49585  17.51653  23.44750  23.58791  23.71706
 Alpha virt. eigenvalues --   23.76983  23.79601  23.85198  23.86782  23.94241
 Alpha virt. eigenvalues --   23.95303  23.96255  49.86266 189.08935 189.11324
 Alpha virt. eigenvalues --  189.14315
          Condensed to atoms (all electrons):
               1          2          3          4          5          6
     1  C    7.164298  -1.758909   0.254764  -0.278361   0.423548   0.451176
     2  C   -1.758909  11.266517  -2.192974   1.115088  -0.074526  -1.421212
     3  C    0.254764  -2.192974   9.041863  -0.727242   0.024602  -0.059904
     4  C   -0.278361   1.115088  -0.727242   5.807068  -0.019607  -0.079595
     5  H    0.423548  -0.074526   0.024602  -0.019607   0.517858   0.002850
     6  S    0.451176  -1.421212  -0.059904  -0.079595   0.002850  16.921545
     7  H    0.023002  -0.046484   0.018501   0.368834  -0.004457  -0.006447
     8  C   -0.001559  -0.587563   0.463985  -0.068335  -0.006386  -0.165162
     9  S   -0.094754   0.489376   0.456697   0.092525  -0.000264  -0.177164
    10  C    0.017736  -0.525163  -0.757231  -0.032373  -0.000147   0.331787
    11  C   -0.009546   0.629194   0.776718   0.048986   0.000036  -0.450292
    12  C    0.179017  -1.339672  -1.047869  -0.176034  -0.000009   0.758418
    13  H    0.003645   0.012871   0.019413   0.000260   0.000001  -0.007845
    14  S    0.005527   0.001409  -0.011065   0.000028  -0.000009  -0.004345
    15  C    0.000356  -0.010413  -0.026795  -0.001255   0.000002   0.002700
    16  C    0.007008  -0.137300  -0.129215  -0.002994  -0.000022   0.078125
    17  H   -0.000001   0.000024   0.000226   0.000000  -0.000000  -0.000008
    18  H    0.000007   0.000086   0.000085  -0.000016   0.000000  -0.000235
    19  O   -0.176573   0.529256  -0.182087   0.023083  -0.003195   0.015390
    20  H   -0.051822  -0.025551   0.053807  -0.001215   0.000187  -0.012047
               7          8          9         10         11         12
     1  C    0.023002  -0.001559  -0.094754   0.017736  -0.009546   0.179017
     2  C   -0.046484  -0.587563   0.489376  -0.525163   0.629194  -1.339672
     3  C    0.018501   0.463985   0.456697  -0.757231   0.776718  -1.047869
     4  C    0.368834  -0.068335   0.092525  -0.032373   0.048986  -0.176034
     5  H   -0.004457  -0.006386  -0.000264  -0.000147   0.000036  -0.000009
     6  S   -0.006447  -0.165162  -0.177164   0.331787  -0.450292   0.758418
     7  H    0.477632  -0.000270  -0.000706   0.000114  -0.000072   0.000169
     8  C   -0.000270   8.934650   0.261089  -1.336082   1.824389  -3.035377
     9  S   -0.000706   0.261089  18.282674  -1.827740   2.832746  -3.603188
    10  C    0.000114  -1.336082  -1.827740  14.647831  -7.050659   3.830968
    11  C   -0.000072   1.824389   2.832746  -7.050659  18.342510  -8.670066
    12  C    0.000169  -3.035377  -3.603188   3.830968  -8.670066  17.307762
    13  H   -0.000000   0.096365   0.014672  -0.059311   0.066056   0.200875
    14  S    0.000004  -0.272530   0.258284   0.324916  -0.816805   0.091044
    15  C   -0.000002   0.133314   0.028589   0.607257  -0.284407  -0.359655
    16  C    0.000027  -0.531032  -0.679221  -2.454353  -1.346849   2.003313
    17  H    0.000000  -0.002716   0.001850  -0.004321   0.005322   0.007971
    18  H    0.000000   0.006477   0.022108   0.021470  -0.021462  -0.014484
    19  O   -0.000201  -0.065139  -0.025229   0.011440   0.005813   0.038263
    20  H   -0.000018   0.021606   0.006558  -0.002875   0.006810  -0.011893
              13         14         15         16         17         18
     1  C    0.003645   0.005527   0.000356   0.007008  -0.000001   0.000007
     2  C    0.012871   0.001409  -0.010413  -0.137300   0.000024   0.000086
     3  C    0.019413  -0.011065  -0.026795  -0.129215   0.000226   0.000085
     4  C    0.000260   0.000028  -0.001255  -0.002994   0.000000  -0.000016
     5  H    0.000001  -0.000009   0.000002  -0.000022  -0.000000   0.000000
     6  S   -0.007845  -0.004345   0.002700   0.078125  -0.000008  -0.000235
     7  H   -0.000000   0.000004  -0.000002   0.000027   0.000000   0.000000
     8  C    0.096365  -0.272530   0.133314  -0.531032  -0.002716   0.006477
     9  S    0.014672   0.258284   0.028589  -0.679221   0.001850   0.022108
    10  C   -0.059311   0.324916   0.607257  -2.454353  -0.004321   0.021470
    11  C    0.066056  -0.816805  -0.284407  -1.346849   0.005322  -0.021462
    12  C    0.200875   0.091044  -0.359655   2.003313   0.007971  -0.014484
    13  H    0.519290   0.009262   0.000903  -0.014801  -0.000004   0.000018
    14  S    0.009262  16.583246   0.284327  -0.314949  -0.019701   0.005629
    15  C    0.000903   0.284327   5.644521  -0.091411   0.369452   0.010742
    16  C   -0.014801  -0.314949  -0.091411   9.437009  -0.003978   0.316805
    17  H   -0.000004  -0.019701   0.369452  -0.003978   0.475241  -0.003635
    18  H    0.000018   0.005629   0.010742   0.316805  -0.003635   0.515429
    19  O   -0.000002  -0.000820   0.000257  -0.000707  -0.000000  -0.000000
    20  H    0.000010   0.000051   0.000010  -0.000166  -0.000000   0.000000
              19         20
     1  C   -0.176573  -0.051822
     2  C    0.529256  -0.025551
     3  C   -0.182087   0.053807
     4  C    0.023083  -0.001215
     5  H   -0.003195   0.000187
     6  S    0.015390  -0.012047
     7  H   -0.000201  -0.000018
     8  C   -0.065139   0.021606
     9  S   -0.025229   0.006558
    10  C    0.011440  -0.002875
    11  C    0.005813   0.006810
    12  C    0.038263  -0.011893
    13  H   -0.000002   0.000010
    14  S   -0.000820   0.000051
    15  C    0.000257   0.000010
    16  C   -0.000707  -0.000166
    17  H   -0.000000  -0.000000
    18  H   -0.000000   0.000000
    19  O    8.014594   0.201103
    20  H    0.201103   0.521069
 Mulliken charges:
               1
     1  C   -0.158560
     2  C    0.075948
     3  C    0.023721
     4  C   -0.068847
     5  H    0.139539
     6  S   -0.177736
     7  H    0.170373
     8  C    0.330277
     9  S   -0.338902
    10  C    0.256737
    11  C    0.111579
    12  C   -0.159554
    13  H    0.138324
    14  S   -0.123500
    15  C   -0.308493
    16  C   -0.135290
    17  H    0.174277
    18  H    0.140978
    19  O   -0.385247
    20  H    0.294375
 Sum of Mulliken charges =  -0.00000
 Mulliken charges with hydrogens summed into heavy atoms:
               1
     1  C   -0.019021
     2  C    0.075948
     3  C    0.023721
     4  C    0.101526
     6  S   -0.177736
     8  C    0.330277
     9  S   -0.338902
    10  C    0.256737
    11  C    0.111579
    12  C   -0.021230
    14  S   -0.123500
    15  C   -0.134216
    16  C    0.005688
    19  O   -0.090872
 Electronic spatial extent (au):  <R**2>=           4403.7027
 Charge=              0.0000 electrons
 Dipole moment (field-independent basis, Debye):
    X=             -1.9690    Y=             -0.1669    Z=             -0.8037  Tot=              2.1332
 Quadrupole moment (field-independent basis, Debye-Ang):
   XX=            -81.0477   YY=            -96.2497   ZZ=           -104.3469
   XY=             -9.6574   XZ=             -1.2845   YZ=              0.4284
 Traceless Quadrupole moment (field-independent basis, Debye-Ang):
   XX=             12.8337   YY=             -2.3683   ZZ=            -10.4655
   XY=             -9.6574   XZ=             -1.2845   YZ=              0.4284
 Octapole moment (field-independent basis, Debye-Ang**2):
  XXX=            -65.1181  YYY=             26.2617  ZZZ=              1.5997  XYY=            -33.6433
  XXY=             -2.2353  XXZ=             -6.0635  XZZ=             -1.6643  YZZ=              5.1075
  YYZ=             12.5998  XYZ=            -25.7079
 Hexadecapole moment (field-independent basis, Debye-Ang**3):
 XXXX=          -4177.9207 YYYY=           -661.9891 ZZZZ=           -589.1935 XXXY=           -203.8228
 XXXZ=            -56.6704 YYYX=           -125.5646 YYYZ=             60.0805 ZZZX=            -31.7106
 ZZZY=              5.6225 XXYY=           -792.7165 XXZZ=           -914.3831 YYZZ=           -190.4745
 XXYZ=             67.3042 YYXZ=            -35.7694 ZZXY=            -24.9545
 N-N= 1.100671147257D+03 E-N=-6.111761023316D+03  KE= 1.649477837799D+03
 Calling FoFJK, ICntrl=      2127 FMM=F ISym2X=0 I1Cent= 0 IOpClX= 0 NMat=1 NMatS=1 NMatT=0.
 ***** Axes restored to original set *****
 -------------------------------------------------------------------
 Center     Atomic                   Forces (Hartrees/Bohr)
 Number     Number              X              Y              Z
 -------------------------------------------------------------------
      1        6           0.015502387   -0.039427843    0.003968167
      2        6           0.027729957    0.020888152    0.012312694
      3        6          -0.034559312    0.029898901    0.000819120
      4        6           0.012096089    0.051416219   -0.015212936
      5        1          -0.000571494    0.001713091    0.000598523
      6       16          -0.006240614    0.023610005   -0.005006190
      7        1           0.002673015   -0.002896600    0.000217658
      8        6           0.031042674    0.006503360   -0.052237346
      9       16          -0.010702976    0.011497821   -0.004708840
     10        6           0.001020985   -0.015179385   -0.031477730
     11        6          -0.021449607   -0.008950763    0.034206682
     12        6          -0.009458499   -0.002024632    0.054829220
     13        1          -0.005029853    0.005062053    0.001135236
     14       16           0.016630552    0.000935645    0.008612095
     15        6          -0.023931294    0.010804159    0.052527637
     16        6           0.008621928   -0.015785403   -0.053287647
     17        1           0.001527428    0.005495529   -0.004509245
     18        1           0.004631506    0.007360633   -0.003004532
     19        8          -0.031035589    0.015137045   -0.003714251
     20        1           0.021502716   -0.106057986    0.003931685
 -------------------------------------------------------------------
 Cartesian Forces:  Max     0.106057986 RMS     0.025508096

 GradGradGradGradGradGradGradGradGradGradGradGradGradGradGradGradGradGrad
 Berny optimization.
 FormGI is forming the generalized inverse of G from B-inverse, IUseBI=4.
 Internal  Forces:  Max     0.104441060 RMS     0.019875930
 Search for a local minimum.
 Step number   1 out of a maximum of  116
 All quantities printed in internal units (Hartrees-Bohrs-Radians)
 Mixed Optimization -- RFO/linear search
 Second derivative matrix not updated -- first step.
 ITU=  0
     Eigenvalues ---    0.00230   0.00994   0.01059   0.01223   0.01275
     Eigenvalues ---    0.01302   0.01362   0.01427   0.01458   0.01496
     Eigenvalues ---    0.01500   0.01592   0.01594   0.01771   0.02198
     Eigenvalues ---    0.02650   0.15076   0.15688   0.15739   0.15997
     Eigenvalues ---    0.16000   0.16000   0.17991   0.22443   0.22526
     Eigenvalues ---    0.23320   0.23978   0.24118   0.24633   0.24978
     Eigenvalues ---    0.24995   0.26145   0.26548   0.28307   0.28421
     Eigenvalues ---    0.28663   0.30910   0.31284   0.31615   0.34850
     Eigenvalues ---    0.35201   0.35872   0.35886   0.36006   0.36155
     Eigenvalues ---    0.36185   0.36358   0.37598   0.38343   0.38435
     Eigenvalues ---    0.39456   0.39707   0.405581000.000001000.00000
     Eigenvalues --- 1000.000001000.000001000.000001000.000001000.00000
     Eigenvalues --- 1000.000001000.000001000.000001000.000001000.00000
     Eigenvalues --- 1000.000001000.000001000.000001000.000001000.00000
     Eigenvalues --- 1000.000001000.000001000.000001000.000001000.00000
     Eigenvalues --- 1000.000001000.000001000.000001000.000001000.00000
     Eigenvalues --- 1000.000001000.000001000.000001000.000001000.00000
     Eigenvalues --- 1000.000001000.000001000.000001000.000001000.00000
     Eigenvalues --- 1000.000001000.000001000.000001000.000001000.00000
     Eigenvalues --- 1000.000001000.000001000.000001000.000001000.00000
     Eigenvalues --- 1000.000001000.000001000.000001000.000001000.00000
     Eigenvalues --- 1000.00000
 RFO step:  Lambda=-1.06932736D-01 EMin= 2.30000000D-03
 Linear search not attempted -- first point.
 Maximum step size (   0.300) exceeded in Quadratic search.
    -- Step size scaled by   0.583
 Iteration  1 RMS(Cart)=  0.06644902 RMS(Int)=  0.00170825
 Iteration  2 RMS(Cart)=  0.00187179 RMS(Int)=  0.00013430
 Iteration  3 RMS(Cart)=  0.00001126 RMS(Int)=  0.00013405
 Iteration  4 RMS(Cart)=  0.00000000 RMS(Int)=  0.00013405
 Iteration  1 RMS(Cart)=  0.00000066 RMS(Int)=  0.00000026
 Variable       Old X    -DE/DX   Delta X   Delta X   Delta X     New X
                                 (Linear)    (Quad)   (Total)
    R1        2.71917  -0.02251   0.00000  -0.02737  -0.02727   2.69190
    R2        2.71391  -0.05434   0.00000  -0.06282  -0.06280   2.65111
    R3        2.03793   0.00154   0.00000   0.00191   0.00191   2.03984
    R4        2.75906  -0.06478   0.00000  -0.07990  -0.07984   2.67922
    R5        2.90711  -0.08841   0.00000  -0.13101  -0.13101   2.77610
    R6        3.39578  -0.02113   0.00000  -0.03197  -0.03203   3.36375
    R7        2.74954  -0.00769   0.00000  -0.00929  -0.00929   2.74024
    R8        3.28671  -0.01306   0.00000  -0.01685  -0.01693   3.26978
    R9        2.04073  -0.00080   0.00000  -0.00100  -0.00100   2.03973
   R10        3.38327  -0.01040   0.00000  -0.01464  -0.01476   3.36851
   R11        2.76647  -0.06419   0.00000  -0.07971  -0.07977   2.68670
   R12        3.26841  -0.00086   0.00000  -0.00025  -0.00022   3.26818
   R13        2.72320  -0.03087   0.00000  -0.03692  -0.03668   2.68652
   R14        2.69592  -0.00207   0.00000  -0.00348  -0.00337   2.69255
   R15        2.70708  -0.01237   0.00000  -0.01536  -0.01529   2.69180
   R16        3.27441   0.00177   0.00000   0.00354   0.00352   3.27793
   R17        2.03840   0.00153   0.00000   0.00191   0.00191   2.04031
   R18        3.33485  -0.01195   0.00000  -0.01655  -0.01669   3.31816
   R19        2.72920  -0.05780   0.00000  -0.06842  -0.06846   2.66075
   R20        2.04259  -0.00116   0.00000  -0.00145  -0.00145   2.04115
   R21        2.05350  -0.00387   0.00000  -0.00492  -0.00492   2.04858
   R22        2.18171  -0.10444   0.00000  -0.15618  -0.15618   2.02554
    A1        1.97020  -0.00300   0.00000  -0.00833  -0.00820   1.96200
    A2        2.17330   0.00067   0.00000   0.00236   0.00229   2.17559
    A3        2.13967   0.00233   0.00000   0.00599   0.00592   2.14560
    A4        1.97187   0.01581   0.00000   0.02392   0.02405   1.99592
    A5        2.21760  -0.00450   0.00000  -0.00511  -0.00524   2.21236
    A6        2.06941  -0.01048   0.00000  -0.01505  -0.01520   2.05421
    A7        1.90440  -0.00621   0.00000  -0.00994  -0.00992   1.89447
    A8        2.31891  -0.00569   0.00000  -0.00941  -0.00942   2.30949
    A9        2.05972   0.01189   0.00000   0.01932   0.01930   2.07902
   A10        1.95339  -0.00152   0.00000  -0.00221  -0.00225   1.95113
   A11        2.17580   0.00470   0.00000   0.00970   0.00972   2.18552
   A12        2.15384  -0.00318   0.00000  -0.00751  -0.00749   2.14635
   A13        1.62490  -0.00507   0.00000  -0.00343  -0.00367   1.62122
   A14        2.12908  -0.00303   0.00000  -0.00455  -0.00456   2.12452
   A15        2.24028  -0.00400   0.00000  -0.00615  -0.00616   2.23412
   A16        1.91314   0.00710   0.00000   0.01108   0.01105   1.92419
   A17        1.61902  -0.00636   0.00000  -0.00783  -0.00776   1.61127
   A18        1.96183  -0.01108   0.00000  -0.01551  -0.01576   1.94607
   A19        2.23869   0.00909   0.00000   0.02193   0.02156   2.26026
   A20        1.96508   0.00578   0.00000   0.00931   0.00936   1.97444
   A21        1.96594   0.00784   0.00000   0.01195   0.01200   1.97794
   A22        1.96627  -0.01328   0.00000  -0.01896  -0.01910   1.94717
   A23        2.23797   0.00883   0.00000   0.02065   0.02028   2.25825
   A24        1.96411   0.00254   0.00000   0.00054   0.00066   1.96478
   A25        2.16174  -0.00577   0.00000  -0.00946  -0.00960   2.15214
   A26        2.14561   0.00380   0.00000   0.01155   0.01142   2.15703
   A27        1.59318   0.00047   0.00000   0.00241   0.00243   1.59560
   A28        1.96060   0.00150   0.00000   0.00127   0.00121   1.96181
   A29        2.13515  -0.00462   0.00000  -0.00800  -0.00815   2.12700
   A30        2.17037   0.00415   0.00000   0.01146   0.01134   2.18171
   A31        1.93935   0.00553   0.00000   0.00595   0.00608   1.94543
   A32        2.16529  -0.00001   0.00000   0.00535   0.00505   2.17034
   A33        2.14176  -0.00364   0.00000  -0.00277  -0.00308   2.13868
   A34        2.32184  -0.06231   0.00000  -0.13615  -0.13615   2.18570
    D1        0.00683  -0.00049   0.00000  -0.00171  -0.00169   0.00515
    D2       -2.89394  -0.00346   0.00000  -0.01854  -0.01862  -2.91255
    D3       -3.13952   0.00028   0.00000   0.00206   0.00208  -3.13744
    D4        0.24290  -0.00270   0.00000  -0.01477  -0.01485   0.22804
    D5       -0.00671   0.00006   0.00000  -0.00045  -0.00049  -0.00720
    D6       -3.13020   0.00029   0.00000   0.00117   0.00117  -3.12903
    D7        3.13954  -0.00069   0.00000  -0.00412  -0.00417   3.13537
    D8        0.01605  -0.00045   0.00000  -0.00250  -0.00251   0.01354
    D9       -0.00388   0.00078   0.00000   0.00312   0.00310  -0.00078
   D10        3.11762   0.00036   0.00000   0.00114   0.00116   3.11878
   D11        2.91927   0.00398   0.00000   0.01930   0.01927   2.93854
   D12       -0.24242   0.00356   0.00000   0.01732   0.01733  -0.22509
   D13       -0.28016   0.00192   0.00000   0.00458   0.00447  -0.27569
   D14        3.11413  -0.00441   0.00000  -0.01786  -0.01775   3.09638
   D15        0.00006  -0.00065   0.00000  -0.00290  -0.00287  -0.00282
   D16       -3.12486  -0.00011   0.00000  -0.00094  -0.00091  -3.12576
   D17        1.91954   0.00009   0.00000   0.00000  -0.00000   1.91953
   D18       -1.26617   0.00268   0.00000   0.01248   0.01248  -1.25369
   D19       -1.24356  -0.00054   0.00000  -0.00241  -0.00241  -1.24597
   D20        1.85392   0.00205   0.00000   0.01006   0.01007   1.86399
   D21        0.00376   0.00039   0.00000   0.00202   0.00202   0.00578
   D22        3.12751   0.00025   0.00000   0.00063   0.00061   3.12812
   D23        3.13760   0.00061   0.00000   0.00357   0.00358   3.14118
   D24        0.03273  -0.00134   0.00000  -0.00648  -0.00657   0.02615
   D25       -3.13870  -0.00164   0.00000  -0.00707  -0.00701   3.13747
   D26       -0.15718   0.00264   0.00000   0.01196   0.01192  -0.14527
   D27       -0.03682   0.00052   0.00000   0.00389   0.00403  -0.03279
   D28        2.94469   0.00480   0.00000   0.02292   0.02296   2.96765
   D29       -0.02093   0.00222   0.00000   0.00811   0.00802  -0.01292
   D30       -2.61619  -0.00662   0.00000  -0.02649  -0.02659  -2.64278
   D31        0.00301  -0.00191   0.00000  -0.00677  -0.00671  -0.00369
   D32       -2.68898  -0.01074   0.00000  -0.03780  -0.03731  -2.72629
   D33        2.68698   0.00759   0.00000   0.02786   0.02753   2.71451
   D34       -0.00501  -0.00123   0.00000  -0.00317  -0.00307  -0.00809
   D35        2.61371   0.00573   0.00000   0.03122   0.03160   2.64531
   D36       -0.24565  -0.00081   0.00000  -0.00021  -0.00003  -0.24568
   D37        0.01927   0.00112   0.00000   0.00282   0.00276   0.02204
   D38       -2.84009  -0.00542   0.00000  -0.02861  -0.02886  -2.86895
   D39        0.02242   0.00092   0.00000   0.00171   0.00165   0.02407
   D40       -2.96080  -0.00231   0.00000  -0.01490  -0.01511  -2.97591
   D41        2.62821   0.00436   0.00000   0.02553   0.02586   2.65407
   D42       -0.35501   0.00113   0.00000   0.00892   0.00910  -0.34591
   D43       -0.00814   0.00104   0.00000   0.00232   0.00228  -0.00586
   D44       -2.61385  -0.00763   0.00000  -0.02916  -0.02909  -2.64294
   D45        0.01922  -0.00030   0.00000  -0.00060  -0.00062   0.01860
   D46        2.97122   0.00588   0.00000   0.02680   0.02662   2.99784
   D47       -0.02533  -0.00031   0.00000  -0.00102  -0.00094  -0.02627
   D48        2.83849   0.00678   0.00000   0.03143   0.03152   2.87001
   D49       -2.97283  -0.00551   0.00000  -0.02655  -0.02665  -2.99948
   D50       -0.10901   0.00158   0.00000   0.00590   0.00581  -0.10320
         Item               Value     Threshold  Converged?
 Maximum Force            0.104441     0.000450     NO 
 RMS     Force            0.019970     0.000300     NO 
 Maximum Displacement     0.454017     0.001800     NO 
 RMS     Displacement     0.066552     0.001200     NO 
 Predicted change in Energy=-4.961483D-02
 GradGradGradGradGradGradGradGradGradGradGradGradGradGradGradGradGradGrad

                          Input orientation:                          
 ---------------------------------------------------------------------
 Center     Atomic      Atomic             Coordinates (Angstroms)
 Number     Number       Type             X           Y           Z
 ---------------------------------------------------------------------
      1          6           0       -4.209689   -1.328162   -0.218914
      2          6           0       -2.885867   -0.976622   -0.610186
      3          6           0       -1.971061   -2.059764   -0.617079
      4          6           0       -4.332353   -2.691411    0.088745
      5          1           0       -5.036253   -0.636461   -0.159532
      6         16           0       -2.834042   -3.532890   -0.113458
      7          1           0       -5.243898   -3.180466    0.396922
      8          6           0       -0.566432   -2.149240   -0.965975
      9         16           0        0.690332   -2.423188    0.268097
     10          6           0        1.954318   -2.395816   -0.911980
     11          6           0        1.439434   -2.200168   -2.222590
     12          6           0        0.020653   -2.078659   -2.258916
     13          1           0       -0.555277   -2.074230   -3.172154
     14         16           0        2.523129   -2.811572   -3.431162
     15          6           0        3.671975   -3.322032   -2.205298
     16          6           0        3.219970   -3.050138   -0.899829
     17          1           0        4.538737   -3.918622   -2.449183
     18          1           0        3.665138   -3.504768   -0.022149
     19          8           0       -2.338284    0.380467   -0.738922
     20          1           0       -2.919528    1.279745   -0.787438
 ---------------------------------------------------------------------
                    Distance matrix (angstroms):
                    1          2          3          4          5
     1  C    0.000000
     2  C    1.424493   0.000000
     3  C    2.388563   1.417784   0.000000
     4  C    1.402908   2.349751   2.544183   0.000000
     5  H    1.079437   2.223277   3.410358   2.186307   0.000000
     6  S    2.600837   2.604598   1.780020   1.730292   3.638841
     7  H    2.209044   3.381052   3.604946   1.079381   2.612417
     8  C    3.808621   2.623241   1.450075   3.948233   4.787291
     9  S    5.044450   3.956404   2.828185   5.033039   6.014070
    10  C    6.294061   5.052977   3.950759   6.372680   7.247730
    11  C    6.057038   4.775472   3.772115   6.236755   6.973945
    12  C    4.756117   3.518615   2.581261   4.983537   5.662124
    13  H    4.757413   3.633190   2.921141   5.027990   5.587685
    14  S    7.605911   6.370414   5.355560   7.707258   8.519327
    15  C    8.369102   7.144971   5.996634   8.350424   9.339737
    16  C    7.656938   6.454813   5.292221   7.625192   8.633604
    17  H    9.392527   8.195244   7.013518   9.308242  10.377646
    18  H    8.172468   7.046486   5.848822   8.039509   9.162984
    19  O    2.586886   1.469051   2.470713   3.754701   2.940897
    20  H    2.964610   2.263568   3.475763   4.305096   2.923463
                    6          7          8          9         10
     6  S    0.000000
     7  H    2.488393   0.000000
     8  C    2.789861   4.979920   0.000000
     9  S    3.714598   5.983741   1.782537   0.000000
    10  C    4.985876   7.358207   2.533356   1.729448   0.000000
    11  C    4.948452   7.244981   2.367525   2.610443   1.421648
    12  C    3.855782   5.998579   1.421740   2.636847   2.377790
    13  H    4.083636   5.995435   2.207482   3.675410   3.392620
    14  S    6.342455   8.667008   4.007645   4.146626   2.615851
    15  C    6.837288   9.288939   4.568967   3.976908   2.341131
    16  C    6.123928   8.563622   3.892665   2.855904   1.424838
    17  H    7.743531  10.214947   5.602979   4.942688   3.370632
    18  H    6.499882   8.924781   4.542515   3.178605   2.224518
    19  O    3.993914   4.734235   3.096842   4.248186   5.115088
    20  H    4.860351   5.167097   4.162556   5.277969   6.105705
                   11         12         13         14         15
    11  C    0.000000
    12  C    1.424438   0.000000
    13  H    2.212781   1.079685   0.000000
    14  S    1.734606   2.858970   3.176057   0.000000
    15  C    2.498623   3.857590   4.512369   1.755892   0.000000
    16  C    2.375386   3.609227   4.513130   2.636313   1.408006
    17  H    3.551072   4.882085   5.465661   2.500504   1.080129
    18  H    3.390823   4.507680   5.457185   3.661430   2.190794
    19  O    4.809584   3.731255   3.889123   6.408635   7.209852
    20  H    5.759340   4.699871   4.746125   7.304154   8.163001
                   16         17         18         19         20
    16  C    0.000000
    17  H    2.212218   0.000000
    18  H    1.084059   2.612460   0.000000
    19  O    6.533693   8.288582   7.186786   0.000000
    20  H    7.513585   9.241761   8.175271   1.071867   0.000000
 Stoichiometry    C10H6OS3
 Framework group  C1[X(C10H6OS3)]
 Deg. of freedom    54
 Full point group                 C1      NOp   1
 Largest Abelian subgroup         C1      NOp   1
 Largest concise Abelian subgroup C1      NOp   1
                         Standard orientation:                         
 ---------------------------------------------------------------------
 Center     Atomic      Atomic             Coordinates (Angstroms)
 Number     Number       Type             X           Y           Z
 ---------------------------------------------------------------------
      1          6           0       -4.055109    0.547295   -0.071470
      2          6           0       -2.742870    0.964650    0.293257
      3          6           0       -1.718557    0.051620   -0.063496
      4          6           0       -4.060904   -0.701304   -0.711091
      5          1           0       -4.954014    1.114648    0.116322
      6         16           0       -2.464169   -1.348345   -0.871352
      7          1           0       -4.939450   -1.206096   -1.083118
      8          6           0       -0.277449    0.091256    0.092563
      9         16           0        0.571155   -0.979092    1.237842
     10          6           0        2.114984   -0.324575    0.814535
     11          6           0        1.999425    0.675923   -0.188825
     12          6           0        0.657243    0.900098   -0.609913
     13          1           0        0.392020    1.510227   -1.460277
     14         16           0        3.477413    0.861126   -1.077706
     15          6           0        4.262190   -0.381343   -0.116689
     16          6           0        3.399788   -0.939755    0.846078
     17          1           0        5.240798   -0.763378   -0.367792
     18          1           0        3.619828   -1.870826    1.355856
     19          8           0       -2.390645    2.066123    1.199239
     20          1           0       -3.056845    2.844235    1.514862
 ---------------------------------------------------------------------
 Rotational constants (GHZ):           1.2108056           0.2607884           0.2507598
 Standard basis: 6-311+G(d,p) (5D, 7F)
 There are   382 symmetry adapted cartesian basis functions of A   symmetry.
 There are   368 symmetry adapted basis functions of A   symmetry.
   368 basis functions,   594 primitive gaussians,   382 cartesian basis functions
    61 alpha electrons       61 beta electrons
       nuclear repulsion energy      1112.6065135121 Hartrees.
 NAtoms=   20 NActive=   20 NUniq=   20 SFac= 1.00D+00 NAtFMM=   60 NAOKFM=F Big=F
 Integral buffers will be    131072 words long.
 Raffenetti 2 integral format.
 Two-electron integral symmetry is turned on.
 One-electron integrals computed using PRISM.
 NBasis=   368 RedAO= T EigKep=  3.10D-06  NBF=   368
 NBsUse=   367 1.00D-06 EigRej=  4.76D-07 NBFU=   367
 Initial guess from the checkpoint file:  "/tmp/pbs.4729018[285].pbs/Gau-3024661.chk"
 B after Tr=    -0.000000    0.000000    0.000000
         Rot=    0.999230   -0.039095   -0.002135    0.002456 Ang=  -4.50 deg.
 ExpMin= 4.05D-02 ExpMax= 9.34D+04 ExpMxC= 3.17D+03 IAcc=3 IRadAn=         5 AccDes= 0.00D+00
 Harris functional with IExCor=  402 and IRadAn=       5 diagonalized for initial guess.
 HarFok:  IExCor=  402 AccDes= 0.00D+00 IRadAn=         5 IDoV= 1 UseB2=F ITyADJ=14
 ICtDFT=  3500011 ScaDFX=  1.000000  1.000000  1.000000  1.000000
 FoFCou: FMM=F IPFlag=           0 FMFlag=      100000 FMFlg1=           0
         NFxFlg=           0 DoJE=T BraDBF=F KetDBF=T FulRan=T
         wScrn=  0.000000 ICntrl=       500 IOpCl=  0 I1Cent=   200000004 NGrid=           0
         NMat0=    1 NMatS0=      1 NMatT0=    0 NMatD0=    1 NMtDS0=    0 NMtDT0=    0
 Petite list used in FoFCou.
 Requested convergence on RMS density matrix=1.00D-08 within 128 cycles.
 Requested convergence on MAX density matrix=1.00D-06.
 Requested convergence on             energy=1.00D-06.
 No special actions if energy rises.
 SCF Done:  E(RB3LYP) =  -1654.58390853     A.U. after   14 cycles
            NFock= 14  Conv=0.68D-08     -V/T= 2.0027
 Calling FoFJK, ICntrl=      2127 FMM=F ISym2X=0 I1Cent= 0 IOpClX= 0 NMat=1 NMatS=1 NMatT=0.
 ***** Axes restored to original set *****
 -------------------------------------------------------------------
 Center     Atomic                   Forces (Hartrees/Bohr)
 Number     Number              X              Y              Z
 -------------------------------------------------------------------
      1        6           0.003882079   -0.024786828    0.002865968
      2        6           0.029149699    0.032013862    0.007905839
      3        6          -0.027013750    0.013879452    0.001199841
      4        6           0.006742078    0.031008380   -0.009750576
      5        1          -0.000180571    0.001775848    0.000584535
      6       16          -0.002707710    0.010445042   -0.002718703
      7        1           0.002156306   -0.003138768    0.000344001
      8        6           0.022364673    0.005559915   -0.033782885
      9       16          -0.008061242    0.009417190    0.000588966
     10        6          -0.001433262   -0.011873961   -0.021177163
     11        6          -0.010288624   -0.009728660    0.022417864
     12        6          -0.008552125   -0.001023619    0.033733690
     13        1          -0.003138413    0.004694492    0.000856020
     14       16           0.012377515    0.002256139    0.001267222
     15        6          -0.015662242    0.005034167    0.033997805
     16        6           0.006119151   -0.011310641   -0.032662189
     17        1           0.001407988    0.004719925   -0.004065752
     18        1           0.003881475    0.006777026   -0.000798274
     19        8          -0.034333473    0.012261646   -0.004953804
     20        1           0.023290447   -0.077980607    0.004147594
 -------------------------------------------------------------------
 Cartesian Forces:  Max     0.077980607 RMS     0.018268213

 GradGradGradGradGradGradGradGradGradGradGradGradGradGradGradGradGradGrad
 Berny optimization.
 Using GEDIIS/GDIIS optimizer.
 FormGI is forming the generalized inverse of G from B-inverse, IUseBI=4.
 Internal  Forces:  Max     0.078241923 RMS     0.013440902
 Search for a local minimum.
 Step number   2 out of a maximum of  116
 All quantities printed in internal units (Hartrees-Bohrs-Radians)
 Mixed Optimization -- RFO/linear search
 Update second derivatives using D2CorX and points    1    2
 DE= -5.32D-02 DEPred=-4.96D-02 R= 1.07D+00
 TightC=F SS=  1.41D+00  RLast= 3.19D-01 DXNew= 5.0454D-01 9.5647D-01
 Trust test= 1.07D+00 RLast= 3.19D-01 DXMaxT set to 5.05D-01
 ITU=  1  0
 Use linear search instead of GDIIS.
     Eigenvalues ---    0.00230   0.00996   0.01055   0.01220   0.01273
     Eigenvalues ---    0.01298   0.01344   0.01406   0.01460   0.01490
     Eigenvalues ---    0.01498   0.01591   0.01592   0.01738   0.02112
     Eigenvalues ---    0.02489   0.14369   0.15289   0.15763   0.15831
     Eigenvalues ---    0.15999   0.16027   0.18356   0.20977   0.22462
     Eigenvalues ---    0.22539   0.23394   0.24139   0.24335   0.24983
     Eigenvalues ---    0.25016   0.25628   0.26254   0.26595   0.28464
     Eigenvalues ---    0.28543   0.30897   0.31269   0.31581   0.34890
     Eigenvalues ---    0.35204   0.35886   0.36005   0.36091   0.36155
     Eigenvalues ---    0.36184   0.36427   0.37591   0.38196   0.39301
     Eigenvalues ---    0.39573   0.40489   0.424911000.000001000.00000
     Eigenvalues --- 1000.000001000.000001000.000001000.000001000.00000
     Eigenvalues --- 1000.000001000.000001000.000001000.000001000.00000
     Eigenvalues --- 1000.000001000.000001000.000001000.000001000.00000
     Eigenvalues --- 1000.000001000.000001000.000001000.000001000.00000
     Eigenvalues --- 1000.000001000.000001000.000001000.000001000.00000
     Eigenvalues --- 1000.000001000.000001000.000001000.000001000.00000
     Eigenvalues --- 1000.000001000.000001000.000001000.000001000.00000
     Eigenvalues --- 1000.000001000.000001000.000001000.000001000.00000
     Eigenvalues --- 1000.000001000.000001000.000001000.000001000.00000
     Eigenvalues --- 1000.000001000.000001000.000001000.000001000.00000
     Eigenvalues --- 1000.00000
 RFO step:  Lambda=-8.23829617D-03 EMin= 2.30084725D-03
 Quartic linear search produced a step of  1.40480.
 Iteration  1 RMS(Cart)=  0.10057799 RMS(Int)=  0.01524028
 Iteration  2 RMS(Cart)=  0.01818820 RMS(Int)=  0.00091194
 Iteration  3 RMS(Cart)=  0.00027430 RMS(Int)=  0.00088133
 Iteration  4 RMS(Cart)=  0.00000029 RMS(Int)=  0.00088133
 Iteration  1 RMS(Cart)=  0.00002644 RMS(Int)=  0.00001088
 Iteration  2 RMS(Cart)=  0.00001442 RMS(Int)=  0.00001216
 Iteration  3 RMS(Cart)=  0.00000786 RMS(Int)=  0.00001373
 Iteration  4 RMS(Cart)=  0.00000429 RMS(Int)=  0.00001477
 Iteration  5 RMS(Cart)=  0.00000234 RMS(Int)=  0.00001538
 Iteration  6 RMS(Cart)=  0.00000128 RMS(Int)=  0.00001572
 Iteration  7 RMS(Cart)=  0.00000070 RMS(Int)=  0.00001591
 Variable       Old X    -DE/DX   Delta X   Delta X   Delta X     New X
                                 (Linear)    (Quad)   (Total)
    R1        2.69190  -0.00794  -0.03831   0.03682  -0.00114   2.69076
    R2        2.65111  -0.03000  -0.08822   0.02346  -0.06483   2.58628
    R3        2.03984   0.00131   0.00269   0.00219   0.00487   2.04471
    R4        2.67922  -0.03656  -0.11216   0.02677  -0.08504   2.59418
    R5        2.77610  -0.06476  -0.18404  -0.06103  -0.24507   2.53103
    R6        3.36375  -0.01103  -0.04500   0.02327  -0.02183   3.34192
    R7        2.74024  -0.00132  -0.01305   0.02187   0.00881   2.74906
    R8        3.26978  -0.00669  -0.02379   0.01194  -0.01225   3.25753
    R9        2.03973  -0.00030  -0.00140   0.00132  -0.00008   2.03965
   R10        3.36851  -0.00600  -0.02074   0.00808  -0.01350   3.35501
   R11        2.68670  -0.03945  -0.11206   0.00791  -0.10466   2.58204
   R12        3.26818   0.00232  -0.00032   0.01942   0.01930   3.28749
   R13        2.68652  -0.01834  -0.05152   0.00274  -0.04719   2.63934
   R14        2.69255   0.00030  -0.00474   0.00881   0.00458   2.69713
   R15        2.69180  -0.00440  -0.02147   0.01901  -0.00201   2.68978
   R16        3.27793   0.00346   0.00494   0.01547   0.02048   3.29841
   R17        2.04031   0.00097   0.00268   0.00001   0.00269   2.04300
   R18        3.31816  -0.00672  -0.02345   0.00977  -0.01446   3.30370
   R19        2.66075  -0.03451  -0.09617   0.01170  -0.08485   2.57590
   R20        2.04115  -0.00056  -0.00203   0.00111  -0.00092   2.04023
   R21        2.04858  -0.00189  -0.00692   0.00370  -0.00321   2.04536
   R22        2.02554  -0.07824  -0.21940  -0.08648  -0.30588   1.71965
    A1        1.96200  -0.00117  -0.01153   0.01020  -0.00080   1.96119
    A2        2.17559  -0.00048   0.00322  -0.01194  -0.00901   2.16658
    A3        2.14560   0.00164   0.00832   0.00175   0.00979   2.15538
    A4        1.99592   0.00585   0.03379  -0.03770  -0.00469   1.99124
    A5        2.21236  -0.00399  -0.00736  -0.00587  -0.01559   2.19676
    A6        2.05421  -0.00109  -0.02135   0.05895   0.03558   2.08979
    A7        1.89447  -0.00035  -0.01394   0.03242   0.01903   1.91351
    A8        2.30949  -0.00706  -0.01323  -0.02946  -0.04299   2.26650
    A9        2.07902   0.00740   0.02712  -0.00270   0.02412   2.10314
   A10        1.95113   0.00010  -0.00317   0.01079   0.00748   1.95861
   A11        2.18552   0.00383   0.01365   0.01090   0.02462   2.21015
   A12        2.14635  -0.00394  -0.01052  -0.02161  -0.03206   2.11430
   A13        1.62122  -0.00444  -0.00516  -0.01568  -0.02136   1.59986
   A14        2.12452  -0.00277  -0.00641  -0.00750  -0.01395   2.11056
   A15        2.23412  -0.00226  -0.00865   0.00325  -0.00545   2.22867
   A16        1.92419   0.00508   0.01553   0.00428   0.01970   1.94389
   A17        1.61127  -0.00437  -0.01090  -0.00654  -0.01680   1.59447
   A18        1.94607  -0.00638  -0.02213   0.00967  -0.01349   1.93258
   A19        2.26026   0.00653   0.03029   0.01237   0.03980   2.30005
   A20        1.97444   0.00298   0.01315  -0.00703   0.00587   1.98031
   A21        1.97794   0.00379   0.01685  -0.00962   0.00689   1.98482
   A22        1.94717  -0.00718  -0.02683   0.01623  -0.01162   1.93554
   A23        2.25825   0.00623   0.02849   0.01276   0.03816   2.29640
   A24        1.96478   0.00191   0.00093   0.00224   0.00393   1.96871
   A25        2.15214  -0.00373  -0.01348   0.00470  -0.00975   2.14238
   A26        2.15703   0.00229   0.01604  -0.00426   0.01083   2.16786
   A27        1.59560  -0.00098   0.00341  -0.01641  -0.01232   1.58329
   A28        1.96181   0.00213   0.00170   0.01437   0.01553   1.97734
   A29        2.12700  -0.00467  -0.01145  -0.01857  -0.03108   2.09592
   A30        2.18171   0.00335   0.01593   0.00848   0.02355   2.20527
   A31        1.94543   0.00305   0.00853  -0.00648   0.00281   1.94824
   A32        2.17034  -0.00026   0.00709  -0.00604  -0.00045   2.16988
   A33        2.13868  -0.00133  -0.00433   0.01515   0.00942   2.14810
   A34        2.18570  -0.04608  -0.19126  -0.03880  -0.23005   1.95564
    D1        0.00515  -0.00013  -0.00237   0.02056   0.01809   0.02324
    D2       -2.91255  -0.00425  -0.02615  -0.06853  -0.09335  -3.00590
    D3       -3.13744   0.00064   0.00292   0.02417   0.02670  -3.11074
    D4        0.22804  -0.00348  -0.02086  -0.06492  -0.08474   0.14330
    D5       -0.00720  -0.00013  -0.00069   0.00039   0.00003  -0.00717
    D6       -3.12903   0.00022   0.00164  -0.00374  -0.00210  -3.13113
    D7        3.13537  -0.00089  -0.00586  -0.00314  -0.00850   3.12686
    D8        0.01354  -0.00054  -0.00353  -0.00727  -0.01063   0.00291
    D9       -0.00078   0.00036   0.00436  -0.03098  -0.02689  -0.02767
   D10        3.11878   0.00025   0.00163  -0.01560  -0.01451   3.10427
   D11        2.93854   0.00357   0.02707   0.04200   0.07046   3.00900
   D12       -0.22509   0.00346   0.02434   0.05739   0.08285  -0.14224
   D13       -0.27569   0.00158   0.00628   0.08931   0.09582  -0.17987
   D14        3.09638  -0.00342  -0.02494   0.00877  -0.01640   3.07998
   D15       -0.00282  -0.00036  -0.00404   0.02617   0.02256   0.01974
   D16       -3.12576  -0.00006  -0.00127   0.01362   0.01250  -3.11326
   D17        1.91953  -0.00009  -0.00000   0.00000   0.00000   1.91954
   D18       -1.25369   0.00228   0.01753   0.00143   0.01903  -1.23466
   D19       -1.24597  -0.00032  -0.00339   0.01699   0.01337  -1.23260
   D20        1.86399   0.00205   0.01414   0.01843   0.03240   1.89639
   D21        0.00578   0.00030   0.00284  -0.01561  -0.01287  -0.00709
   D22        3.12812   0.00006   0.00086  -0.01117  -0.01016   3.11797
   D23        3.14118   0.00066   0.00503   0.00429   0.00928  -3.13272
   D24        0.02615  -0.00123  -0.00923   0.00306  -0.00657   0.01958
   D25        3.13747  -0.00133  -0.00985   0.00083  -0.00891   3.12856
   D26       -0.14527   0.00247   0.01674   0.02079   0.03726  -0.10801
   D27       -0.03279   0.00071   0.00566   0.00195   0.00815  -0.02464
   D28        2.96765   0.00452   0.03225   0.02191   0.05433   3.02198
   D29       -0.01292   0.00163   0.01126  -0.00741   0.00372  -0.00919
   D30       -2.64278  -0.00579  -0.03735  -0.04019  -0.07832  -2.72109
   D31       -0.00369  -0.00131  -0.00942   0.01010   0.00082  -0.00287
   D32       -2.72629  -0.00855  -0.05241  -0.03122  -0.08091  -2.80719
   D33        2.71451   0.00650   0.03867   0.04235   0.07874   2.79325
   D34       -0.00809  -0.00074  -0.00432   0.00103  -0.00299  -0.01107
   D35        2.64531   0.00588   0.04439   0.01891   0.06490   2.71020
   D36       -0.24568  -0.00020  -0.00004   0.00538   0.00646  -0.23922
   D37        0.02204   0.00051   0.00388  -0.01826  -0.01475   0.00729
   D38       -2.86895  -0.00557  -0.04055  -0.03179  -0.07318  -2.94213
   D39        0.02407   0.00042   0.00232  -0.00784  -0.00589   0.01818
   D40       -2.97591  -0.00283  -0.02123  -0.02871  -0.05091  -3.02681
   D41        2.65407   0.00508   0.03633   0.04197   0.07969   2.73377
   D42       -0.34591   0.00183   0.01278   0.02110   0.03468  -0.31123
   D43       -0.00586   0.00077   0.00320   0.01218   0.01498   0.00912
   D44       -2.64294  -0.00628  -0.04087  -0.03097  -0.07259  -2.71553
   D45        0.01860  -0.00043  -0.00087  -0.02269  -0.02380  -0.00520
   D46        2.99784   0.00513   0.03740   0.00559   0.04143   3.03927
   D47       -0.02627   0.00009  -0.00133   0.02702   0.02616  -0.00011
   D48        2.87001   0.00621   0.04428   0.03680   0.08211   2.95211
   D49       -2.99948  -0.00479  -0.03744   0.00064  -0.03785  -3.03734
   D50       -0.10320   0.00133   0.00816   0.01042   0.01809  -0.08511
         Item               Value     Threshold  Converged?
 Maximum Force            0.078242     0.000450     NO 
 RMS     Force            0.013505     0.000300     NO 
 Maximum Displacement     0.751264     0.001800     NO 
 RMS     Displacement     0.109425     0.001200     NO 
 Predicted change in Energy=-4.962664D-02
 GradGradGradGradGradGradGradGradGradGradGradGradGradGradGradGradGradGrad

                          Input orientation:                          
 ---------------------------------------------------------------------
 Center     Atomic      Atomic             Coordinates (Angstroms)
 Number     Number       Type             X           Y           Z
 ---------------------------------------------------------------------
      1          6           0       -4.153286   -1.259871   -0.228485
      2          6           0       -2.806175   -0.980001   -0.595124
      3          6           0       -1.986032   -2.080856   -0.598132
      4          6           0       -4.346535   -2.579992    0.076478
      5          1           0       -4.941161   -0.518810   -0.199560
      6         16           0       -2.901295   -3.505197   -0.087216
      7          1           0       -5.275220   -3.043194    0.373053
      8          6           0       -0.580081   -2.195134   -0.953807
      9         16           0        0.652112   -2.507948    0.285498
     10          6           0        1.918670   -2.475698   -0.906650
     11          6           0        1.392989   -2.247566   -2.180354
     12          6           0       -0.022913   -2.103000   -2.197999
     13          1           0       -0.614573   -2.023383   -3.099329
     14         16           0        2.522691   -2.738055   -3.417188
     15          6           0        3.666723   -3.252011   -2.199242
     16          6           0        3.221932   -3.057264   -0.925547
     17          1           0        4.576261   -3.756158   -2.489419
     18          1           0        3.719307   -3.468748   -0.056756
     19          8           0       -2.285786    0.236695   -0.801872
     20          1           0       -2.926628    0.882193   -0.829349
 ---------------------------------------------------------------------
                    Distance matrix (angstroms):
                    1          2          3          4          5
     1  C    0.000000
     2  C    1.423889   0.000000
     3  C    2.346837   1.372781   0.000000
     4  C    1.368601   2.320287   2.505236   0.000000
     5  H    1.082015   2.219760   3.366250   2.162927   0.000000
     6  S    2.574670   2.577525   1.768470   1.723809   3.618313
     7  H    2.191078   3.360107   3.562029   1.079337   2.609980
     8  C    3.764120   2.561386   1.454738   3.923746   4.732650
     9  S    4.991365   3.881993   2.814785   5.003534   5.956229
    10  C    6.229509   4.965714   3.936722   6.342729   7.168450
    11  C    5.962088   4.663974   3.734836   6.176239   6.858105
    12  C    4.652937   3.402481   2.532568   4.908612   5.540089
    13  H    4.620301   3.487522   2.853102   4.931846   5.421418
    14  S    7.544635   6.281052   5.357945   7.708239   8.425394
    15  C    8.306927   7.045114   5.990726   8.357201   9.250124
    16  C    7.623015   6.384534   5.308810   7.649414   8.579447
    17  H    9.356723   8.111459   7.031877   9.358605  10.310442
    18  H    8.178407   7.004686   5.896628   8.115753   9.150205
    19  O    2.460902   1.339365   2.345721   3.598877   2.825701
    20  H    2.540505   1.880727   3.117345   3.850115   2.533335
                    6          7          8          9         10
     6  S    0.000000
     7  H    2.461872   0.000000
     8  C    2.802727   4.952181   0.000000
     9  S    3.709464   5.952093   1.775395   0.000000
    10  C    4.996339   7.328830   2.514894   1.739663   0.000000
    11  C    4.940013   7.184561   2.323826   2.587880   1.396676
    12  C    3.834923   5.922921   1.366359   2.605263   2.361404
    13  H    4.061735   5.900770   2.152661   3.646415   3.380791
    14  S    6.410682   8.675624   3.998775   4.154744   2.595471
    15  C    6.903884   9.306914   4.550103   3.976863   2.308494
    16  C    6.196559   8.595822   3.898637   2.893502   1.427259
    17  H    7.857952  10.283664   5.602032   4.965595   3.347764
    18  H    6.620772   9.014841   4.572913   3.232331   2.225031
    19  O    3.858930   4.590734   2.974275   4.164936   5.004549
    20  H    4.449785   4.729727   3.871913   5.054040   5.895619
                   11         12         13         14         15
    11  C    0.000000
    12  C    1.423373   0.000000
    13  H    2.219251   1.081108   0.000000
    14  S    1.745441   2.893064   3.233298   0.000000
    15  C    2.485786   3.864407   4.544136   1.748242   0.000000
    16  C    2.361183   3.613693   4.529128   2.607509   1.363108
    17  H    3.536183   4.895944   5.506292   2.472739   1.079642
    18  H    3.378270   4.522654   5.488975   3.641195   2.154063
    19  O    4.648135   3.541743   3.630319   6.229805   7.039608
    20  H    5.502699   4.383622   4.352100   7.035495   7.901931
                   16         17         18         19         20
    16  C    0.000000
    17  H    2.183656   0.000000
    18  H    1.082358   2.595154   0.000000
[...]
 Stoichiometry    C10H6OS3
 Framework group  C1[X(C10H6OS3)]
 Deg. of freedom    54
 Full point group                 C1      NOp   1
 Largest Abelian subgroup         C1      NOp   1
 Largest concise Abelian subgroup C1      NOp   1
                         Standard orientation:                         
 ---------------------------------------------------------------------
 Center     Atomic      Atomic             Coordinates (Angstroms)
 Number     Number       Type             X           Y           Z
 ---------------------------------------------------------------------
      1          6           0       -3.939588    0.755913    0.289385
      2          6           0       -2.542572    0.991655    0.465482
      3          6           0       -1.739204    0.039405   -0.118095
      4          6           0       -4.189080   -0.384685   -0.417263
      5          1           0       -4.714640    1.406382    0.676476
      6         16           0       -2.734791   -1.182813   -0.893262
      7          1           0       -5.147587   -0.797316   -0.691965
      8          6           0       -0.285433   -0.047994   -0.090462
      9         16           0        0.515246   -1.331583    0.835771
     10          6           0        2.083121   -0.696024    0.426659
     11          6           0        1.960731    0.446072   -0.354868
     12          6           0        0.620956    0.814062   -0.650338
     13          1           0        0.323229    1.666367   -1.244749
     14         16           0        3.531867    1.082468   -0.765005
     15          6           0        4.311628   -0.205690    0.124324
     16          6           0        3.429183   -1.073530    0.700049
     17          1           0        5.389747   -0.236514    0.165116
     18          1           0        3.729084   -1.929842    1.287936
     19          8           0       -2.014282    2.052300    1.143757
     20          1           0       -2.721173    2.548267    1.567821
 ---------------------------------------------------------------------
 Rotational constants (GHZ):           1.3034217           0.2652780           0.2449793

 **********************************************************************

            Population analysis using the SCF Density.

 **********************************************************************

 Orbital symmetries:
       Occupied  (A) (A) (A) (A) (A) (A) (A) (A) (A) (A) (A) (A)
                 (A) (A) (A) (A) (A) (A) (A) (A) (A) (A) (A) (A)
                 (A) (A) (A) (A) (A) (A) (A) (A) (A) (A) (A) (A)
                 (A) (A) (A) (A) (A) (A) (A) (A) (A) (A) (A) (A)
                 (A) (A) (A) (A) (A) (A) (A) (A) (A) (A) (A) (A)
                 (A)
       Virtual   (A) (A) (A) (A) (A) (A) (A) (A) (A) (A) (A) (A)
                 (A) (A) (A) (A) (A) (A) (A) (A) (A) (A) (A) (A)
                 (A) (A) (A) (A) (A) (A) (A) (A) (A) (A) (A) (A)
                 (A) (A) (A) (A) (A) (A) (A) (A) (A) (A) (A) (A)
                 (A) (A) (A) (A) (A) (A) (A) (A) (A) (A) (A) (A)
                 (A) (A) (A) (A) (A) (A) (A) (A) (A) (A) (A) (A)
                 (A) (A) (A) (A) (A) (A) (A) (A) (A) (A) (A) (A)
                 (A) (A) (A) (A) (A) (A) (A) (A) (A) (A) (A) (A)
                 (A) (A) (A) (A) (A) (A) (A) (A) (A) (A) (A) (A)
                 (A) (A) (A) (A) (A) (A) (A) (A) (A) (A) (A) (A)
                 (A) (A) (A) (A) (A) (A) (A) (A) (A) (A) (A) (A)
                 (A) (A) (A) (A) (A) (A) (A) (A) (A) (A) (A) (A)
                 (A) (A) (A) (A) (A) (A) (A) (A) (A) (A) (A) (A)
                 (A) (A) (A) (A) (A) (A) (A) (A) (A) (A) (A) (A)
                 (A) (A) (A) (A) (A) (A) (A) (A) (A) (A) (A) (A)
                 (A) (A) (A) (A) (A) (A) (A) (A) (A) (A) (A) (A)
                 (A) (A) (A) (A) (A) (A) (A) (A) (A) (A) (A) (A)
                 (A) (A) (A) (A) (A) (A) (A) (A) (A) (A) (A) (A)
                 (A) (A) (A) (A) (A) (A) (A) (A) (A) (A) (A) (A)
                 (A) (A) (A) (A) (A) (A) (A) (A) (A) (A) (A) (A)
                 (A) (A) (A) (A) (A) (A) (A) (A) (A) (A) (A) (A)
                 (A) (A) (A) (A) (A) (A) (A) (A) (A) (A) (A) (A)
                 (A) (A) (A) (A) (A) (A) (A) (A) (A) (A) (A) (A)
                 (A) (A) (A) (A) (A) (A) (A) (A) (A) (A) (A) (A)
                 (A) (A) (A) (A) (A) (A) (A) (A) (A) (A) (A) (A)
                 (A) (A) (A) (A) (A) (A)
 The electronic state is 1-A.
 Alpha  occ. eigenvalues --  -88.88447 -88.88069 -88.87801 -19.16752 -10.24884
 Alpha  occ. eigenvalues --  -10.21824 -10.21395 -10.21044 -10.20744 -10.20707
 Alpha  occ. eigenvalues --  -10.20671 -10.19183 -10.18996 -10.18861  -7.97041
 Alpha  occ. eigenvalues --   -7.96643  -7.96373  -5.93340  -5.92966  -5.92955
 Alpha  occ. eigenvalues --   -5.92689  -5.92621  -5.92591  -5.92327  -5.92193
 Alpha  occ. eigenvalues --   -5.91907  -1.07829  -0.91219  -0.89209  -0.84619
 Alpha  occ. eigenvalues --   -0.76970  -0.76049  -0.74167  -0.70993  -0.70120
 Alpha  occ. eigenvalues --   -0.61745  -0.60824  -0.57117  -0.55815  -0.53888
 Alpha  occ. eigenvalues --   -0.51834  -0.49317  -0.48404  -0.45313  -0.43620
 Alpha  occ. eigenvalues --   -0.43310  -0.41319  -0.40903  -0.39541  -0.39010
 Alpha  occ. eigenvalues --   -0.37780  -0.36790  -0.36021  -0.35711  -0.33892
 Alpha  occ. eigenvalues --   -0.33479  -0.28653  -0.25954  -0.24083  -0.23197
 Alpha  occ. eigenvalues --   -0.21468
 Alpha virt. eigenvalues --   -0.04707  -0.03070  -0.01626  -0.00105   0.00145
 Alpha virt. eigenvalues --    0.00381   0.00825   0.01679   0.02056   0.02810
 Alpha virt. eigenvalues --    0.02999   0.03674   0.03853   0.04445   0.04710
 Alpha virt. eigenvalues --    0.04969   0.05340   0.05968   0.06368   0.06764
 Alpha virt. eigenvalues --    0.07287   0.08040   0.08439   0.09170   0.09635
 Alpha virt. eigenvalues --    0.09867   0.10261   0.10700   0.11831   0.12028
 Alpha virt. eigenvalues --    0.12289   0.12576   0.13400   0.13435   0.13752
 Alpha virt. eigenvalues --    0.14104   0.14163   0.14929   0.15207   0.15829
 Alpha virt. eigenvalues --    0.16161   0.16581   0.17048   0.17407   0.17746
 Alpha virt. eigenvalues --    0.18334   0.18533   0.19097   0.19243   0.19644
 Alpha virt. eigenvalues --    0.20096   0.20528   0.20811   0.21159   0.21532
 Alpha virt. eigenvalues --    0.22152   0.22461   0.22676   0.23099   0.24006
 Alpha virt. eigenvalues --    0.24345   0.25053   0.25506   0.25655   0.26064
 Alpha virt. eigenvalues --    0.26795   0.27434   0.27982   0.28317   0.29032
 Alpha virt. eigenvalues --    0.30432   0.31509   0.32105   0.32942   0.33218
 Alpha virt. eigenvalues --    0.34155   0.34459   0.34978   0.35631   0.37096
 Alpha virt. eigenvalues --    0.37183   0.38125   0.39747   0.40151   0.41291
 Alpha virt. eigenvalues --    0.42664   0.43976   0.44810   0.46151   0.46530
 Alpha virt. eigenvalues --    0.47402   0.49748   0.50171   0.52455   0.53399
 Alpha virt. eigenvalues --    0.54584   0.55371   0.55758   0.56318   0.57122
 Alpha virt. eigenvalues --    0.58687   0.59495   0.59547   0.60352   0.61926
 Alpha virt. eigenvalues --    0.62934   0.63386   0.63909   0.64634   0.66123
 Alpha virt. eigenvalues --    0.66303   0.69992   0.70503   0.70883   0.71038
 Alpha virt. eigenvalues --    0.72532   0.73133   0.73674   0.73937   0.75062
 Alpha virt. eigenvalues --    0.76875   0.77547   0.78525   0.78998   0.79578
 Alpha virt. eigenvalues --    0.80642   0.81393   0.82330   0.82920   0.83675
 Alpha virt. eigenvalues --    0.84024   0.85063   0.85630   0.86562   0.86994
 Alpha virt. eigenvalues --    0.87637   0.88818   0.90475   0.91037   0.93997
 Alpha virt. eigenvalues --    0.94103   0.95335   0.96803   0.97058   0.98456
 Alpha virt. eigenvalues --    1.00268   1.02137   1.02428   1.03708   1.04082
 Alpha virt. eigenvalues --    1.04949   1.06349   1.07267   1.07718   1.09194
 Alpha virt. eigenvalues --    1.11358   1.12673   1.14580   1.15684   1.17012
 Alpha virt. eigenvalues --    1.19046   1.21707   1.26277   1.29783   1.31573
 Alpha virt. eigenvalues --    1.34462   1.35047   1.35659   1.38332   1.40732
 Alpha virt. eigenvalues --    1.42843   1.47658   1.49880   1.51612   1.53850
 Alpha virt. eigenvalues --    1.56177   1.57025   1.58696   1.59368   1.60272
 Alpha virt. eigenvalues --    1.61699   1.63091   1.65050   1.67770   1.68874
 Alpha virt. eigenvalues --    1.70145   1.72560   1.73055   1.73452   1.74649
 Alpha virt. eigenvalues --    1.76434   1.77312   1.78669   1.79351   1.81832
 Alpha virt. eigenvalues --    1.83825   1.85279   1.86593   1.89023   1.89704
 Alpha virt. eigenvalues --    1.91252   1.92241   1.93811   1.96338   1.97050
 Alpha virt. eigenvalues --    1.99325   2.00082   2.02475   2.03812   2.05277
 Alpha virt. eigenvalues --    2.06578   2.08299   2.08868   2.09584   2.10768
 Alpha virt. eigenvalues --    2.12554   2.13623   2.14422   2.16990   2.18573
 Alpha virt. eigenvalues --    2.19134   2.20167   2.28557   2.32805   2.37253
 Alpha virt. eigenvalues --    2.41015   2.41225   2.45211   2.49797   2.52954
 Alpha virt. eigenvalues --    2.56347   2.59221   2.62724   2.63642   2.69282
 Alpha virt. eigenvalues --    2.70218   2.70709   2.71197   2.72892   2.73269
 Alpha virt. eigenvalues --    2.74084   2.77772   2.78319   2.82707   2.87056
 Alpha virt. eigenvalues --    2.89654   2.93062   2.94717   2.96198   2.97736
 Alpha virt. eigenvalues --    3.01879   3.05709   3.08194   3.11194   3.11809
 Alpha virt. eigenvalues --    3.16558   3.17159   3.20270   3.28335   3.29050
 Alpha virt. eigenvalues --    3.29697   3.33113   3.36523   3.44075   3.46948
 Alpha virt. eigenvalues --    3.47793   3.52376   3.57557   3.69583   3.87838
 Alpha virt. eigenvalues --    3.93765   3.97810   4.05568   4.10706   4.19825
 Alpha virt. eigenvalues --    4.35627   4.50722   5.01053   5.45343   5.73639
 Alpha virt. eigenvalues --    7.97679   7.99077   8.00195  17.28616  17.30085
 Alpha virt. eigenvalues --   17.31269  17.45557  17.46424  17.50167  17.52069
 Alpha virt. eigenvalues --   17.54212  17.56983  23.47039  23.62838  23.77548
 Alpha virt. eigenvalues --   23.80899  23.86425  24.02283  24.05721  24.13175
 Alpha virt. eigenvalues --   24.14241  24.15472  49.93791 189.14256 189.15950
 Alpha virt. eigenvalues --  189.17297
          Condensed to atoms (all electrons):
               1          2          3          4          5          6
     1  C    8.050232  -2.944611   0.830049  -0.889885   0.373214   0.563727
     2  C   -2.944611  13.972921  -3.504783   2.025459  -0.032646  -1.921427
     3  C    0.830049  -3.504783  10.862647  -1.275957  -0.027446   0.111338
     4  C   -0.889885   2.025459  -1.275957   6.415374   0.039859  -0.149935
     5  H    0.373214  -0.032646  -0.027446   0.039859   0.537687   0.005034
     6  S    0.563727  -1.921427   0.111338  -0.149935   0.005034  17.131211
     7  H    0.025261  -0.028647   0.027627   0.358983  -0.005267  -0.020336
     8  C    0.235790  -1.256877   1.131815  -0.250550  -0.008027   0.078715
     9  S   -0.061610   0.155868   0.744909   0.072570  -0.000300  -0.047995
    10  C    0.029028  -0.162894  -1.160147  -0.013351  -0.000166   0.124725
    11  C   -0.145205  -0.566142   1.796682   0.015188  -0.000098  -0.064010
    12  C    0.217699   0.311419  -3.579750  -0.167340   0.000776   0.380813
    13  H   -0.000186   0.031623   0.029503   0.003516  -0.000002  -0.012727
    14  S   -0.008784  -0.014988   0.002972   0.002522  -0.000002   0.002062
    15  C    0.000597  -0.031010   0.026577  -0.001051  -0.000000   0.002611
    16  C   -0.018349   0.038873  -0.269073   0.008182  -0.000016  -0.009699
    17  H   -0.000001  -0.000001  -0.000054  -0.000000   0.000000   0.000004
    18  H    0.000003  -0.000198  -0.000611  -0.000005   0.000000   0.000065
    19  O    0.072681   0.030702  -0.072113  -0.027188  -0.007222   0.044842
    20  H   -0.183343   0.186369   0.006306   0.007529   0.004264  -0.019857
               7          8          9         10         11         12
     1  C    0.025261   0.235790  -0.061610   0.029028  -0.145205   0.217699
     2  C   -0.028647  -1.256877   0.155868  -0.162894  -0.566142   0.311419
     3  C    0.027627   1.131815   0.744909  -1.160147   1.796682  -3.579750
     4  C    0.358983  -0.250550   0.072570  -0.013351   0.015188  -0.167340
     5  H   -0.005267  -0.008027  -0.000300  -0.000166  -0.000098   0.000776
     6  S   -0.020336   0.078715  -0.047995   0.124725  -0.064010   0.380813
     7  H    0.483294  -0.003633  -0.000526  -0.000207   0.000011  -0.000132
     8  C   -0.003633  11.834244   1.690281  -1.044857   4.064409  -7.697328
     9  S   -0.000526   1.690281  18.548997  -0.059120   2.612690  -5.079842
    10  C   -0.000207  -1.044857  -0.059120  18.154126  -4.399511   0.902071
    11  C    0.000011   4.064409   2.612690  -4.399511  19.246205 -13.526464
    12  C   -0.000132  -7.697328  -5.079842   0.902071 -13.526464  29.014549
    13  H    0.000000   0.047728   0.020104  -0.083697   0.120259   0.180335
    14  S   -0.000002  -0.758374   0.215018   0.270396  -0.543384  -0.391618
    15  C   -0.000000   0.264843   0.360998   1.609311  -0.053228  -1.256499
    16  C   -0.000013  -2.429542  -2.626284  -8.331345  -2.157089   6.003937
    17  H    0.000000   0.003486  -0.002056  -0.003012   0.023589   0.009073
    18  H    0.000000  -0.008351   0.024486   0.031388  -0.067171  -0.007505
    19  O   -0.000356  -0.035501  -0.035836   0.033401  -0.041967   0.066750
    20  H   -0.000042   0.015373   0.003004   0.001175   0.005551  -0.004665
              13         14         15         16         17         18
     1  C   -0.000186  -0.008784   0.000597  -0.018349  -0.000001   0.000003
     2  C    0.031623  -0.014988  -0.031010   0.038873  -0.000001  -0.000198
     3  C    0.029503   0.002972   0.026577  -0.269073  -0.000054  -0.000611
     4  C    0.003516   0.002522  -0.001051   0.008182  -0.000000  -0.000005
     5  H   -0.000002  -0.000002  -0.000000  -0.000016   0.000000   0.000000
     6  S   -0.012727   0.002062   0.002611  -0.009699   0.000004   0.000065
     7  H    0.000000  -0.000002  -0.000000  -0.000013   0.000000   0.000000
     8  C    0.047728  -0.758374   0.264843  -2.429542   0.003486  -0.008351
     9  S    0.020104   0.215018   0.360998  -2.626284  -0.002056   0.024486
    10  C   -0.083697   0.270396   1.609311  -8.331345  -0.003012   0.031388
    11  C    0.120259  -0.543384  -0.053228  -2.157089   0.023589  -0.067171
    12  C    0.180335  -0.391618  -1.256499   6.003937   0.009073  -0.007505
    13  H    0.526394   0.011733   0.001756  -0.006418  -0.000007   0.000007
    14  S    0.011733  17.312769   0.428518  -0.109394  -0.042675   0.013436
    15  C    0.001756   0.428518   5.978185  -1.519913   0.372617   0.032911
    16  C   -0.006418  -0.109394  -1.519913  16.736288  -0.001572   0.330533
    17  H   -0.000007  -0.042675   0.372617  -0.001572   0.479370  -0.005000
    18  H    0.000007   0.013436   0.032911   0.330533  -0.005000   0.521804
    19  O   -0.000895  -0.001061   0.000006   0.005076  -0.000000  -0.000000
    20  H    0.000213   0.000056   0.000010   0.000562  -0.000000  -0.000000
              19         20
     1  C    0.072681  -0.183343
     2  C    0.030702   0.186369
     3  C   -0.072113   0.006306
     4  C   -0.027188   0.007529
     5  H   -0.007222   0.004264
     6  S    0.044842  -0.019857
     7  H   -0.000356  -0.000042
     8  C   -0.035501   0.015373
     9  S   -0.035836   0.003004
    10  C    0.033401   0.001175
    11  C   -0.041967   0.005551
    12  C    0.066750  -0.004665
    13  H   -0.000895   0.000213
    14  S   -0.001061   0.000056
    15  C    0.000006   0.000010
    16  C    0.005076   0.000562
    17  H   -0.000000  -0.000000
    18  H   -0.000000  -0.000000
    19  O    8.009482   0.185423
    20  H    0.185423   0.538421
 Mulliken charges:
               1
     1  C   -0.146308
     2  C   -0.289007
     3  C    0.319510
     4  C   -0.173919
     5  H    0.120358
     6  S   -0.199160
     7  H    0.163986
     8  C    0.126357
     9  S   -0.535359
    10  C    0.102686
    11  C   -0.320314
    12  C    0.623719
    13  H    0.130761
    14  S   -0.389200
    15  C   -0.217239
    16  C    0.355255
    17  H    0.166239
    18  H    0.134208
    19  O   -0.226222
    20  H    0.253651
 Sum of Mulliken charges =  -0.00000
 Mulliken charges with hydrogens summed into heavy atoms:
               1
     1  C   -0.025949
     2  C   -0.289007
     3  C    0.319510
     4  C   -0.009934
     6  S   -0.199160
     8  C    0.126357
     9  S   -0.535359
    10  C    0.102686
    11  C   -0.320314
    12  C    0.754480
    14  S   -0.389200
    15  C   -0.051001
    16  C    0.489463
    19  O    0.027428
 Electronic spatial extent (au):  <R**2>=           4315.0987
 Charge=             -0.0000 electrons
 Dipole moment (field-independent basis, Debye):
    X=             -1.9281    Y=              0.8546    Z=              0.6643  Tot=              2.2112
 Quadrupole moment (field-independent basis, Debye-Ang):
   XX=            -79.6391   YY=            -98.5043   ZZ=           -103.8247
   XY=             -7.8691   XZ=             -1.2687   YZ=              0.4430
 Traceless Quadrupole moment (field-independent basis, Debye-Ang):
   XX=             14.3503   YY=             -4.5149   ZZ=             -9.8353
   XY=             -7.8691   XZ=             -1.2687   YZ=              0.4430
 Octapole moment (field-independent basis, Debye-Ang**2):
  XXX=            -38.3040  YYY=             18.7582  ZZZ=              8.4283  XYY=            -19.0153
  XXY=              8.6416  XXZ=             20.1691  XZZ=             -9.6647  YZZ=              7.6149
  YYZ=             10.6556  XYZ=            -25.8199
 Hexadecapole moment (field-independent basis, Debye-Ang**3):
 XXXX=          -4087.1600 YYYY=           -763.8623 ZZZZ=           -422.4557 XXXY=            -95.5694
 XXXZ=              2.8337 YYYX=            -72.5277 YYYZ=             25.6429 ZZZX=            -24.3610
 ZZZY=             17.5522 XXYY=           -863.4602 XXZZ=           -888.5341 YYZZ=           -174.7325
 XXYZ=             48.2443 YYXZ=            -25.1257 ZZXY=            -29.1324
 N-N= 1.122988881306D+03 E-N=-6.157726345165D+03  KE= 1.651063686444D+03
 Unable to Open any file for archive entry.
 1\1\GINC-CX3-5-27\FOpt\RB3LYP\6-311+G(d,p)\C10H6O1S3\NS5018\17-Oct-202
 1\0\\# opt=modredundant b3lyp/6-311+g(d,p)\\pBTTT_110.pdb\\0,1\C,-4.10
 26477401,-1.1568279498,-0.1795325812\C,-2.7577548976,-1.0366621451,-0.
 6432795498\C,-2.0607289258,-2.2227889268,-0.6436536011\C,-4.4149683859
 ,-2.4348660735,0.183285818\H,-4.7960835687,-0.3267379073,-0.1182846324
 \S,-3.0889133955,-3.5154831356,-0.0455948486\H,-5.3540879334,-2.804082
 5083,0.5656388145\C,-0.6681710153,-2.4455534739,-1.008359422\S,0.52596
 25936,-2.8613036854,0.2357443793\C,1.8056805149,-2.861877081,-0.944027
 374\C,1.313610469,-2.5353619074,-2.2015659368\C,-0.0868007891,-2.30080
 59213,-2.2409168888\H,-0.6524199929,-2.03946357,-3.1241861328\S,2.5959
 961663,-2.5364079442,-3.3835825792\C,3.7596906489,-2.9776975861,-2.155
 0222109\C,3.2064681216,-3.1189700113,-0.915141986\H,4.7944653551,-3.10
 44151167,-2.4345539167\H,3.772642594,-3.3878848126,-0.0342605853\O,-2.
 1809527559,0.1298351754,-1.0564356093\H,-2.7799870632,0.8633545809,-0.
 887271157\\Version=ES64L-G16RevC.01\State=1-A\HF=-1654.6298355\RMSD=3.
 018e-09\RMSF=4.522e-04\Dipole=-0.6780015,0.5138178,0.1819676\Quadrupol
 e=9.5724934,-3.4049309,-6.1675624,-7.0711512,-1.9618208,-0.1663754\PG=
 C01 [X(C10H6O1S3)]\\@
 The archive entry for this job was punched.


 It takes a long time to grow an old friend.
                            -- John Leonard
 Job cpu time:       0 days  3 hours 27 minutes 34.5 seconds.
 Elapsed time:       0 days  0 hours 26 minutes  9.6 seconds.
 File lengths (MBytes):  RWF=     86 Int=      0 D2E=      0 Chk=     11 Scr=      1
 Normal termination of Gaussian 16 at Sun Oct 17 02:33:52 2021.
