 Entering Gaussian System, Link 0=g16
 Input=pBTTT_-70.gjf
 Output=pBTTT_-70.log
 Initial command:
 /apps/gaussian/g16-c01-avx/g16/l1.exe "/tmp/pbs.4729018[105].pbs/Gau-187726.inp" -scrdir="/tmp/pbs.4729018[105].pbs/"
 Entering Link 1 = /apps/gaussian/g16-c01-avx/g16/l1.exe PID=    187727.
  
 Copyright (c) 1988-2019, Gaussian, Inc.  All Rights Reserved.
  
 This is part of the Gaussian(R) 16 program.  It is based on
 the Gaussian(R) 09 system (copyright 2009, Gaussian, Inc.),
 the Gaussian(R) 03 system (copyright 2003, Gaussian, Inc.),
 the Gaussian(R) 98 system (copyright 1998, Gaussian, Inc.),
 the Gaussian(R) 94 system (copyright 1995, Gaussian, Inc.),
 the Gaussian 92(TM) system (copyright 1992, Gaussian, Inc.),
 the Gaussian 90(TM) system (copyright 1990, Gaussian, Inc.),
 the Gaussian 88(TM) system (copyright 1988, Gaussian, Inc.),
 the Gaussian 86(TM) system (copyright 1986, Carnegie Mellon
 University), and the Gaussian 82(TM) system (copyright 1983,
 Carnegie Mellon University). Gaussian is a federally registered
 trademark of Gaussian, Inc.
  
 This software contains proprietary and confidential information,
 including trade secrets, belonging to Gaussian, Inc.
  
 This software is provided under written license and may be
 used, copied, transmitted, or stored only in accord with that
 written license.
  
 The following legend is applicable only to US Government
 contracts under FAR:
  
                    RESTRICTED RIGHTS LEGEND
  
 Use, reproduction and disclosure by the US Government is
 subject to restrictions as set forth in subparagraphs (a)
 and (c) of the Commercial Computer Software - Restricted
 Rights clause in FAR 52.227-19.
  
 Gaussian, Inc.
 340 Quinnipiac St., Bldg. 40, Wallingford CT 06492
  
  
 ---------------------------------------------------------------
 Warning -- This program may not be used in any manner that
 competes with the business of Gaussian, Inc. or will provide
 assistance to any competitor of Gaussian, Inc.  The licensee
 of this program is prohibited from giving any competitor of
 Gaussian, Inc. access to this program.  By using this program,
 the user acknowledges that Gaussian, Inc. is engaged in the
 business of creating and licensing software in the field of
 computational chemistry and represents and warrants to the
 licensee that it is not a competitor of Gaussian, Inc. and that
 it will not use this program in any manner prohibited above.
 ---------------------------------------------------------------
  

 Cite this work as:
 Gaussian 16, Revision C.01,
 M. J. Frisch, G. W. Trucks, H. B. Schlegel, G. E. Scuseria, 
 M. A. Robb, J. R. Cheeseman, G. Scalmani, V. Barone, 
 G. A. Petersson, H. Nakatsuji, X. Li, M. Caricato, A. V. Marenich, 
 J. Bloino, B. G. Janesko, R. Gomperts, B. Mennucci, H. P. Hratchian, 
 J. V. Ortiz, A. F. Izmaylov, J. L. Sonnenberg, D. Williams-Young, 
 F. Ding, F. Lipparini, F. Egidi, J. Goings, B. Peng, A. Petrone, 
 T. Henderson, D. Ranasinghe, V. G. Zakrzewski, J. Gao, N. Rega, 
 G. Zheng, W. Liang, M. Hada, M. Ehara, K. Toyota, R. Fukuda, 
 J. Hasegawa, M. Ishida, T. Nakajima, Y. Honda, O. Kitao, H. Nakai, 
 T. Vreven, K. Throssell, J. A. Montgomery, Jr., J. E. Peralta, 
 F. Ogliaro, M. J. Bearpark, J. J. Heyd, E. N. Brothers, K. N. Kudin, 
 V. N. Staroverov, T. A. Keith, R. Kobayashi, J. Normand, 
 K. Raghavachari, A. P. Rendell, J. C. Burant, S. S. Iyengar, 
 J. Tomasi, M. Cossi, J. M. Millam, M. Klene, C. Adamo, R. Cammi, 
 J. W. Ochterski, R. L. Martin, K. Morokuma, O. Farkas, 
 J. B. Foresman, and D. J. Fox, Gaussian, Inc., Wallingford CT, 2019.
 
 ******************************************
 Gaussian 16:  ES64L-G16RevC.01  3-Jul-2019
                17-Oct-2021 
 ******************************************
 %mem=10GB
 %nprocshared=8
 Will use up to    8 processors via shared memory.
 -------------------------------------
 # opt=modredundant b3lyp/6-311+g(d,p)
 -------------------------------------
 1/18=120,19=15,26=3,38=1/1,3;
 2/9=110,12=2,17=6,18=5,40=1/2;
 3/5=4,6=6,7=111,11=2,25=1,30=1,71=1,74=-5/1,2,3;
 4//1;
 5/5=2,38=5/2;
 6/7=2,8=2,9=2,10=2,28=1/1;
 7//1,2,3,16;
 1/18=20,19=15,26=3/3(2);
 2/9=110/2;
 99//99;
 2/9=110/2;
 3/5=4,6=6,7=111,11=2,25=1,30=1,71=1,74=-5/1,2,3;
 4/5=5,16=3,69=1/1;
 5/5=2,38=5/2;
 7//1,2,3,16;
 1/18=20,19=15,26=3/3(-5);
 2/9=110/2;
 6/7=2,8=2,9=2,10=2,19=2,28=1/1;
 99/9=1/99;
 -------------
 pBTTT_-70.pdb
 -------------
 Symbolic Z-matrix:
 Charge =  0 Multiplicity = 1
 C                    -4.25     -1.36     -0.21 
 C                    -2.93     -0.95     -0.61 
 C                    -1.97     -2.05     -0.62 
 C                    -4.33     -2.76      0.1 
 H                    -5.1      -0.7      -0.14 
 S                    -2.8      -3.56     -0.11 
 H                    -5.23     -3.27      0.41 
 C                    -0.56     -2.13     -0.97 
 S                     0.008    -1.97     -2.66 
 C                     1.667    -2.164    -2.21 
 C                     1.834    -2.325    -0.788 
 C                     0.59     -2.29     -0.078 
 H                     0.529    -2.23      0.998 
 S                     3.396    -1.814    -0.237 
 C                     3.879    -1.386    -1.88 
 C                     2.823    -1.616    -2.839 
 H                     4.788    -0.843    -2.093 
 H                     2.823    -1.169    -3.83 
 O                    -2.4       0.49     -0.72 
 H                    -2.92      1.52     -0.76 
 
 Add virtual bond connecting atoms H20        and O19        Dist= 2.18D+00.
 The following ModRedundant input section has been read:
 D       2       3       8       9 F                                           
 

 GradGradGradGradGradGradGradGradGradGradGradGradGradGradGradGradGradGrad
 Berny optimization.
 Initialization pass.
                           ----------------------------
                           !    Initial Parameters    !
                           ! (Angstroms and Degrees)  !
 --------------------------                            --------------------------
 ! Name  Definition              Value          Derivative Info.                !
 --------------------------------------------------------------------------------
 ! R1    R(1,2)                  1.4389         estimate D2E/DX2                !
 ! R2    R(1,4)                  1.4361         estimate D2E/DX2                !
 ! R3    R(1,5)                  1.0784         estimate D2E/DX2                !
 ! R4    R(2,3)                  1.46           estimate D2E/DX2                !
 ! R5    R(2,19)                 1.5384         estimate D2E/DX2                !
 ! R6    R(3,6)                  1.797          estimate D2E/DX2                !
 ! R7    R(3,8)                  1.455          estimate D2E/DX2                !
 ! R8    R(4,6)                  1.7393         estimate D2E/DX2                !
 ! R9    R(4,7)                  1.0799         estimate D2E/DX2                !
 ! R10   R(8,9)                  1.7901         estimate D2E/DX2                !
 ! R11   R(8,12)                 1.4642         estimate D2E/DX2                !
 ! R12   R(9,10)                 1.7299         estimate D2E/DX2                !
 ! R13   R(10,11)                1.4408         estimate D2E/DX2                !
 ! R14   R(10,16)                1.4256         estimate D2E/DX2                !
 ! R15   R(11,12)                1.4328         estimate D2E/DX2                !
 ! R16   R(11,14)                1.7334         estimate D2E/DX2                !
 ! R17   R(12,13)                1.0794         estimate D2E/DX2                !
 ! R18   R(14,15)                1.7652         estimate D2E/DX2                !
 ! R19   R(15,16)                1.4449         estimate D2E/DX2                !
 ! R20   R(15,17)                1.08           estimate D2E/DX2                !
 ! R21   R(16,18)                1.0871         estimate D2E/DX2                !
 ! R22   R(19,20)                1.1545         estimate D2E/DX2                !
 ! A1    A(2,1,4)              112.8843         estimate D2E/DX2                !
 ! A2    A(2,1,5)              124.5209         estimate D2E/DX2                !
 ! A3    A(4,1,5)              122.5942         estimate D2E/DX2                !
 ! A4    A(1,2,3)              112.9799         estimate D2E/DX2                !
 ! A5    A(1,2,19)             127.059          estimate D2E/DX2                !
 ! A6    A(3,2,19)             118.5686         estimate D2E/DX2                !
 ! A7    A(2,3,6)              109.1138         estimate D2E/DX2                !
 ! A8    A(2,3,8)              132.8639         estimate D2E/DX2                !
 ! A9    A(6,3,8)              118.0132         estimate D2E/DX2                !
 ! A10   A(1,4,6)              111.9209         estimate D2E/DX2                !
 ! A11   A(1,4,7)              124.6643         estimate D2E/DX2                !
 ! A12   A(6,4,7)              123.4062         estimate D2E/DX2                !
 ! A13   A(3,6,4)               93.0997         estimate D2E/DX2                !
 ! A14   A(3,8,9)              121.9842         estimate D2E/DX2                !
 ! A15   A(3,8,12)             128.3603         estimate D2E/DX2                !
 ! A16   A(9,8,12)             109.6158         estimate D2E/DX2                !
 ! A17   A(8,9,10)              92.7908         estimate D2E/DX2                !
 ! A18   A(9,10,11)            112.3606         estimate D2E/DX2                !
 ! A19   A(9,10,16)            128.301          estimate D2E/DX2                !
 ! A20   A(11,10,16)           112.6085         estimate D2E/DX2                !
 ! A21   A(10,11,12)           112.6878         estimate D2E/DX2                !
 ! A22   A(10,11,14)           112.6585         estimate D2E/DX2                !
 ! A23   A(12,11,14)           128.147          estimate D2E/DX2                !
 ! A24   A(8,12,11)            112.5023         estimate D2E/DX2                !
 ! A25   A(8,12,13)            123.8378         estimate D2E/DX2                !
 ! A26   A(11,12,13)           122.984          estimate D2E/DX2                !
 ! A27   A(11,14,15)            91.2709         estimate D2E/DX2                !
 ! A28   A(14,15,16)           112.2839         estimate D2E/DX2                !
 ! A29   A(14,15,17)           122.395          estimate D2E/DX2                !
 ! A30   A(16,15,17)           124.3496         estimate D2E/DX2                !
 ! A31   A(10,16,15)           111.1608         estimate D2E/DX2                !
 ! A32   A(10,16,18)           124.0735         estimate D2E/DX2                !
 ! A33   A(15,16,18)           122.6542         estimate D2E/DX2                !
 ! A34   A(2,19,20)            133.0318         estimate D2E/DX2                !
 ! D1    D(4,1,2,3)              0.3915         estimate D2E/DX2                !
 ! D2    D(4,1,2,19)          -165.8104         estimate D2E/DX2                !
 ! D3    D(5,1,2,3)           -179.8811         estimate D2E/DX2                !
 ! D4    D(5,1,2,19)            13.9169         estimate D2E/DX2                !
 ! D5    D(2,1,4,6)             -0.3845         estimate D2E/DX2                !
 ! D6    D(2,1,4,7)           -179.3471         estimate D2E/DX2                !
 ! D7    D(5,1,4,6)            179.8822         estimate D2E/DX2                !
 ! D8    D(5,1,4,7)              0.9196         estimate D2E/DX2                !
 ! D9    D(1,2,3,6)             -0.2224         estimate D2E/DX2                !
 ! D10   D(1,2,3,8)            178.6265         estimate D2E/DX2                !
 ! D11   D(19,2,3,6)           167.2616         estimate D2E/DX2                !
 ! D12   D(19,2,3,8)           -13.8895         estimate D2E/DX2                !
 ! D13   D(1,2,19,20)          -16.0519         estimate D2E/DX2                !
 ! D14   D(3,2,19,20)          178.4264         estimate D2E/DX2                !
 ! D15   D(2,3,6,4)              0.0033         estimate D2E/DX2                !
 ! D16   D(8,3,6,4)           -179.041          estimate D2E/DX2                !
 ! D17   D(2,3,8,9)            -70.007          Frozen                          !
 ! D18   D(2,3,8,12)           107.4577         estimate D2E/DX2                !
 ! D19   D(6,3,8,9)            108.7609         estimate D2E/DX2                !
 ! D20   D(6,3,8,12)           -73.7744         estimate D2E/DX2                !
 ! D21   D(1,4,6,3)              0.2153         estimate D2E/DX2                !
 ! D22   D(7,4,6,3)            179.1932         estimate D2E/DX2                !
 ! D23   D(3,8,9,10)           179.768          estimate D2E/DX2                !
 ! D24   D(12,8,9,10)            1.8783         estimate D2E/DX2                !
 ! D25   D(3,8,12,11)         -179.8582         estimate D2E/DX2                !
 ! D26   D(3,8,12,13)           -9.0508         estimate D2E/DX2                !
 ! D27   D(9,8,12,11)           -2.141          estimate D2E/DX2                !
 ! D28   D(9,8,12,13)          168.6664         estimate D2E/DX2                !
 ! D29   D(8,9,10,11)           -1.1725         estimate D2E/DX2                !
 ! D30   D(8,9,10,16)         -149.8867         estimate D2E/DX2                !
 ! D31   D(9,10,11,12)           0.1218         estimate D2E/DX2                !
 ! D32   D(9,10,11,14)        -154.0365         estimate D2E/DX2                !
 ! D33   D(16,10,11,12)        153.9247         estimate D2E/DX2                !
 ! D34   D(16,10,11,14)         -0.2336         estimate D2E/DX2                !
 ! D35   D(9,10,16,15)         149.7162         estimate D2E/DX2                !
 ! D36   D(9,10,16,18)         -14.0885         estimate D2E/DX2                !
 ! D37   D(11,10,16,15)          1.0645         estimate D2E/DX2                !
 ! D38   D(11,10,16,18)       -162.7403         estimate D2E/DX2                !
 ! D39   D(10,11,12,8)           1.3373         estimate D2E/DX2                !
 ! D40   D(10,11,12,13)       -169.5608         estimate D2E/DX2                !
 ! D41   D(14,11,12,8)         150.5747         estimate D2E/DX2                !
 ! D42   D(14,11,12,13)        -20.3234         estimate D2E/DX2                !
 ! D43   D(10,11,14,15)         -0.5062         estimate D2E/DX2                !
 ! D44   D(12,11,14,15)       -149.751          estimate D2E/DX2                !
 ! D45   D(11,14,15,16)          1.1168         estimate D2E/DX2                !
 ! D46   D(11,14,15,17)        170.2865         estimate D2E/DX2                !
 ! D47   D(14,15,16,10)         -1.4406         estimate D2E/DX2                !
 ! D48   D(14,15,16,18)        162.6332         estimate D2E/DX2                !
 ! D49   D(17,15,16,10)       -170.361          estimate D2E/DX2                !
 ! D50   D(17,15,16,18)         -6.2872         estimate D2E/DX2                !
 --------------------------------------------------------------------------------
 Trust Radius=3.00D-01 FncErr=1.00D-07 GrdErr=1.00D-06 EigMax=2.50D+02 EigMin=1.00D-04
 Number of steps in this run=    116 maximum allowed number of steps=    120.
 GradGradGradGradGradGradGradGradGradGradGradGradGradGradGradGradGradGrad

                          Input orientation:                          
 ---------------------------------------------------------------------
 Center     Atomic      Atomic             Coordinates (Angstroms)
 Number     Number       Type             X           Y           Z
 ---------------------------------------------------------------------
      1          6           0       -4.250000   -1.360000   -0.210000
      2          6           0       -2.930000   -0.950000   -0.610000
      3          6           0       -1.970000   -2.050000   -0.620000
      4          6           0       -4.330000   -2.760000    0.100000
      5          1           0       -5.100000   -0.700000   -0.140000
      6         16           0       -2.800000   -3.560000   -0.110000
      7          1           0       -5.230000   -3.270000    0.410000
      8          6           0       -0.560000   -2.130000   -0.970000
      9         16           0        0.008000   -1.970000   -2.660000
     10          6           0        1.667000   -2.164000   -2.210000
     11          6           0        1.834000   -2.325000   -0.788000
     12          6           0        0.590000   -2.290000   -0.078000
     13          1           0        0.529000   -2.230000    0.998000
     14         16           0        3.396000   -1.814000   -0.237000
     15          6           0        3.879000   -1.386000   -1.880000
     16          6           0        2.823000   -1.616000   -2.839000
     17          1           0        4.788000   -0.843000   -2.093000
     18          1           0        2.823000   -1.169000   -3.830000
     19          8           0       -2.400000    0.490000   -0.720000
     20          1           0       -2.920000    1.520000   -0.760000
 ---------------------------------------------------------------------
                    Distance matrix (angstroms):
                    1          2          3          4          5
     1  C    0.000000
     2  C    1.438923   0.000000
     3  C    2.417147   1.460034   0.000000
     4  C    1.436141   2.395871   2.567509   0.000000
     5  H    1.078425   2.234346   3.442354   2.212261   0.000000
     6  S    2.636759   2.660639   1.796970   1.739253   3.670218
     7  H    2.234480   3.422397   3.630000   1.079907   2.631406
     8  C    3.845335   2.671872   1.454991   3.969219   4.831708
     9  S    4.950269   3.724882   2.842619   5.201917   5.835663
    10  C    6.297405   5.016593   3.971003   6.454094   7.226374
    11  C    6.187113   4.961653   3.817626   6.242809   7.151286
    12  C    4.930307   3.803817   2.627730   4.945602   5.908303
    13  H    5.005497   4.023524   2.982503   4.969626   5.943197
    14  S    7.659514   6.395616   5.384825   7.790992   8.569272
    15  C    8.298808   6.940135   6.019908   8.555464   9.171730
    16  C    7.550133   6.205563   5.299544   7.817408   8.420070
    17  H    9.246536   7.859915   7.021192   9.571941  10.080040
    18  H    7.947843   6.596466   5.835504   8.315142   8.752713
    19  O    2.665539   1.538376   2.578081   3.867790   3.007075
    20  H    3.219596   2.474571   3.696891   4.587603   3.172570
                    6          7          8          9         10
     6  S    0.000000
     7  H    2.501879   0.000000
     8  C    2.793224   5.001290   0.000000
     9  S    4.112841   6.208989   1.790063   0.000000
    10  C    5.129611   7.460311   2.549173   1.729860   0.000000
    11  C    4.843435   7.226917   2.408814   2.639069   1.440796
    12  C    3.620224   5.922073   1.464160   2.666055   2.391909
    13  H    3.752173   5.881618   2.251432   3.704053   3.404506
    14  S    6.438560   8.771911   4.035726   4.168190   2.646634
    15  C    7.243495   9.579532   4.591988   3.991754   2.367937
    16  C    6.545587   8.839826   3.898980   2.842812   1.425581
    17  H    8.300128  10.607340   5.614143   4.943685   3.391072
    18  H    7.153559   9.340375   4.532969   3.151940   2.225031
    19  O    4.115167   4.839773   3.211308   3.951413   5.079794
    20  H    5.122821   5.445099   4.351574   4.935918   6.059284
                   11         12         13         14         15
    11  C    0.000000
    12  C    1.432781   0.000000
    13  H    2.214011   1.079397   0.000000
    14  S    1.733368   2.850525   3.149281   0.000000
    15  C    2.501242   3.857712   4.496412   1.765197   0.000000
    16  C    2.384828   3.614372   4.512427   2.671692   1.444893
    17  H    3.553233   4.876191   5.442162   2.515003   1.080046
    18  H    3.401209   4.507819   5.449563   3.695132   2.228166
    19  O    5.084841   4.132876   4.350743   6.255823   6.655135
    20  H    6.114354   5.225067   5.389681   7.161071   7.478345
                   16         17         18         19         20
    16  C    0.000000
    17  H    2.239480   0.000000
    18  H    1.087148   2.642853   0.000000
    19  O    6.017070   7.438371   6.301120   0.000000
    20  H    6.865769   8.171531   7.045401   1.154513   0.000000
 Stoichiometry    C10H6OS3
 Framework group  C1[X(C10H6OS3)]
 Deg. of freedom    54
 Full point group                 C1      NOp   1
 Largest Abelian subgroup         C1      NOp   1
 Largest concise Abelian subgroup C1      NOp   1
                         Standard orientation:                         
 ---------------------------------------------------------------------
 Center     Atomic      Atomic             Coordinates (Angstroms)
 Number     Number       Type             X           Y           Z
 ---------------------------------------------------------------------
      1          6           0       -4.014829    0.575345    0.475566
      2          6           0       -2.627219    0.948180    0.553238
      3          6           0       -1.732006   -0.071356    0.013941
      4          6           0       -4.212709   -0.722094   -0.107526
      5          1           0       -4.832708    1.189342    0.817739
      6         16           0       -2.707818   -1.465663   -0.562948
      7          1           0       -5.175969   -1.183877   -0.265914
      8          6           0       -0.287192   -0.135927   -0.145251
      9         16           0        0.581695    0.878586   -1.336940
     10          6           0        2.122379    0.229424   -0.892759
     11          6           0        2.023851   -0.736961    0.171330
     12          6           0        0.675481   -0.938013    0.612167
     13          1           0        0.425063   -1.495722    1.501745
     14         16           0        3.483107   -0.860224    1.098661
     15          6           0        4.272201    0.356111    0.091794
     16          6           0        3.396214    0.867914   -0.937002
     17          1           0        5.228388    0.787864    0.348300
     18          1           0        3.594459    1.795514   -1.468177
     19          8           0       -2.021218    2.099866    1.373592
     20          1           0       -2.478246    3.029009    1.884198
 ---------------------------------------------------------------------
 Rotational constants (GHZ):           1.1700318           0.2572027           0.2472950
 Standard basis: 6-311+G(d,p) (5D, 7F)
 There are   382 symmetry adapted cartesian basis functions of A   symmetry.
 There are   368 symmetry adapted basis functions of A   symmetry.
   368 basis functions,   594 primitive gaussians,   382 cartesian basis functions
    61 alpha electrons       61 beta electrons
       nuclear repulsion energy      1100.5340347122 Hartrees.
 NAtoms=   20 NActive=   20 NUniq=   20 SFac= 1.00D+00 NAtFMM=   60 NAOKFM=F Big=F
 Integral buffers will be    131072 words long.
 Raffenetti 2 integral format.
 Two-electron integral symmetry is turned on.
 One-electron integrals computed using PRISM.
 NBasis=   368 RedAO= T EigKep=  3.94D-06  NBF=   368
 NBsUse=   367 1.00D-06 EigRej=  5.53D-07 NBFU=   367
 ExpMin= 4.05D-02 ExpMax= 9.34D+04 ExpMxC= 3.17D+03 IAcc=3 IRadAn=         5 AccDes= 0.00D+00
 Harris functional with IExCor=  402 and IRadAn=       5 diagonalized for initial guess.
 HarFok:  IExCor=  402 AccDes= 0.00D+00 IRadAn=         5 IDoV= 1 UseB2=F ITyADJ=14
 ICtDFT=  3500011 ScaDFX=  1.000000  1.000000  1.000000  1.000000
 FoFCou: FMM=F IPFlag=           0 FMFlag=      100000 FMFlg1=           0
         NFxFlg=           0 DoJE=T BraDBF=F KetDBF=T FulRan=T
         wScrn=  0.000000 ICntrl=       500 IOpCl=  0 I1Cent=   200000004 NGrid=           0
         NMat0=    1 NMatS0=      1 NMatT0=    0 NMatD0=    1 NMtDS0=    0 NMtDT0=    0
 Petite list used in FoFCou.
 Requested convergence on RMS density matrix=1.00D-08 within 128 cycles.
 Requested convergence on MAX density matrix=1.00D-06.
 Requested convergence on             energy=1.00D-06.
 No special actions if energy rises.
 SCF Done:  E(RB3LYP) =  -1654.53116510     A.U. after   17 cycles
            NFock= 17  Conv=0.47D-08     -V/T= 2.0031

 **********************************************************************

            Population analysis using the SCF Density.

 **********************************************************************

 Orbital symmetries:
       Occupied  (A) (A) (A) (A) (A) (A) (A) (A) (A) (A) (A) (A)
                 (A) (A) (A) (A) (A) (A) (A) (A) (A) (A) (A) (A)
                 (A) (A) (A) (A) (A) (A) (A) (A) (A) (A) (A) (A)
                 (A) (A) (A) (A) (A) (A) (A) (A) (A) (A) (A) (A)
                 (A) (A) (A) (A) (A) (A) (A) (A) (A) (A) (A) (A)
                 (A)
       Virtual   (A) (A) (A) (A) (A) (A) (A) (A) (A) (A) (A) (A)
                 (A) (A) (A) (A) (A) (A) (A) (A) (A) (A) (A) (A)
                 (A) (A) (A) (A) (A) (A) (A) (A) (A) (A) (A) (A)
                 (A) (A) (A) (A) (A) (A) (A) (A) (A) (A) (A) (A)
                 (A) (A) (A) (A) (A) (A) (A) (A) (A) (A) (A) (A)
                 (A) (A) (A) (A) (A) (A) (A) (A) (A) (A) (A) (A)
                 (A) (A) (A) (A) (A) (A) (A) (A) (A) (A) (A) (A)
                 (A) (A) (A) (A) (A) (A) (A) (A) (A) (A) (A) (A)
                 (A) (A) (A) (A) (A) (A) (A) (A) (A) (A) (A) (A)
                 (A) (A) (A) (A) (A) (A) (A) (A) (A) (A) (A) (A)
                 (A) (A) (A) (A) (A) (A) (A) (A) (A) (A) (A) (A)
                 (A) (A) (A) (A) (A) (A) (A) (A) (A) (A) (A) (A)
                 (A) (A) (A) (A) (A) (A) (A) (A) (A) (A) (A) (A)
                 (A) (A) (A) (A) (A) (A) (A) (A) (A) (A) (A) (A)
                 (A) (A) (A) (A) (A) (A) (A) (A) (A) (A) (A) (A)
                 (A) (A) (A) (A) (A) (A) (A) (A) (A) (A) (A) (A)
                 (A) (A) (A) (A) (A) (A) (A) (A) (A) (A) (A) (A)
                 (A) (A) (A) (A) (A) (A) (A) (A) (A) (A) (A) (A)
                 (A) (A) (A) (A) (A) (A) (A) (A) (A) (A) (A) (A)
                 (A) (A) (A) (A) (A) (A) (A) (A) (A) (A) (A) (A)
                 (A) (A) (A) (A) (A) (A) (A) (A) (A) (A) (A) (A)
                 (A) (A) (A) (A) (A) (A) (A) (A) (A) (A) (A) (A)
                 (A) (A) (A) (A) (A) (A) (A) (A) (A) (A) (A) (A)
                 (A) (A) (A) (A) (A) (A) (A) (A) (A) (A) (A) (A)
                 (A) (A) (A) (A) (A) (A) (A) (A) (A) (A) (A) (A)
                 (A) (A) (A) (A) (A) (A)
 The electronic state is 1-A.
 Alpha  occ. eigenvalues --  -88.89600 -88.88822 -88.88285 -19.15898 -10.27471
 Alpha  occ. eigenvalues --  -10.23401 -10.23176 -10.22480 -10.21835 -10.21612
 Alpha  occ. eigenvalues --  -10.21563 -10.20436 -10.20286 -10.20028  -7.98038
 Alpha  occ. eigenvalues --   -7.97344  -7.96807  -5.94333  -5.93971  -5.93655
 Alpha  occ. eigenvalues --   -5.93644  -5.93298  -5.93125  -5.92898  -5.92758
 Alpha  occ. eigenvalues --   -5.92351  -0.98057  -0.90247  -0.87667  -0.83331
 Alpha  occ. eigenvalues --   -0.77142  -0.75145  -0.73929  -0.70702  -0.68608
 Alpha  occ. eigenvalues --   -0.61621  -0.58010  -0.57328  -0.53999  -0.53208
 Alpha  occ. eigenvalues --   -0.51340  -0.48809  -0.45826  -0.44615  -0.42874
 Alpha  occ. eigenvalues --   -0.41931  -0.40500  -0.39640  -0.39260  -0.38637
 Alpha  occ. eigenvalues --   -0.37025  -0.36402  -0.34421  -0.34158  -0.33275
 Alpha  occ. eigenvalues --   -0.32758  -0.28770  -0.25777  -0.24066  -0.23194
 Alpha  occ. eigenvalues --   -0.21041
 Alpha virt. eigenvalues --   -0.06602  -0.05075  -0.04453  -0.01643  -0.00591
 Alpha virt. eigenvalues --   -0.00089   0.00292   0.01185   0.01284   0.01758
 Alpha virt. eigenvalues --    0.02482   0.03074   0.03304   0.03737   0.04062
 Alpha virt. eigenvalues --    0.04463   0.04987   0.05617   0.06020   0.06840
 Alpha virt. eigenvalues --    0.07271   0.07583   0.07916   0.08828   0.09043
 Alpha virt. eigenvalues --    0.09366   0.09732   0.10634   0.11060   0.11309
 Alpha virt. eigenvalues --    0.11662   0.12013   0.12511   0.13029   0.13397
 Alpha virt. eigenvalues --    0.13589   0.14130   0.14878   0.14960   0.15439
 Alpha virt. eigenvalues --    0.15967   0.16164   0.16986   0.17085   0.17572
 Alpha virt. eigenvalues --    0.17902   0.18286   0.18658   0.19258   0.19666
 Alpha virt. eigenvalues --    0.19785   0.20473   0.20682   0.20951   0.21033
 Alpha virt. eigenvalues --    0.21433   0.22068   0.22126   0.22379   0.22550
 Alpha virt. eigenvalues --    0.22842   0.23610   0.23900   0.24345   0.25192
 Alpha virt. eigenvalues --    0.25828   0.26222   0.26870   0.27323   0.27973
 Alpha virt. eigenvalues --    0.28466   0.29243   0.29904   0.30907   0.31672
 Alpha virt. eigenvalues --    0.32437   0.33062   0.33546   0.34158   0.34803
 Alpha virt. eigenvalues --    0.36330   0.36478   0.37290   0.38611   0.38835
 Alpha virt. eigenvalues --    0.41250   0.41879   0.43141   0.44020   0.44451
 Alpha virt. eigenvalues --    0.44809   0.46265   0.47658   0.49355   0.52211
 Alpha virt. eigenvalues --    0.54432   0.54552   0.55466   0.55914   0.56440
 Alpha virt. eigenvalues --    0.57464   0.58852   0.59255   0.59837   0.60667
 Alpha virt. eigenvalues --    0.61618   0.62122   0.63250   0.64010   0.64975
 Alpha virt. eigenvalues --    0.66047   0.67505   0.68150   0.69253   0.69441
 Alpha virt. eigenvalues --    0.70813   0.70989   0.71686   0.72015   0.73003
 Alpha virt. eigenvalues --    0.73559   0.74648   0.74967   0.75930   0.77170
 Alpha virt. eigenvalues --    0.77735   0.78069   0.80157   0.81065   0.81266
 Alpha virt. eigenvalues --    0.82050   0.82558   0.83497   0.85027   0.85905
 Alpha virt. eigenvalues --    0.86671   0.88158   0.89949   0.90715   0.92362
 Alpha virt. eigenvalues --    0.92846   0.93409   0.93795   0.94491   0.95398
 Alpha virt. eigenvalues --    0.97224   0.98232   1.00446   1.00892   1.01624
 Alpha virt. eigenvalues --    1.02350   1.03767   1.05765   1.05965   1.08240
 Alpha virt. eigenvalues --    1.10934   1.13603   1.13719   1.15253   1.17923
 Alpha virt. eigenvalues --    1.21113   1.24253   1.25167   1.29091   1.30641
 Alpha virt. eigenvalues --    1.33431   1.35286   1.38257   1.39836   1.40503
 Alpha virt. eigenvalues --    1.43576   1.46806   1.47349   1.50441   1.52713
 Alpha virt. eigenvalues --    1.53886   1.54475   1.56343   1.57721   1.58907
 Alpha virt. eigenvalues --    1.61142   1.62438   1.62752   1.64699   1.66588
 Alpha virt. eigenvalues --    1.67034   1.67913   1.69375   1.69788   1.71387
 Alpha virt. eigenvalues --    1.72712   1.73906   1.76633   1.77341   1.78928
 Alpha virt. eigenvalues --    1.80372   1.80940   1.82761   1.84207   1.85280
 Alpha virt. eigenvalues --    1.86909   1.89006   1.89452   1.91431   1.92758
 Alpha virt. eigenvalues --    1.94028   1.94889   1.96903   1.99595   2.00215
 Alpha virt. eigenvalues --    2.02062   2.02744   2.03740   2.05337   2.05655
 Alpha virt. eigenvalues --    2.08953   2.10062   2.11246   2.12427   2.13954
 Alpha virt. eigenvalues --    2.14716   2.17722   2.23541   2.26796   2.34202
 Alpha virt. eigenvalues --    2.35061   2.36467   2.38571   2.45480   2.47707
 Alpha virt. eigenvalues --    2.49825   2.52489   2.55609   2.57632   2.65306
 Alpha virt. eigenvalues --    2.67206   2.68347   2.70092   2.71349   2.71563
 Alpha virt. eigenvalues --    2.74482   2.74532   2.76167   2.76899   2.79944
 Alpha virt. eigenvalues --    2.82857   2.85905   2.88319   2.91073   2.93362
 Alpha virt. eigenvalues --    2.94539   2.97567   2.98796   3.01450   3.02917
 Alpha virt. eigenvalues --    3.04000   3.05723   3.07784   3.12954   3.19884
 Alpha virt. eigenvalues --    3.22746   3.24237   3.26199   3.32980   3.36853
 Alpha virt. eigenvalues --    3.39810   3.46140   3.55191   3.62949   3.72231
 Alpha virt. eigenvalues --    3.90280   3.94398   4.01052   4.04551   4.12833
 Alpha virt. eigenvalues --    4.30214   4.41815   5.02629   5.19943   5.44166
 Alpha virt. eigenvalues --    7.93784   7.95130   7.97312  17.28359  17.28973
 Alpha virt. eigenvalues --   17.31359  17.42773  17.43808  17.47104  17.47437
 Alpha virt. eigenvalues --   17.49828  17.52373  23.44637  23.58351  23.71893
 Alpha virt. eigenvalues --   23.77382  23.79709  23.85263  23.86647  23.94236
 Alpha virt. eigenvalues --   23.95316  23.96382  49.86206 189.09936 189.11517
 Alpha virt. eigenvalues --  189.13960
          Condensed to atoms (all electrons):
               1          2          3          4          5          6
     1  C    7.734936  -2.122513   0.454359  -0.232101   0.421192   0.357249
     2  C   -2.122513  12.172678  -3.460833   1.119342  -0.072759  -1.465722
     3  C    0.454359  -3.460833   9.860780  -0.975606   0.020172   0.598725
     4  C   -0.232101   1.119342  -0.975606   5.948547  -0.018986  -0.143473
     5  H    0.421192  -0.072759   0.020172  -0.018986   0.518102   0.005575
     6  S    0.357249  -1.465722   0.598725  -0.143473   0.005575  16.842574
     7  H    0.033475  -0.058002   0.031034   0.365672  -0.004420  -0.010419
     8  C    0.045825  -0.967503   0.728811  -0.123571  -0.004688   0.056663
     9  S   -0.000812  -0.194463   0.486438  -0.023605   0.000111   0.166298
    10  C    0.045821   0.284636  -1.015515   0.015050  -0.000077  -0.216855
    11  C   -0.168396  -0.456948   1.080611   0.026646  -0.000044   0.321836
    12  C   -0.170803   0.595397  -1.749557   0.088890  -0.000151  -0.317172
    13  H    0.001208   0.002014   0.023733   0.000337  -0.000000   0.003701
    14  S   -0.017211   0.017134   0.020684   0.003928  -0.000001   0.003149
    15  C    0.002767  -0.000317  -0.022321  -0.000486   0.000000  -0.003081
    16  C   -0.013573   0.114258  -0.035503   0.008420  -0.000007  -0.040326
    17  H   -0.000004  -0.000147  -0.000043  -0.000001   0.000000   0.000017
    18  H   -0.000016  -0.000527  -0.000192  -0.000007   0.000000   0.000105
    19  O   -0.199820   0.562324  -0.182733   0.031959  -0.003120   0.014027
    20  H   -0.059651  -0.020273   0.045150   0.001713   0.000227  -0.011636
               7          8          9         10         11         12
     1  C    0.033475   0.045825  -0.000812   0.045821  -0.168396  -0.170803
     2  C   -0.058002  -0.967503  -0.194463   0.284636  -0.456948   0.595397
     3  C    0.031034   0.728811   0.486438  -1.015515   1.080611  -1.749557
     4  C    0.365672  -0.123571  -0.023605   0.015050   0.026646   0.088890
     5  H   -0.004420  -0.004688   0.000111  -0.000077  -0.000044  -0.000151
     6  S   -0.010419   0.056663   0.166298  -0.216855   0.321836  -0.317172
     7  H    0.477995  -0.004264  -0.000338   0.000032  -0.000435  -0.000421
     8  C   -0.004264   9.165594   0.287516  -1.201070   1.378089  -3.267488
     9  S   -0.000338   0.287516  17.828423  -1.311377   2.143466  -2.791395
    10  C    0.000032  -1.201070  -1.311377  14.909282  -7.060484   3.477991
    11  C   -0.000435   1.378089   2.143466  -7.060484  17.727070  -7.700904
    12  C   -0.000421  -3.267488  -2.791395   3.477991  -7.700904  16.806243
    13  H    0.000001   0.074096   0.010492  -0.054663   0.055570   0.225985
    14  S   -0.000008  -0.337924   0.211295   0.251853  -0.562392  -0.008467
    15  C    0.000000   0.073657   0.039311   0.843125  -0.571480  -0.175770
    16  C   -0.000012  -0.267108  -0.608476  -3.190098  -0.356075   1.255265
    17  H   -0.000000  -0.001715   0.002158   0.002677   0.008004   0.006573
    18  H    0.000000   0.006591   0.018971   0.022206  -0.020341  -0.010613
    19  O   -0.000156  -0.056394   0.010863   0.011329   0.003241  -0.011569
    20  H   -0.000015   0.018928   0.005599  -0.000575   0.003766   0.002351
              13         14         15         16         17         18
     1  C    0.001208  -0.017211   0.002767  -0.013573  -0.000004  -0.000016
     2  C    0.002014   0.017134  -0.000317   0.114258  -0.000147  -0.000527
     3  C    0.023733   0.020684  -0.022321  -0.035503  -0.000043  -0.000192
     4  C    0.000337   0.003928  -0.000486   0.008420  -0.000001  -0.000007
     5  H   -0.000000  -0.000001   0.000000  -0.000007   0.000000   0.000000
     6  S    0.003701   0.003149  -0.003081  -0.040326   0.000017   0.000105
     7  H    0.000001  -0.000008   0.000000  -0.000012  -0.000000   0.000000
     8  C    0.074096  -0.337924   0.073657  -0.267108  -0.001715   0.006591
     9  S    0.010492   0.211295   0.039311  -0.608476   0.002158   0.018971
    10  C   -0.054663   0.251853   0.843125  -3.190098   0.002677   0.022206
    11  C    0.055570  -0.562392  -0.571480  -0.356075   0.008004  -0.020341
    12  C    0.225985  -0.008467  -0.175770   1.255265   0.006573  -0.010613
    13  H    0.513467   0.009071  -0.000760  -0.008094  -0.000004   0.000018
    14  S    0.009071  16.567071   0.367569  -0.365145  -0.021978   0.004676
    15  C   -0.000760   0.367569   5.636419  -0.248414   0.373173   0.008344
    16  C   -0.008094  -0.365145  -0.248414   9.540166  -0.014101   0.318157
    17  H   -0.000004  -0.021978   0.373173  -0.014101   0.474864  -0.003606
    18  H    0.000018   0.004676   0.008344   0.318157  -0.003606   0.514956
    19  O   -0.000320   0.000408  -0.000057  -0.004609   0.000001  -0.000003
    20  H   -0.000018   0.000183   0.000065  -0.000277   0.000000  -0.000000
              19         20
     1  C   -0.199820  -0.059651
     2  C    0.562324  -0.020273
     3  C   -0.182733   0.045150
     4  C    0.031959   0.001713
     5  H   -0.003120   0.000227
     6  S    0.014027  -0.011636
     7  H   -0.000156  -0.000015
     8  C   -0.056394   0.018928
     9  S    0.010863   0.005599
    10  C    0.011329  -0.000575
    11  C    0.003241   0.003766
    12  C   -0.011569   0.002351
    13  H   -0.000320  -0.000018
    14  S    0.000408   0.000183
    15  C   -0.000057   0.000065
    16  C   -0.004609  -0.000277
    17  H    0.000001   0.000000
    18  H   -0.000003  -0.000000
    19  O    8.016281   0.195656
    20  H    0.195656   0.525356
 Mulliken charges:
               1
     1  C   -0.111930
     2  C   -0.047776
     3  C    0.091805
     4  C   -0.092669
     5  H    0.138875
     6  S   -0.161236
     7  H    0.170281
     8  C    0.395956
     9  S   -0.280472
    10  C    0.186712
    11  C    0.149199
    12  C   -0.254384
    13  H    0.144167
    14  S   -0.143894
    15  C   -0.321744
    16  C   -0.084445
    17  H    0.174131
    18  H    0.141282
    19  O   -0.387308
    20  H    0.293451
 Sum of Mulliken charges =  -0.00000
 Mulliken charges with hydrogens summed into heavy atoms:
               1
     1  C    0.026945
     2  C   -0.047776
     3  C    0.091805
     4  C    0.077612
     6  S   -0.161236
     8  C    0.395956
     9  S   -0.280472
    10  C    0.186712
    11  C    0.149199
    12  C   -0.110217
    14  S   -0.143894
    15  C   -0.147613
    16  C    0.056837
    19  O   -0.093857
 Electronic spatial extent (au):  <R**2>=           4394.8961
 Charge=              0.0000 electrons
 Dipole moment (field-independent basis, Debye):
    X=             -1.8725    Y=              1.5161    Z=              1.2021  Tot=              2.6925
 Quadrupole moment (field-independent basis, Debye-Ang):
   XX=            -82.7184   YY=            -95.9341   ZZ=           -103.6826
   XY=              1.0213   XZ=             -1.9533   YZ=              1.5421
 Traceless Quadrupole moment (field-independent basis, Debye-Ang):
   XX=             11.3933   YY=             -1.8224   ZZ=             -9.5709
   XY=              1.0213   XZ=             -1.9533   YZ=              1.5421
 Octapole moment (field-independent basis, Debye-Ang**2):
  XXX=            -55.0981  YYY=             36.2058  ZZZ=             13.4578  XYY=            -26.8609
  XXY=             36.9487  XXZ=             21.5616  XZZ=             -3.3935  YZZ=             12.7335
  YYZ=             17.8252  XYZ=            -26.2203
 Hexadecapole moment (field-independent basis, Debye-Ang**3):
 XXXX=          -4213.7420 YYYY=           -664.5973 ZZZZ=           -574.6361 XXXY=             94.6751
 XXXZ=             21.6617 YYYX=            -69.7486 YYYZ=             72.9376 ZZZX=            -10.1350
 ZZZY=             21.4988 XXYY=           -837.8751 XXZZ=           -919.3140 YYZZ=           -172.2239
 XXYZ=             55.7815 YYXZ=            -59.5741 ZZXY=            -30.1519
 N-N= 1.100534034712D+03 E-N=-6.111511804106D+03  KE= 1.649473806754D+03
 Calling FoFJK, ICntrl=      2127 FMM=F ISym2X=0 I1Cent= 0 IOpClX= 0 NMat=1 NMatS=1 NMatT=0.
 ***** Axes restored to original set *****
 -------------------------------------------------------------------
 Center     Atomic                   Forces (Hartrees/Bohr)
 Number     Number              X              Y              Z
 -------------------------------------------------------------------
      1        6           0.015769335   -0.039155358    0.004108717
      2        6           0.026908664    0.020478216    0.011473871
      3        6          -0.034344234    0.026256636    0.002070576
      4        6           0.012033677    0.050832921   -0.015508017
      5        1          -0.000496513    0.001788956    0.000752931
      6       16          -0.006051744    0.024290325   -0.005485866
      7        1           0.002644538   -0.002754957    0.000509655
      8        6           0.051919004    0.002040670    0.031424154
      9       16          -0.009068183   -0.009320651    0.009985167
     10        6           0.016443049    0.013577285    0.027370672
     11        6          -0.032989091    0.012193524   -0.019968198
     12        6          -0.033688759    0.003840137   -0.043845513
     13        1          -0.005219203   -0.003981267    0.001055165
     14       16           0.010256744   -0.002440913   -0.015684846
     15        6          -0.047540427   -0.007452346   -0.034777412
     16        6           0.034848100    0.013607827    0.042113595
     17        1           0.003296503   -0.005376056    0.003383039
     18        1           0.004616123   -0.007987109    0.000997124
     19        8          -0.030806086    0.015634496   -0.003775905
     20        1           0.021468503   -0.106072337    0.003801091
 -------------------------------------------------------------------
 Cartesian Forces:  Max     0.106072337 RMS     0.025374165

 GradGradGradGradGradGradGradGradGradGradGradGradGradGradGradGradGradGrad
 Berny optimization.
 FormGI is forming the generalized inverse of G from B-inverse, IUseBI=4.
 Internal  Forces:  Max     0.104433864 RMS     0.019845894
 Search for a local minimum.
 Step number   1 out of a maximum of  116
 All quantities printed in internal units (Hartrees-Bohrs-Radians)
 Mixed Optimization -- RFO/linear search
 Second derivative matrix not updated -- first step.
 ITU=  0
     Eigenvalues ---    0.00230   0.00994   0.01059   0.01222   0.01273
     Eigenvalues ---    0.01298   0.01362   0.01420   0.01458   0.01493
     Eigenvalues ---    0.01500   0.01592   0.01598   0.01774   0.02201
     Eigenvalues ---    0.02654   0.15076   0.15687   0.15739   0.15997
     Eigenvalues ---    0.16000   0.16000   0.17986   0.22443   0.22526
     Eigenvalues ---    0.23318   0.23979   0.24118   0.24633   0.24978
     Eigenvalues ---    0.24995   0.26145   0.26567   0.28307   0.28385
     Eigenvalues ---    0.28663   0.30910   0.31228   0.31588   0.34840
     Eigenvalues ---    0.35144   0.35872   0.35989   0.36006   0.36067
     Eigenvalues ---    0.36185   0.36339   0.37598   0.38294   0.38435
     Eigenvalues ---    0.39456   0.39679   0.406881000.000001000.00000
     Eigenvalues --- 1000.000001000.000001000.000001000.000001000.00000
     Eigenvalues --- 1000.000001000.000001000.000001000.000001000.00000
     Eigenvalues --- 1000.000001000.000001000.000001000.000001000.00000
     Eigenvalues --- 1000.000001000.000001000.000001000.000001000.00000
     Eigenvalues --- 1000.000001000.000001000.000001000.000001000.00000
     Eigenvalues --- 1000.000001000.000001000.000001000.000001000.00000
     Eigenvalues --- 1000.000001000.000001000.000001000.000001000.00000
     Eigenvalues --- 1000.000001000.000001000.000001000.000001000.00000
     Eigenvalues --- 1000.000001000.000001000.000001000.000001000.00000
     Eigenvalues --- 1000.000001000.000001000.000001000.000001000.00000
     Eigenvalues --- 1000.00000
 RFO step:  Lambda=-1.06731943D-01 EMin= 2.30000000D-03
 Linear search not attempted -- first point.
 Maximum step size (   0.300) exceeded in Quadratic search.
    -- Step size scaled by   0.583
 Iteration  1 RMS(Cart)=  0.05854274 RMS(Int)=  0.00203879
 Iteration  2 RMS(Cart)=  0.00240176 RMS(Int)=  0.00013209
 Iteration  3 RMS(Cart)=  0.00001604 RMS(Int)=  0.00013164
 Iteration  4 RMS(Cart)=  0.00000000 RMS(Int)=  0.00013164
 Iteration  1 RMS(Cart)=  0.00000027 RMS(Int)=  0.00000012
 Variable       Old X    -DE/DX   Delta X   Delta X   Delta X     New X
                                 (Linear)    (Quad)   (Total)
    R1        2.71917  -0.02272   0.00000  -0.02763  -0.02753   2.69164
    R2        2.71391  -0.05407   0.00000  -0.06256  -0.06254   2.65137
    R3        2.03793   0.00153   0.00000   0.00191   0.00191   2.03984
    R4        2.75906  -0.06446   0.00000  -0.07958  -0.07952   2.67954
    R5        2.90711  -0.08787   0.00000  -0.13035  -0.13035   2.77676
    R6        3.39578  -0.02177   0.00000  -0.03302  -0.03308   3.36270
    R7        2.74954  -0.00788   0.00000  -0.00952  -0.00952   2.74001
    R8        3.28671  -0.01310   0.00000  -0.01692  -0.01700   3.26971
    R9        2.04073  -0.00076   0.00000  -0.00095  -0.00095   2.03978
   R10        3.38273  -0.01121   0.00000  -0.01592  -0.01603   3.36670
   R11        2.76686  -0.06386   0.00000  -0.07941  -0.07947   2.68739
   R12        3.26896  -0.00068   0.00000  -0.00001   0.00001   3.26897
   R13        2.72271  -0.03075   0.00000  -0.03678  -0.03655   2.68617
   R14        2.69396  -0.00163   0.00000  -0.00296  -0.00286   2.69110
   R15        2.70756  -0.01250   0.00000  -0.01553  -0.01546   2.69210
   R16        3.27559   0.00134   0.00000   0.00295   0.00293   3.27852
   R17        2.03976   0.00113   0.00000   0.00140   0.00140   2.04117
   R18        3.33574  -0.01222   0.00000  -0.01700  -0.01714   3.31860
   R19        2.73045  -0.05805   0.00000  -0.06889  -0.06893   2.66153
   R20        2.04099  -0.00060   0.00000  -0.00074  -0.00074   2.04025
   R21        2.05441  -0.00419   0.00000  -0.00534  -0.00534   2.04907
   R22        2.18171  -0.10443   0.00000  -0.15633  -0.15633   2.02539
    A1        1.97020  -0.00300   0.00000  -0.00832  -0.00819   1.96201
    A2        2.17330   0.00061   0.00000   0.00222   0.00216   2.17546
    A3        2.13967   0.00239   0.00000   0.00611   0.00604   2.14572
    A4        1.97187   0.01575   0.00000   0.02384   0.02397   1.99584
    A5        2.21760  -0.00445   0.00000  -0.00507  -0.00520   2.21240
    A6        2.06941  -0.01050   0.00000  -0.01511  -0.01526   2.05415
    A7        1.90440  -0.00618   0.00000  -0.00989  -0.00987   1.89453
    A8        2.31891  -0.00589   0.00000  -0.00975  -0.00977   2.30915
    A9        2.05972   0.01206   0.00000   0.01961   0.01959   2.07931
   A10        1.95339  -0.00168   0.00000  -0.00247  -0.00252   1.95087
   A11        2.17580   0.00465   0.00000   0.00957   0.00960   2.18540
   A12        2.15384  -0.00298   0.00000  -0.00712  -0.00710   2.14675
   A13        1.62490  -0.00490   0.00000  -0.00316  -0.00340   1.62149
   A14        2.12903  -0.00384   0.00000  -0.00588  -0.00590   2.12312
   A15        2.24031  -0.00344   0.00000  -0.00522  -0.00524   2.23507
   A16        1.91316   0.00736   0.00000   0.01151   0.01149   1.92465
   A17        1.61951  -0.00656   0.00000  -0.00817  -0.00810   1.61141
   A18        1.96106  -0.01078   0.00000  -0.01505  -0.01529   1.94577
   A19        2.23927   0.00897   0.00000   0.02164   0.02127   2.26054
   A20        1.96539   0.00557   0.00000   0.00901   0.00906   1.97445
   A21        1.96677   0.00746   0.00000   0.01132   0.01136   1.97813
   A22        1.96626  -0.01313   0.00000  -0.01875  -0.01889   1.94737
   A23        2.23659   0.00906   0.00000   0.02112   0.02077   2.25735
   A24        1.96354   0.00255   0.00000   0.00056   0.00068   1.96422
   A25        2.16138  -0.00560   0.00000  -0.00910  -0.00924   2.15214
   A26        2.14648   0.00362   0.00000   0.01119   0.01106   2.15753
   A27        1.59298   0.00046   0.00000   0.00234   0.00237   1.59535
   A28        1.95972   0.00169   0.00000   0.00160   0.00154   1.96126
   A29        2.13620  -0.00478   0.00000  -0.00832  -0.00847   2.12772
   A30        2.17031   0.00410   0.00000   0.01137   0.01126   2.18157
   A31        1.94012   0.00541   0.00000   0.00578   0.00590   1.94602
   A32        2.16549  -0.00000   0.00000   0.00531   0.00502   2.17051
   A33        2.14072  -0.00354   0.00000  -0.00263  -0.00293   2.13779
   A34        2.32184  -0.06238   0.00000  -0.13645  -0.13645   2.18539
    D1        0.00683  -0.00077   0.00000  -0.00284  -0.00283   0.00400
    D2       -2.89394  -0.00362   0.00000  -0.01914  -0.01922  -2.91315
    D3       -3.13952   0.00001   0.00000   0.00091   0.00092  -3.13860
    D4        0.24290  -0.00283   0.00000  -0.01539  -0.01547   0.22743
    D5       -0.00671   0.00009   0.00000  -0.00023  -0.00029  -0.00700
    D6       -3.13020   0.00020   0.00000   0.00060   0.00059  -3.12961
    D7        3.13954  -0.00067   0.00000  -0.00389  -0.00395   3.13559
    D8        0.01605  -0.00057   0.00000  -0.00306  -0.00307   0.01298
    D9       -0.00388   0.00118   0.00000   0.00462   0.00461   0.00073
   D10        3.11762   0.00051   0.00000   0.00257   0.00259   3.12021
   D11        2.91927   0.00427   0.00000   0.02033   0.02030   2.93957
   D12       -0.24242   0.00361   0.00000   0.01828   0.01829  -0.22413
   D13       -0.28016   0.00175   0.00000   0.00371   0.00360  -0.27656
   D14        3.11413  -0.00445   0.00000  -0.01816  -0.01806   3.09607
   D15        0.00006  -0.00097   0.00000  -0.00408  -0.00404  -0.00398
   D16       -3.12486  -0.00022   0.00000  -0.00205  -0.00200  -3.12686
   D17       -1.22185   0.00064   0.00000   0.00000   0.00000  -1.22185
   D18        1.87549   0.00317   0.00000   0.01343   0.01343   1.88892
   D19        1.89824  -0.00026   0.00000  -0.00250  -0.00249   1.89575
   D20       -1.28761   0.00227   0.00000   0.01094   0.01094  -1.27667
   D21        0.00376   0.00055   0.00000   0.00258   0.00259   0.00635
   D22        3.12751   0.00054   0.00000   0.00196   0.00193   3.12944
   D23        3.13754   0.00098   0.00000   0.00597   0.00597  -3.13967
   D24        0.03278  -0.00093   0.00000  -0.00491  -0.00499   0.02779
   D25       -3.13912  -0.00193   0.00000  -0.00928  -0.00923   3.13483
   D26       -0.15797   0.00233   0.00000   0.00975   0.00971  -0.14826
   D27       -0.03737   0.00015   0.00000   0.00251   0.00264  -0.03473
   D28        2.94378   0.00440   0.00000   0.02154   0.02157   2.96536
   D29       -0.02046   0.00185   0.00000   0.00670   0.00663  -0.01383
   D30       -2.61602  -0.00685   0.00000  -0.02755  -0.02764  -2.64365
   D31        0.00213  -0.00169   0.00000  -0.00592  -0.00586  -0.00374
   D32       -2.68844  -0.01057   0.00000  -0.03716  -0.03668  -2.72512
   D33        2.68649   0.00770   0.00000   0.02837   0.02805   2.71454
   D34       -0.00408  -0.00118   0.00000  -0.00286  -0.00277  -0.00685
   D35        2.61304   0.00570   0.00000   0.03093   0.03129   2.64433
   D36       -0.24589  -0.00079   0.00000  -0.00025  -0.00007  -0.24597
   D37        0.01858   0.00109   0.00000   0.00265   0.00259   0.02117
   D38       -2.84035  -0.00540   0.00000  -0.02853  -0.02877  -2.86913
   D39        0.02334   0.00102   0.00000   0.00209   0.00203   0.02537
   D40       -2.95939  -0.00221   0.00000  -0.01460  -0.01482  -2.97421
   D41        2.62803   0.00444   0.00000   0.02595   0.02628   2.65431
   D42       -0.35471   0.00120   0.00000   0.00925   0.00943  -0.34528
   D43       -0.00884   0.00099   0.00000   0.00204   0.00200  -0.00683
   D44       -2.61365  -0.00754   0.00000  -0.02928  -0.02922  -2.64287
   D45        0.01949  -0.00026   0.00000  -0.00040  -0.00042   0.01908
   D46        2.97206   0.00583   0.00000   0.02659   0.02641   2.99847
   D47       -0.02514  -0.00033   0.00000  -0.00107  -0.00100  -0.02615
   D48        2.83848   0.00669   0.00000   0.03106   0.03115   2.86963
   D49       -2.97336  -0.00542   0.00000  -0.02615  -0.02625  -2.99961
   D50       -0.10973   0.00160   0.00000   0.00599   0.00590  -0.10384
         Item               Value     Threshold  Converged?
 Maximum Force            0.104434     0.000450     NO 
 RMS     Force            0.019940     0.000300     NO 
 Maximum Displacement     0.440361     0.001800     NO 
 RMS     Displacement     0.058433     0.001200     NO 
 Predicted change in Energy=-4.953869D-02
 GradGradGradGradGradGradGradGradGradGradGradGradGradGradGradGradGradGrad

                          Input orientation:                          
 ---------------------------------------------------------------------
 Center     Atomic      Atomic             Coordinates (Angstroms)
 Number     Number       Type             X           Y           Z
 ---------------------------------------------------------------------
      1          6           0       -4.212803   -1.345743   -0.204310
      2          6           0       -2.896759   -0.969137   -0.597989
      3          6           0       -1.962620   -2.035816   -0.611171
      4          6           0       -4.310432   -2.712451    0.097544
      5          1           0       -5.051175   -0.668923   -0.139277
      6         16           0       -2.797910   -3.525949   -0.112879
      7          1           0       -5.212210   -3.218710    0.406766
      8          6           0       -0.557349   -2.098114   -0.962869
      9         16           0       -0.006815   -1.921684   -2.648042
     10          6           0        1.653229   -2.110737   -2.199767
     11          6           0        1.796797   -2.286504   -0.796544
     12          6           0        0.557229   -2.261488   -0.094879
     13          1           0        0.480187   -2.228841    0.982015
     14         16           0        3.377397   -1.820779   -0.253635
     15          6           0        3.862398   -1.400604   -1.888326
     16          6           0        2.824507   -1.591131   -2.821131
     17          1           0        4.798079   -0.903613   -2.096047
     18          1           0        2.850134   -1.162049   -3.816614
     19          8           0       -2.373667    0.398303   -0.722940
     20          1           0       -2.971218    1.286971   -0.766908
 ---------------------------------------------------------------------
                    Distance matrix (angstroms):
                    1          2          3          4          5
     1  C    0.000000
     2  C    1.424355   0.000000
     3  C    2.388526   1.417953   0.000000
     4  C    1.403046   2.349762   2.544078   0.000000
     5  H    1.079436   2.223074   3.410315   2.186502   0.000000
     6  S    2.600688   2.604302   1.779467   1.730255   3.638750
     7  H    2.209125   3.381039   3.604895   1.079407   2.612567
     8  C    3.808388   2.623083   1.449952   3.948104   4.787000
     9  S    4.898353   3.669037   2.826136   5.165721   5.771385
    10  C    6.243188   4.956948   3.950142   6.419109   7.160551
    11  C    6.111552   4.878970   3.772324   6.187009   7.067057
    12  C    4.858372   3.722005   2.582078   4.892292   5.830303
    13  H    4.920507   3.935356   2.922808   4.895529   5.855477
    14  S    7.605211   6.341050   5.356292   7.747330   8.507684
    15  C    8.249108   6.894732   5.997120   8.512331   9.112975
    16  C    7.512103   6.169450   5.291338   7.789954   8.370733
    17  H    9.217925   7.839579   7.013829   9.541945  10.044493
    18  H    7.935210   6.589654   5.848157   8.306509   8.729070
    19  O    2.587102   1.469399   2.471111   3.755136   2.940865
    20  H    2.964664   2.263648   3.475979   4.305363   2.923297
                    6          7          8          9         10
     6  S    0.000000
     7  H    2.488628   0.000000
     8  C    2.789500   4.979897   0.000000
     9  S    4.097674   6.173351   1.781579   0.000000
    10  C    5.115718   7.426700   2.533127   1.729867   0.000000
    11  C    4.807801   7.172387   2.367521   2.610394   1.421457
    12  C    3.585547   5.869783   1.422104   2.636713   2.377918
    13  H    3.691504   5.806388   2.208199   3.675436   3.393186
    14  S    6.407951   8.727640   4.007762   4.146838   2.616154
    15  C    7.213113   9.535274   4.569152   3.977374   2.341305
    16  C    6.533737   8.812329   3.891930   2.855803   1.424070
    17  H    8.276995  10.574953   5.602815   4.942487   3.370161
    18  H    7.155842   9.331033   4.542138   3.178799   2.224137
    19  O    3.993985   4.734591   3.096559   3.832798   4.969124
    20  H    4.860246   5.167274   4.162207   4.756239   5.914644
                   11         12         13         14         15
    11  C    0.000000
    12  C    1.424601   0.000000
    13  H    2.213607   1.080140   0.000000
    14  S    1.734920   2.858806   3.176031   0.000000
    15  C    2.498702   3.857682   4.512669   1.756129   0.000000
    16  C    2.374592   3.608653   4.512918   2.636374   1.408419
    17  H    3.550886   4.881937   5.465792   2.500803   1.079652
    18  H    3.390390   4.507492   5.457246   3.661524   2.190863
    19  O    4.960481   4.007381   4.237126   6.182177   6.594140
    20  H    5.958571   5.049071   5.227988   7.087064   7.428252
                   16         17         18         19         20
    16  C    0.000000
    17  H    2.212107   0.000000
    18  H    1.084322   2.611825   0.000000
    19  O    5.948215   7.417166   6.268462   0.000000
    20  H    6.789236   8.180907   7.013312   1.071788   0.000000
 Stoichiometry    C10H6OS3
 Framework group  C1[X(C10H6OS3)]
 Deg. of freedom    54
 Full point group                 C1      NOp   1
 Largest Abelian subgroup         C1      NOp   1
 Largest concise Abelian subgroup C1      NOp   1
                         Standard orientation:                         
 ---------------------------------------------------------------------
 Center     Atomic      Atomic             Coordinates (Angstroms)
 Number     Number       Type             X           Y           Z
 ---------------------------------------------------------------------
      1          6           0       -3.976383    0.541370    0.519262
      2          6           0       -2.594641    0.875758    0.607355
      3          6           0       -1.724240   -0.074287    0.015402
      4          6           0       -4.190641   -0.678485   -0.139967
      5          1           0       -4.780254    1.146081    0.910797
      6         16           0       -2.704506   -1.399330   -0.655297
      7          1           0       -5.156139   -1.122239   -0.329744
      8          6           0       -0.282871   -0.115597   -0.136623
      9         16           0        0.572611    0.989831   -1.241251
     10          6           0        2.112816    0.312393   -0.839646
     11          6           0        1.990413   -0.721680    0.127955
     12          6           0        0.646409   -0.953001    0.539819
     13          1           0        0.376357   -1.589922    1.369341
     14         16           0        3.465772   -0.945164    1.013007
     15          6           0        4.259020    0.325177    0.095957
     16          6           0        3.400422    0.920641   -0.848435
     17          1           0        5.238925    0.693193    0.360527
     18          1           0        3.626602    1.867796   -1.325401
     19          8           0       -1.994630    1.920840    1.448143
     20          1           0       -2.532298    2.719241    1.919524
 ---------------------------------------------------------------------
 Rotational constants (GHZ):           1.2237029           0.2609771           0.2506646
 Standard basis: 6-311+G(d,p) (5D, 7F)
 There are   382 symmetry adapted cartesian basis functions of A   symmetry.
 There are   368 symmetry adapted basis functions of A   symmetry.
   368 basis functions,   594 primitive gaussians,   382 cartesian basis functions
    61 alpha electrons       61 beta electrons
       nuclear repulsion energy      1112.7332944120 Hartrees.
 NAtoms=   20 NActive=   20 NUniq=   20 SFac= 1.00D+00 NAtFMM=   60 NAOKFM=F Big=F
 Integral buffers will be    131072 words long.
 Raffenetti 2 integral format.
 Two-electron integral symmetry is turned on.
 One-electron integrals computed using PRISM.
 NBasis=   368 RedAO= T EigKep=  3.20D-06  NBF=   368
 NBsUse=   367 1.00D-06 EigRej=  4.85D-07 NBFU=   367
 Initial guess from the checkpoint file:  "/tmp/pbs.4729018[105].pbs/Gau-187727.chk"
 B after Tr=    -0.000000    0.000000    0.000000
         Rot=    0.999282   -0.037877   -0.000084    0.000925 Ang=  -4.34 deg.
 ExpMin= 4.05D-02 ExpMax= 9.34D+04 ExpMxC= 3.17D+03 IAcc=3 IRadAn=         5 AccDes= 0.00D+00
 Harris functional with IExCor=  402 and IRadAn=       5 diagonalized for initial guess.
 HarFok:  IExCor=  402 AccDes= 0.00D+00 IRadAn=         5 IDoV= 1 UseB2=F ITyADJ=14
 ICtDFT=  3500011 ScaDFX=  1.000000  1.000000  1.000000  1.000000
 FoFCou: FMM=F IPFlag=           0 FMFlag=      100000 FMFlg1=           0
         NFxFlg=           0 DoJE=T BraDBF=F KetDBF=T FulRan=T
         wScrn=  0.000000 ICntrl=       500 IOpCl=  0 I1Cent=   200000004 NGrid=           0
         NMat0=    1 NMatS0=      1 NMatT0=    0 NMatD0=    1 NMtDS0=    0 NMtDT0=    0
 Petite list used in FoFCou.
 Requested convergence on RMS density matrix=1.00D-08 within 128 cycles.
 Requested convergence on MAX density matrix=1.00D-06.
 Requested convergence on             energy=1.00D-06.
 No special actions if energy rises.
 SCF Done:  E(RB3LYP) =  -1654.58427612     A.U. after   14 cycles
            NFock= 14  Conv=0.54D-08     -V/T= 2.0027
 Calling FoFJK, ICntrl=      2127 FMM=F ISym2X=0 I1Cent= 0 IOpClX= 0 NMat=1 NMatS=1 NMatT=0.
 ***** Axes restored to original set *****
 -------------------------------------------------------------------
 Center     Atomic                   Forces (Hartrees/Bohr)
 Number     Number              X              Y              Z
 -------------------------------------------------------------------
      1        6           0.004563968   -0.024476107    0.002906467
      2        6           0.027788988    0.032054823    0.007209419
      3        6          -0.027425328    0.010907309    0.001351074
      4        6           0.006095979    0.030725901   -0.009886338
      5        1          -0.000163755    0.001815683    0.000734138
      6       16          -0.002768041    0.010844163   -0.003114594
      7        1           0.002224411   -0.002992482    0.000574832
      8        6           0.035863346    0.002362783    0.020162287
      9       16          -0.008689835   -0.007839016    0.003894350
     10        6           0.009361408    0.010977843    0.019247459
     11        6          -0.017978619    0.011495900   -0.014805351
     12        6          -0.023212669    0.001969926   -0.025772430
     13        1          -0.003426981   -0.003928636    0.000639469
     14       16           0.009872849   -0.003470517   -0.007109886
     15        6          -0.030755694   -0.002883637   -0.022415698
     16        6           0.022431791    0.009954792    0.025315947
     17        1           0.002909935   -0.004742243    0.003041881
     18        1           0.003024724   -0.007210504   -0.000779295
     19        8          -0.034362753    0.011971759   -0.004866443
     20        1           0.024646277   -0.077537739    0.003672712
 -------------------------------------------------------------------
 Cartesian Forces:  Max     0.077537739 RMS     0.018196110

 GradGradGradGradGradGradGradGradGradGradGradGradGradGradGradGradGradGrad
 Berny optimization.
 Using GEDIIS/GDIIS optimizer.
 FormGI is forming the generalized inverse of G from B-inverse, IUseBI=4.
 Internal  Forces:  Max     0.078181621 RMS     0.013410925
 Search for a local minimum.
 Step number   2 out of a maximum of  116
 All quantities printed in internal units (Hartrees-Bohrs-Radians)
 Mixed Optimization -- RFO/linear search
 Update second derivatives using D2CorX and points    1    2
 DE= -5.31D-02 DEPred=-4.95D-02 R= 1.07D+00
 TightC=F SS=  1.41D+00  RLast= 3.19D-01 DXNew= 5.0454D-01 9.5682D-01
 Trust test= 1.07D+00 RLast= 3.19D-01 DXMaxT set to 5.05D-01
 ITU=  1  0
 Use linear search instead of GDIIS.
     Eigenvalues ---    0.00230   0.00996   0.01055   0.01219   0.01271
     Eigenvalues ---    0.01294   0.01345   0.01400   0.01460   0.01487
     Eigenvalues ---    0.01498   0.01592   0.01594   0.01741   0.02115
     Eigenvalues ---    0.02492   0.14361   0.15287   0.15761   0.15832
     Eigenvalues ---    0.16000   0.16027   0.18348   0.21012   0.22461
     Eigenvalues ---    0.22539   0.23394   0.24135   0.24333   0.24982
     Eigenvalues ---    0.25021   0.25600   0.26253   0.26619   0.28429
     Eigenvalues ---    0.28542   0.30896   0.31215   0.31554   0.34879
     Eigenvalues ---    0.35148   0.35989   0.36005   0.36067   0.36089
     Eigenvalues ---    0.36184   0.36410   0.37581   0.38167   0.39302
     Eigenvalues ---    0.39545   0.40612   0.425041000.000001000.00000
     Eigenvalues --- 1000.000001000.000001000.000001000.000001000.00000
     Eigenvalues --- 1000.000001000.000001000.000001000.000001000.00000
     Eigenvalues --- 1000.000001000.000001000.000001000.000001000.00000
     Eigenvalues --- 1000.000001000.000001000.000001000.000001000.00000
     Eigenvalues --- 1000.000001000.000001000.000001000.000001000.00000
     Eigenvalues --- 1000.000001000.000001000.000001000.000001000.00000
     Eigenvalues --- 1000.000001000.000001000.000001000.000001000.00000
     Eigenvalues --- 1000.000001000.000001000.000001000.000001000.00000
     Eigenvalues --- 1000.000001000.000001000.000001000.000001000.00000
     Eigenvalues --- 1000.000001000.000001000.000001000.000001000.00000
     Eigenvalues --- 1000.00000
 RFO step:  Lambda=-8.19977231D-03 EMin= 2.30090528D-03
 Quartic linear search produced a step of  1.40334.
 Iteration  1 RMS(Cart)=  0.08369825 RMS(Int)=  0.01648009
 Iteration  2 RMS(Cart)=  0.01921898 RMS(Int)=  0.00091780
 Iteration  3 RMS(Cart)=  0.00025570 RMS(Int)=  0.00088954
 Iteration  4 RMS(Cart)=  0.00000027 RMS(Int)=  0.00088954
 Iteration  1 RMS(Cart)=  0.00002375 RMS(Int)=  0.00001074
 Iteration  2 RMS(Cart)=  0.00001296 RMS(Int)=  0.00001200
 Iteration  3 RMS(Cart)=  0.00000707 RMS(Int)=  0.00001356
 Iteration  4 RMS(Cart)=  0.00000386 RMS(Int)=  0.00001458
 Iteration  5 RMS(Cart)=  0.00000210 RMS(Int)=  0.00001518
 Iteration  6 RMS(Cart)=  0.00000115 RMS(Int)=  0.00001552
 Iteration  7 RMS(Cart)=  0.00000063 RMS(Int)=  0.00001571
 Variable       Old X    -DE/DX   Delta X   Delta X   Delta X     New X
                                 (Linear)    (Quad)   (Total)
    R1        2.69164  -0.00810  -0.03863   0.03657  -0.00173   2.68991
    R2        2.65137  -0.02981  -0.08777   0.02350  -0.06434   2.58703
    R3        2.03984   0.00131   0.00268   0.00221   0.00489   2.04473
    R4        2.67954  -0.03630  -0.11160   0.02701  -0.08424   2.59530
    R5        2.77676  -0.06437  -0.18292  -0.06094  -0.24386   2.53290
    R6        3.36270  -0.01147  -0.04642   0.02303  -0.02349   3.33922
    R7        2.74001  -0.00121  -0.01336   0.02325   0.00989   2.74990
    R8        3.26971  -0.00675  -0.02386   0.01169  -0.01257   3.25714
    R9        2.03978  -0.00029  -0.00133   0.00122  -0.00011   2.03967
   R10        3.36670  -0.00650  -0.02250   0.00834  -0.01501   3.35169
   R11        2.68739  -0.03915  -0.11153   0.00849  -0.10357   2.58382
   R12        3.26897   0.00237   0.00002   0.01885   0.01909   3.28807
   R13        2.68617  -0.01825  -0.05129   0.00266  -0.04700   2.63917
   R14        2.69110   0.00066  -0.00401   0.00922   0.00572   2.69682
   R15        2.69210  -0.00443  -0.02169   0.01931  -0.00195   2.69016
   R16        3.27852   0.00319   0.00411   0.01548   0.01965   3.29818
   R17        2.04117   0.00076   0.00197   0.00034   0.00232   2.04349
   R18        3.31860  -0.00687  -0.02405   0.00994  -0.01489   3.30371
   R19        2.66153  -0.03469  -0.09673   0.01156  -0.08554   2.57598
   R20        2.04025  -0.00025  -0.00104   0.00084  -0.00020   2.04004
   R21        2.04907  -0.00207  -0.00749   0.00390  -0.00360   2.04547
   R22        2.02539  -0.07818  -0.21938  -0.08627  -0.30565   1.71973
    A1        1.96201  -0.00118  -0.01149   0.01004  -0.00093   1.96109
    A2        2.17546  -0.00049   0.00303  -0.01159  -0.00886   2.16660
    A3        2.14572   0.00167   0.00848   0.00156   0.00975   2.15547
    A4        1.99584   0.00585   0.03364  -0.03726  -0.00433   1.99152
    A5        2.21240  -0.00395  -0.00729  -0.00597  -0.01557   2.19683
    A6        2.05415  -0.00115  -0.02141   0.05842   0.03505   2.08920
    A7        1.89453  -0.00037  -0.01385   0.03192   0.01865   1.91318
    A8        2.30915  -0.00689  -0.01370  -0.02668  -0.04068   2.26847
    A9        2.07931   0.00725   0.02750  -0.00507   0.02213   2.10144
   A10        1.95087  -0.00001  -0.00353   0.01067   0.00701   1.95788
   A11        2.18540   0.00381   0.01347   0.01108   0.02461   2.21001
   A12        2.14675  -0.00380  -0.00996  -0.02170  -0.03159   2.11516
   A13        1.62149  -0.00429  -0.00478  -0.01531  -0.02057   1.60092
   A14        2.12312  -0.00352  -0.00828  -0.00952  -0.01783   2.10529
   A15        2.23507  -0.00160  -0.00735   0.00576  -0.00162   2.23345
   A16        1.92465   0.00517   0.01613   0.00389   0.01978   1.94443
   A17        1.61141  -0.00441  -0.01136  -0.00574  -0.01649   1.59492
   A18        1.94577  -0.00621  -0.02146   0.00929  -0.01320   1.93258
   A19        2.26054   0.00646   0.02985   0.01300   0.03995   2.30049
   A20        1.97445   0.00285   0.01271  -0.00687   0.00559   1.98004
   A21        1.97813   0.00355   0.01594  -0.00910   0.00636   1.98449
   A22        1.94737  -0.00712  -0.02651   0.01603  -0.01153   1.93584
   A23        2.25735   0.00643   0.02914   0.01345   0.03945   2.29681
   A24        1.96422   0.00193   0.00096   0.00232   0.00408   1.96830
   A25        2.15214  -0.00359  -0.01296   0.00435  -0.00940   2.14274
   A26        2.15753   0.00212   0.01552  -0.00532   0.00940   2.16694
   A27        1.59535  -0.00094   0.00332  -0.01622  -0.01218   1.58317
   A28        1.96126   0.00225   0.00216   0.01431   0.01591   1.97718
   A29        2.12772  -0.00477  -0.01189  -0.01838  -0.03139   2.09633
   A30        2.18157   0.00333   0.01580   0.00883   0.02371   2.20527
   A31        1.94602   0.00296   0.00828  -0.00658   0.00246   1.94848
   A32        2.17051  -0.00026   0.00704  -0.00576  -0.00028   2.17023
   A33        2.13779  -0.00125  -0.00412   0.01559   0.01001   2.14780
   A34        2.18539  -0.04615  -0.19149  -0.03944  -0.23093   1.95446
    D1        0.00400  -0.00040  -0.00397   0.01829   0.01423   0.01823
    D2       -2.91315  -0.00439  -0.02697  -0.06955  -0.09519  -3.00834
    D3       -3.13860   0.00039   0.00129   0.02282   0.02369  -3.11491
    D4        0.22743  -0.00359  -0.02171  -0.06502  -0.08572   0.14170
    D5       -0.00700  -0.00011  -0.00041  -0.00037  -0.00051  -0.00751
    D6       -3.12961   0.00013   0.00083  -0.00288  -0.00210  -3.13171
    D7        3.13559  -0.00089  -0.00554  -0.00480  -0.00989   3.12569
    D8        0.01298  -0.00064  -0.00431  -0.00731  -0.01148   0.00150
    D9        0.00073   0.00074   0.00647  -0.02687  -0.02063  -0.01991
   D10        3.12021   0.00038   0.00364  -0.01719  -0.01397   3.10624
   D11        2.93957   0.00384   0.02849   0.04501   0.07485   3.01441
   D12       -0.22413   0.00349   0.02566   0.05470   0.08151  -0.14263
   D13       -0.27656   0.00140   0.00506   0.08448   0.08974  -0.18681
   D14        3.09607  -0.00347  -0.02534   0.00515  -0.02040   3.07568
   D15       -0.00398  -0.00066  -0.00567   0.02234   0.01706   0.01308
   D16       -3.12686  -0.00016  -0.00281   0.01454   0.01207  -3.11478
   D17       -1.22185   0.00034   0.00000   0.00000   0.00000  -1.22185
   D18        1.88892   0.00271   0.01884   0.00597   0.02487   1.91379
   D19        1.89575  -0.00015  -0.00349   0.01084   0.00712   1.90287
   D20       -1.27667   0.00223   0.01535   0.01681   0.03200  -1.24467
   D21        0.00635   0.00046   0.00363  -0.01295  -0.00945  -0.00310
   D22        3.12944   0.00031   0.00271  -0.01010  -0.00728   3.12216
   D23       -3.13967   0.00090   0.00838  -0.00812   0.00014  -3.13953
   D24        0.02779  -0.00101  -0.00700  -0.01321  -0.02069   0.00710
   D25        3.13483  -0.00150  -0.01296   0.01469   0.00176   3.13660
   D26       -0.14826   0.00220   0.01362   0.02451   0.03788  -0.11038
   D27       -0.03473   0.00054   0.00370   0.01991   0.02424  -0.01050
   D28        2.96536   0.00424   0.03028   0.02973   0.06035   3.02571
   D29       -0.01383   0.00141   0.00931   0.00305   0.01206  -0.00177
   D30       -2.64365  -0.00591  -0.03879  -0.03068  -0.07039  -2.71404
   D31       -0.00374  -0.00113  -0.00822   0.00808  -0.00008  -0.00381
   D32       -2.72512  -0.00845  -0.05147  -0.03532  -0.08400  -2.80912
   D33        2.71454   0.00659   0.03936   0.04129   0.07825   2.79279
   D34       -0.00685  -0.00072  -0.00389  -0.00211  -0.00567  -0.01252
   D35        2.64433   0.00585   0.04391   0.02158   0.06703   2.71136
   D36       -0.24597  -0.00020  -0.00010   0.00538   0.00636  -0.23960
   D37        0.02117   0.00050   0.00363  -0.01644  -0.01315   0.00801
   D38       -2.86913  -0.00555  -0.04038  -0.03264  -0.07383  -2.94296
   D39        0.02537   0.00042   0.00285  -0.01844  -0.01595   0.00943
   D40       -2.97421  -0.00276  -0.02079  -0.02921  -0.05087  -3.02508
   D41        2.65431   0.00508   0.03688   0.03360   0.07187   2.72618
   D42       -0.34528   0.00190   0.01324   0.02282   0.03695  -0.30833
   D43       -0.00683   0.00075   0.00281   0.01494   0.01732   0.01049
   D44       -2.64287  -0.00624  -0.04100  -0.03055  -0.07233  -2.71519
   D45        0.01908  -0.00040  -0.00059  -0.02444  -0.02526  -0.00619
   D46        2.99847   0.00510   0.03707   0.00701   0.04245   3.04092
   D47       -0.02615   0.00008  -0.00141   0.02732   0.02638   0.00023
   D48        2.86963   0.00614   0.04371   0.03967   0.08443   2.95406
   D49       -2.99961  -0.00473  -0.03684  -0.00231  -0.04024  -3.03986
   D50       -0.10384   0.00134   0.00827   0.01004   0.01781  -0.08602
         Item               Value     Threshold  Converged?
 Maximum Force            0.078182     0.000450     NO 
 RMS     Force            0.013475     0.000300     NO 
 Maximum Displacement     0.730688     0.001800     NO 
 RMS     Displacement     0.093034     0.001200     NO 
 Predicted change in Energy=-4.948656D-02
 GradGradGradGradGradGradGradGradGradGradGradGradGradGradGradGradGradGrad

                          Input orientation:                          
 ---------------------------------------------------------------------
 Center     Atomic      Atomic             Coordinates (Angstroms)
 Number     Number       Type             X           Y           Z
 ---------------------------------------------------------------------
      1          6           0       -4.168782   -1.310599   -0.195745
      2          6           0       -2.840627   -0.954673   -0.563854
      3          6           0       -1.961151   -2.009395   -0.579477
      4          6           0       -4.290083   -2.643551    0.091809
      5          1           0       -4.994927   -0.613086   -0.154103
      6         16           0       -2.798205   -3.487078   -0.091407
      7          1           0       -5.191347   -3.159340    0.386220
      8          6           0       -0.551304   -2.045792   -0.938037
      9         16           0       -0.041812   -1.831068   -2.623297
     10          6           0        1.632646   -2.004749   -2.183378
     11          6           0        1.763501   -2.213134   -0.808638
     12          6           0        0.522452   -2.228103   -0.111410
     13          1           0        0.431407   -2.272510    0.965200
     14         16           0        3.387332   -1.858087   -0.276423
     15          6           0        3.848837   -1.421158   -1.905067
     16          6           0        2.832189   -1.544691   -2.804705
     17          1           0        4.828359   -1.010743   -2.098747
     18          1           0        2.888087   -1.160942   -3.815270
     19          8           0       -2.386832    0.291390   -0.758630
     20          1           0       -3.062741    0.900307   -0.782038
 ---------------------------------------------------------------------
                    Distance matrix (angstroms):
                    1          2          3          4          5
     1  C    0.000000
     2  C    1.423441   0.000000
     3  C    2.347168   1.373376   0.000000
     4  C    1.369000   2.320156   2.505335   0.000000
     5  H    1.082024   2.219366   3.366663   2.163346   0.000000
     6  S    2.574184   2.576448   1.767037   1.723602   3.617921
     7  H    2.191384   3.359922   3.562177   1.079348   2.610352
     8  C    3.765323   2.563505   1.455184   3.923821   4.734236
     9  S    4.816200   3.583677   2.809424   5.106833   5.666900
    10  C    6.171636   4.871928   3.935466   6.376775   7.069611
    11  C    6.031764   4.779292   3.737252   6.135303   6.976025
    12  C    4.780858   3.624449   2.536771   4.834707   5.749051
    13  H    4.840951   3.844595   2.859999   4.815906   5.783739
    14  S    7.576352   6.299702   5.359199   7.726270   8.475097
    15  C    8.198550   6.838523   5.988253   8.468989   9.051576
    16  C    7.474963   6.127836   5.305064   7.766855   8.316089
    17  H    9.201080   7.821277   7.028722   9.518959  10.021812
    18  H    7.932387   6.590328   5.891124   8.305993   8.708973
    19  O    2.461414   1.340351   2.346681   3.599929   2.825897
    20  H    2.540703   1.880928   3.117836   3.850832   2.533378
                    6          7          8          9         10
     6  S    0.000000
     7  H    2.462248   0.000000
     8  C    2.800474   4.952135   0.000000
     9  S    4.092743   6.110582   1.773637   0.000000
    10  C    5.119188   7.382600   2.514397   1.739972   0.000000
    11  C    4.790252   7.119894   2.324449   2.588071   1.396587
    12  C    3.551364   5.810536   1.367297   2.604919   2.361242
    13  H    3.608600   5.721629   2.153935   3.646385   3.380564
    14  S    6.399119   8.702073   3.998227   4.155427   2.595556
    15  C    7.193092   9.486632   4.548247   3.977566   2.308580
    16  C    6.544937   8.784430   3.896611   2.893925   1.427097
    17  H    8.265962  10.544478   5.599941   4.966552   3.347804
    18  H    7.184149   9.323270   4.570650   3.233292   2.225133
    19  O    3.858917   4.591680   2.977209   3.671638   4.843383
    20  H    4.449281   4.730383   3.874423   4.469525   5.696469
                   11         12         13         14         15
    11  C    0.000000
    12  C    1.423570   0.000000
    13  H    2.219122   1.081366   0.000000
    14  S    1.745320   2.893385   3.232780   0.000000
    15  C    2.485560   3.864350   4.543354   1.748249   0.000000
    16  C    2.360761   3.613277   4.528318   2.607414   1.363151
    17  H    3.536026   4.896152   5.505726   2.472937   1.079544
    18  H    3.378111   4.522570   5.488512   3.641249   2.153980
    19  O    4.847721   3.902650   4.181823   6.180109   6.567397
    20  H    5.743416   4.805237   5.032761   7.033337   7.377012
                   16         17         18         19         20
    16  C    0.000000
    17  H    2.183614   0.000000
    18  H    1.082419   2.594930   0.000000
[...]
 Framework group  C1[X(C10H6OS3)]
 Deg. of freedom    54
 Full point group                 C1      NOp   1
 Largest Abelian subgroup         C1      NOp   1
 Largest concise Abelian subgroup C1      NOp   1
                         Standard orientation:                         
 ---------------------------------------------------------------------
 Center     Atomic      Atomic             Coordinates (Angstroms)
 Number     Number       Type             X           Y           Z
 ---------------------------------------------------------------------
      1          6           0       -4.009036    0.330681    0.442977
      2          6           0       -2.654091    0.749629    0.603847
      3          6           0       -1.737990   -0.088021    0.010725
      4          6           0       -4.113896   -0.829542   -0.268689
      5          1           0       -4.858404    0.868113    0.847274
      6         16           0       -2.571613   -1.425345   -0.763149
      7          1           0       -5.012439   -1.366660   -0.530685
      8          6           0       -0.283136   -0.002716    0.010793
      9         16           0        0.536148    1.280233   -0.895393
     10          6           0        2.094979    0.639051   -0.462700
     11          6           0        1.957401   -0.504694    0.314102
     12          6           0        0.611778   -0.872923    0.580142
     13          1           0        0.302608   -1.724659    1.170236
     14         16           0        3.519939   -1.141849    0.755398
     15          6           0        4.317293    0.148452   -0.115387
     16          6           0        3.446640    1.017675   -0.706514
     17          1           0        5.396023    0.178920   -0.134817
     18          1           0        3.758428    1.875748   -1.285597
     19          8           0       -2.260721    1.865037    1.285389
     20          1           0       -3.031696    2.314070    1.645013
 ---------------------------------------------------------------------
 Rotational constants (GHZ):           1.2871239           0.2653166           0.2449588

 **********************************************************************

            Population analysis using the SCF Density.

 **********************************************************************

 Orbital symmetries:
       Occupied  (A) (A) (A) (A) (A) (A) (A) (A) (A) (A) (A) (A)
                 (A) (A) (A) (A) (A) (A) (A) (A) (A) (A) (A) (A)
                 (A) (A) (A) (A) (A) (A) (A) (A) (A) (A) (A) (A)
                 (A) (A) (A) (A) (A) (A) (A) (A) (A) (A) (A) (A)
                 (A) (A) (A) (A) (A) (A) (A) (A) (A) (A) (A) (A)
                 (A)
       Virtual   (A) (A) (A) (A) (A) (A) (A) (A) (A) (A) (A) (A)
                 (A) (A) (A) (A) (A) (A) (A) (A) (A) (A) (A) (A)
                 (A) (A) (A) (A) (A) (A) (A) (A) (A) (A) (A) (A)
                 (A) (A) (A) (A) (A) (A) (A) (A) (A) (A) (A) (A)
                 (A) (A) (A) (A) (A) (A) (A) (A) (A) (A) (A) (A)
                 (A) (A) (A) (A) (A) (A) (A) (A) (A) (A) (A) (A)
                 (A) (A) (A) (A) (A) (A) (A) (A) (A) (A) (A) (A)
                 (A) (A) (A) (A) (A) (A) (A) (A) (A) (A) (A) (A)
                 (A) (A) (A) (A) (A) (A) (A) (A) (A) (A) (A) (A)
                 (A) (A) (A) (A) (A) (A) (A) (A) (A) (A) (A) (A)
                 (A) (A) (A) (A) (A) (A) (A) (A) (A) (A) (A) (A)
                 (A) (A) (A) (A) (A) (A) (A) (A) (A) (A) (A) (A)
                 (A) (A) (A) (A) (A) (A) (A) (A) (A) (A) (A) (A)
                 (A) (A) (A) (A) (A) (A) (A) (A) (A) (A) (A) (A)
                 (A) (A) (A) (A) (A) (A) (A) (A) (A) (A) (A) (A)
                 (A) (A) (A) (A) (A) (A) (A) (A) (A) (A) (A) (A)
                 (A) (A) (A) (A) (A) (A) (A) (A) (A) (A) (A) (A)
                 (A) (A) (A) (A) (A) (A) (A) (A) (A) (A) (A) (A)
                 (A) (A) (A) (A) (A) (A) (A) (A) (A) (A) (A) (A)
                 (A) (A) (A) (A) (A) (A) (A) (A) (A) (A) (A) (A)
                 (A) (A) (A) (A) (A) (A) (A) (A) (A) (A) (A) (A)
                 (A) (A) (A) (A) (A) (A) (A) (A) (A) (A) (A) (A)
                 (A) (A) (A) (A) (A) (A) (A) (A) (A) (A) (A) (A)
                 (A) (A) (A) (A) (A) (A) (A) (A) (A) (A) (A) (A)
                 (A) (A) (A) (A) (A) (A) (A) (A) (A) (A) (A) (A)
                 (A) (A) (A) (A) (A) (A)
 The electronic state is 1-A.
 Alpha  occ. eigenvalues --  -88.88487 -88.88067 -88.87715 -19.16745 -10.24861
 Alpha  occ. eigenvalues --  -10.21900 -10.21377 -10.21044 -10.20719 -10.20704
 Alpha  occ. eigenvalues --  -10.20660 -10.19187 -10.18978 -10.18934  -7.97077
 Alpha  occ. eigenvalues --   -7.96642  -7.96283  -5.93377  -5.93002  -5.92954
 Alpha  occ. eigenvalues --   -5.92656  -5.92601  -5.92590  -5.92236  -5.92190
 Alpha  occ. eigenvalues --   -5.91816  -1.07835  -0.91217  -0.89220  -0.84621
 Alpha  occ. eigenvalues --   -0.76960  -0.76046  -0.74174  -0.70986  -0.70153
 Alpha  occ. eigenvalues --   -0.61745  -0.60850  -0.57165  -0.55866  -0.53642
 Alpha  occ. eigenvalues --   -0.51958  -0.49341  -0.48406  -0.45241  -0.43689
 Alpha  occ. eigenvalues --   -0.43344  -0.41391  -0.40913  -0.39467  -0.38964
 Alpha  occ. eigenvalues --   -0.37734  -0.36906  -0.36073  -0.35706  -0.33819
 Alpha  occ. eigenvalues --   -0.33460  -0.28638  -0.25987  -0.23964  -0.23242
 Alpha  occ. eigenvalues --   -0.21460
 Alpha virt. eigenvalues --   -0.04763  -0.02859  -0.01672  -0.00244   0.00068
 Alpha virt. eigenvalues --    0.00246   0.00793   0.01650   0.02137   0.02819
 Alpha virt. eigenvalues --    0.03121   0.03674   0.03875   0.04334   0.04679
 Alpha virt. eigenvalues --    0.04843   0.05441   0.06223   0.06244   0.06697
 Alpha virt. eigenvalues --    0.07553   0.08092   0.08575   0.08994   0.09281
 Alpha virt. eigenvalues --    0.09962   0.10111   0.10649   0.11267   0.12421
 Alpha virt. eigenvalues --    0.12589   0.12746   0.12956   0.13346   0.13751
 Alpha virt. eigenvalues --    0.14010   0.14494   0.14939   0.15162   0.15767
 Alpha virt. eigenvalues --    0.16044   0.16590   0.17154   0.17525   0.17942
 Alpha virt. eigenvalues --    0.18306   0.18591   0.19069   0.19261   0.19530
 Alpha virt. eigenvalues --    0.20147   0.20519   0.20634   0.21181   0.21569
 Alpha virt. eigenvalues --    0.22191   0.22631   0.22888   0.23241   0.24035
 Alpha virt. eigenvalues --    0.24238   0.24712   0.25311   0.26009   0.26309
 Alpha virt. eigenvalues --    0.26727   0.27517   0.28040   0.28743   0.29633
 Alpha virt. eigenvalues --    0.30447   0.31143   0.31627   0.32583   0.33214
 Alpha virt. eigenvalues --    0.33424   0.34633   0.35081   0.35247   0.35986
 Alpha virt. eigenvalues --    0.36661   0.38092   0.39941   0.40029   0.42462
 Alpha virt. eigenvalues --    0.42611   0.43794   0.44280   0.46192   0.46343
 Alpha virt. eigenvalues --    0.47470   0.49014   0.50134   0.52444   0.52735
 Alpha virt. eigenvalues --    0.55190   0.55705   0.56128   0.56903   0.58220
 Alpha virt. eigenvalues --    0.59071   0.59088   0.59634   0.60699   0.61632
 Alpha virt. eigenvalues --    0.62519   0.63939   0.64517   0.65229   0.65720
 Alpha virt. eigenvalues --    0.66661   0.69745   0.70062   0.70825   0.71310
 Alpha virt. eigenvalues --    0.72935   0.73342   0.73598   0.74251   0.74786
 Alpha virt. eigenvalues --    0.76060   0.76929   0.78705   0.78970   0.79607
 Alpha virt. eigenvalues --    0.80250   0.81669   0.82284   0.82528   0.83033
 Alpha virt. eigenvalues --    0.83680   0.84954   0.85840   0.86034   0.87454
 Alpha virt. eigenvalues --    0.88058   0.89650   0.90584   0.92142   0.93153
 Alpha virt. eigenvalues --    0.93769   0.95068   0.95927   0.96948   0.98695
 Alpha virt. eigenvalues --    1.00694   1.01576   1.02829   1.03926   1.04741
 Alpha virt. eigenvalues --    1.05489   1.06988   1.07060   1.08515   1.09576
 Alpha virt. eigenvalues --    1.10573   1.13098   1.14883   1.16496   1.16820
 Alpha virt. eigenvalues --    1.19305   1.21293   1.24728   1.27566   1.30930
 Alpha virt. eigenvalues --    1.34495   1.34910   1.36315   1.38233   1.40290
 Alpha virt. eigenvalues --    1.43687   1.45321   1.50079   1.51955   1.55210
 Alpha virt. eigenvalues --    1.56530   1.58213   1.59779   1.60056   1.60389
 Alpha virt. eigenvalues --    1.62870   1.63014   1.64708   1.67244   1.68953
 Alpha virt. eigenvalues --    1.70981   1.71524   1.72645   1.73281   1.74984
 Alpha virt. eigenvalues --    1.75719   1.77685   1.78475   1.79894   1.80783
 Alpha virt. eigenvalues --    1.84150   1.85077   1.86732   1.88328   1.89998
 Alpha virt. eigenvalues --    1.90285   1.92472   1.93610   1.96030   1.97275
 Alpha virt. eigenvalues --    1.99841   2.00450   2.02258   2.03938   2.05883
 Alpha virt. eigenvalues --    2.06450   2.07838   2.08880   2.09627   2.10735
 Alpha virt. eigenvalues --    2.11458   2.14142   2.14998   2.17309   2.17554
 Alpha virt. eigenvalues --    2.18817   2.20379   2.29017   2.31322   2.37804
 Alpha virt. eigenvalues --    2.41006   2.42081   2.45015   2.50213   2.52752
 Alpha virt. eigenvalues --    2.57432   2.58708   2.62843   2.63509   2.68971
 Alpha virt. eigenvalues --    2.70214   2.70603   2.71191   2.72855   2.73662
 Alpha virt. eigenvalues --    2.74273   2.77206   2.78946   2.82980   2.87140
 Alpha virt. eigenvalues --    2.89619   2.92097   2.95363   2.96186   2.98312
 Alpha virt. eigenvalues --    3.02549   3.05796   3.08245   3.10960   3.11636
 Alpha virt. eigenvalues --    3.16619   3.17351   3.19441   3.28471   3.29671
 Alpha virt. eigenvalues --    3.30360   3.32131   3.36462   3.44234   3.47114
 Alpha virt. eigenvalues --    3.47350   3.52103   3.57755   3.69899   3.88062
 Alpha virt. eigenvalues --    3.93283   3.97837   4.05337   4.10554   4.19940
 Alpha virt. eigenvalues --    4.35531   4.49940   5.01081   5.45064   5.73613
 Alpha virt. eigenvalues --    7.98260   7.99138   8.00222  17.28628  17.29521
 Alpha virt. eigenvalues --   17.31346  17.45564  17.46531  17.50843  17.52405
 Alpha virt. eigenvalues --   17.54660  17.56962  23.46930  23.62678  23.77474
 Alpha virt. eigenvalues --   23.80867  23.86301  24.02198  24.05728  24.13337
 Alpha virt. eigenvalues --   24.14144  24.15471  49.93558 189.14896 189.16005
 Alpha virt. eigenvalues --  189.17483
          Condensed to atoms (all electrons):
               1          2          3          4          5          6
     1  C    8.688036  -3.634404   0.711776  -0.955577   0.378605   0.583889
     2  C   -3.634404  16.702747  -4.617599   2.471011  -0.047297  -2.355630
     3  C    0.711776  -4.617599  11.362014  -1.374397  -0.017517   0.702700
     4  C   -0.955577   2.471011  -1.374397   6.442430   0.039964  -0.275482
     5  H    0.378605  -0.047297  -0.017517   0.039964   0.538436   0.007498
     6  S    0.583889  -2.355630   0.702700  -0.275482   0.007498  16.962069
     7  H    0.044340  -0.036123   0.028647   0.341820  -0.005214  -0.021434
     8  C    0.527092  -2.943226   1.340366  -0.565215  -0.010834   0.572465
     9  S   -0.196723   0.079433   0.863013   0.035198   0.000153   0.115133
    10  C    0.012420   0.336765  -1.271565   0.022897  -0.000533  -0.165023
    11  C   -0.290955  -0.182065   1.694209   0.117599   0.000247   0.206913
    12  C    0.292956   0.541633  -3.553505  -0.054327  -0.000519  -0.192356
    13  H    0.002504  -0.002503   0.037962   0.001630   0.000001   0.005175
    14  S   -0.009548   0.004584   0.002363   0.003554  -0.000002  -0.003476
    15  C   -0.006097   0.014969   0.048668   0.002555   0.000000  -0.007211
    16  C    0.008172  -0.028912  -0.260254  -0.001535  -0.000035  -0.010409
    17  H    0.000001  -0.000029  -0.000244  -0.000001   0.000000   0.000019
    18  H   -0.000020  -0.000100  -0.000403   0.000003   0.000000  -0.000007
    19  O    0.081311  -0.115023   0.078207  -0.045312  -0.006734   0.052798
    20  H   -0.205845   0.309266  -0.095253   0.036240   0.004134  -0.025415
               7          8          9         10         11         12
     1  C    0.044340   0.527092  -0.196723   0.012420  -0.290955   0.292956
     2  C   -0.036123  -2.943226   0.079433   0.336765  -0.182065   0.541633
     3  C    0.028647   1.340366   0.863013  -1.271565   1.694209  -3.553505
     4  C    0.341820  -0.565215   0.035198   0.022897   0.117599  -0.054327
     5  H   -0.005214  -0.010834   0.000153  -0.000533   0.000247  -0.000519
     6  S   -0.021434   0.572465   0.115133  -0.165023   0.206913  -0.192356
     7  H    0.483746   0.001754  -0.000341   0.000299  -0.001080  -0.000303
     8  C    0.001754  12.781687   1.448931  -1.235644   2.901678  -6.629511
     9  S   -0.000341   1.448931  18.346627  -0.338832   2.441332  -4.757028
    10  C    0.000299  -1.235644  -0.338832  19.055205  -4.045436   0.345415
    11  C   -0.001080   2.901678   2.441332  -4.045436  20.295757 -13.702623
    12  C   -0.000303  -6.629511  -4.757028   0.345415 -13.702623  28.654090
    13  H   -0.000004   0.045156   0.015903  -0.072207   0.105631   0.198793
    14  S    0.000001  -0.731753   0.207442   0.292169  -0.535415  -0.378289
    15  C   -0.000002   0.128396   0.323068   1.602148  -0.062047  -1.213901
    16  C    0.000011  -2.119133  -2.149816  -8.761960  -2.388641   5.957454
    17  H    0.000000   0.003944  -0.001465   0.004387   0.023511   0.008770
    18  H    0.000000  -0.007661   0.018682   0.027345  -0.063196  -0.008126
    19  O   -0.000430   0.024413  -0.017040  -0.011415   0.001275   0.008688
    20  H    0.000024  -0.005557   0.005054   0.004994   0.001062   0.002160
              13         14         15         16         17         18
     1  C    0.002504  -0.009548  -0.006097   0.008172   0.000001  -0.000020
     2  C   -0.002503   0.004584   0.014969  -0.028912  -0.000029  -0.000100
     3  C    0.037962   0.002363   0.048668  -0.260254  -0.000244  -0.000403
     4  C    0.001630   0.003554   0.002555  -0.001535  -0.000001   0.000003
     5  H    0.000001  -0.000002   0.000000  -0.000035   0.000000   0.000000
     6  S    0.005175  -0.003476  -0.007211  -0.010409   0.000019  -0.000007
     7  H   -0.000004   0.000001  -0.000002   0.000011   0.000000   0.000000
     8  C    0.045156  -0.731753   0.128396  -2.119133   0.003944  -0.007661
     9  S    0.015903   0.207442   0.323068  -2.149816  -0.001465   0.018682
    10  C   -0.072207   0.292169   1.602148  -8.761960   0.004387   0.027345
    11  C    0.105631  -0.535415  -0.062047  -2.388641   0.023511  -0.063196
    12  C    0.198793  -0.378289  -1.213901   5.957454   0.008770  -0.008126
    13  H    0.521511   0.009054   0.000965  -0.006128  -0.000005   0.000008
    14  S    0.009054  17.258334   0.456939  -0.159453  -0.042692   0.013265
    15  C    0.000965   0.456939   5.930558  -1.404529   0.368597   0.034720
    16  C   -0.006128  -0.159453  -1.404529  16.710543  -0.005773   0.334695
    17  H   -0.000005  -0.042692   0.368597  -0.005773   0.479740  -0.005005
    18  H    0.000008   0.013265   0.034720   0.334695  -0.005005   0.521140
    19  O   -0.000167  -0.000343  -0.000008   0.000747  -0.000000   0.000002
    20  H   -0.000025   0.000067   0.000095   0.000201  -0.000000   0.000000
              19         20
     1  C    0.081311  -0.205845
     2  C   -0.115023   0.309266
     3  C    0.078207  -0.095253
     4  C   -0.045312   0.036240
     5  H   -0.006734   0.004134
     6  S    0.052798  -0.025415
     7  H   -0.000430   0.000024
     8  C    0.024413  -0.005557
     9  S   -0.017040   0.005054
    10  C   -0.011415   0.004994
    11  C    0.001275   0.001062
    12  C    0.008688   0.002160
    13  H   -0.000167  -0.000025
    14  S   -0.000343   0.000067
    15  C   -0.000008   0.000095
    16  C    0.000747   0.000201
    17  H   -0.000000  -0.000000
    18  H    0.000002   0.000000
    19  O    8.018977   0.176598
    20  H    0.176598   0.538704
 Mulliken charges:
               1
     1  C   -0.031931
     2  C   -0.497496
     3  C    0.320812
     4  C   -0.243055
     5  H    0.119648
     6  S   -0.152216
     7  H    0.164288
     8  C    0.472652
     9  S   -0.438726
    10  C    0.198573
    11  C   -0.517757
    12  C    0.480531
    13  H    0.136747
    14  S   -0.386798
    15  C   -0.217882
    16  C    0.284754
    17  H    0.166246
    18  H    0.134660
    19  O   -0.246543
    20  H    0.253495
 Sum of Mulliken charges =  -0.00000
 Mulliken charges with hydrogens summed into heavy atoms:
               1
     1  C    0.087717
     2  C   -0.497496
     3  C    0.320812
     4  C   -0.078767
     6  S   -0.152216
     8  C    0.472652
     9  S   -0.438726
    10  C    0.198573
    11  C   -0.517757
    12  C    0.617278
    14  S   -0.386798
    15  C   -0.051637
    16  C    0.419413
    19  O    0.006952
 Electronic spatial extent (au):  <R**2>=           4320.9015
 Charge=             -0.0000 electrons
 Dipole moment (field-independent basis, Debye):
    X=             -2.0473    Y=              0.5925    Z=              0.5735  Tot=              2.2071
 Quadrupole moment (field-independent basis, Debye-Ang):
   XX=            -78.4232   YY=            -99.0092   ZZ=           -104.1742
   XY=             -1.1403   XZ=             -5.7642   YZ=              0.0721
 Traceless Quadrupole moment (field-independent basis, Debye-Ang):
   XX=             15.4457   YY=             -5.1403   ZZ=            -10.3054
   XY=             -1.1403   XZ=             -5.7642   YZ=              0.0721
 Octapole moment (field-independent basis, Debye-Ang**2):
  XXX=            -44.8737  YYY=             14.1038  ZZZ=              8.4930  XYY=            -18.9812
  XXY=             28.4203  XXZ=              9.6323  XZZ=            -10.6079  YZZ=              7.5213
  YYZ=              5.7084  XYZ=            -25.4175
 Hexadecapole moment (field-independent basis, Debye-Ang**3):
 XXXX=          -4057.3884 YYYY=           -782.8734 ZZZZ=           -427.1588 XXXY=            -13.3907
 XXXZ=            -91.4516 YYYX=            -38.2656 YYYZ=             19.4221 ZZZX=            -26.4340
 ZZZY=             16.3183 XXYY=           -856.8764 XXZZ=           -881.8242 YYZZ=           -181.1296
 XXYZ=             53.1313 YYXZ=            -36.1706 ZZXY=            -22.4023
 N-N= 1.122716954207D+03 E-N=-6.157186306615D+03  KE= 1.651063406047D+03
 Unable to Open any file for archive entry.
 1\1\GINC-CX3-6-8\FOpt\RB3LYP\6-311+G(d,p)\C10H6O1S3\NS5018\17-Oct-2021
 \0\\# opt=modredundant b3lyp/6-311+g(d,p)\\pBTTT_-70.pdb\\0,1\C,-4.212
 5019037,-1.3964285207,-0.1670215107\C,-2.9213901895,-0.9428823714,-0.5
 727278922\C,-1.9679624075,-1.9341236302,-0.6060275815\C,-4.2306575572,
 -2.7326341139,0.1119154055\H,-5.0788355976,-0.7515236965,-0.0817083011
 \S,-2.6846712104,-3.4624369891,-0.1235040565\H,-5.0674613748,-3.328830
 4318,0.441807028\C,-0.5492374696,-1.8313098614,-0.9230872878\S,-0.0273
 230277,-1.4888589955,-2.5810048121\C,1.6453612714,-1.6190925505,-2.118
 9922944\C,1.7596166141,-1.9290975585,-0.7694210304\C,0.5183471228,-2.0
 541834527,-0.090691866\H,0.4014303939,-2.2828629436,0.9596827732\S,3.4
 363410239,-2.0504190202,-0.3045422891\C,3.9396127318,-1.6790612167,-1.
 9378601551\C,2.8935866352,-1.4710839492,-2.789676939\H,4.9940253073,-1
 .6400723412,-2.1651443815\H,3.0134124315,-1.2301922803,-3.8367920323\O
 ,-2.6165012545,0.3480418671,-0.8951116404\H,-3.3981915392,0.9000520563
 ,-0.7970911366\\Version=ES64L-G16RevC.01\State=1-A\HF=-1654.629892\RMS
 D=8.901e-09\RMSF=5.781e-04\Dipole=-0.7999589,0.3018574,0.1515138\Quadr
 upole=10.2237405,-5.7391793,-4.4845612,-3.3699612,-5.4376602,-1.401737
 3\PG=C01 [X(C10H6O1S3)]\\@
 The archive entry for this job was punched.


 NEVER TEACH A PIG TO SING.
 IT WASTES YOUR TIME AND ANNOYS THE PIG.
     -- SEEN ON A GREETING CARD
 Job cpu time:       0 days  2 hours 22 minutes 13.7 seconds.
 Elapsed time:       0 days  0 hours 17 minutes 53.9 seconds.
 File lengths (MBytes):  RWF=     86 Int=      0 D2E=      0 Chk=     11 Scr=      1
 Normal termination of Gaussian 16 at Sun Oct 17 01:58:58 2021.
