 Entering Gaussian System, Link 0=g16
 Input=NDI_135.gjf
 Output=NDI_135.log
 Initial command:
 /apps/gaussian/g16-c01-avx/g16/l1.exe "/tmp/pbs.2626208[63].pbs/Gau-2836168.inp" -scrdir="/tmp/pbs.2626208[63].pbs/"
 Entering Link 1 = /apps/gaussian/g16-c01-avx/g16/l1.exe PID=   2836172.
  
 Copyright (c) 1988-2019, Gaussian, Inc.  All Rights Reserved.
  
 This is part of the Gaussian(R) 16 program.  It is based on
 the Gaussian(R) 09 system (copyright 2009, Gaussian, Inc.),
 the Gaussian(R) 03 system (copyright 2003, Gaussian, Inc.),
 the Gaussian(R) 98 system (copyright 1998, Gaussian, Inc.),
 the Gaussian(R) 94 system (copyright 1995, Gaussian, Inc.),
 the Gaussian 92(TM) system (copyright 1992, Gaussian, Inc.),
 the Gaussian 90(TM) system (copyright 1990, Gaussian, Inc.),
 the Gaussian 88(TM) system (copyright 1988, Gaussian, Inc.),
 the Gaussian 86(TM) system (copyright 1986, Carnegie Mellon
 University), and the Gaussian 82(TM) system (copyright 1983,
 Carnegie Mellon University). Gaussian is a federally registered
 trademark of Gaussian, Inc.
  
 This software contains proprietary and confidential information,
 including trade secrets, belonging to Gaussian, Inc.
  
 This software is provided under written license and may be
 used, copied, transmitted, or stored only in accord with that
 written license.
  
 The following legend is applicable only to US Government
 contracts under FAR:
  
                    RESTRICTED RIGHTS LEGEND
  
 Use, reproduction and disclosure by the US Government is
 subject to restrictions as set forth in subparagraphs (a)
 and (c) of the Commercial Computer Software - Restricted
 Rights clause in FAR 52.227-19.
  
 Gaussian, Inc.
 340 Quinnipiac St., Bldg. 40, Wallingford CT 06492
  
  
 ---------------------------------------------------------------
 Warning -- This program may not be used in any manner that
 competes with the business of Gaussian, Inc. or will provide
 assistance to any competitor of Gaussian, Inc.  The licensee
 of this program is prohibited from giving any competitor of
 Gaussian, Inc. access to this program.  By using this program,
 the user acknowledges that Gaussian, Inc. is engaged in the
 business of creating and licensing software in the field of
 computational chemistry and represents and warrants to the
 licensee that it is not a competitor of Gaussian, Inc. and that
 it will not use this program in any manner prohibited above.
 ---------------------------------------------------------------
  

 Cite this work as:
 Gaussian 16, Revision C.01,
 M. J. Frisch, G. W. Trucks, H. B. Schlegel, G. E. Scuseria, 
 M. A. Robb, J. R. Cheeseman, G. Scalmani, V. Barone, 
 G. A. Petersson, H. Nakatsuji, X. Li, M. Caricato, A. V. Marenich, 
 J. Bloino, B. G. Janesko, R. Gomperts, B. Mennucci, H. P. Hratchian, 
 J. V. Ortiz, A. F. Izmaylov, J. L. Sonnenberg, D. Williams-Young, 
 F. Ding, F. Lipparini, F. Egidi, J. Goings, B. Peng, A. Petrone, 
 T. Henderson, D. Ranasinghe, V. G. Zakrzewski, J. Gao, N. Rega, 
 G. Zheng, W. Liang, M. Hada, M. Ehara, K. Toyota, R. Fukuda, 
 J. Hasegawa, M. Ishida, T. Nakajima, Y. Honda, O. Kitao, H. Nakai, 
 T. Vreven, K. Throssell, J. A. Montgomery, Jr., J. E. Peralta, 
 F. Ogliaro, M. J. Bearpark, J. J. Heyd, E. N. Brothers, K. N. Kudin, 
 V. N. Staroverov, T. A. Keith, R. Kobayashi, J. Normand, 
 K. Raghavachari, A. P. Rendell, J. C. Burant, S. S. Iyengar, 
 J. Tomasi, M. Cossi, J. M. Millam, M. Klene, C. Adamo, R. Cammi, 
 J. W. Ochterski, R. L. Martin, K. Morokuma, O. Farkas, 
 J. B. Foresman, and D. J. Fox, Gaussian, Inc., Wallingford CT, 2019.
 
 ******************************************
 Gaussian 16:  ES64L-G16RevC.01  3-Jul-2019
                29-Nov-2020 
 ******************************************
 %mem=10GB
 %nprocshared=8
 Will use up to    8 processors via shared memory.
 --------------------------------------
 # opt=modredundant wb97xd/6-311+g(d,p)
 --------------------------------------
 1/18=120,19=15,26=3,38=1/1,3;
 2/9=110,12=2,17=6,18=5,40=1/2;
 3/5=4,6=6,7=111,11=2,25=1,30=1,71=1,74=-58/1,2,3;
 4//1;
 5/5=2,38=5/2;
 6/7=2,8=2,9=2,10=2,28=1/1;
 7//1,2,3,16;
 1/18=20,19=15,26=3/3(2);
 2/9=110/2;
 99//99;
 2/9=110/2;
 3/5=4,6=6,7=111,11=2,25=1,30=1,71=1,74=-58/1,2,3;
 4/5=5,16=3,69=1/1;
 5/5=2,38=5/2;
 7//1,2,3,16;
 1/18=20,19=15,26=3/3(-5);
 2/9=110/2;
 6/7=2,8=2,9=2,10=2,19=2,28=1/1;
 99/9=1/99;
 -----------
 NDI_135.pdb
 -----------
 Symbolic Z-matrix:
 Charge =  0 Multiplicity = 1
 C                    -2.563    -2.994    -0.409 
 C                    -2.257    -1.551    -0.224 
 C                    -3.301    -0.607    -0.083 
 C                    -4.65     -1.024    -0.115 
 C                    -4.992    -2.459    -0.304 
 C                    -0.949    -1.137    -0.215 
 C                    -2.962     0.764     0.102 
 C                    -1.595     1.188     0.123 
 C                    -0.561     0.232    -0.072 
 C                    -1.328     2.616     0.446 
 C                    -3.777     3.115     0.508 
 C                    -4.035     1.679     0.268 
 C                    -5.356     1.252     0.23 
 C                    -5.672    -0.098     0.036 
 H                    -6.699    -0.442     0.008 
 H                    -6.133     1.997     0.361 
 H                    -0.19     -1.895    -0.369 
 N                    -2.432     3.476     0.608 
 N                    -3.916    -3.353    -0.438 
 O                    -1.695    -3.847    -0.532 
 O                    -6.149    -2.85     -0.34 
 O                    -4.676     3.938     0.629 
 O                    -0.212     3.097     0.596 
 C                    -2.111     4.875     0.912 
 H                    -1.54      4.931     1.84 
 H                    -1.5       5.299     0.111 
 H                    -3.05      5.414     1.003 
 C                    -4.206    -4.779    -0.625 
 H                    -3.759    -5.126    -1.559 
 H                    -3.775    -5.355     0.196 
 H                    -5.286    -4.897    -0.649 
 C                     0.876     0.482    -0.178 
 C                     1.951    -0.164     0.401 
 S                     1.428     1.911    -1.052 
 C                     3.187     0.464     0.15 
 H                     1.847    -1.066     0.982 
 C                     3.101     1.614    -0.641 
 O                     4.406     0.058     0.594 
 C                     4.177     2.444    -1.103 
 C                     4.475    -1.193     1.275 
 C                     4.088     3.603    -1.872 
 S                     5.87      2.107    -0.751 
 H                     5.532    -1.369     1.472 
 H                     3.929    -1.157     2.225 
 H                     4.073    -2.004     0.655 
 C                     5.344     4.203    -2.17 
 O                     2.865     4.048    -2.262 
 C                     6.387     3.501    -1.628 
 H                     5.469     5.106    -2.753 
 C                     2.803     5.254    -3.016 
 H                     7.441     3.732    -1.697 
 H                     3.335     5.154    -3.971 
 H                     1.746     5.434    -3.209 
 H                     3.221     6.097    -2.453 
 
 The following ModRedundant input section has been read:
 D       8       9      32      33 F                                           
 D      33      35      38      40 F                                           
 D      46      41      47      50 F                                           
 D      10      18      24      25 F                                           
 D       1      19      28      30 F                                           
 D       9       8      10      23 F                                           
 D      20       1       2       6 F                                           
 

 GradGradGradGradGradGradGradGradGradGradGradGradGradGradGradGradGradGrad
 Berny optimization.
 Initialization pass.
                           ----------------------------
                           !    Initial Parameters    !
                           ! (Angstroms and Degrees)  !
 --------------------------                            --------------------------
 ! Name  Definition              Value          Derivative Info.                !
 --------------------------------------------------------------------------------
 ! R1    R(1,2)                  1.4866         estimate D2E/DX2                !
 ! R2    R(1,19)                 1.4001         estimate D2E/DX2                !
 ! R3    R(1,20)                 1.2232         estimate D2E/DX2                !
 ! R4    R(2,3)                  1.4146         estimate D2E/DX2                !
 ! R5    R(2,6)                  1.372          estimate D2E/DX2                !
 ! R6    R(3,4)                  1.4123         estimate D2E/DX2                !
 ! R7    R(3,7)                  1.4244         estimate D2E/DX2                !
 ! R8    R(4,5)                  1.4872         estimate D2E/DX2                !
 ! R9    R(4,14)                 1.3874         estimate D2E/DX2                !
 ! R10   R(5,19)                 1.4053         estimate D2E/DX2                !
 ! R11   R(5,21)                 1.2218         estimate D2E/DX2                !
 ! R12   R(6,9)                  1.4301         estimate D2E/DX2                !
 ! R13   R(6,17)                 1.0837         estimate D2E/DX2                !
 ! R14   R(7,8)                  1.4314         estimate D2E/DX2                !
 ! R15   R(7,12)                 1.4199         estimate D2E/DX2                !
 ! R16   R(8,9)                  1.4217         estimate D2E/DX2                !
 ! R17   R(8,10)                 1.4882         estimate D2E/DX2                !
 ! R18   R(9,32)                 1.4624         estimate D2E/DX2                !
 ! R19   R(10,18)                1.4088         estimate D2E/DX2                !
 ! R20   R(10,23)                1.2245         estimate D2E/DX2                !
 ! R21   R(11,12)                1.4786         estimate D2E/DX2                !
 ! R22   R(11,18)                1.3962         estimate D2E/DX2                !
 ! R23   R(11,22)                1.2248         estimate D2E/DX2                !
 ! R24   R(12,13)                1.3888         estimate D2E/DX2                !
 ! R25   R(13,14)                1.4            estimate D2E/DX2                !
 ! R26   R(13,16)                1.0844         estimate D2E/DX2                !
 ! R27   R(14,15)                1.0834         estimate D2E/DX2                !
 ! R28   R(18,24)                1.4672         estimate D2E/DX2                !
 ! R29   R(19,28)                1.4672         estimate D2E/DX2                !
 ! R30   R(24,25)                1.091          estimate D2E/DX2                !
 ! R31   R(24,26)                1.093          estimate D2E/DX2                !
 ! R32   R(24,27)                1.0865         estimate D2E/DX2                !
 ! R33   R(28,29)                1.0921         estimate D2E/DX2                !
 ! R34   R(28,30)                1.0916         estimate D2E/DX2                !
 ! R35   R(28,31)                1.0867         estimate D2E/DX2                !
 ! R36   R(32,33)                1.3814         estimate D2E/DX2                !
 ! R37   R(32,34)                1.7637         estimate D2E/DX2                !
 ! R38   R(33,35)                1.4089         estimate D2E/DX2                !
 ! R39   R(33,36)                1.078          estimate D2E/DX2                !
 ! R40   R(34,37)                1.7482         estimate D2E/DX2                !
 ! R41   R(35,37)                1.3984         estimate D2E/DX2                !
 ! R42   R(35,38)                1.3594         estimate D2E/DX2                !
 ! R43   R(37,39)                1.4353         estimate D2E/DX2                !
 ! R44   R(38,40)                1.426          estimate D2E/DX2                !
 ! R45   R(39,41)                1.3938         estimate D2E/DX2                !
 ! R46   R(39,42)                1.7617         estimate D2E/DX2                !
 ! R47   R(40,43)                1.0895         estimate D2E/DX2                !
 ! R48   R(40,44)                1.0963         estimate D2E/DX2                !
 ! R49   R(40,45)                1.0971         estimate D2E/DX2                !
 ! R50   R(41,46)                1.4235         estimate D2E/DX2                !
 ! R51   R(41,47)                1.3586         estimate D2E/DX2                !
 ! R52   R(42,48)                1.7262         estimate D2E/DX2                !
 ! R53   R(46,48)                1.3691         estimate D2E/DX2                !
 ! R54   R(46,49)                1.0821         estimate D2E/DX2                !
 ! R55   R(47,50)                1.4237         estimate D2E/DX2                !
 ! R56   R(48,51)                1.0812         estimate D2E/DX2                !
 ! R57   R(50,52)                1.0977         estimate D2E/DX2                !
 ! R58   R(50,53)                1.0894         estimate D2E/DX2                !
 ! R59   R(50,54)                1.0965         estimate D2E/DX2                !
 ! A1    A(2,1,19)             116.767          estimate D2E/DX2                !
 ! A2    A(2,1,20)             122.9113         estimate D2E/DX2                !
 ! A3    A(19,1,20)            120.3217         estimate D2E/DX2                !
 ! A4    A(1,2,3)              120.5473         estimate D2E/DX2                !
 ! A5    A(1,2,6)              119.3369         estimate D2E/DX2                !
 ! A6    A(3,2,6)              120.1056         estimate D2E/DX2                !
 ! A7    A(2,3,4)              120.3743         estimate D2E/DX2                !
 ! A8    A(2,3,7)              118.662          estimate D2E/DX2                !
 ! A9    A(4,3,7)              120.9617         estimate D2E/DX2                !
 ! A10   A(3,4,5)              120.4909         estimate D2E/DX2                !
 ! A11   A(3,4,14)             120.2702         estimate D2E/DX2                !
 ! A12   A(5,4,14)             119.2382         estimate D2E/DX2                !
 ! A13   A(4,5,19)             116.7341         estimate D2E/DX2                !
 ! A14   A(4,5,21)             122.024          estimate D2E/DX2                !
 ! A15   A(19,5,21)            121.2418         estimate D2E/DX2                !
 ! A16   A(2,6,9)              123.2421         estimate D2E/DX2                !
 ! A17   A(2,6,17)             117.1119         estimate D2E/DX2                !
 ! A18   A(9,6,17)             119.589          estimate D2E/DX2                !
 ! A19   A(3,7,8)              120.9519         estimate D2E/DX2                !
 ! A20   A(3,7,12)             117.1037         estimate D2E/DX2                !
 ! A21   A(8,7,12)             121.944          estimate D2E/DX2                !
 ! A22   A(7,8,9)              119.5639         estimate D2E/DX2                !
 ! A23   A(7,8,10)             117.3064         estimate D2E/DX2                !
 ! A24   A(9,8,10)             122.9922         estimate D2E/DX2                !
 ! A25   A(6,9,8)              117.3944         estimate D2E/DX2                !
 ! A26   A(6,9,32)             115.0236         estimate D2E/DX2                !
 ! A27   A(8,9,32)             127.5648         estimate D2E/DX2                !
 ! A28   A(8,10,18)            118.042          estimate D2E/DX2                !
 ! A29   A(8,10,23)            124.5436         estimate D2E/DX2                !
 ! A30   A(18,10,23)           117.4097         estimate D2E/DX2                !
 ! A31   A(12,11,18)           115.5202         estimate D2E/DX2                !
 ! A32   A(12,11,22)           122.7205         estimate D2E/DX2                !
 ! A33   A(18,11,22)           121.7534         estimate D2E/DX2                !
 ! A34   A(7,12,11)            120.8614         estimate D2E/DX2                !
 ! A35   A(7,12,13)            121.162          estimate D2E/DX2                !
 ! A36   A(11,12,13)           117.9699         estimate D2E/DX2                !
 ! A37   A(12,13,14)           120.9948         estimate D2E/DX2                !
 ! A38   A(12,13,16)           117.8401         estimate D2E/DX2                !
 ! A39   A(14,13,16)           121.1642         estimate D2E/DX2                !
 ! A40   A(4,14,13)            119.5003         estimate D2E/DX2                !
 ! A41   A(4,14,15)            118.9169         estimate D2E/DX2                !
 ! A42   A(13,14,15)           121.5811         estimate D2E/DX2                !
 ! A43   A(10,18,11)           126.0753         estimate D2E/DX2                !
 ! A44   A(10,18,24)           115.7508         estimate D2E/DX2                !
 ! A45   A(11,18,24)           118.1737         estimate D2E/DX2                !
 ! A46   A(1,19,5)             125.0856         estimate D2E/DX2                !
 ! A47   A(1,19,28)            116.2868         estimate D2E/DX2                !
 ! A48   A(5,19,28)            118.6276         estimate D2E/DX2                !
 ! A49   A(18,24,25)           109.8574         estimate D2E/DX2                !
 ! A50   A(18,24,26)           109.8979         estimate D2E/DX2                !
 ! A51   A(18,24,27)           107.5355         estimate D2E/DX2                !
 ! A52   A(25,24,26)           108.1108         estimate D2E/DX2                !
 ! A53   A(25,24,27)           110.8301         estimate D2E/DX2                !
 ! A54   A(26,24,27)           110.6124         estimate D2E/DX2                !
 ! A55   A(19,28,29)           109.6906         estimate D2E/DX2                !
 ! A56   A(19,28,30)           109.8136         estimate D2E/DX2                !
 ! A57   A(19,28,31)           107.7461         estimate D2E/DX2                !
 ! A58   A(29,28,30)           108.2991         estimate D2E/DX2                !
 ! A59   A(29,28,31)           110.6959         estimate D2E/DX2                !
 ! A60   A(30,28,31)           110.5924         estimate D2E/DX2                !
 ! A61   A(9,32,33)            130.8708         estimate D2E/DX2                !
 ! A62   A(9,32,34)            118.8137         estimate D2E/DX2                !
 ! A63   A(33,32,34)           110.0629         estimate D2E/DX2                !
 ! A64   A(32,33,35)           113.5519         estimate D2E/DX2                !
 ! A65   A(32,33,36)           122.8302         estimate D2E/DX2                !
 ! A66   A(35,33,36)           123.6164         estimate D2E/DX2                !
 ! A67   A(32,34,37)            92.6001         estimate D2E/DX2                !
 ! A68   A(33,35,37)           114.4165         estimate D2E/DX2                !
 ! A69   A(33,35,38)           126.538          estimate D2E/DX2                !
 ! A70   A(37,35,38)           119.0454         estimate D2E/DX2                !
 ! A71   A(34,37,35)           109.3629         estimate D2E/DX2                !
 ! A72   A(34,37,39)           122.9231         estimate D2E/DX2                !
 ! A73   A(35,37,39)           127.6989         estimate D2E/DX2                !
 ! A74   A(35,38,40)           117.4759         estimate D2E/DX2                !
 ! A75   A(37,39,41)           127.6326         estimate D2E/DX2                !
 ! A76   A(37,39,42)           123.0577         estimate D2E/DX2                !
 ! A77   A(41,39,42)           109.3097         estimate D2E/DX2                !
 ! A78   A(38,40,43)           105.9624         estimate D2E/DX2                !
 ! A79   A(38,40,44)           111.1563         estimate D2E/DX2                !
 ! A80   A(38,40,45)           111.1539         estimate D2E/DX2                !
 ! A81   A(43,40,44)           109.3775         estimate D2E/DX2                !
 ! A82   A(43,40,45)           109.7698         estimate D2E/DX2                !
 ! A83   A(44,40,45)           109.3583         estimate D2E/DX2                !
 ! A84   A(39,41,46)           114.1838         estimate D2E/DX2                !
 ! A85   A(39,41,47)           119.2244         estimate D2E/DX2                !
 ! A86   A(46,41,47)           126.5916         estimate D2E/DX2                !
 ! A87   A(39,42,48)            91.8241         estimate D2E/DX2                !
 ! A88   A(41,46,48)           111.9119         estimate D2E/DX2                !
 ! A89   A(41,46,49)           124.5031         estimate D2E/DX2                !
 ! A90   A(48,46,49)           123.5849         estimate D2E/DX2                !
 ! A91   A(41,47,50)           117.9497         estimate D2E/DX2                !
 ! A92   A(42,48,46)           112.7706         estimate D2E/DX2                !
 ! A93   A(42,48,51)           119.7968         estimate D2E/DX2                !
 ! A94   A(46,48,51)           127.4326         estimate D2E/DX2                !
 ! A95   A(47,50,52)           111.2525         estimate D2E/DX2                !
 ! A96   A(47,50,53)           106.0239         estimate D2E/DX2                !
 ! A97   A(47,50,54)           111.2678         estimate D2E/DX2                !
 ! A98   A(52,50,53)           109.3373         estimate D2E/DX2                !
 ! A99   A(52,50,54)           109.3883         estimate D2E/DX2                !
 ! A100  A(53,50,54)           109.499          estimate D2E/DX2                !
 ! D1    D(19,1,2,3)             0.1578         estimate D2E/DX2                !
 ! D2    D(19,1,2,6)          -178.6792         estimate D2E/DX2                !
 ! D3    D(20,1,2,3)          -179.8231         estimate D2E/DX2                !
 ! D4    D(20,1,2,6)             1.3399         Frozen                          !
 ! D5    D(2,1,19,5)            -0.124          estimate D2E/DX2                !
 ! D6    D(2,1,19,28)          179.8267         estimate D2E/DX2                !
 ! D7    D(20,1,19,5)          179.8575         estimate D2E/DX2                !
 ! D8    D(20,1,19,28)          -0.1919         estimate D2E/DX2                !
 ! D9    D(1,2,3,4)              0.0571         estimate D2E/DX2                !
 ! D10   D(1,2,3,7)            179.5453         estimate D2E/DX2                !
 ! D11   D(6,2,3,4)            178.8851         estimate D2E/DX2                !
 ! D12   D(6,2,3,7)             -1.6266         estimate D2E/DX2                !
 ! D13   D(1,2,6,9)            178.625          estimate D2E/DX2                !
 ! D14   D(1,2,6,17)             1.3881         estimate D2E/DX2                !
 ! D15   D(3,2,6,9)             -0.2173         estimate D2E/DX2                !
 ! D16   D(3,2,6,17)          -177.4541         estimate D2E/DX2                !
 ! D17   D(2,3,4,5)             -0.3074         estimate D2E/DX2                !
 ! D18   D(2,3,4,14)           179.3968         estimate D2E/DX2                !
 ! D19   D(7,3,4,5)           -179.7837         estimate D2E/DX2                !
 ! D20   D(7,3,4,14)            -0.0795         estimate D2E/DX2                !
 ! D21   D(2,3,7,8)              1.0523         estimate D2E/DX2                !
 ! D22   D(2,3,7,12)          -178.712          estimate D2E/DX2                !
 ! D23   D(4,3,7,8)           -179.4626         estimate D2E/DX2                !
 ! D24   D(4,3,7,12)             0.7731         estimate D2E/DX2                !
 ! D25   D(3,4,5,19)             0.3343         estimate D2E/DX2                !
 ! D26   D(3,4,5,21)          -179.7799         estimate D2E/DX2                !
 ! D27   D(14,4,5,19)         -179.3729         estimate D2E/DX2                !
 ! D28   D(14,4,5,21)            0.5129         estimate D2E/DX2                !
 ! D29   D(3,4,14,13)           -0.4559         estimate D2E/DX2                !
 ! D30   D(3,4,14,15)         -179.9937         estimate D2E/DX2                !
 ! D31   D(5,4,14,13)          179.252          estimate D2E/DX2                !
 ! D32   D(5,4,14,15)           -0.2858         estimate D2E/DX2                !
 ! D33   D(4,5,19,1)            -0.1141         estimate D2E/DX2                !
 ! D34   D(4,5,19,28)          179.9364         estimate D2E/DX2                !
 ! D35   D(21,5,19,1)          179.9992         estimate D2E/DX2                !
 ! D36   D(21,5,19,28)           0.0496         estimate D2E/DX2                !
 ! D37   D(2,6,9,8)              2.5984         estimate D2E/DX2                !
 ! D38   D(2,6,9,32)          -176.0103         estimate D2E/DX2                !
 ! D39   D(17,6,9,8)           179.77           estimate D2E/DX2                !
 ! D40   D(17,6,9,32)            1.1613         estimate D2E/DX2                !
 ! D41   D(3,7,8,9)              1.3551         estimate D2E/DX2                !
 ! D42   D(3,7,8,10)          -174.5099         estimate D2E/DX2                !
 ! D43   D(12,7,8,9)          -178.8921         estimate D2E/DX2                !
 ! D44   D(12,7,8,10)            5.2428         estimate D2E/DX2                !
 ! D45   D(3,7,12,11)          178.0768         estimate D2E/DX2                !
 ! D46   D(3,7,12,13)           -0.9621         estimate D2E/DX2                !
 ! D47   D(8,7,12,11)           -1.685          estimate D2E/DX2                !
 ! D48   D(8,7,12,13)          179.2761         estimate D2E/DX2                !
 ! D49   D(7,8,9,6)             -3.0809         estimate D2E/DX2                !
 ! D50   D(7,8,9,32)           175.3285         estimate D2E/DX2                !
 ! D51   D(10,8,9,6)           172.5381         estimate D2E/DX2                !
 ! D52   D(10,8,9,32)           -9.0525         estimate D2E/DX2                !
 ! D53   D(7,8,10,18)           -4.7549         estimate D2E/DX2                !
 ! D54   D(7,8,10,23)          174.4235         estimate D2E/DX2                !
 ! D55   D(9,8,10,18)          179.5335         estimate D2E/DX2                !
 ! D56   D(9,8,10,23)           -1.2882         Frozen                          !
 ! D57   D(6,9,32,33)          -46.5292         estimate D2E/DX2                !
 ! D58   D(6,9,32,34)          139.8787         estimate D2E/DX2                !
 ! D59   D(8,9,32,33)          135.0292         Frozen                          !
 ! D60   D(8,9,32,34)          -38.5628         estimate D2E/DX2                !
 ! D61   D(8,10,18,11)           0.7189         estimate D2E/DX2                !
 ! D62   D(8,10,18,24)        -179.4089         estimate D2E/DX2                !
 ! D63   D(23,10,18,11)       -178.5188         estimate D2E/DX2                !
 ! D64   D(23,10,18,24)          1.3535         estimate D2E/DX2                !
 ! D65   D(18,11,12,7)          -2.3856         estimate D2E/DX2                !
 ! D66   D(18,11,12,13)        176.6833         estimate D2E/DX2                !
 ! D67   D(22,11,12,7)         178.4862         estimate D2E/DX2                !
 ! D68   D(22,11,12,13)         -2.445          estimate D2E/DX2                !
 ! D69   D(12,11,18,10)          2.8444         estimate D2E/DX2                !
 ! D70   D(12,11,18,24)       -177.0251         estimate D2E/DX2                !
 ! D71   D(22,11,18,10)       -178.0181         estimate D2E/DX2                !
 ! D72   D(22,11,18,24)          2.1124         estimate D2E/DX2                !
 ! D73   D(7,12,13,14)           0.461          estimate D2E/DX2                !
 ! D74   D(7,12,13,16)        -179.8781         estimate D2E/DX2                !
 ! D75   D(11,12,13,14)       -178.6049         estimate D2E/DX2                !
 ! D76   D(11,12,13,16)          1.056          estimate D2E/DX2                !
 ! D77   D(12,13,14,4)           0.2708         estimate D2E/DX2                !
 ! D78   D(12,13,14,15)        179.7958         estimate D2E/DX2                !
 ! D79   D(16,13,14,4)        -179.3788         estimate D2E/DX2                !
 ! D80   D(16,13,14,15)          0.1463         estimate D2E/DX2                !
 ! D81   D(10,18,24,25)        -59.609          Frozen                          !
 ! D82   D(10,18,24,26)         59.2209         estimate D2E/DX2                !
 ! D83   D(10,18,24,27)        179.6858         estimate D2E/DX2                !
 ! D84   D(11,18,24,25)        120.2739         estimate D2E/DX2                !
 ! D85   D(11,18,24,26)       -120.8962         estimate D2E/DX2                !
 ! D86   D(11,18,24,27)         -0.4313         estimate D2E/DX2                !
 ! D87   D(1,19,28,29)         -58.1407         estimate D2E/DX2                !
 ! D88   D(1,19,28,30)          60.7668         Frozen                          !
 ! D89   D(1,19,28,31)        -178.7139         estimate D2E/DX2                !
 ! D90   D(5,19,28,29)         121.8132         estimate D2E/DX2                !
 ! D91   D(5,19,28,30)        -119.2792         estimate D2E/DX2                !
 ! D92   D(5,19,28,31)           1.2401         estimate D2E/DX2                !
 ! D93   D(9,32,33,35)        -174.2014         estimate D2E/DX2                !
 ! D94   D(9,32,33,36)           6.2171         estimate D2E/DX2                !
 ! D95   D(34,32,33,35)         -0.1771         estimate D2E/DX2                !
 ! D96   D(34,32,33,36)       -179.7586         estimate D2E/DX2                !
 ! D97   D(9,32,34,37)         175.3567         estimate D2E/DX2                !
 ! D98   D(33,32,34,37)          0.5116         estimate D2E/DX2                !
 ! D99   D(32,33,35,37)         -0.3775         estimate D2E/DX2                !
 ! D100  D(32,33,35,38)        179.748          estimate D2E/DX2                !
 ! D101  D(36,33,35,37)        179.2002         estimate D2E/DX2                !
 ! D102  D(36,33,35,38)         -0.6743         estimate D2E/DX2                !
 ! D103  D(32,34,37,35)         -0.7066         estimate D2E/DX2                !
 ! D104  D(32,34,37,39)        177.9774         estimate D2E/DX2                !
 ! D105  D(33,35,37,34)          0.7462         estimate D2E/DX2                !
 ! D106  D(33,35,37,39)       -177.8577         estimate D2E/DX2                !
 ! D107  D(38,35,37,34)       -179.3691         estimate D2E/DX2                !
 ! D108  D(38,35,37,39)          2.027          estimate D2E/DX2                !
 ! D109  D(33,35,38,40)          6.442          Frozen                          !
 ! D110  D(37,35,38,40)       -173.4273         estimate D2E/DX2                !
 ! D111  D(34,37,39,41)          2.7847         estimate D2E/DX2                !
 ! D112  D(34,37,39,42)       -177.1714         estimate D2E/DX2                !
 ! D113  D(35,37,39,41)       -178.7845         estimate D2E/DX2                !
 ! D114  D(35,37,39,42)          1.2594         estimate D2E/DX2                !
 ! D115  D(35,38,40,43)        175.5216         estimate D2E/DX2                !
 ! D116  D(35,38,40,44)        -65.7451         estimate D2E/DX2                !
 ! D117  D(35,38,40,45)         56.3185         estimate D2E/DX2                !
 ! D118  D(37,39,41,46)       -179.9544         estimate D2E/DX2                !
 ! D119  D(37,39,41,47)         -0.0892         estimate D2E/DX2                !
 ! D120  D(42,39,41,46)          0.0067         estimate D2E/DX2                !
 ! D121  D(42,39,41,47)        179.8719         estimate D2E/DX2                !
 ! D122  D(37,39,42,48)        179.9593         estimate D2E/DX2                !
 ! D123  D(41,39,42,48)         -0.0039         estimate D2E/DX2                !
 ! D124  D(39,41,46,48)         -0.0068         estimate D2E/DX2                !
 ! D125  D(39,41,46,49)       -179.9356         estimate D2E/DX2                !
 ! D126  D(47,41,46,48)       -179.8603         estimate D2E/DX2                !
 ! D127  D(47,41,46,49)          0.2109         estimate D2E/DX2                !
 ! D128  D(39,41,47,50)        178.3381         estimate D2E/DX2                !
 ! D129  D(46,41,47,50)         -1.8151         Frozen                          !
 ! D130  D(39,42,48,46)          0.0002         estimate D2E/DX2                !
 ! D131  D(39,42,48,51)        179.9101         estimate D2E/DX2                !
 ! D132  D(41,46,48,42)          0.0036         estimate D2E/DX2                !
 ! D133  D(41,46,48,51)       -179.8979         estimate D2E/DX2                !
 ! D134  D(49,46,48,42)        179.9332         estimate D2E/DX2                !
 ! D135  D(49,46,48,51)          0.0316         estimate D2E/DX2                !
 ! D136  D(41,47,50,52)         62.0201         estimate D2E/DX2                !
 ! D137  D(41,47,50,53)       -179.2061         estimate D2E/DX2                !
 ! D138  D(41,47,50,54)        -60.2295         estimate D2E/DX2                !
 --------------------------------------------------------------------------------
 Trust Radius=3.00D-01 FncErr=1.00D-07 GrdErr=1.00D-06 EigMax=2.50D+02 EigMin=1.00D-04
 Number of steps in this run=    307 maximum allowed number of steps=    324.
 GradGradGradGradGradGradGradGradGradGradGradGradGradGradGradGradGradGrad

 Stoichiometry    C26H18N2O6S2
 Framework group  C1[X(C26H18N2O6S2)]
 Deg. of freedom   156
 Full point group                 C1      NOp   1
 Largest Abelian subgroup         C1      NOp   1
 Largest concise Abelian subgroup C1      NOp   1
                         Standard orientation:                         
 ---------------------------------------------------------------------
 Center     Atomic      Atomic             Coordinates (Angstroms)
 Number     Number       Type             X           Y           Z
 ---------------------------------------------------------------------
      1          6           0        3.753864   -2.591024    0.457498
      2          6           0        2.904517   -1.402973    0.179547
      3          6           0        3.478022   -0.112492    0.097661
      4          6           0        4.867611    0.064210    0.278030
      5          6           0        5.745861   -1.101698    0.563067
      6          6           0        1.550856   -1.565470    0.026131
      7          6           0        2.628312    0.996357   -0.180248
      8          6           0        1.218379    0.818617   -0.351725
      9          6           0        0.653121   -0.478615   -0.214644
     10          6           0        0.425163    2.008952   -0.762470
     11          6           0        2.445476    3.473779   -0.610608
     12          6           0        3.242633    2.272359   -0.282904
     13          6           0        4.610322    2.428406   -0.098818
     14          6           0        5.429630    1.329207    0.184886
     15          1           0        6.498028    1.439563    0.327006
     16          1           0        5.022522    3.427470   -0.187573
     17          1           0        1.157851   -2.568927    0.140070
     18          7           0        1.089697    3.247646   -0.855703
     19          7           0        5.123608   -2.359840    0.632675
     20          8           0        3.304376   -3.726019    0.534365
     21          8           0        6.950443   -0.980517    0.727761
     22          8           0        2.935136    4.594238   -0.681160
     23          8           0       -0.767087    1.986554   -1.040597
     24          6           0        0.257442    4.389306   -1.251458
     25          1           0       -0.184231    4.203810   -2.231702
     26          1           0       -0.554952    4.524289   -0.532783
     27          1           0        0.896624    5.267592   -1.275627
     28          6           0        5.951276   -3.539004    0.910314
     29          1           0        5.589521   -4.038559    1.811508
     30          1           0        5.884255   -4.242345    0.078210
     31          1           0        6.975420   -3.200916    1.043453
     32          6           0       -0.762342   -0.843607   -0.258799
     33          6           0       -1.409702   -1.876150   -0.909154
     34         16           0       -1.941212    0.231279    0.493202
     35          6           0       -2.813513   -1.813739   -0.806677
     36          1           0       -0.883884   -2.655498   -1.436519
     37          6           0       -3.291227   -0.729882   -0.063294
     38          8           0       -3.704074   -2.686928   -1.347395
     39          6           0       -4.655351   -0.417240    0.255364
     40          6           0       -3.181217   -3.855665   -1.975246
     41          6           0       -5.131703    0.676032    0.976758
     42         16           0       -6.013342   -1.423029   -0.242603
     43          1           0       -4.045584   -4.452254   -2.265045
     44          1           0       -2.600538   -3.598584   -2.868909
     45          1           0       -2.550289   -4.427958   -1.283772
     46          6           0       -6.547137    0.704733    1.125296
     47          8           0       -4.247780    1.586342    1.462422
     48          6           0       -7.146472   -0.365583    0.517317
     49          1           0       -7.092599    1.476331    1.652582
     50          6           0       -4.766273    2.711273    2.164199
     51          1           0       -8.203281   -0.589914    0.474102
     52          1           0       -5.308553    2.401673    3.067044
     53          1           0       -3.903121    3.311502    2.449842
     54          1           0       -5.430869    3.306173    1.526431
 ---------------------------------------------------------------------
 Rotational constants (GHZ):           0.1703861           0.0569704           0.0456241
 Standard basis: 6-311+G(d,p) (5D, 7F)
 There are   952 symmetry adapted cartesian basis functions of A   symmetry.
 There are   916 symmetry adapted basis functions of A   symmetry.
   916 basis functions,  1468 primitive gaussians,   952 cartesian basis functions
   134 alpha electrons      134 beta electrons
       nuclear repulsion energy      4109.7267444050 Hartrees.
 NAtoms=   54 NActive=   54 NUniq=   54 SFac= 1.00D+00 NAtFMM=   60 NAOKFM=F Big=F
 Integral buffers will be    131072 words long.
 Raffenetti 2 integral format.
 Two-electron integral symmetry is turned on.
 Nuclear repulsion after empirical dispersion term =     4109.6859540682 Hartrees.
 One-electron integrals computed using PRISM.
 NBasis=   916 RedAO= T EigKep=  1.55D-06  NBF=   916
 NBsUse=   901 1.00D-06 EigRej=  9.75D-07 NBFU=   901
 ExpMin= 4.05D-02 ExpMax= 9.34D+04 ExpMxC= 3.17D+03 IAcc=3 IRadAn=         5 AccDes= 0.00D+00
 Harris functional with IExCor= 4639 and IRadAn=       5 diagonalized for initial guess.
 HarFok:  IExCor= 4639 AccDes= 0.00D+00 IRadAn=         5 IDoV= 1 UseB2=F ITyADJ=14
 ICtDFT=  3500011 ScaDFX=  1.000000  1.000000  1.000000  1.000000
 FoFCou: FMM=F IPFlag=           0 FMFlag=      100000 FMFlg1=           0
         NFxFlg=           0 DoJE=T BraDBF=F KetDBF=T FulRan=T
         wScrn=  0.000000 ICntrl=       500 IOpCl=  0 I1Cent=   200000004 NGrid=           0
         NMat0=    1 NMatS0=      1 NMatT0=    0 NMatD0=    1 NMtDS0=    0 NMtDT0=    0
 Petite list used in FoFCou.
 Requested convergence on RMS density matrix=1.00D-08 within 128 cycles.
 Requested convergence on MAX density matrix=1.00D-06.
 Requested convergence on             energy=1.00D-06.
 No special actions if energy rises.
 SCF Done:  E(RwB97XD) =  -2358.75902348     A.U. after   20 cycles
            NFock= 20  Conv=0.34D-08     -V/T= 2.0032

 **********************************************************************

            Population analysis using the SCF Density.

 **********************************************************************

 Orbital symmetries:
       Occupied  (A) (A) (A) (A) (A) (A) (A) (A) (A) (A) (A) (A)
                 (A) (A) (A) (A) (A) (A) (A) (A) (A) (A) (A) (A)
                 (A) (A) (A) (A) (A) (A) (A) (A) (A) (A) (A) (A)
                 (A) (A) (A) (A) (A) (A) (A) (A) (A) (A) (A) (A)
                 (A) (A) (A) (A) (A) (A) (A) (A) (A) (A) (A) (A)
                 (A) (A) (A) (A) (A) (A) (A) (A) (A) (A) (A) (A)
                 (A) (A) (A) (A) (A) (A) (A) (A) (A) (A) (A) (A)
                 (A) (A) (A) (A) (A) (A) (A) (A) (A) (A) (A) (A)
                 (A) (A) (A) (A) (A) (A) (A) (A) (A) (A) (A) (A)
                 (A) (A) (A) (A) (A) (A) (A) (A) (A) (A) (A) (A)
                 (A) (A) (A) (A) (A) (A) (A) (A) (A) (A) (A) (A)
                 (A) (A)
       Virtual   (A) (A) (A) (A) (A) (A) (A) (A) (A) (A) (A) (A)
                 (A) (A) (A) (A) (A) (A) (A) (A) (A) (A) (A) (A)
                 (A) (A) (A) (A) (A) (A) (A) (A) (A) (A) (A) (A)
                 (A) (A) (A) (A) (A) (A) (A) (A) (A) (A) (A) (A)
                 (A) (A) (A) (A) (A) (A) (A) (A) (A) (A) (A) (A)
                 (A) (A) (A) (A) (A) (A) (A) (A) (A) (A) (A) (A)
                 (A) (A) (A) (A) (A) (A) (A) (A) (A) (A) (A) (A)
                 (A) (A) (A) (A) (A) (A) (A) (A) (A) (A) (A) (A)
                 (A) (A) (A) (A) (A) (A) (A) (A) (A) (A) (A) (A)
                 (A) (A) (A) (A) (A) (A) (A) (A) (A) (A) (A) (A)
                 (A) (A) (A) (A) (A) (A) (A) (A) (A) (A) (A) (A)
                 (A) (A) (A) (A) (A) (A) (A) (A) (A) (A) (A) (A)
                 (A) (A) (A) (A) (A) (A) (A) (A) (A) (A) (A) (A)
                 (A) (A) (A) (A) (A) (A) (A) (A) (A) (A) (A) (A)
                 (A) (A) (A) (A) (A) (A) (A) (A) (A) (A) (A) (A)
                 (A) (A) (A) (A) (A) (A) (A) (A) (A) (A) (A) (A)
                 (A) (A) (A) (A) (A) (A) (A) (A) (A) (A) (A) (A)
                 (A) (A) (A) (A) (A) (A) (A) (A) (A) (A) (A) (A)
                 (A) (A) (A) (A) (A) (A) (A) (A) (A) (A) (A) (A)
                 (A) (A) (A) (A) (A) (A) (A) (A) (A) (A) (A) (A)
                 (A) (A) (A) (A) (A) (A) (A) (A) (A) (A) (A) (A)
                 (A) (A) (A) (A) (A) (A) (A) (A) (A) (A) (A) (A)
                 (A) (A) (A) (A) (A) (A) (A) (A) (A) (A) (A) (A)
                 (A) (A) (A) (A) (A) (A) (A) (A) (A) (A) (A) (A)
                 (A) (A) (A) (A) (A) (A) (A) (A) (A) (A) (A) (A)
                 (A) (A) (A) (A) (A) (A) (A) (A) (A) (A) (A) (A)
                 (A) (A) (A) (A) (A) (A) (A) (A) (A) (A) (A) (A)
                 (A) (A) (A) (A) (A) (A) (A) (A) (A) (A) (A) (A)
                 (A) (A) (A) (A) (A) (A) (A) (A) (A) (A) (A) (A)
                 (A) (A) (A) (A) (A) (A) (A) (A) (A) (A) (A) (A)
                 (A) (A) (A) (A) (A) (A) (A) (A) (A) (A) (A) (A)
                 (A) (A) (A) (A) (A) (A) (A) (A) (A) (A) (A) (A)
                 (A) (A) (A) (A) (A) (A) (A) (A) (A) (A) (A) (A)
                 (A) (A) (A) (A) (A) (A) (A) (A) (A) (A) (A) (A)
                 (A) (A) (A) (A) (A) (A) (A) (A) (A) (A) (A) (A)
                 (A) (A) (A) (A) (A) (A) (A) (A) (A) (A) (A) (A)
                 (A) (A) (A) (A) (A) (A) (A) (A) (A) (A) (A) (A)
                 (A) (A) (A) (A) (A) (A) (A) (A) (A) (A) (A) (A)
                 (A) (A) (A) (A) (A) (A) (A) (A) (A) (A) (A) (A)
                 (A) (A) (A) (A) (A) (A) (A) (A) (A) (A) (A) (A)
                 (A) (A) (A) (A) (A) (A) (A) (A) (A) (A) (A) (A)
                 (A) (A) (A) (A) (A) (A) (A) (A) (A) (A) (A) (A)
                 (A) (A) (A) (A) (A) (A) (A) (A) (A) (A) (A) (A)
                 (A) (A) (A) (A) (A) (A) (A) (A) (A) (A) (A) (A)
                 (A) (A) (A) (A) (A) (A) (A) (A) (A) (A) (A) (A)
                 (A) (A) (A) (A) (A) (A) (A) (A) (A) (A) (A) (A)
                 (A) (A) (A) (A) (A) (A) (A) (A) (A) (A) (A) (A)
                 (A) (A) (A) (A) (A) (A) (A) (A) (A) (A) (A) (A)
                 (A) (A) (A) (A) (A) (A) (A) (A) (A) (A) (A) (A)
                 (A) (A) (A) (A) (A) (A) (A) (A) (A) (A) (A) (A)
                 (A) (A) (A) (A) (A) (A) (A) (A) (A) (A) (A) (A)
                 (A) (A) (A) (A) (A) (A) (A) (A) (A) (A) (A) (A)
                 (A) (A) (A) (A) (A) (A) (A) (A) (A) (A) (A) (A)
                 (A) (A) (A) (A) (A) (A) (A) (A) (A) (A) (A) (A)
                 (A) (A) (A) (A) (A) (A) (A) (A) (A) (A) (A) (A)
                 (A) (A) (A) (A) (A) (A) (A) (A) (A) (A) (A) (A)
                 (A) (A) (A) (A) (A) (A) (A) (A) (A) (A) (A) (A)
                 (A) (A) (A) (A) (A) (A) (A) (A) (A) (A) (A) (A)
                 (A) (A) (A) (A) (A) (A) (A) (A) (A) (A) (A) (A)
                 (A) (A) (A) (A) (A) (A) (A) (A) (A) (A) (A) (A)
                 (A) (A) (A) (A) (A) (A) (A) (A) (A) (A) (A) (A)
                 (A) (A) (A) (A) (A) (A) (A) (A) (A) (A) (A) (A)
                 (A) (A) (A) (A) (A) (A) (A) (A) (A) (A) (A) (A)
                 (A) (A) (A) (A) (A) (A) (A) (A) (A) (A) (A)
 The electronic state is 1-A.
 Alpha  occ. eigenvalues --  -89.04806 -89.04295 -19.29152 -19.28864 -19.25152
 Alpha  occ. eigenvalues --  -19.25132 -19.24411 -19.24138 -14.50814 -14.50159
 Alpha  occ. eigenvalues --  -10.43087 -10.42940 -10.42518 -10.42318 -10.35926
 Alpha  occ. eigenvalues --  -10.35822 -10.35376 -10.34810 -10.34767 -10.34636
 Alpha  occ. eigenvalues --  -10.34631 -10.34319 -10.34066 -10.34055 -10.33802
 Alpha  occ. eigenvalues --  -10.33290 -10.33251 -10.33149 -10.32863 -10.32808
 Alpha  occ. eigenvalues --  -10.32666 -10.32341 -10.32173 -10.31795 -10.30567
 Alpha  occ. eigenvalues --  -10.29954  -8.08761  -8.08255  -6.03609  -6.03218
 Alpha  occ. eigenvalues --   -6.03109  -6.02848  -6.02699  -6.02328  -1.18901
 Alpha  occ. eigenvalues --   -1.18343  -1.18323  -1.18056  -1.16941  -1.16291
 Alpha  occ. eigenvalues --   -1.06446  -1.05717  -1.02726  -0.99895  -0.98446
 Alpha  occ. eigenvalues --   -0.96686  -0.94480  -0.90388  -0.88538  -0.87264
 Alpha  occ. eigenvalues --   -0.85734  -0.85035  -0.84510  -0.82609  -0.82165
 Alpha  occ. eigenvalues --   -0.81320  -0.79705  -0.78252  -0.76560  -0.75419
 Alpha  occ. eigenvalues --   -0.74858  -0.74268  -0.69998  -0.68914  -0.67823
 Alpha  occ. eigenvalues --   -0.66606  -0.65694  -0.64854  -0.63958  -0.63454
 Alpha  occ. eigenvalues --   -0.62694  -0.60566  -0.59383  -0.58753  -0.58659
 Alpha  occ. eigenvalues --   -0.58077  -0.57528  -0.57166  -0.57118  -0.56771
 Alpha  occ. eigenvalues --   -0.56424  -0.55759  -0.55296  -0.55016  -0.54191
 Alpha  occ. eigenvalues --   -0.53820  -0.53529  -0.53341  -0.52987  -0.52394
 Alpha  occ. eigenvalues --   -0.51339  -0.50983  -0.50630  -0.50366  -0.49939
 Alpha  occ. eigenvalues --   -0.49891  -0.49517  -0.49439  -0.48759  -0.48256
 Alpha  occ. eigenvalues --   -0.47814  -0.47323  -0.46229  -0.45657  -0.45466
 Alpha  occ. eigenvalues --   -0.44142  -0.44089  -0.42257  -0.41715  -0.41326
 Alpha  occ. eigenvalues --   -0.40878  -0.39899  -0.39451  -0.38241  -0.37710
 Alpha  occ. eigenvalues --   -0.37258  -0.37112  -0.36449  -0.36278  -0.34700
 Alpha  occ. eigenvalues --   -0.33049  -0.31734  -0.30433  -0.25331
 Alpha virt. eigenvalues --   -0.07658  -0.01014   0.00245   0.02092   0.03223
 Alpha virt. eigenvalues --    0.05212   0.05734   0.06009   0.06673   0.06890
 Alpha virt. eigenvalues --    0.07105   0.07506   0.07679   0.07751   0.07899
 Alpha virt. eigenvalues --    0.08401   0.08612   0.08793   0.08915   0.09166
 Alpha virt. eigenvalues --    0.09214   0.09501   0.10030   0.10197   0.10436
 Alpha virt. eigenvalues --    0.10695   0.10940   0.11265   0.11496   0.11697
 Alpha virt. eigenvalues --    0.11936   0.12078   0.12264   0.12831   0.13039
 Alpha virt. eigenvalues --    0.13329   0.13454   0.13804   0.14052   0.14491
 Alpha virt. eigenvalues --    0.14518   0.14761   0.15234   0.15335   0.15454
 Alpha virt. eigenvalues --    0.15749   0.15957   0.16277   0.16955   0.17216
 Alpha virt. eigenvalues --    0.17231   0.17567   0.17784   0.17813   0.18069
 Alpha virt. eigenvalues --    0.18222   0.18823   0.19054   0.19329   0.19720
 Alpha virt. eigenvalues --    0.19943   0.20104   0.20325   0.20486   0.20664
 Alpha virt. eigenvalues --    0.20958   0.21043   0.21135   0.21408   0.21512
 Alpha virt. eigenvalues --    0.21902   0.22048   0.22206   0.22665   0.22690
 Alpha virt. eigenvalues --    0.23096   0.23443   0.23610   0.24028   0.24231
 Alpha virt. eigenvalues --    0.24481   0.24702   0.24732   0.24976   0.25092
 Alpha virt. eigenvalues --    0.25155   0.25557   0.25663   0.25961   0.26210
 Alpha virt. eigenvalues --    0.26253   0.26553   0.26671   0.26722   0.26906
 Alpha virt. eigenvalues --    0.27173   0.27310   0.27441   0.27654   0.27713
 Alpha virt. eigenvalues --    0.28163   0.28293   0.28494   0.28904   0.28989
 Alpha virt. eigenvalues --    0.29347   0.29395   0.29518   0.29854   0.30004
 Alpha virt. eigenvalues --    0.30266   0.30402   0.30547   0.30949   0.31114
 Alpha virt. eigenvalues --    0.31176   0.31247   0.31509   0.31922   0.31973
 Alpha virt. eigenvalues --    0.32257   0.32316   0.32499   0.32642   0.32906
 Alpha virt. eigenvalues --    0.33179   0.33394   0.33642   0.33897   0.33923
 Alpha virt. eigenvalues --    0.34089   0.34148   0.34581   0.34765   0.35076
 Alpha virt. eigenvalues --    0.35551   0.35779   0.35842   0.36256   0.36423
 Alpha virt. eigenvalues --    0.36549   0.36774   0.37034   0.37435   0.37712
 Alpha virt. eigenvalues --    0.37972   0.38151   0.38449   0.38550   0.38878
 Alpha virt. eigenvalues --    0.39009   0.39327   0.39530   0.39673   0.39986
 Alpha virt. eigenvalues --    0.40536   0.40828   0.41011   0.41270   0.41335
 Alpha virt. eigenvalues --    0.42054   0.42209   0.42723   0.42964   0.43305
 Alpha virt. eigenvalues --    0.43690   0.43971   0.44241   0.44397   0.45058
 Alpha virt. eigenvalues --    0.45187   0.45635   0.46112   0.46458   0.46779
 Alpha virt. eigenvalues --    0.47084   0.47327   0.48303   0.48866   0.49292
 Alpha virt. eigenvalues --    0.49621   0.50028   0.50260   0.50873   0.51070
 Alpha virt. eigenvalues --    0.51592   0.52082   0.52492   0.52936   0.53303
 Alpha virt. eigenvalues --    0.53395   0.53741   0.53823   0.54240   0.54784
 Alpha virt. eigenvalues --    0.54957   0.55584   0.56471   0.56891   0.56957
 Alpha virt. eigenvalues --    0.57331   0.57840   0.58188   0.58626   0.59034
 Alpha virt. eigenvalues --    0.60243   0.61010   0.61396   0.61668   0.61938
 Alpha virt. eigenvalues --    0.62124   0.62457   0.63141   0.63741   0.63975
 Alpha virt. eigenvalues --    0.64315   0.64553   0.64889   0.65212   0.65449
 Alpha virt. eigenvalues --    0.66048   0.66688   0.66949   0.67490   0.67796
 Alpha virt. eigenvalues --    0.68060   0.68426   0.69076   0.69382   0.69613
 Alpha virt. eigenvalues --    0.69822   0.69976   0.70545   0.70843   0.71607
 Alpha virt. eigenvalues --    0.71723   0.72126   0.72454   0.72865   0.73005
 Alpha virt. eigenvalues --    0.73309   0.74030   0.74253   0.74358   0.74536
 Alpha virt. eigenvalues --    0.75369   0.75662   0.75867   0.76142   0.76747
 Alpha virt. eigenvalues --    0.77417   0.77604   0.78009   0.78187   0.78978
 Alpha virt. eigenvalues --    0.79014   0.79513   0.79890   0.80306   0.80522
 Alpha virt. eigenvalues --    0.80810   0.80963   0.81265   0.81898   0.82478
 Alpha virt. eigenvalues --    0.82608   0.82674   0.83094   0.83624   0.83973
 Alpha virt. eigenvalues --    0.84187   0.84795   0.85077   0.85365   0.85843
 Alpha virt. eigenvalues --    0.86066   0.86455   0.86823   0.87130   0.87616
 Alpha virt. eigenvalues --    0.88076   0.88243   0.88966   0.89579   0.90217
 Alpha virt. eigenvalues --    0.91436   0.91780   0.92344   0.92863   0.94408
 Alpha virt. eigenvalues --    0.94583   0.94906   0.96062   0.96542   0.97033
 Alpha virt. eigenvalues --    0.97665   0.97883   0.98587   0.98802   0.99306
 Alpha virt. eigenvalues --    0.99926   1.00874   1.01127   1.01334   1.01450
 Alpha virt. eigenvalues --    1.01931   1.02246   1.02481   1.02539   1.03757
 Alpha virt. eigenvalues --    1.04048   1.04259   1.05024   1.05336   1.06012
 Alpha virt. eigenvalues --    1.06200   1.06712   1.07578   1.07766   1.08591
 Alpha virt. eigenvalues --    1.08904   1.09302   1.09615   1.10190   1.10827
 Alpha virt. eigenvalues --    1.11062   1.11356   1.12242   1.12806   1.13109
 Alpha virt. eigenvalues --    1.13163   1.13471   1.14321   1.14592   1.15079
 Alpha virt. eigenvalues --    1.15335   1.15755   1.16007   1.16176   1.16651
 Alpha virt. eigenvalues --    1.17641   1.18268   1.18511   1.18693   1.19196
 Alpha virt. eigenvalues --    1.19874   1.20458   1.21549   1.21940   1.22753
 Alpha virt. eigenvalues --    1.23960   1.24373   1.25581   1.25815   1.26301
 Alpha virt. eigenvalues --    1.27063   1.27418   1.28250   1.29115   1.29832
 Alpha virt. eigenvalues --    1.30289   1.30665   1.32386   1.33223   1.33668
 Alpha virt. eigenvalues --    1.34176   1.34584   1.34693   1.35694   1.36242
 Alpha virt. eigenvalues --    1.36695   1.37067   1.38697   1.39023   1.40267
 Alpha virt. eigenvalues --    1.41013   1.41134   1.41816   1.42608   1.44123
 Alpha virt. eigenvalues --    1.44542   1.45526   1.46327   1.46662   1.47632
 Alpha virt. eigenvalues --    1.48823   1.49366   1.49849   1.50426   1.51381
 Alpha virt. eigenvalues --    1.51597   1.51823   1.52299   1.52455   1.52689
 Alpha virt. eigenvalues --    1.52966   1.53514   1.53987   1.54068   1.54472
 Alpha virt. eigenvalues --    1.54637   1.55205   1.56114   1.56563   1.57302
 Alpha virt. eigenvalues --    1.58172   1.59265   1.59365   1.60059   1.61081
 Alpha virt. eigenvalues --    1.61687   1.62516   1.62903   1.63264   1.63295
 Alpha virt. eigenvalues --    1.63713   1.63976   1.64529   1.65254   1.65454
 Alpha virt. eigenvalues --    1.65781   1.67297   1.67790   1.69199   1.70413
 Alpha virt. eigenvalues --    1.70939   1.71367   1.71745   1.72306   1.72758
 Alpha virt. eigenvalues --    1.73669   1.74772   1.75096   1.75443   1.75842
 Alpha virt. eigenvalues --    1.76331   1.76746   1.77829   1.77938   1.78157
 Alpha virt. eigenvalues --    1.78647   1.79178   1.79453   1.79720   1.79953
 Alpha virt. eigenvalues --    1.81924   1.82539   1.82759   1.83714   1.84517
 Alpha virt. eigenvalues --    1.84682   1.85706   1.85944   1.87082   1.87677
 Alpha virt. eigenvalues --    1.88161   1.88601   1.88833   1.90105   1.91461
 Alpha virt. eigenvalues --    1.92192   1.92813   1.94282   1.94549   1.94939
 Alpha virt. eigenvalues --    1.95048   1.95567   1.96179   1.96652   1.97260
 Alpha virt. eigenvalues --    1.98136   1.98641   1.98777   1.99580   1.99747
 Alpha virt. eigenvalues --    2.00457   2.00687   2.02063   2.02981   2.03785
 Alpha virt. eigenvalues --    2.04031   2.04457   2.05670   2.06868   2.07453
 Alpha virt. eigenvalues --    2.08295   2.08962   2.10025   2.10374   2.10906
 Alpha virt. eigenvalues --    2.11642   2.11816   2.12521   2.12763   2.13775
 Alpha virt. eigenvalues --    2.14546   2.15350   2.15856   2.16186   2.16689
 Alpha virt. eigenvalues --    2.17384   2.18368   2.19508   2.20101   2.20787
 Alpha virt. eigenvalues --    2.21113   2.21193   2.22498   2.23201   2.23807
 Alpha virt. eigenvalues --    2.24368   2.25287   2.25778   2.26240   2.28066
 Alpha virt. eigenvalues --    2.28619   2.29186   2.29519   2.30464   2.31194
 Alpha virt. eigenvalues --    2.31746   2.34441   2.34846   2.36256   2.37349
 Alpha virt. eigenvalues --    2.40343   2.41281   2.41785   2.43350   2.44235
 Alpha virt. eigenvalues --    2.46538   2.47781   2.48523   2.50762   2.52020
 Alpha virt. eigenvalues --    2.52756   2.52799   2.53148   2.54433   2.55194
 Alpha virt. eigenvalues --    2.55695   2.56509   2.57183   2.58001   2.58308
 Alpha virt. eigenvalues --    2.59456   2.60725   2.61558   2.61691   2.62127
 Alpha virt. eigenvalues --    2.62674   2.63032   2.63523   2.64258   2.65634
 Alpha virt. eigenvalues --    2.65891   2.67446   2.67966   2.68691   2.70533
 Alpha virt. eigenvalues --    2.71871   2.72774   2.73902   2.74214   2.75509
 Alpha virt. eigenvalues --    2.76424   2.77252   2.77404   2.77962   2.78391
 Alpha virt. eigenvalues --    2.78722   2.79308   2.79777   2.80033   2.80646
 Alpha virt. eigenvalues --    2.81379   2.81747   2.83504   2.83649   2.85281
 Alpha virt. eigenvalues --    2.86003   2.87073   2.87506   2.87748   2.88463
 Alpha virt. eigenvalues --    2.91737   2.92154   2.93015   2.93208   2.93840
 Alpha virt. eigenvalues --    2.93902   2.95006   2.95373   2.95952   2.96344
 Alpha virt. eigenvalues --    2.97205   2.97779   2.98098   2.99169   2.99763
 Alpha virt. eigenvalues --    3.00613   3.01519   3.02188   3.03562   3.04042
 Alpha virt. eigenvalues --    3.04888   3.05249   3.06297   3.07811   3.09611
 Alpha virt. eigenvalues --    3.10201   3.12191   3.13054   3.13984   3.14456
 Alpha virt. eigenvalues --    3.15508   3.16193   3.18053   3.18520   3.20162
 Alpha virt. eigenvalues --    3.20977   3.22841   3.23672   3.24669   3.24957
 Alpha virt. eigenvalues --    3.26743   3.27614   3.29395   3.29882   3.31783
 Alpha virt. eigenvalues --    3.32713   3.33116   3.33425   3.34439   3.36858
 Alpha virt. eigenvalues --    3.38234   3.39608   3.41466   3.41839   3.42799
 Alpha virt. eigenvalues --    3.43228   3.43682   3.44723   3.44948   3.46931
 Alpha virt. eigenvalues --    3.48170   3.49343   3.51280   3.51619   3.52309
 Alpha virt. eigenvalues --    3.54151   3.55122   3.56024   3.58327   3.59052
 Alpha virt. eigenvalues --    3.59898   3.63256   3.65168   3.66994   3.68758
 Alpha virt. eigenvalues --    3.69635   3.71063   3.74135   3.75464   3.76086
 Alpha virt. eigenvalues --    3.79295   3.79590   3.81938   3.82836   3.85655
 Alpha virt. eigenvalues --    3.86037   3.86243   3.90995   3.92413   3.94422
 Alpha virt. eigenvalues --    3.94967   3.96106   3.99633   4.00975   4.02309
 Alpha virt. eigenvalues --    4.03699   4.05414   4.06480   4.10803   4.13167
 Alpha virt. eigenvalues --    4.14321   4.18110   4.20423   4.22330   4.24269
 Alpha virt. eigenvalues --    4.29848   4.33272   4.34993   4.36893   4.44918
 Alpha virt. eigenvalues --    4.48594   4.49932   4.61198   4.78130   4.93708
 Alpha virt. eigenvalues --    4.95040   4.97552   5.00662   5.13667   5.14436
 Alpha virt. eigenvalues --    5.15013   5.16478   5.17050   5.21102   5.21487
 Alpha virt. eigenvalues --    5.23253   5.35812   5.37615   5.39772   5.42197
 Alpha virt. eigenvalues --    5.53474   5.54690   5.86185   5.87814   5.90827
 Alpha virt. eigenvalues --    5.91301   5.92382   5.95716   8.13637   8.17708
 Alpha virt. eigenvalues --   17.43391  17.49693  17.63747  17.66635  17.72357
 Alpha virt. eigenvalues --   17.77684  23.61957  23.69942  23.85046  23.91580
 Alpha virt. eigenvalues --   23.94642  23.95469  23.96902  23.99187  23.99396
 Alpha virt. eigenvalues --   24.00712  24.01945  24.03465  24.04472  24.05717
 Alpha virt. eigenvalues --   24.07735  24.07936  24.09249  24.10652  24.13057
 Alpha virt. eigenvalues --   24.15124  24.16069  24.17525  24.24607  24.26106
 Alpha virt. eigenvalues --   24.26622  24.27603  35.69114  35.72114  50.10318
 Alpha virt. eigenvalues --   50.11915  50.15598  50.17711  50.19352  50.21113
 Alpha virt. eigenvalues --  189.39026 189.43826
          Condensed to atoms (all electrons):
 Mulliken charges:
               1
     1  C    0.381299
     2  C   -0.106649
     3  C    0.122230
     4  C    0.195669
     5  C    0.316185
     6  C   -0.348862
     7  C    0.122440
     8  C    0.226124
     9  C    0.260480
    10  C   -0.291939
    11  C    0.334476
    12  C    0.177438
    13  C   -0.558529
    14  C   -0.665031
    15  H    0.189147
    16  H    0.191296
    17  H    0.187211
    18  N   -0.043481
    19  N   -0.081404
    20  O   -0.272123
    21  O   -0.271559
    22  O   -0.280398
    23  O   -0.183805
    24  C   -0.281002
    25  H    0.198076
    26  H    0.195082
    27  H    0.201483
    28  C   -0.279720
    29  H    0.193346
    30  H    0.193077
    31  H    0.201312
    32  C    0.470262
    33  C   -0.751216
    34  S   -0.679549
    35  C   -0.186535
    36  H    0.160442
    37  C    0.622484
    38  O   -0.120552
    39  C    0.945978
    40  C   -0.301108
    41  C   -0.062268
    42  S   -0.320622
    43  H    0.183797
    44  H    0.159702
    45  H    0.167315
    46  C   -0.583105
    47  O   -0.109736
    48  C   -0.350133
    49  H    0.156813
    50  C   -0.313375
    51  H    0.188339
    52  H    0.158162
    53  H    0.182489
    54  H    0.160546
 Sum of Mulliken charges =  -0.00000
 Mulliken charges with hydrogens summed into heavy atoms:
               1
     1  C    0.381299
     2  C   -0.106649
     3  C    0.122230
     4  C    0.195669
     5  C    0.316185
     6  C   -0.161651
     7  C    0.122440
     8  C    0.226124
     9  C    0.260480
    10  C   -0.291939
    11  C    0.334476
    12  C    0.177438
    13  C   -0.367233
    14  C   -0.475883
    18  N   -0.043481
    19  N   -0.081404
    20  O   -0.272123
    21  O   -0.271559
    22  O   -0.280398
    23  O   -0.183805
    24  C    0.313639
    28  C    0.308014
    32  C    0.470262
    33  C   -0.590774
    34  S   -0.679549
    35  C   -0.186535
    37  C    0.622484
    38  O   -0.120552
    39  C    0.945978
    40  C    0.209706
    41  C   -0.062268
    42  S   -0.320622
    46  C   -0.426291
    47  O   -0.109736
    48  C   -0.161794
    50  C    0.187822
 Electronic spatial extent (au):  <R**2>=          22134.3941
 Charge=             -0.0000 electrons
 Dipole moment (field-independent basis, Debye):
    X=             -3.0159    Y=             -0.3405    Z=              0.2485  Tot=              3.0452
 Quadrupole moment (field-independent basis, Debye-Ang):
   XX=           -212.3148   YY=           -215.2615   ZZ=           -215.4504
   XY=            -10.9084   XZ=             -7.7658   YZ=             13.9173
 Traceless Quadrupole moment (field-independent basis, Debye-Ang):
   XX=              2.0274   YY=             -0.9193   ZZ=             -1.1081
   XY=            -10.9084   XZ=             -7.7658   YZ=             13.9173
 Octapole moment (field-independent basis, Debye-Ang**2):
  XXX=           -313.3282  YYY=            -49.2734  ZZZ=             -1.1554  XYY=            -97.2947
  XXY=             20.1862  XXZ=             43.3678  XZZ=            -16.2484  YZZ=             -0.1030
  YYZ=            -12.5562  XYZ=            -47.4535
 Hexadecapole moment (field-independent basis, Debye-Ang**3):
 XXXX=         -21269.9126 YYYY=          -6978.8438 ZZZZ=          -1191.6676 XXXY=           -306.9196
 XXXZ=           -443.5929 YYYX=           -333.1099 YYYZ=            185.8878 ZZZX=             13.1130
 ZZZY=             45.3496 XXYY=          -4445.6206 XXZZ=          -3812.2804 YYZZ=          -1214.9344
 XXYZ=            233.5280 YYXZ=             84.6506 ZZXY=            -84.9563
 N-N= 4.109685954068D+03 E-N=-1.375872813555D+04  KE= 2.351206274386D+03
 Calling FoFJK, ICntrl=      2127 FMM=F ISym2X=0 I1Cent= 0 IOpClX= 0 NMat=1 NMatS=1 NMatT=0.
 ***** Axes restored to original set *****
 -------------------------------------------------------------------
 Center     Atomic                   Forces (Hartrees/Bohr)
 Number     Number              X              Y              Z
 -------------------------------------------------------------------
      1        6           0.006379307   -0.013743655   -0.001849101
      2        6           0.004859323    0.004911158    0.000897340
      3        6           0.001830097    0.003455685    0.000306121
      4        6          -0.002717454    0.007561264    0.001219840
      5        6          -0.011714825   -0.008807933   -0.001006319
      6        6          -0.004071937    0.000855351   -0.000228812
      7        6          -0.002566252   -0.004163250   -0.000472577
      8        6           0.006305173   -0.011150171   -0.001997194
      9        6          -0.012494977   -0.004749823    0.002713142
     10        6           0.013866520    0.015055740    0.004899969
     11        6          -0.005546845    0.014766483    0.002023248
     12        6          -0.004685871   -0.005900767   -0.000636409
     13        6           0.007249976    0.001308589    0.000087285
     14        6           0.007260953   -0.004731006   -0.000811028
     15        1           0.000365233    0.000620346    0.000042336
     16        1           0.000419272   -0.000930081   -0.000168633
     17        1           0.001678447    0.001285681    0.000359815
     18        7          -0.002231632   -0.001977654   -0.001228850
     19        7           0.000878991    0.001914396    0.000140675
     20        8          -0.013960617    0.014458111    0.002231453
     21        8           0.018399604    0.006117214    0.000535275
     22        8           0.014365172   -0.014168789   -0.002008924
     23        8          -0.028586494   -0.007486463    0.006597212
     24        6           0.000894948   -0.001787216   -0.001458852
     25        1          -0.000838483   -0.000433337   -0.000426296
     26        1          -0.001431842   -0.001023120    0.001022324
     27        1           0.000674482    0.000011928    0.000071772
     28        6           0.001207793    0.001867946   -0.000146970
     29        1          -0.000852723    0.000849258    0.000914421
     30        1          -0.000617038    0.000836321   -0.000328597
     31        1           0.000615685   -0.000240217   -0.000014952
     32        6           0.009151132    0.033170100   -0.006714654
     33        6          -0.006804825   -0.001871035   -0.004778365
     34       16           0.016079889   -0.020908012    0.001158805
     35        6           0.002484844    0.007609493   -0.005329620
     36        1          -0.001063006   -0.001502786    0.003034815
     37        6          -0.014101763   -0.013156120    0.003118442
     38        8          -0.002573621   -0.006884512    0.003085495
     39        6           0.010941700    0.010500258   -0.006167076
     40        6          -0.001261952    0.005948703   -0.003252782
     41        6          -0.003636252   -0.007138178    0.004502254
     42       16          -0.005871634    0.007335087   -0.005232960
     43        1          -0.000916563    0.000164060   -0.000376803
     44        1           0.000318461    0.000699991   -0.000575008
     45        1           0.001046623    0.001212731    0.000038503
     46        6           0.002740817   -0.003689592    0.002743852
     47        8           0.005301589    0.003328546   -0.001965556
     48        6          -0.007040580   -0.001874735    0.000536118
     49        1           0.000122876   -0.000919216    0.000617636
     50        6           0.001988420   -0.004045898    0.001910000
     51        1          -0.001217040   -0.000240166    0.000117994
     52        1          -0.000818512   -0.000667149    0.001543689
     53        1           0.000769788   -0.000456599    0.000492481
     54        1          -0.000574375   -0.001196956    0.000214024
 -------------------------------------------------------------------
 Cartesian Forces:  Max     0.033170100 RMS     0.006685047

 GradGradGradGradGradGradGradGradGradGradGradGradGradGradGradGradGradGrad
 Berny optimization.
 FormGI is forming the generalized inverse of G from B-inverse, IUseBI=4.
 Internal  Forces:  Max     0.034271074 RMS     0.005876195
 Search for a local minimum.
 Step number   1 out of a maximum of  307
 All quantities printed in internal units (Hartrees-Bohrs-Radians)
 Mixed Optimization -- RFO/linear search
 Second derivative matrix not updated -- first step.
 ITU=  0
     Eigenvalues ---    0.01155   0.01172   0.01239   0.01297   0.01348
     Eigenvalues ---    0.01379   0.01397   0.01410   0.01452   0.01470
     Eigenvalues ---    0.01512   0.01544   0.01567   0.01590   0.01622
     Eigenvalues ---    0.01652   0.01679   0.01695   0.01714   0.01719
     Eigenvalues ---    0.01721   0.01763   0.01799   0.01845   0.01976
     Eigenvalues ---    0.02039   0.02047   0.02076   0.02089   0.02098
     Eigenvalues ---    0.02133   0.02149   0.02162   0.02179   0.02197
     Eigenvalues ---    0.02248   0.04601   0.04620   0.07665   0.07667
     Eigenvalues ---    0.10061   0.10074   0.10630   0.10633   0.15983
     Eigenvalues ---    0.15999   0.15999   0.16000   0.16000   0.16000
     Eigenvalues ---    0.16000   0.16000   0.16000   0.16000   0.16000
     Eigenvalues ---    0.16000   0.16000   0.16000   0.16000   0.16000
     Eigenvalues ---    0.16000   0.16000   0.22530   0.22583   0.23517
     Eigenvalues ---    0.23582   0.24513   0.24747   0.24867   0.24906
     Eigenvalues ---    0.24952   0.24985   0.24986   0.24988   0.24992
     Eigenvalues ---    0.24994   0.24996   0.24997   0.24998   0.24998
     Eigenvalues ---    0.25000   0.25000   0.25000   0.25000   0.25000
     Eigenvalues ---    0.25000   0.25000   0.25000   0.25000   0.25000
     Eigenvalues ---    0.28839   0.28883   0.30118   0.32157   0.32582
     Eigenvalues ---    0.32774   0.33104   0.33787   0.33932   0.34000
     Eigenvalues ---    0.34071   0.34093   0.34353   0.34466   0.34577
     Eigenvalues ---    0.34629   0.34693   0.34869   0.34876   0.35198
     Eigenvalues ---    0.35218   0.35468   0.35553   0.35582   0.35743
     Eigenvalues ---    0.35847   0.36078   0.36083   0.36243   0.36393
     Eigenvalues ---    0.36662   0.39348   0.40194   0.40235   0.40651
     Eigenvalues ---    0.40753   0.41524   0.41567   0.41915   0.42300
     Eigenvalues ---    0.42705   0.43455   0.43918   0.44092   0.44592
     Eigenvalues ---    0.44594   0.45014   0.45405   0.46251   0.47305
     Eigenvalues ---    0.47599   0.49309   0.49538   0.53072   0.53227
     Eigenvalues ---    0.93281   0.93432   0.93989   0.945851000.00000
     Eigenvalues --- 1000.000001000.000001000.000001000.000001000.00000
     Eigenvalues --- 1000.000001000.000001000.000001000.000001000.00000
     Eigenvalues --- 1000.000001000.000001000.000001000.000001000.00000
     Eigenvalues --- 1000.000001000.000001000.000001000.000001000.00000
     Eigenvalues --- 1000.000001000.000001000.000001000.000001000.00000
     Eigenvalues --- 1000.000001000.000001000.000001000.000001000.00000
     Eigenvalues --- 1000.000001000.000001000.000001000.000001000.00000
     Eigenvalues --- 1000.000001000.000001000.000001000.000001000.00000
     Eigenvalues --- 1000.000001000.000001000.000001000.000001000.00000
     Eigenvalues --- 1000.000001000.000001000.000001000.000001000.00000
     Eigenvalues --- 1000.000001000.000001000.000001000.000001000.00000
     Eigenvalues --- 1000.000001000.000001000.000001000.000001000.00000
     Eigenvalues --- 1000.000001000.000001000.000001000.000001000.00000
     Eigenvalues --- 1000.000001000.000001000.000001000.000001000.00000
     Eigenvalues --- 1000.000001000.000001000.000001000.000001000.00000
     Eigenvalues --- 1000.000001000.000001000.000001000.000001000.00000
     Eigenvalues --- 1000.000001000.000001000.000001000.000001000.00000
     Eigenvalues --- 1000.000001000.000001000.000001000.000001000.00000
     Eigenvalues --- 1000.000001000.000001000.000001000.000001000.00000
     Eigenvalues --- 1000.000001000.000001000.000001000.000001000.00000
     Eigenvalues --- 1000.000001000.000001000.000001000.000001000.00000
     Eigenvalues --- 1000.000001000.000001000.000001000.000001000.00000
     Eigenvalues --- 1000.000001000.000001000.000001000.000001000.00000
     Eigenvalues --- 1000.000001000.000001000.000001000.000001000.00000
     Eigenvalues --- 1000.000001000.000001000.000001000.000001000.00000
     Eigenvalues --- 1000.000001000.000001000.000001000.000001000.00000
     Eigenvalues --- 1000.000001000.000001000.000001000.000001000.00000
     Eigenvalues --- 1000.000001000.000001000.000001000.000001000.00000
     Eigenvalues --- 1000.000001000.000001000.000001000.000001000.00000
     Eigenvalues --- 1000.000001000.00000
 RFO step:  Lambda=-4.16177461D-02 EMin= 1.15532237D-02
 Linear search not attempted -- first point.
 Iteration  1 RMS(Cart)=  0.42933114 RMS(Int)=  0.01314371
 Iteration  2 RMS(Cart)=  0.08418091 RMS(Int)=  0.00163437
 Iteration  3 RMS(Cart)=  0.00198486 RMS(Int)=  0.00159126
 Iteration  4 RMS(Cart)=  0.00001851 RMS(Int)=  0.00159126
 Iteration  5 RMS(Cart)=  0.00000012 RMS(Int)=  0.00159126
 Iteration  1 RMS(Cart)=  0.00037218 RMS(Int)=  0.00007103
 Iteration  2 RMS(Cart)=  0.00019374 RMS(Int)=  0.00007920
 Iteration  3 RMS(Cart)=  0.00010293 RMS(Int)=  0.00008929
 Iteration  4 RMS(Cart)=  0.00005549 RMS(Int)=  0.00009609
 Iteration  5 RMS(Cart)=  0.00003021 RMS(Int)=  0.00010023
 Iteration  6 RMS(Cart)=  0.00001655 RMS(Int)=  0.00010268
 Iteration  7 RMS(Cart)=  0.00000911 RMS(Int)=  0.00010411
 Iteration  8 RMS(Cart)=  0.00000503 RMS(Int)=  0.00010494
 Iteration  9 RMS(Cart)=  0.00000278 RMS(Int)=  0.00010542
 Iteration 10 RMS(Cart)=  0.00000154 RMS(Int)=  0.00010571
 Iteration 11 RMS(Cart)=  0.00000085 RMS(Int)=  0.00010587
 Variable       Old X    -DE/DX   Delta X   Delta X   Delta X     New X
                                 (Linear)    (Quad)   (Total)
    R1        2.80935  -0.00184   0.00000  -0.00516  -0.00516   2.80419
    R2        2.64584  -0.00788   0.00000  -0.01620  -0.01615   2.62969
    R3        2.31147  -0.02021   0.00000  -0.02059  -0.02059   2.29088
    R4        2.67311  -0.00844   0.00000  -0.01877  -0.01893   2.65418
    R5        2.59267  -0.01243   0.00000  -0.02433  -0.02428   2.56839
    R6        2.66894  -0.00440   0.00000  -0.00875  -0.00880   2.66014
    R7        2.69164  -0.00791   0.00000  -0.01564  -0.01583   2.67581
    R8        2.81049  -0.00144   0.00000  -0.00347  -0.00347   2.80703
    R9        2.62173  -0.01136   0.00000  -0.02247  -0.02237   2.59936
   R10        2.65570  -0.00778   0.00000  -0.01605  -0.01600   2.63970
   R11        2.30889  -0.01940   0.00000  -0.01964  -0.01964   2.28925
   R12        2.70248  -0.00687   0.00000  -0.01613  -0.01596   2.68652
   R13        2.04786   0.00023   0.00000   0.00057   0.00057   2.04842
   R14        2.70495   0.00213   0.00000   0.00838   0.00822   2.71317
   R15        2.68322  -0.00365   0.00000  -0.00635  -0.00642   2.67680
   R16        2.68655  -0.00029   0.00000   0.00051   0.00053   2.68707
   R17        2.81233   0.00711   0.00000   0.01957   0.01953   2.83186
   R18        2.76359   0.00672   0.00000   0.01647   0.01647   2.78006
   R19        2.66221  -0.00727   0.00000  -0.01590  -0.01592   2.64628
   R20        2.31391  -0.02819   0.00000  -0.02888  -0.02888   2.28502
   R21        2.79415  -0.00377   0.00000  -0.01052  -0.01039   2.78376
   R22        2.63842  -0.01173   0.00000  -0.02465  -0.02461   2.61381
   R23        2.31456  -0.02026   0.00000  -0.02079  -0.02079   2.29377
   R24        2.62448  -0.00927   0.00000  -0.01800  -0.01800   2.60648
   R25        2.64561  -0.00473   0.00000  -0.01019  -0.01009   2.63552
   R26        2.04921  -0.00096   0.00000  -0.00242  -0.00242   2.04679
   R27        2.04741  -0.00054   0.00000  -0.00137  -0.00137   2.04604
   R28        2.77259  -0.00340   0.00000  -0.00845  -0.00845   2.76415
   R29        2.77252  -0.00334   0.00000  -0.00831  -0.00831   2.76421
   R30        2.06176  -0.00082   0.00000  -0.00212  -0.00212   2.05964
   R31        2.06551  -0.00195   0.00000  -0.00504  -0.00504   2.06047
   R32        2.05322  -0.00057   0.00000  -0.00145  -0.00145   2.05177
   R33        2.06368  -0.00140   0.00000  -0.00362  -0.00362   2.06006
   R34        2.06281  -0.00093   0.00000  -0.00240  -0.00240   2.06041
   R35        2.05355  -0.00059   0.00000  -0.00149  -0.00149   2.05206
   R36        2.61041  -0.00581   0.00000  -0.01123  -0.01038   2.60003
   R37        3.33290  -0.01341   0.00000  -0.04002  -0.03918   3.29373
   R38        2.66249  -0.00406   0.00000  -0.00873  -0.00876   2.65373
   R39        2.03703   0.00300   0.00000   0.00741   0.00741   2.04445
   R40        3.30354  -0.01002   0.00000  -0.02827  -0.02894   3.27460
   R41        2.64263  -0.01362   0.00000  -0.02719  -0.02823   2.61440
   R42        2.56887  -0.00373   0.00000  -0.00652  -0.00652   2.56235
   R43        2.71235   0.00279   0.00000   0.00629   0.00629   2.71863
   R44        2.69478  -0.00907   0.00000  -0.01983  -0.01983   2.67495
   R45        2.63382  -0.01278   0.00000  -0.02548  -0.02548   2.60834
   R46        3.32920  -0.00827   0.00000  -0.02449  -0.02448   3.30472
   R47        2.05888  -0.00098   0.00000  -0.00252  -0.00252   2.05636
   R48        2.07174  -0.00063   0.00000  -0.00166  -0.00166   2.07008
   R49        2.07330  -0.00130   0.00000  -0.00341  -0.00341   2.06989
   R50        2.69002  -0.00313   0.00000  -0.00718  -0.00719   2.68283
   R51        2.56742  -0.00763   0.00000  -0.01329  -0.01329   2.55413
   R52        3.26198  -0.00752   0.00000  -0.01972  -0.01972   3.24226
   R53        2.58721  -0.00791   0.00000  -0.01425  -0.01425   2.57296
   R54        2.04486  -0.00109   0.00000  -0.00272  -0.00272   2.04214
   R55        2.69032  -0.00766   0.00000  -0.01662  -0.01662   2.67370
   R56        2.04321  -0.00125   0.00000  -0.00311  -0.00311   2.04010
   R57        2.07444  -0.00168   0.00000  -0.00441  -0.00441   2.07004
   R58        2.05876  -0.00091   0.00000  -0.00233  -0.00233   2.05643
   R59        2.07211  -0.00103   0.00000  -0.00269  -0.00269   2.06942
    A1        2.03797   0.00100   0.00000   0.00234   0.00229   2.04026
    A2        2.14521  -0.00112   0.00000  -0.00331  -0.00331   2.14190
    A3        2.10001   0.00013   0.00000   0.00098   0.00098   2.10099
    A4        2.10395   0.00111   0.00000   0.00536   0.00535   2.10930
    A5        2.08282  -0.00079   0.00000  -0.00089  -0.00071   2.08211
    A6        2.09624  -0.00033   0.00000  -0.00461  -0.00480   2.09143
    A7        2.10093  -0.00200   0.00000  -0.00772  -0.00758   2.09335
    A8        2.07104   0.00030   0.00000   0.00006  -0.00009   2.07095
    A9        2.11118   0.00170   0.00000   0.00756   0.00750   2.11868
   A10        2.10296   0.00037   0.00000   0.00225   0.00215   2.10511
   A11        2.09911   0.00098   0.00000   0.00308   0.00305   2.10216
   A12        2.08110  -0.00135   0.00000  -0.00534  -0.00522   2.07588
   A13        2.03739   0.00067   0.00000   0.00251   0.00248   2.03988
   A14        2.12972  -0.00022   0.00000  -0.00086  -0.00085   2.12887
   A15        2.11607  -0.00045   0.00000  -0.00165  -0.00164   2.11443
   A16        2.15098   0.00448   0.00000   0.01354   0.01345   2.16443
   A17        2.04399  -0.00018   0.00000   0.00295   0.00284   2.04683
   A18        2.08722  -0.00438   0.00000  -0.01785  -0.01805   2.06917
   A19        2.11101   0.00219   0.00000   0.00899   0.00921   2.12022
   A20        2.04385  -0.00399   0.00000  -0.01545  -0.01531   2.02853
   A21        2.12832   0.00180   0.00000   0.00642   0.00602   2.13435
   A22        2.08678  -0.00605   0.00000  -0.01893  -0.01933   2.06746
   A23        2.04738  -0.00923   0.00000  -0.03169  -0.03263   2.01475
   A24        2.14662   0.01511   0.00000   0.04569   0.04460   2.19122
   A25        2.04892  -0.00078   0.00000  -0.00109  -0.00134   2.04758
   A26        2.00754  -0.03352   0.00000  -0.11619  -0.11617   1.89137
   A27        2.22643   0.03427   0.00000   0.11632   0.11588   2.34230
   A28        2.06022   0.00406   0.00000   0.01418   0.01377   2.07399
   A29        2.17370   0.00518   0.00000   0.01756   0.01778   2.19147
   A30        2.04919  -0.00928   0.00000  -0.03176  -0.03159   2.01760
   A31        2.01621  -0.00015   0.00000  -0.00362  -0.00411   2.01209
   A32        2.14188  -0.00080   0.00000  -0.00137  -0.00140   2.14048
   A33        2.12500   0.00092   0.00000   0.00452   0.00449   2.12948
   A34        2.10943   0.00158   0.00000   0.00534   0.00510   2.11453
   A35        2.11468   0.00228   0.00000   0.00946   0.00935   2.12403
   A36        2.05896  -0.00387   0.00000  -0.01492  -0.01459   2.04437
   A37        2.11176   0.00014   0.00000   0.00047   0.00036   2.11211
   A38        2.05670   0.00033   0.00000   0.00172   0.00175   2.05845
   A39        2.11471  -0.00047   0.00000  -0.00223  -0.00218   2.11253
   A40        2.08567  -0.00112   0.00000  -0.00544  -0.00545   2.08022
   A41        2.07549   0.00104   0.00000   0.00508   0.00506   2.08055
[...]
 Alpha  occ. eigenvalues --   -0.66709  -0.65746  -0.64846  -0.64245  -0.63420
 Alpha  occ. eigenvalues --   -0.62870  -0.60769  -0.59805  -0.59163  -0.58951
 Alpha  occ. eigenvalues --   -0.58108  -0.57734  -0.57369  -0.57244  -0.56897
 Alpha  occ. eigenvalues --   -0.56429  -0.56049  -0.55444  -0.55330  -0.54205
 Alpha  occ. eigenvalues --   -0.53886  -0.53736  -0.53382  -0.53219  -0.52504
 Alpha  occ. eigenvalues --   -0.51623  -0.51202  -0.50992  -0.50352  -0.50139
 Alpha  occ. eigenvalues --   -0.49947  -0.49541  -0.49423  -0.48871  -0.48389
 Alpha  occ. eigenvalues --   -0.48149  -0.47343  -0.46585  -0.45862  -0.45382
 Alpha  occ. eigenvalues --   -0.44304  -0.43850  -0.42256  -0.41599  -0.41169
 Alpha  occ. eigenvalues --   -0.40967  -0.40294  -0.39659  -0.38466  -0.37626
 Alpha  occ. eigenvalues --   -0.37430  -0.37098  -0.36757  -0.36208  -0.34875
 Alpha  occ. eigenvalues --   -0.33274  -0.31650  -0.31250  -0.25464
 Alpha virt. eigenvalues --   -0.07240  -0.00312   0.00446   0.02235   0.03301
 Alpha virt. eigenvalues --    0.05170   0.05841   0.06129   0.06700   0.06871
 Alpha virt. eigenvalues --    0.07151   0.07559   0.07609   0.07724   0.07920
 Alpha virt. eigenvalues --    0.08544   0.08697   0.08847   0.08993   0.09165
 Alpha virt. eigenvalues --    0.09266   0.09583   0.09919   0.10199   0.10465
 Alpha virt. eigenvalues --    0.10697   0.11092   0.11400   0.11594   0.11780
 Alpha virt. eigenvalues --    0.11940   0.12029   0.12195   0.12858   0.13095
 Alpha virt. eigenvalues --    0.13218   0.13624   0.13801   0.14087   0.14391
 Alpha virt. eigenvalues --    0.14668   0.14955   0.15081   0.15316   0.15441
 Alpha virt. eigenvalues --    0.15841   0.15897   0.16298   0.16652   0.17167
 Alpha virt. eigenvalues --    0.17261   0.17676   0.17806   0.18006   0.18124
 Alpha virt. eigenvalues --    0.18368   0.18644   0.19230   0.19443   0.19806
 Alpha virt. eigenvalues --    0.19935   0.20108   0.20405   0.20574   0.20643
 Alpha virt. eigenvalues --    0.20756   0.21004   0.21079   0.21375   0.21825
 Alpha virt. eigenvalues --    0.22032   0.22179   0.22580   0.22691   0.22781
 Alpha virt. eigenvalues --    0.23080   0.23559   0.23671   0.24069   0.24432
 Alpha virt. eigenvalues --    0.24567   0.24705   0.24792   0.24896   0.25185
 Alpha virt. eigenvalues --    0.25401   0.25588   0.25878   0.25942   0.26149
 Alpha virt. eigenvalues --    0.26409   0.26644   0.26728   0.26747   0.27001
 Alpha virt. eigenvalues --    0.27043   0.27584   0.27707   0.27873   0.27939
 Alpha virt. eigenvalues --    0.28179   0.28457   0.28560   0.28806   0.28919
 Alpha virt. eigenvalues --    0.29292   0.29367   0.29701   0.30074   0.30164
 Alpha virt. eigenvalues --    0.30213   0.30440   0.30661   0.30947   0.31149
 Alpha virt. eigenvalues --    0.31196   0.31429   0.31754   0.31936   0.31992
 Alpha virt. eigenvalues --    0.32357   0.32692   0.32715   0.32802   0.32988
 Alpha virt. eigenvalues --    0.33289   0.33624   0.33808   0.33967   0.34008
 Alpha virt. eigenvalues --    0.34104   0.34520   0.34803   0.34882   0.35156
 Alpha virt. eigenvalues --    0.35529   0.35735   0.35937   0.36373   0.36459
 Alpha virt. eigenvalues --    0.36612   0.37002   0.37092   0.37353   0.37674
 Alpha virt. eigenvalues --    0.37738   0.38085   0.38270   0.38560   0.38835
 Alpha virt. eigenvalues --    0.39107   0.39287   0.39523   0.40005   0.40374
 Alpha virt. eigenvalues --    0.40439   0.40569   0.41167   0.41434   0.41718
 Alpha virt. eigenvalues --    0.42212   0.42255   0.42520   0.43107   0.43455
 Alpha virt. eigenvalues --    0.43649   0.44182   0.44344   0.44710   0.45222
 Alpha virt. eigenvalues --    0.45663   0.45786   0.46036   0.46336   0.46863
 Alpha virt. eigenvalues --    0.47275   0.47605   0.48255   0.48798   0.49045
 Alpha virt. eigenvalues --    0.49248   0.49927   0.50199   0.50810   0.51376
 Alpha virt. eigenvalues --    0.51554   0.52081   0.52698   0.52957   0.53344
 Alpha virt. eigenvalues --    0.53456   0.53795   0.54029   0.54278   0.54725
 Alpha virt. eigenvalues --    0.55282   0.55636   0.56700   0.57088   0.57301
 Alpha virt. eigenvalues --    0.57726   0.58227   0.58340   0.59139   0.59769
 Alpha virt. eigenvalues --    0.59939   0.61233   0.61819   0.61982   0.62192
 Alpha virt. eigenvalues --    0.62597   0.63130   0.63636   0.63854   0.64149
 Alpha virt. eigenvalues --    0.64471   0.65028   0.65301   0.65595   0.66018
 Alpha virt. eigenvalues --    0.66231   0.66897   0.67285   0.67517   0.67683
 Alpha virt. eigenvalues --    0.68235   0.68820   0.69021   0.69483   0.69693
 Alpha virt. eigenvalues --    0.69928   0.70347   0.70631   0.70848   0.71673
 Alpha virt. eigenvalues --    0.72144   0.72641   0.72760   0.73107   0.73498
 Alpha virt. eigenvalues --    0.74042   0.74140   0.74475   0.74682   0.74768
 Alpha virt. eigenvalues --    0.75120   0.76119   0.76359   0.76625   0.76900
 Alpha virt. eigenvalues --    0.77401   0.77826   0.78035   0.78461   0.79077
 Alpha virt. eigenvalues --    0.79391   0.79687   0.80403   0.80478   0.80907
 Alpha virt. eigenvalues --    0.81258   0.81549   0.81700   0.82068   0.82661
 Alpha virt. eigenvalues --    0.82810   0.83131   0.83286   0.83666   0.84143
 Alpha virt. eigenvalues --    0.84256   0.84530   0.85125   0.85329   0.85886
 Alpha virt. eigenvalues --    0.86142   0.86611   0.86803   0.86940   0.87530
 Alpha virt. eigenvalues --    0.88340   0.88540   0.89230   0.90030   0.90262
 Alpha virt. eigenvalues --    0.91300   0.91623   0.92443   0.93093   0.94233
 Alpha virt. eigenvalues --    0.94804   0.95527   0.95857   0.96225   0.96677
 Alpha virt. eigenvalues --    0.97209   0.97707   0.98529   0.99239   0.99324
 Alpha virt. eigenvalues --    0.99902   1.00638   1.00731   1.01242   1.01813
 Alpha virt. eigenvalues --    1.01994   1.02277   1.02677   1.03215   1.04081
 Alpha virt. eigenvalues --    1.04263   1.05012   1.05140   1.05452   1.06179
 Alpha virt. eigenvalues --    1.06362   1.06506   1.07590   1.08116   1.09004
 Alpha virt. eigenvalues --    1.09313   1.09608   1.10016   1.10443   1.10484
 Alpha virt. eigenvalues --    1.11384   1.11652   1.11865   1.12784   1.13245
 Alpha virt. eigenvalues --    1.13498   1.13867   1.14300   1.14771   1.14880
 Alpha virt. eigenvalues --    1.15178   1.15807   1.16183   1.16741   1.17434
 Alpha virt. eigenvalues --    1.17700   1.18160   1.18522   1.19062   1.19560
 Alpha virt. eigenvalues --    1.19667   1.21510   1.21747   1.22461   1.22799
 Alpha virt. eigenvalues --    1.24017   1.24624   1.25481   1.26148   1.26283
 Alpha virt. eigenvalues --    1.26947   1.27212   1.28584   1.29296   1.29987
 Alpha virt. eigenvalues --    1.30492   1.30781   1.31962   1.33286   1.33651
 Alpha virt. eigenvalues --    1.33773   1.34544   1.34922   1.35453   1.35677
 Alpha virt. eigenvalues --    1.36471   1.36848   1.38423   1.38947   1.40106
 Alpha virt. eigenvalues --    1.41250   1.42045   1.42361   1.42928   1.44319
 Alpha virt. eigenvalues --    1.44628   1.45006   1.45415   1.47734   1.48637
 Alpha virt. eigenvalues --    1.49032   1.49746   1.50398   1.51262   1.51595
 Alpha virt. eigenvalues --    1.51765   1.52345   1.52506   1.52752   1.53287
 Alpha virt. eigenvalues --    1.53379   1.53835   1.54052   1.54202   1.54570
 Alpha virt. eigenvalues --    1.54996   1.55355   1.56106   1.57149   1.58331
 Alpha virt. eigenvalues --    1.59243   1.59735   1.59919   1.60127   1.61077
 Alpha virt. eigenvalues --    1.61547   1.62422   1.63139   1.63162   1.63436
 Alpha virt. eigenvalues --    1.64000   1.64175   1.64730   1.65777   1.66029
 Alpha virt. eigenvalues --    1.67275   1.67947   1.68957   1.69636   1.70930
 Alpha virt. eigenvalues --    1.71149   1.71887   1.72479   1.73225   1.73299
 Alpha virt. eigenvalues --    1.73882   1.74374   1.74977   1.76191   1.76625
 Alpha virt. eigenvalues --    1.77140   1.77491   1.77989   1.78389   1.78514
 Alpha virt. eigenvalues --    1.79427   1.79641   1.79876   1.80209   1.80667
 Alpha virt. eigenvalues --    1.82136   1.82573   1.83032   1.83567   1.84539
 Alpha virt. eigenvalues --    1.85769   1.86167   1.86908   1.87358   1.87983
 Alpha virt. eigenvalues --    1.88763   1.89337   1.89815   1.90677   1.91372
 Alpha virt. eigenvalues --    1.92090   1.93528   1.94775   1.94969   1.95273
 Alpha virt. eigenvalues --    1.95671   1.95922   1.96508   1.97031   1.97421
 Alpha virt. eigenvalues --    1.98503   1.99316   1.99774   1.99891   2.00515
 Alpha virt. eigenvalues --    2.00541   2.00998   2.02652   2.03336   2.04535
 Alpha virt. eigenvalues --    2.04987   2.05718   2.05936   2.07020   2.07949
 Alpha virt. eigenvalues --    2.08162   2.09664   2.10074   2.10622   2.11503
 Alpha virt. eigenvalues --    2.11922   2.12258   2.12781   2.13422   2.13901
 Alpha virt. eigenvalues --    2.15555   2.15590   2.15696   2.17077   2.17328
 Alpha virt. eigenvalues --    2.18187   2.18533   2.19235   2.20277   2.20873
 Alpha virt. eigenvalues --    2.21535   2.21971   2.23188   2.23949   2.24401
 Alpha virt. eigenvalues --    2.25100   2.25376   2.26082   2.27507   2.27993
 Alpha virt. eigenvalues --    2.29225   2.29654   2.30205   2.31071   2.31571
 Alpha virt. eigenvalues --    2.32282   2.34684   2.35546   2.37145   2.38013
 Alpha virt. eigenvalues --    2.40938   2.41558   2.42229   2.43949   2.46115
 Alpha virt. eigenvalues --    2.47480   2.48688   2.49328   2.51216   2.53029
 Alpha virt. eigenvalues --    2.53302   2.53574   2.53880   2.55271   2.55783
 Alpha virt. eigenvalues --    2.56635   2.56863   2.58388   2.58665   2.59109
 Alpha virt. eigenvalues --    2.60151   2.61424   2.61581   2.61810   2.62191
 Alpha virt. eigenvalues --    2.62719   2.63119   2.63601   2.65199   2.65715
 Alpha virt. eigenvalues --    2.66207   2.68138   2.68657   2.68933   2.70206
 Alpha virt. eigenvalues --    2.72200   2.73745   2.74379   2.74600   2.76392
 Alpha virt. eigenvalues --    2.76717   2.77704   2.78019   2.78122   2.78847
 Alpha virt. eigenvalues --    2.79464   2.79832   2.80614   2.81018   2.81255
 Alpha virt. eigenvalues --    2.81862   2.82296   2.83734   2.84040   2.85084
 Alpha virt. eigenvalues --    2.86607   2.88009   2.88153   2.88576   2.89899
 Alpha virt. eigenvalues --    2.92066   2.93293   2.93992   2.94279   2.94616
 Alpha virt. eigenvalues --    2.95444   2.95510   2.96388   2.96626   2.97168
 Alpha virt. eigenvalues --    2.97991   2.98557   2.99273   2.99777   3.00173
 Alpha virt. eigenvalues --    3.01492   3.02066   3.02900   3.04073   3.04775
 Alpha virt. eigenvalues --    3.05505   3.06165   3.07781   3.09085   3.10902
 Alpha virt. eigenvalues --    3.12175   3.12818   3.14059   3.15038   3.15178
 Alpha virt. eigenvalues --    3.17125   3.17767   3.18790   3.19119   3.20457
 Alpha virt. eigenvalues --    3.21020   3.23791   3.24150   3.25274   3.26540
 Alpha virt. eigenvalues --    3.27530   3.29423   3.30683   3.32901   3.33337
 Alpha virt. eigenvalues --    3.34157   3.34555   3.34931   3.36201   3.37725
 Alpha virt. eigenvalues --    3.40421   3.40774   3.43094   3.43580   3.44091
 Alpha virt. eigenvalues --    3.44676   3.44961   3.46287   3.46975   3.48824
 Alpha virt. eigenvalues --    3.49697   3.50433   3.52657   3.53909   3.54944
 Alpha virt. eigenvalues --    3.55737   3.57235   3.57505   3.59954   3.60570
 Alpha virt. eigenvalues --    3.61921   3.64573   3.66321   3.68565   3.70536
 Alpha virt. eigenvalues --    3.71314   3.72718   3.75806   3.76543   3.77521
 Alpha virt. eigenvalues --    3.80271   3.82072   3.82585   3.83665   3.87139
 Alpha virt. eigenvalues --    3.87266   3.87395   3.92340   3.93281   3.95214
 Alpha virt. eigenvalues --    3.95896   3.96005   3.99970   4.01891   4.03310
 Alpha virt. eigenvalues --    4.04296   4.06009   4.06766   4.10884   4.13252
 Alpha virt. eigenvalues --    4.14594   4.19024   4.21589   4.22054   4.25333
 Alpha virt. eigenvalues --    4.30365   4.33396   4.35133   4.37315   4.45312
 Alpha virt. eigenvalues --    4.49091   4.50228   4.60715   4.77544   4.95175
 Alpha virt. eigenvalues --    4.97155   4.98478   5.01401   5.13850   5.14541
 Alpha virt. eigenvalues --    5.15214   5.16625   5.16949   5.20618   5.22472
 Alpha virt. eigenvalues --    5.23751   5.36268   5.37940   5.40061   5.42518
 Alpha virt. eigenvalues --    5.54867   5.56051   5.87392   5.89515   5.91313
 Alpha virt. eigenvalues --    5.93140   5.93431   5.96187   8.15176   8.18544
 Alpha virt. eigenvalues --   17.43716  17.48874  17.64758  17.67718  17.73683
 Alpha virt. eigenvalues --   17.78341  23.61872  23.70200  23.86104  23.92393
 Alpha virt. eigenvalues --   23.95855  23.96867  23.98298  24.00206  24.00885
 Alpha virt. eigenvalues --   24.01760  24.02538  24.04405  24.05317  24.07100
 Alpha virt. eigenvalues --   24.08358  24.09650  24.10527  24.15158  24.17142
 Alpha virt. eigenvalues --   24.19831  24.21027  24.21087  24.26893  24.28871
 Alpha virt. eigenvalues --   24.29136  24.30505  35.69876  35.72302  50.11191
 Alpha virt. eigenvalues --   50.12553  50.16455  50.18184  50.20401  50.21711
 Alpha virt. eigenvalues --  189.40663 189.44907
          Condensed to atoms (all electrons):
 Mulliken charges:
               1
     1  C    0.397253
     2  C   -0.037754
     3  C    0.166491
     4  C    0.214558
     5  C    0.320284
     6  C   -0.407687
     7  C    0.162607
     8  C   -0.016279
     9  C    0.276575
    10  C   -0.346807
    11  C    0.327033
    12  C    0.083288
    13  C   -0.519833
    14  C   -0.702515
    15  H    0.187934
    16  H    0.188835
    17  H    0.195784
    18  N   -0.040396
    19  N   -0.093290
    20  O   -0.262920
    21  O   -0.268110
    22  O   -0.274754
    23  O   -0.195954
    24  C   -0.263909
    25  H    0.197365
    26  H    0.198234
    27  H    0.200767
    28  C   -0.279542
    29  H    0.193764
    30  H    0.192974
    31  H    0.200618
    32  C    0.316604
    33  C   -0.604770
    34  S   -0.564395
    35  C   -0.016972
    36  H    0.158012
    37  C    0.519483
    38  O   -0.114312
    39  C    0.912651
    40  C   -0.295758
    41  C    0.047158
    42  S   -0.287793
    43  H    0.182713
    44  H    0.158567
    45  H    0.166876
    46  C   -0.624972
    47  O   -0.119650
    48  C   -0.357566
    49  H    0.155222
    50  C   -0.304655
    51  H    0.185390
    52  H    0.155706
    53  H    0.179288
    54  H    0.158559
 Sum of Mulliken charges =  -0.00000
 Mulliken charges with hydrogens summed into heavy atoms:
               1
     1  C    0.397253
     2  C   -0.037754
     3  C    0.166491
     4  C    0.214558
     5  C    0.320284
     6  C   -0.211903
     7  C    0.162607
     8  C   -0.016279
     9  C    0.276575
    10  C   -0.346807
    11  C    0.327033
    12  C    0.083288
    13  C   -0.330998
    14  C   -0.514580
    18  N   -0.040396
    19  N   -0.093290
    20  O   -0.262920
    21  O   -0.268110
    22  O   -0.274754
    23  O   -0.195954
    24  C    0.332457
    28  C    0.307813
    32  C    0.316604
    33  C   -0.446758
    34  S   -0.564395
    35  C   -0.016972
    37  C    0.519483
    38  O   -0.114312
    39  C    0.912651
    40  C    0.212399
    41  C    0.047158
    42  S   -0.287793
    46  C   -0.469751
    47  O   -0.119650
    48  C   -0.172176
    50  C    0.188897
 Electronic spatial extent (au):  <R**2>=          21907.8387
 Charge=             -0.0000 electrons
 Dipole moment (field-independent basis, Debye):
    X=             -1.9465    Y=             -0.2805    Z=              0.3348  Tot=              1.9949
 Quadrupole moment (field-independent basis, Debye-Ang):
   XX=           -214.8259   YY=           -219.5667   ZZ=           -208.7252
   XY=             -7.7854   XZ=            -10.8210   YZ=             13.7840
 Traceless Quadrupole moment (field-independent basis, Debye-Ang):
   XX=             -0.4533   YY=             -5.1941   ZZ=              5.6474
   XY=             -7.7854   XZ=            -10.8210   YZ=             13.7840
 Octapole moment (field-independent basis, Debye-Ang**2):
  XXX=           -270.6758  YYY=            -28.6046  ZZZ=              1.8994  XYY=            -64.1571
  XXY=              4.3337  XXZ=             47.9018  XZZ=            -42.2788  YZZ=             -2.9513
  YYZ=            -15.0846  XYZ=            -53.2779
 Hexadecapole moment (field-independent basis, Debye-Ang**3):
 XXXX=         -20670.7261 YYYY=          -6661.2933 ZZZZ=          -1760.6323 XXXY=            -64.5844
 XXXZ=           -577.1149 YYYX=           -416.1526 YYYZ=             58.4550 ZZZX=            -34.9781
 ZZZY=            100.1009 XXYY=          -4478.7025 XXZZ=          -3694.3265 YYZZ=          -1234.1168
 XXYZ=            277.9129 YYXZ=             86.3662 ZZXY=            -62.0963
 N-N= 4.115602946602D+03 E-N=-1.377109789432D+04  KE= 2.352007411073D+03
 Unable to Open any file for archive entry.
 1\1\GINC-CX1-103-19-3\FOpt\RwB97XD\6-311+G(d,p)\C26H18N2O6S2\NS5018\30
 -Nov-2020\0\\# opt=modredundant wb97xd/6-311+g(d,p)\\NDI_135.pdb\\0,1\
 C,-2.3915206567,-2.8357965997,-0.6146969547\C,-2.1601137565,-1.4043139
 636,-0.2864404737\C,-3.25226478,-0.5299458972,-0.114209769\C,-4.574538
 7525,-0.9962950857,-0.2538348482\C,-4.8359821721,-2.4209566849,-0.5969
 791013\C,-0.8819283817,-0.9342496022,-0.1733286533\C,-3.0036058003,0.8
 174321021,0.2218575343\C,-1.6703101492,1.2923174698,0.3496514457\C,-0.
 6030781334,0.4256112617,0.1257763673\C,-1.4676689312,2.6638013323,0.90
 41554329\C,-3.9146581345,3.0869014735,0.8181680564\C,-4.1127812979,1.6
 69860636,0.4212611126\C,-5.3979159334,1.1999024132,0.2710372497\C,-5.6
 345726163,-0.1394281028,-0.0703598079\H,-6.6432784883,-0.5163834716,-0
 .1851051552\H,-6.2206732262,1.8865730718,0.4280976416\H,-0.0573195166,
 -1.6136966947,-0.3515511299\N,-2.6010654091,3.4731609153,1.0585399311\
 N,-3.717136982,-3.2458529335,-0.7494419673\O,-1.4856499291,-3.62378894
 02,-0.7663533416\O,-5.958720278,-2.8495721403,-0.7343723372\O,-4.84224
 82333,3.8548353265,0.9473211219\O,-0.387457303,3.105673105,1.214646191
 4\C,-2.350358669,4.8295104837,1.5449123482\H,-1.8668430023,4.788036678
 1,2.520852487\H,-1.6881169272,5.3516830339,0.8541273076\H,-3.305374019
 5,5.3414398986,1.6140310325\C,-3.9256721717,-4.6547712927,-1.081348423
 \H,-3.4214099144,-4.8898954599,-2.0186357529\H,-3.508833316,-5.2844358
 06,-0.2950012217\H,-4.9944173629,-4.8232025175,-1.1731233301\C,0.81899
 33584,0.800580203,0.0768205745\C,1.8428275785,0.1276521582,0.686431854
 1\S,1.4096880106,2.003035077,-1.0088389235\C,3.1147755564,0.6237761089
 ,0.3104380111\H,1.6801573059,-0.6745655487,1.3930835233\C,3.0641267279
 ,1.6402553771,-0.6206356267\O,4.3119075369,0.1975338396,0.7777799749\C
 ,4.1796460432,2.3377363421,-1.2232228911\C,4.3164070454,-0.931813073,1
 .6253240426\C,4.1259160999,3.3445313104,-2.1632884069\S,5.8407754365,1
 .9900503403,-0.8297240867\H,5.3613486055,-1.1383511159,1.8496929005\H,
 3.7803783447,-0.7285727124,2.559024081\H,3.8728668809,-1.8017005345,1.
 1283122944\C,5.4010761362,3.8327390575,-2.5611285939\O,2.925581175,3.7
 73055324,-2.6191141651\C,6.4109401913,3.1854516315,-1.9162562424\H,5.5
 619569507,4.6187393119,-3.2848205568\C,2.9188960077,4.8309362255,-3.55
 42428989\H,7.4719681232,3.3515980474,-2.0248865884\H,3.4396961425,4.54
 83693624,-4.4756932316\H,1.8725075145,5.0296932198,-3.7791337507\H,3.3
 770774723,5.7331160387,-3.1345742869\\Version=ES64L-G16RevC.01\State=1
 -A\HF=-2358.7729587\RMSD=2.869e-09\RMSF=7.973e-04\Dipole=0.7270694,0.1
 866395,-0.2292268\Quadrupole=-5.6089633,1.709661,3.8993023,3.7231151,-
 2.1886431,-13.2714591\PG=C01 [X(C26H18N2O6S2)]\\@
 The archive entry for this job was punched.


 HOW IS IT THAT THE SKY FEEDS THE STARS?

                           -- LUCRETIUS
 Job cpu time:       4 days  7 hours  9 minutes 56.7 seconds.
 Elapsed time:       0 days 12 hours 58 minutes 44.1 seconds.
 File lengths (MBytes):  RWF=    496 Int=      0 D2E=      0 Chk=     61 Scr=      1
 Normal termination of Gaussian 16 at Mon Nov 30 06:26:03 2020.
