 Entering Gaussian System, Link 0=g16
 Input=NDI_-15.gjf
 Output=NDI_-15.log
 Initial command:
 /apps/gaussian/g16-c01-avx/g16/l1.exe "/tmp/pbs.2626208[33].pbs/Gau-786764.inp" -scrdir="/tmp/pbs.2626208[33].pbs/"
 Entering Link 1 = /apps/gaussian/g16-c01-avx/g16/l1.exe PID=    786765.
  
 Copyright (c) 1988-2019, Gaussian, Inc.  All Rights Reserved.
  
 This is part of the Gaussian(R) 16 program.  It is based on
 the Gaussian(R) 09 system (copyright 2009, Gaussian, Inc.),
 the Gaussian(R) 03 system (copyright 2003, Gaussian, Inc.),
 the Gaussian(R) 98 system (copyright 1998, Gaussian, Inc.),
 the Gaussian(R) 94 system (copyright 1995, Gaussian, Inc.),
 the Gaussian 92(TM) system (copyright 1992, Gaussian, Inc.),
 the Gaussian 90(TM) system (copyright 1990, Gaussian, Inc.),
 the Gaussian 88(TM) system (copyright 1988, Gaussian, Inc.),
 the Gaussian 86(TM) system (copyright 1986, Carnegie Mellon
 University), and the Gaussian 82(TM) system (copyright 1983,
 Carnegie Mellon University). Gaussian is a federally registered
 trademark of Gaussian, Inc.
  
 This software contains proprietary and confidential information,
 including trade secrets, belonging to Gaussian, Inc.
  
 This software is provided under written license and may be
 used, copied, transmitted, or stored only in accord with that
 written license.
  
 The following legend is applicable only to US Government
 contracts under FAR:
  
                    RESTRICTED RIGHTS LEGEND
  
 Use, reproduction and disclosure by the US Government is
 subject to restrictions as set forth in subparagraphs (a)
 and (c) of the Commercial Computer Software - Restricted
 Rights clause in FAR 52.227-19.
  
 Gaussian, Inc.
 340 Quinnipiac St., Bldg. 40, Wallingford CT 06492
  
  
 ---------------------------------------------------------------
 Warning -- This program may not be used in any manner that
 competes with the business of Gaussian, Inc. or will provide
 assistance to any competitor of Gaussian, Inc.  The licensee
 of this program is prohibited from giving any competitor of
 Gaussian, Inc. access to this program.  By using this program,
 the user acknowledges that Gaussian, Inc. is engaged in the
 business of creating and licensing software in the field of
 computational chemistry and represents and warrants to the
 licensee that it is not a competitor of Gaussian, Inc. and that
 it will not use this program in any manner prohibited above.
 ---------------------------------------------------------------
  

 Cite this work as:
 Gaussian 16, Revision C.01,
 M. J. Frisch, G. W. Trucks, H. B. Schlegel, G. E. Scuseria, 
 M. A. Robb, J. R. Cheeseman, G. Scalmani, V. Barone, 
 G. A. Petersson, H. Nakatsuji, X. Li, M. Caricato, A. V. Marenich, 
 J. Bloino, B. G. Janesko, R. Gomperts, B. Mennucci, H. P. Hratchian, 
 J. V. Ortiz, A. F. Izmaylov, J. L. Sonnenberg, D. Williams-Young, 
 F. Ding, F. Lipparini, F. Egidi, J. Goings, B. Peng, A. Petrone, 
 T. Henderson, D. Ranasinghe, V. G. Zakrzewski, J. Gao, N. Rega, 
 G. Zheng, W. Liang, M. Hada, M. Ehara, K. Toyota, R. Fukuda, 
 J. Hasegawa, M. Ishida, T. Nakajima, Y. Honda, O. Kitao, H. Nakai, 
 T. Vreven, K. Throssell, J. A. Montgomery, Jr., J. E. Peralta, 
 F. Ogliaro, M. J. Bearpark, J. J. Heyd, E. N. Brothers, K. N. Kudin, 
 V. N. Staroverov, T. A. Keith, R. Kobayashi, J. Normand, 
 K. Raghavachari, A. P. Rendell, J. C. Burant, S. S. Iyengar, 
 J. Tomasi, M. Cossi, J. M. Millam, M. Klene, C. Adamo, R. Cammi, 
 J. W. Ochterski, R. L. Martin, K. Morokuma, O. Farkas, 
 J. B. Foresman, and D. J. Fox, Gaussian, Inc., Wallingford CT, 2019.
 
 ******************************************
 Gaussian 16:  ES64L-G16RevC.01  3-Jul-2019
                29-Nov-2020 
 ******************************************
 %mem=10GB
 %nprocshared=8
 Will use up to    8 processors via shared memory.
 --------------------------------------
 # opt=modredundant wb97xd/6-311+g(d,p)
 --------------------------------------
 1/18=120,19=15,26=3,38=1/1,3;
 2/9=110,12=2,17=6,18=5,40=1/2;
 3/5=4,6=6,7=111,11=2,25=1,30=1,71=1,74=-58/1,2,3;
 4//1;
 5/5=2,38=5/2;
 6/7=2,8=2,9=2,10=2,28=1/1;
 7//1,2,3,16;
 1/18=20,19=15,26=3/3(2);
 2/9=110/2;
 99//99;
 2/9=110/2;
 3/5=4,6=6,7=111,11=2,25=1,30=1,71=1,74=-58/1,2,3;
 4/5=5,16=3,69=1/1;
 5/5=2,38=5/2;
 7//1,2,3,16;
 1/18=20,19=15,26=3/3(-5);
 2/9=110/2;
 6/7=2,8=2,9=2,10=2,19=2,28=1/1;
 99/9=1/99;
 -----------
 NDI_-15.pdb
 -----------
 Symbolic Z-matrix:
 Charge =  0 Multiplicity = 1
 C                    -2.563    -2.994    -0.409 
 C                    -2.257    -1.551    -0.224 
 C                    -3.301    -0.607    -0.083 
 C                    -4.65     -1.024    -0.115 
 C                    -4.992    -2.459    -0.304 
 C                    -0.949    -1.137    -0.215 
 C                    -2.962     0.764     0.102 
 C                    -1.595     1.188     0.123 
 C                    -0.561     0.232    -0.072 
 C                    -1.328     2.616     0.446 
 C                    -3.777     3.115     0.508 
 C                    -4.035     1.679     0.268 
 C                    -5.356     1.252     0.23 
 C                    -5.672    -0.098     0.036 
 H                    -6.699    -0.442     0.008 
 H                    -6.133     1.997     0.361 
 H                    -0.19     -1.895    -0.369 
 N                    -2.432     3.476     0.608 
 N                    -3.916    -3.353    -0.438 
 O                    -1.695    -3.847    -0.532 
 O                    -6.149    -2.85     -0.34 
 O                    -4.676     3.938     0.629 
 O                    -0.212     3.097     0.596 
 C                    -2.111     4.875     0.912 
 H                    -1.54      4.931     1.84 
 H                    -1.5       5.299     0.111 
 H                    -3.05      5.414     1.003 
 C                    -4.206    -4.779    -0.625 
 H                    -3.759    -5.126    -1.559 
 H                    -3.775    -5.355     0.196 
 H                    -5.286    -4.897    -0.649 
 C                     0.876     0.482    -0.178 
 C                     1.576     1.653    -0.393 
 S                     1.979    -0.894    -0.191 
 C                     2.962     1.458    -0.559 
 H                     1.102     2.621    -0.42 
 C                     3.373     0.125    -0.47 
 O                     3.893     2.422    -0.788 
 C                     4.711    -0.389    -0.552 
 C                     3.462     3.779    -0.731 
 C                     5.117    -1.72     -0.486 
 S                     6.125     0.642    -0.76 
 H                     4.359     4.385    -0.859 
 H                     2.753     4.005    -1.537 
 H                     2.997     4.007     0.236 
 C                     6.523    -1.908    -0.599 
 O                     4.181    -2.692    -0.322 
 C                     7.186    -0.72     -0.751 
 H                     7.017    -2.869    -0.57 
 C                     4.622    -4.045    -0.294 
 H                     8.252    -0.571    -0.861 
 H                     5.3      -4.225     0.549 
 H                     3.725    -4.651    -0.172 
 H                     5.123    -4.32     -1.23 
 
 The following ModRedundant input section has been read:
 D       8       9      32      33 F                                           
 D      33      35      38      40 F                                           
 D      46      41      47      50 F                                           
 D      10      18      24      25 F                                           
 D       1      19      28      30 F                                           
 D       9       8      10      23 F                                           
 D      20       1       2       6 F                                           
 

 GradGradGradGradGradGradGradGradGradGradGradGradGradGradGradGradGradGrad
 Berny optimization.
 Initialization pass.
                           ----------------------------
                           !    Initial Parameters    !
                           ! (Angstroms and Degrees)  !
 --------------------------                            --------------------------
 ! Name  Definition              Value          Derivative Info.                !
 --------------------------------------------------------------------------------
 ! R1    R(1,2)                  1.4866         estimate D2E/DX2                !
 ! R2    R(1,19)                 1.4001         estimate D2E/DX2                !
 ! R3    R(1,20)                 1.2232         estimate D2E/DX2                !
 ! R4    R(2,3)                  1.4146         estimate D2E/DX2                !
 ! R5    R(2,6)                  1.372          estimate D2E/DX2                !
 ! R6    R(3,4)                  1.4123         estimate D2E/DX2                !
 ! R7    R(3,7)                  1.4244         estimate D2E/DX2                !
 ! R8    R(4,5)                  1.4872         estimate D2E/DX2                !
 ! R9    R(4,14)                 1.3874         estimate D2E/DX2                !
 ! R10   R(5,19)                 1.4053         estimate D2E/DX2                !
 ! R11   R(5,21)                 1.2218         estimate D2E/DX2                !
 ! R12   R(6,9)                  1.4301         estimate D2E/DX2                !
 ! R13   R(6,17)                 1.0837         estimate D2E/DX2                !
 ! R14   R(7,8)                  1.4314         estimate D2E/DX2                !
 ! R15   R(7,12)                 1.4199         estimate D2E/DX2                !
 ! R16   R(8,9)                  1.4217         estimate D2E/DX2                !
 ! R17   R(8,10)                 1.4882         estimate D2E/DX2                !
 ! R18   R(9,32)                 1.4624         estimate D2E/DX2                !
 ! R19   R(10,18)                1.4088         estimate D2E/DX2                !
 ! R20   R(10,23)                1.2245         estimate D2E/DX2                !
 ! R21   R(11,12)                1.4786         estimate D2E/DX2                !
 ! R22   R(11,18)                1.3962         estimate D2E/DX2                !
 ! R23   R(11,22)                1.2248         estimate D2E/DX2                !
 ! R24   R(12,13)                1.3888         estimate D2E/DX2                !
 ! R25   R(13,14)                1.4            estimate D2E/DX2                !
 ! R26   R(13,16)                1.0844         estimate D2E/DX2                !
 ! R27   R(14,15)                1.0834         estimate D2E/DX2                !
 ! R28   R(18,24)                1.4672         estimate D2E/DX2                !
 ! R29   R(19,28)                1.4672         estimate D2E/DX2                !
 ! R30   R(24,25)                1.091          estimate D2E/DX2                !
 ! R31   R(24,26)                1.093          estimate D2E/DX2                !
 ! R32   R(24,27)                1.0865         estimate D2E/DX2                !
 ! R33   R(28,29)                1.0921         estimate D2E/DX2                !
 ! R34   R(28,30)                1.0916         estimate D2E/DX2                !
 ! R35   R(28,31)                1.0867         estimate D2E/DX2                !
 ! R36   R(32,33)                1.3811         estimate D2E/DX2                !
 ! R37   R(32,34)                1.7636         estimate D2E/DX2                !
 ! R38   R(33,35)                1.4095         estimate D2E/DX2                !
 ! R39   R(33,36)                1.0782         estimate D2E/DX2                !
 ! R40   R(34,37)                1.7491         estimate D2E/DX2                !
 ! R41   R(35,37)                1.3978         estimate D2E/DX2                !
 ! R42   R(35,38)                1.3596         estimate D2E/DX2                !
 ! R43   R(37,39)                1.4357         estimate D2E/DX2                !
 ! R44   R(38,40)                1.4249         estimate D2E/DX2                !
 ! R45   R(39,41)                1.3931         estimate D2E/DX2                !
 ! R46   R(39,42)                1.7623         estimate D2E/DX2                !
 ! R47   R(40,43)                1.0901         estimate D2E/DX2                !
 ! R48   R(40,44)                1.097          estimate D2E/DX2                !
 ! R49   R(40,45)                1.0969         estimate D2E/DX2                !
 ! R50   R(41,46)                1.423          estimate D2E/DX2                !
 ! R51   R(41,47)                1.3593         estimate D2E/DX2                !
 ! R52   R(42,48)                1.7265         estimate D2E/DX2                !
 ! R53   R(46,48)                1.3689         estimate D2E/DX2                !
 ! R54   R(46,49)                1.0809         estimate D2E/DX2                !
 ! R55   R(47,50)                1.4233         estimate D2E/DX2                !
 ! R56   R(48,51)                1.082          estimate D2E/DX2                !
 ! R57   R(50,52)                1.0967         estimate D2E/DX2                !
 ! R58   R(50,53)                1.0894         estimate D2E/DX2                !
 ! R59   R(50,54)                1.0967         estimate D2E/DX2                !
 ! A1    A(2,1,19)             116.767          estimate D2E/DX2                !
 ! A2    A(2,1,20)             122.9113         estimate D2E/DX2                !
 ! A3    A(19,1,20)            120.3217         estimate D2E/DX2                !
 ! A4    A(1,2,3)              120.5473         estimate D2E/DX2                !
 ! A5    A(1,2,6)              119.3369         estimate D2E/DX2                !
 ! A6    A(3,2,6)              120.1056         estimate D2E/DX2                !
 ! A7    A(2,3,4)              120.3743         estimate D2E/DX2                !
 ! A8    A(2,3,7)              118.662          estimate D2E/DX2                !
 ! A9    A(4,3,7)              120.9617         estimate D2E/DX2                !
 ! A10   A(3,4,5)              120.4909         estimate D2E/DX2                !
 ! A11   A(3,4,14)             120.2702         estimate D2E/DX2                !
 ! A12   A(5,4,14)             119.2382         estimate D2E/DX2                !
 ! A13   A(4,5,19)             116.7341         estimate D2E/DX2                !
 ! A14   A(4,5,21)             122.024          estimate D2E/DX2                !
 ! A15   A(19,5,21)            121.2418         estimate D2E/DX2                !
 ! A16   A(2,6,9)              123.2421         estimate D2E/DX2                !
 ! A17   A(2,6,17)             117.1119         estimate D2E/DX2                !
 ! A18   A(9,6,17)             119.589          estimate D2E/DX2                !
 ! A19   A(3,7,8)              120.9519         estimate D2E/DX2                !
 ! A20   A(3,7,12)             117.1037         estimate D2E/DX2                !
 ! A21   A(8,7,12)             121.944          estimate D2E/DX2                !
 ! A22   A(7,8,9)              119.5639         estimate D2E/DX2                !
 ! A23   A(7,8,10)             117.3064         estimate D2E/DX2                !
 ! A24   A(9,8,10)             122.9922         estimate D2E/DX2                !
 ! A25   A(6,9,8)              117.3944         estimate D2E/DX2                !
 ! A26   A(6,9,32)             115.0236         estimate D2E/DX2                !
 ! A27   A(8,9,32)             127.5648         estimate D2E/DX2                !
 ! A28   A(8,10,18)            118.042          estimate D2E/DX2                !
 ! A29   A(8,10,23)            124.5436         estimate D2E/DX2                !
 ! A30   A(18,10,23)           117.4097         estimate D2E/DX2                !
 ! A31   A(12,11,18)           115.5202         estimate D2E/DX2                !
 ! A32   A(12,11,22)           122.7205         estimate D2E/DX2                !
 ! A33   A(18,11,22)           121.7534         estimate D2E/DX2                !
 ! A34   A(7,12,11)            120.8614         estimate D2E/DX2                !
 ! A35   A(7,12,13)            121.162          estimate D2E/DX2                !
 ! A36   A(11,12,13)           117.9699         estimate D2E/DX2                !
 ! A37   A(12,13,14)           120.9948         estimate D2E/DX2                !
 ! A38   A(12,13,16)           117.8401         estimate D2E/DX2                !
 ! A39   A(14,13,16)           121.1642         estimate D2E/DX2                !
 ! A40   A(4,14,13)            119.5003         estimate D2E/DX2                !
 ! A41   A(4,14,15)            118.9169         estimate D2E/DX2                !
 ! A42   A(13,14,15)           121.5811         estimate D2E/DX2                !
 ! A43   A(10,18,11)           126.0753         estimate D2E/DX2                !
 ! A44   A(10,18,24)           115.7508         estimate D2E/DX2                !
 ! A45   A(11,18,24)           118.1737         estimate D2E/DX2                !
 ! A46   A(1,19,5)             125.0856         estimate D2E/DX2                !
 ! A47   A(1,19,28)            116.2868         estimate D2E/DX2                !
 ! A48   A(5,19,28)            118.6276         estimate D2E/DX2                !
 ! A49   A(18,24,25)           109.8574         estimate D2E/DX2                !
 ! A50   A(18,24,26)           109.8979         estimate D2E/DX2                !
 ! A51   A(18,24,27)           107.5355         estimate D2E/DX2                !
 ! A52   A(25,24,26)           108.1108         estimate D2E/DX2                !
 ! A53   A(25,24,27)           110.8301         estimate D2E/DX2                !
 ! A54   A(26,24,27)           110.6124         estimate D2E/DX2                !
 ! A55   A(19,28,29)           109.6906         estimate D2E/DX2                !
 ! A56   A(19,28,30)           109.8136         estimate D2E/DX2                !
 ! A57   A(19,28,31)           107.7461         estimate D2E/DX2                !
 ! A58   A(29,28,30)           108.2991         estimate D2E/DX2                !
 ! A59   A(29,28,31)           110.6959         estimate D2E/DX2                !
 ! A60   A(30,28,31)           110.5924         estimate D2E/DX2                !
 ! A61   A(9,32,33)            130.8628         estimate D2E/DX2                !
 ! A62   A(9,32,34)            118.7975         estimate D2E/DX2                !
 ! A63   A(33,32,34)           110.0839         estimate D2E/DX2                !
 ! A64   A(32,33,35)           113.5428         estimate D2E/DX2                !
 ! A65   A(32,33,36)           122.8411         estimate D2E/DX2                !
 ! A66   A(35,33,36)           123.6134         estimate D2E/DX2                !
 ! A67   A(32,34,37)            92.5839         estimate D2E/DX2                !
 ! A68   A(33,35,37)           114.4305         estimate D2E/DX2                !
 ! A69   A(33,35,38)           126.5203         estimate D2E/DX2                !
 ! A70   A(37,35,38)           119.0492         estimate D2E/DX2                !
 ! A71   A(34,37,35)           109.3537         estimate D2E/DX2                !
 ! A72   A(34,37,39)           122.9075         estimate D2E/DX2                !
 ! A73   A(35,37,39)           127.7221         estimate D2E/DX2                !
 ! A74   A(35,38,40)           117.4756         estimate D2E/DX2                !
 ! A75   A(37,39,41)           127.6589         estimate D2E/DX2                !
 ! A76   A(37,39,42)           123.0293         estimate D2E/DX2                !
 ! A77   A(41,39,42)           109.3118         estimate D2E/DX2                !
 ! A78   A(38,40,43)           106.0115         estimate D2E/DX2                !
 ! A79   A(38,40,44)           111.2411         estimate D2E/DX2                !
 ! A80   A(38,40,45)           111.1874         estimate D2E/DX2                !
 ! A81   A(43,40,44)           109.3317         estimate D2E/DX2                !
 ! A82   A(43,40,45)           109.6814         estimate D2E/DX2                !
 ! A83   A(44,40,45)           109.3235         estimate D2E/DX2                !
 ! A84   A(39,41,46)           114.2308         estimate D2E/DX2                !
 ! A85   A(39,41,47)           119.2237         estimate D2E/DX2                !
 ! A86   A(46,41,47)           126.5452         estimate D2E/DX2                !
 ! A87   A(39,42,48)            91.7734         estimate D2E/DX2                !
 ! A88   A(41,46,48)           111.8817         estimate D2E/DX2                !
 ! A89   A(41,46,49)           124.533          estimate D2E/DX2                !
 ! A90   A(48,46,49)           123.5853         estimate D2E/DX2                !
 ! A91   A(41,47,50)           117.9534         estimate D2E/DX2                !
 ! A92   A(42,48,46)           112.8023         estimate D2E/DX2                !
 ! A93   A(42,48,51)           119.7553         estimate D2E/DX2                !
 ! A94   A(46,48,51)           127.4424         estimate D2E/DX2                !
 ! A95   A(47,50,52)           111.2654         estimate D2E/DX2                !
 ! A96   A(47,50,53)           106.0143         estimate D2E/DX2                !
 ! A97   A(47,50,54)           111.2918         estimate D2E/DX2                !
 ! A98   A(52,50,53)           109.3698         estimate D2E/DX2                !
 ! A99   A(52,50,54)           109.4187         estimate D2E/DX2                !
 ! A100  A(53,50,54)           109.4054         estimate D2E/DX2                !
 ! D1    D(19,1,2,3)             0.1578         estimate D2E/DX2                !
 ! D2    D(19,1,2,6)          -178.6792         estimate D2E/DX2                !
 ! D3    D(20,1,2,3)          -179.8231         estimate D2E/DX2                !
 ! D4    D(20,1,2,6)             1.3399         Frozen                          !
 ! D5    D(2,1,19,5)            -0.124          estimate D2E/DX2                !
 ! D6    D(2,1,19,28)          179.8267         estimate D2E/DX2                !
 ! D7    D(20,1,19,5)          179.8575         estimate D2E/DX2                !
 ! D8    D(20,1,19,28)          -0.1919         estimate D2E/DX2                !
 ! D9    D(1,2,3,4)              0.0571         estimate D2E/DX2                !
 ! D10   D(1,2,3,7)            179.5453         estimate D2E/DX2                !
 ! D11   D(6,2,3,4)            178.8851         estimate D2E/DX2                !
 ! D12   D(6,2,3,7)             -1.6266         estimate D2E/DX2                !
 ! D13   D(1,2,6,9)            178.625          estimate D2E/DX2                !
 ! D14   D(1,2,6,17)             1.3881         estimate D2E/DX2                !
 ! D15   D(3,2,6,9)             -0.2173         estimate D2E/DX2                !
 ! D16   D(3,2,6,17)          -177.4541         estimate D2E/DX2                !
 ! D17   D(2,3,4,5)             -0.3074         estimate D2E/DX2                !
 ! D18   D(2,3,4,14)           179.3968         estimate D2E/DX2                !
 ! D19   D(7,3,4,5)           -179.7837         estimate D2E/DX2                !
 ! D20   D(7,3,4,14)            -0.0795         estimate D2E/DX2                !
 ! D21   D(2,3,7,8)              1.0523         estimate D2E/DX2                !
 ! D22   D(2,3,7,12)          -178.712          estimate D2E/DX2                !
 ! D23   D(4,3,7,8)           -179.4626         estimate D2E/DX2                !
 ! D24   D(4,3,7,12)             0.7731         estimate D2E/DX2                !
 ! D25   D(3,4,5,19)             0.3343         estimate D2E/DX2                !
 ! D26   D(3,4,5,21)          -179.7799         estimate D2E/DX2                !
 ! D27   D(14,4,5,19)         -179.3729         estimate D2E/DX2                !
 ! D28   D(14,4,5,21)            0.5129         estimate D2E/DX2                !
 ! D29   D(3,4,14,13)           -0.4559         estimate D2E/DX2                !
 ! D30   D(3,4,14,15)         -179.9937         estimate D2E/DX2                !
 ! D31   D(5,4,14,13)          179.252          estimate D2E/DX2                !
 ! D32   D(5,4,14,15)           -0.2858         estimate D2E/DX2                !
 ! D33   D(4,5,19,1)            -0.1141         estimate D2E/DX2                !
 ! D34   D(4,5,19,28)          179.9364         estimate D2E/DX2                !
 ! D35   D(21,5,19,1)          179.9992         estimate D2E/DX2                !
 ! D36   D(21,5,19,28)           0.0496         estimate D2E/DX2                !
 ! D37   D(2,6,9,8)              2.5984         estimate D2E/DX2                !
 ! D38   D(2,6,9,32)          -176.0103         estimate D2E/DX2                !
 ! D39   D(17,6,9,8)           179.77           estimate D2E/DX2                !
 ! D40   D(17,6,9,32)            1.1613         estimate D2E/DX2                !
 ! D41   D(3,7,8,9)              1.3551         estimate D2E/DX2                !
 ! D42   D(3,7,8,10)          -174.5099         estimate D2E/DX2                !
 ! D43   D(12,7,8,9)          -178.8921         estimate D2E/DX2                !
 ! D44   D(12,7,8,10)            5.2428         estimate D2E/DX2                !
 ! D45   D(3,7,12,11)          178.0768         estimate D2E/DX2                !
 ! D46   D(3,7,12,13)           -0.9621         estimate D2E/DX2                !
 ! D47   D(8,7,12,11)           -1.685          estimate D2E/DX2                !
 ! D48   D(8,7,12,13)          179.2761         estimate D2E/DX2                !
 ! D49   D(7,8,9,6)             -3.0809         estimate D2E/DX2                !
 ! D50   D(7,8,9,32)           175.3285         estimate D2E/DX2                !
 ! D51   D(10,8,9,6)           172.5381         estimate D2E/DX2                !
 ! D52   D(10,8,9,32)           -9.0525         estimate D2E/DX2                !
 ! D53   D(7,8,10,18)           -4.7549         estimate D2E/DX2                !
 ! D54   D(7,8,10,23)          174.4235         estimate D2E/DX2                !
 ! D55   D(9,8,10,18)          179.5335         estimate D2E/DX2                !
 ! D56   D(9,8,10,23)           -1.2882         Frozen                          !
 ! D57   D(6,9,32,33)          163.4366         estimate D2E/DX2                !
 ! D58   D(6,9,32,34)          -10.1182         estimate D2E/DX2                !
 ! D59   D(8,9,32,33)          -15.005          Frozen                          !
 ! D60   D(8,9,32,34)          171.4403         estimate D2E/DX2                !
 ! D61   D(8,10,18,11)           0.7189         estimate D2E/DX2                !
 ! D62   D(8,10,18,24)        -179.4089         estimate D2E/DX2                !
 ! D63   D(23,10,18,11)       -178.5188         estimate D2E/DX2                !
 ! D64   D(23,10,18,24)          1.3535         estimate D2E/DX2                !
 ! D65   D(18,11,12,7)          -2.3856         estimate D2E/DX2                !
 ! D66   D(18,11,12,13)        176.6833         estimate D2E/DX2                !
 ! D67   D(22,11,12,7)         178.4862         estimate D2E/DX2                !
 ! D68   D(22,11,12,13)         -2.445          estimate D2E/DX2                !
 ! D69   D(12,11,18,10)          2.8444         estimate D2E/DX2                !
 ! D70   D(12,11,18,24)       -177.0251         estimate D2E/DX2                !
 ! D71   D(22,11,18,10)       -178.0181         estimate D2E/DX2                !
 ! D72   D(22,11,18,24)          2.1124         estimate D2E/DX2                !
 ! D73   D(7,12,13,14)           0.461          estimate D2E/DX2                !
 ! D74   D(7,12,13,16)        -179.8781         estimate D2E/DX2                !
 ! D75   D(11,12,13,14)       -178.6049         estimate D2E/DX2                !
 ! D76   D(11,12,13,16)          1.056          estimate D2E/DX2                !
 ! D77   D(12,13,14,4)           0.2708         estimate D2E/DX2                !
 ! D78   D(12,13,14,15)        179.7958         estimate D2E/DX2                !
 ! D79   D(16,13,14,4)        -179.3788         estimate D2E/DX2                !
 ! D80   D(16,13,14,15)          0.1463         estimate D2E/DX2                !
 ! D81   D(10,18,24,25)        -59.609          Frozen                          !
 ! D82   D(10,18,24,26)         59.2209         estimate D2E/DX2                !
 ! D83   D(10,18,24,27)        179.6858         estimate D2E/DX2                !
 ! D84   D(11,18,24,25)        120.2739         estimate D2E/DX2                !
 ! D85   D(11,18,24,26)       -120.8962         estimate D2E/DX2                !
 ! D86   D(11,18,24,27)         -0.4313         estimate D2E/DX2                !
 ! D87   D(1,19,28,29)         -58.1407         estimate D2E/DX2                !
 ! D88   D(1,19,28,30)          60.7668         Frozen                          !
 ! D89   D(1,19,28,31)        -178.7139         estimate D2E/DX2                !
 ! D90   D(5,19,28,29)         121.8132         estimate D2E/DX2                !
 ! D91   D(5,19,28,30)        -119.2792         estimate D2E/DX2                !
 ! D92   D(5,19,28,31)           1.2401         estimate D2E/DX2                !
 ! D93   D(9,32,33,35)        -174.2275         estimate D2E/DX2                !
 ! D94   D(9,32,33,36)           6.3557         estimate D2E/DX2                !
 ! D95   D(34,32,33,35)         -0.2397         estimate D2E/DX2                !
 ! D96   D(34,32,33,36)       -179.6565         estimate D2E/DX2                !
 ! D97   D(9,32,34,37)         175.3429         estimate D2E/DX2                !
 ! D98   D(33,32,34,37)          0.529          estimate D2E/DX2                !
 ! D99   D(32,33,35,37)         -0.2874         estimate D2E/DX2                !
 ! D100  D(32,33,35,38)        179.7745         estimate D2E/DX2                !
 ! D101  D(36,33,35,37)        179.1242         estimate D2E/DX2                !
 ! D102  D(36,33,35,38)         -0.8139         estimate D2E/DX2                !
 ! D103  D(32,34,37,35)         -0.6756         estimate D2E/DX2                !
 ! D104  D(32,34,37,39)        177.9468         estimate D2E/DX2                !
 ! D105  D(33,35,37,34)          0.6731         estimate D2E/DX2                !
 ! D106  D(33,35,37,39)       -177.8647         estimate D2E/DX2                !
 ! D107  D(38,35,37,34)       -179.3838         estimate D2E/DX2                !
 ! D108  D(38,35,37,39)          2.0783         estimate D2E/DX2                !
 ! D109  D(33,35,38,40)          6.4667         Frozen                          !
 ! D110  D(37,35,38,40)       -173.4688         estimate D2E/DX2                !
 ! D111  D(34,37,39,41)          2.8423         estimate D2E/DX2                !
 ! D112  D(34,37,39,42)       -177.1418         estimate D2E/DX2                !
 ! D113  D(35,37,39,41)       -178.8009         estimate D2E/DX2                !
 ! D114  D(35,37,39,42)          1.2149         estimate D2E/DX2                !
 ! D115  D(35,38,40,43)        175.5161         estimate D2E/DX2                !
 ! D116  D(35,38,40,44)        -65.7304         estimate D2E/DX2                !
 ! D117  D(35,38,40,45)         56.3715         estimate D2E/DX2                !
 ! D118  D(37,39,41,46)       -179.9824         estimate D2E/DX2                !
 ! D119  D(37,39,41,47)         -0.1749         estimate D2E/DX2                !
 ! D120  D(42,39,41,46)          0.0035         estimate D2E/DX2                !
 ! D121  D(42,39,41,47)        179.811          estimate D2E/DX2                !
 ! D122  D(37,39,42,48)        179.985          estimate D2E/DX2                !
 ! D123  D(41,39,42,48)         -0.0017         estimate D2E/DX2                !
 ! D124  D(39,41,46,48)         -0.004          estimate D2E/DX2                !
 ! D125  D(39,41,46,49)       -179.9722         estimate D2E/DX2                !
 ! D126  D(47,41,46,48)       -179.7948         estimate D2E/DX2                !
 ! D127  D(47,41,46,49)          0.237          estimate D2E/DX2                !
 ! D128  D(39,41,47,50)        178.3517         estimate D2E/DX2                !
 ! D129  D(46,41,47,50)         -1.8668         Frozen                          !
 ! D130  D(39,42,48,46)         -0.0005         estimate D2E/DX2                !
 ! D131  D(39,42,48,51)        179.8938         estimate D2E/DX2                !
 ! D132  D(41,46,48,42)          0.0026         estimate D2E/DX2                !
 ! D133  D(41,46,48,51)       -179.8819         estimate D2E/DX2                !
 ! D134  D(49,46,48,42)        179.9711         estimate D2E/DX2                !
 ! D135  D(49,46,48,51)          0.0867         estimate D2E/DX2                !
 ! D136  D(41,47,50,52)         62.0677         estimate D2E/DX2                !
 ! D137  D(41,47,50,53)       -179.1183         estimate D2E/DX2                !
 ! D138  D(41,47,50,54)        -60.2471         estimate D2E/DX2                !
 --------------------------------------------------------------------------------
 Trust Radius=3.00D-01 FncErr=1.00D-07 GrdErr=1.00D-06 EigMax=2.50D+02 EigMin=1.00D-04
 Number of steps in this run=    307 maximum allowed number of steps=    324.
 GradGradGradGradGradGradGradGradGradGradGradGradGradGradGradGradGradGrad

 Stoichiometry    C26H18N2O6S2
 Framework group  C1[X(C26H18N2O6S2)]
 Deg. of freedom   156
 Full point group                 C1      NOp   1
 Largest Abelian subgroup         C1      NOp   1
 Largest concise Abelian subgroup C1      NOp   1
                         Standard orientation:                         
 ---------------------------------------------------------------------
 Center     Atomic      Atomic             Coordinates (Angstroms)
 Number     Number       Type             X           Y           Z
 ---------------------------------------------------------------------
      1          6           0       -2.485903   -3.035795   -0.089348
      2          6           0       -2.215274   -1.575312   -0.027212
      3          6           0       -3.280932   -0.645257   -0.045213
      4          6           0       -4.618288   -1.092908   -0.121377
      5          6           0       -4.924702   -2.546605   -0.190538
      6          6           0       -0.917286   -1.133765    0.023815
      7          6           0       -2.976245    0.744303    0.026036
      8          6           0       -1.620325    1.198253    0.091726
      9          6           0       -0.560950    0.250829    0.056635
     10          6           0       -1.397332    2.656262    0.289931
     11          6           0       -3.852730    3.105042    0.148286
     12          6           0       -4.072005    1.647274    0.033867
     13          6           0       -5.380878    1.189709   -0.045513
     14          6           0       -5.662361   -0.179317   -0.126301
     15          1           0       -6.679844   -0.546872   -0.185307
     16          1           0       -6.176355    1.926636   -0.037170
     17          1           0       -0.138070   -1.886242   -0.007238
     18          7           0       -2.522899    3.503437    0.297204
     19          7           0       -3.828356   -3.425528   -0.168448
     20          8           0       -1.598450   -3.877423   -0.073457
     21          8           0       -6.070637   -2.964555   -0.261101
     22          8           0       -4.770512    3.915944    0.131383
     23          8           0       -0.301121    3.173865    0.462346
     24          6           0       -2.244338    4.931942    0.482777
     25          1           0       -1.735738    5.089700    1.435037
     26          1           0       -1.589365    5.290022   -0.315652
     27          1           0       -3.195619    5.456465    0.461287
     28          6           0       -4.083158   -4.868936   -0.233221
     29          1           0       -3.571068   -5.294501   -1.098803
     30          1           0       -3.697367   -5.353471    0.665650
     31          1           0       -5.157334   -5.012376   -0.313667
     32          6           0        0.875793    0.520921    0.017594
     33          6           0        1.569784    1.680807   -0.266140
     34         16           0        1.998799   -0.825376    0.208636
     35          6           0        2.966530    1.501175   -0.324536
     36          1           0        1.083383    2.631053   -0.417388
     37          6           0        3.391784    0.192316   -0.080040
     38          8           0        3.895168    2.458796   -0.587389
     39          6           0        4.740197   -0.297705   -0.026882
     40          6           0        3.440103    3.805180   -0.690480
     41          6           0        5.161923   -1.606902    0.194259
     42         16           0        6.148339    0.739215   -0.244949
     43          1           0        4.333886    4.415551   -0.820202
     44          1           0        2.781460    3.936776   -1.557812
     45          1           0        2.909782    4.115116    0.218363
     46          6           0        6.575074   -1.774018    0.189082
     47          8           0        4.232642   -2.578863    0.393018
     48          6           0        7.227790   -0.591951   -0.036073
     49          1           0        7.081190   -2.716666    0.342895
     50          6           0        4.692103   -3.912848    0.580774
     51          1           0        8.296209   -0.430893   -0.092629
     52          1           0        5.316691   -3.995782    1.478407
     53          1           0        3.798710   -4.523799    0.704537
     54          1           0        5.257071   -4.265775   -0.290419
 ---------------------------------------------------------------------
 Rotational constants (GHZ):           0.1526983           0.0604496           0.0436572
 Standard basis: 6-311+G(d,p) (5D, 7F)
 There are   952 symmetry adapted cartesian basis functions of A   symmetry.
 There are   916 symmetry adapted basis functions of A   symmetry.
   916 basis functions,  1468 primitive gaussians,   952 cartesian basis functions
   134 alpha electrons      134 beta electrons
       nuclear repulsion energy      4090.4014633515 Hartrees.
 NAtoms=   54 NActive=   54 NUniq=   54 SFac= 1.00D+00 NAtFMM=   60 NAOKFM=F Big=F
 Integral buffers will be    131072 words long.
 Raffenetti 2 integral format.
 Two-electron integral symmetry is turned on.
 Nuclear repulsion after empirical dispersion term =     4090.3606787884 Hartrees.
 One-electron integrals computed using PRISM.
 NBasis=   916 RedAO= T EigKep=  1.44D-06  NBF=   916
 NBsUse=   901 1.00D-06 EigRej=  8.07D-07 NBFU=   901
 ExpMin= 4.05D-02 ExpMax= 9.34D+04 ExpMxC= 3.17D+03 IAcc=3 IRadAn=         5 AccDes= 0.00D+00
 Harris functional with IExCor= 4639 and IRadAn=       5 diagonalized for initial guess.
 HarFok:  IExCor= 4639 AccDes= 0.00D+00 IRadAn=         5 IDoV= 1 UseB2=F ITyADJ=14
 ICtDFT=  3500011 ScaDFX=  1.000000  1.000000  1.000000  1.000000
 FoFCou: FMM=F IPFlag=           0 FMFlag=      100000 FMFlg1=           0
         NFxFlg=           0 DoJE=T BraDBF=F KetDBF=T FulRan=T
         wScrn=  0.000000 ICntrl=       500 IOpCl=  0 I1Cent=   200000004 NGrid=           0
         NMat0=    1 NMatS0=      1 NMatT0=    0 NMatD0=    1 NMtDS0=    0 NMtDT0=    0
 Petite list used in FoFCou.
 Requested convergence on RMS density matrix=1.00D-08 within 128 cycles.
 Requested convergence on MAX density matrix=1.00D-06.
 Requested convergence on             energy=1.00D-06.
 No special actions if energy rises.
 SCF Done:  E(RwB97XD) =  -2358.76143494     A.U. after   20 cycles
            NFock= 20  Conv=0.48D-08     -V/T= 2.0032

 **********************************************************************

            Population analysis using the SCF Density.

 **********************************************************************

 Orbital symmetries:
       Occupied  (A) (A) (A) (A) (A) (A) (A) (A) (A) (A) (A) (A)
                 (A) (A) (A) (A) (A) (A) (A) (A) (A) (A) (A) (A)
                 (A) (A) (A) (A) (A) (A) (A) (A) (A) (A) (A) (A)
                 (A) (A) (A) (A) (A) (A) (A) (A) (A) (A) (A) (A)
                 (A) (A) (A) (A) (A) (A) (A) (A) (A) (A) (A) (A)
                 (A) (A) (A) (A) (A) (A) (A) (A) (A) (A) (A) (A)
                 (A) (A) (A) (A) (A) (A) (A) (A) (A) (A) (A) (A)
                 (A) (A) (A) (A) (A) (A) (A) (A) (A) (A) (A) (A)
                 (A) (A) (A) (A) (A) (A) (A) (A) (A) (A) (A) (A)
                 (A) (A) (A) (A) (A) (A) (A) (A) (A) (A) (A) (A)
                 (A) (A) (A) (A) (A) (A) (A) (A) (A) (A) (A) (A)
                 (A) (A)
       Virtual   (A) (A) (A) (A) (A) (A) (A) (A) (A) (A) (A) (A)
                 (A) (A) (A) (A) (A) (A) (A) (A) (A) (A) (A) (A)
                 (A) (A) (A) (A) (A) (A) (A) (A) (A) (A) (A) (A)
                 (A) (A) (A) (A) (A) (A) (A) (A) (A) (A) (A) (A)
                 (A) (A) (A) (A) (A) (A) (A) (A) (A) (A) (A) (A)
                 (A) (A) (A) (A) (A) (A) (A) (A) (A) (A) (A) (A)
                 (A) (A) (A) (A) (A) (A) (A) (A) (A) (A) (A) (A)
                 (A) (A) (A) (A) (A) (A) (A) (A) (A) (A) (A) (A)
                 (A) (A) (A) (A) (A) (A) (A) (A) (A) (A) (A) (A)
                 (A) (A) (A) (A) (A) (A) (A) (A) (A) (A) (A) (A)
                 (A) (A) (A) (A) (A) (A) (A) (A) (A) (A) (A) (A)
                 (A) (A) (A) (A) (A) (A) (A) (A) (A) (A) (A) (A)
                 (A) (A) (A) (A) (A) (A) (A) (A) (A) (A) (A) (A)
                 (A) (A) (A) (A) (A) (A) (A) (A) (A) (A) (A) (A)
                 (A) (A) (A) (A) (A) (A) (A) (A) (A) (A) (A) (A)
                 (A) (A) (A) (A) (A) (A) (A) (A) (A) (A) (A) (A)
                 (A) (A) (A) (A) (A) (A) (A) (A) (A) (A) (A) (A)
                 (A) (A) (A) (A) (A) (A) (A) (A) (A) (A) (A) (A)
                 (A) (A) (A) (A) (A) (A) (A) (A) (A) (A) (A) (A)
                 (A) (A) (A) (A) (A) (A) (A) (A) (A) (A) (A) (A)
                 (A) (A) (A) (A) (A) (A) (A) (A) (A) (A) (A) (A)
                 (A) (A) (A) (A) (A) (A) (A) (A) (A) (A) (A) (A)
                 (A) (A) (A) (A) (A) (A) (A) (A) (A) (A) (A) (A)
                 (A) (A) (A) (A) (A) (A) (A) (A) (A) (A) (A) (A)
                 (A) (A) (A) (A) (A) (A) (A) (A) (A) (A) (A) (A)
                 (A) (A) (A) (A) (A) (A) (A) (A) (A) (A) (A) (A)
                 (A) (A) (A) (A) (A) (A) (A) (A) (A) (A) (A) (A)
                 (A) (A) (A) (A) (A) (A) (A) (A) (A) (A) (A) (A)
                 (A) (A) (A) (A) (A) (A) (A) (A) (A) (A) (A) (A)
                 (A) (A) (A) (A) (A) (A) (A) (A) (A) (A) (A) (A)
                 (A) (A) (A) (A) (A) (A) (A) (A) (A) (A) (A) (A)
                 (A) (A) (A) (A) (A) (A) (A) (A) (A) (A) (A) (A)
                 (A) (A) (A) (A) (A) (A) (A) (A) (A) (A) (A) (A)
                 (A) (A) (A) (A) (A) (A) (A) (A) (A) (A) (A) (A)
                 (A) (A) (A) (A) (A) (A) (A) (A) (A) (A) (A) (A)
                 (A) (A) (A) (A) (A) (A) (A) (A) (A) (A) (A) (A)
                 (A) (A) (A) (A) (A) (A) (A) (A) (A) (A) (A) (A)
                 (A) (A) (A) (A) (A) (A) (A) (A) (A) (A) (A) (A)
                 (A) (A) (A) (A) (A) (A) (A) (A) (A) (A) (A) (A)
                 (A) (A) (A) (A) (A) (A) (A) (A) (A) (A) (A) (A)
                 (A) (A) (A) (A) (A) (A) (A) (A) (A) (A) (A) (A)
                 (A) (A) (A) (A) (A) (A) (A) (A) (A) (A) (A) (A)
                 (A) (A) (A) (A) (A) (A) (A) (A) (A) (A) (A) (A)
                 (A) (A) (A) (A) (A) (A) (A) (A) (A) (A) (A) (A)
                 (A) (A) (A) (A) (A) (A) (A) (A) (A) (A) (A) (A)
                 (A) (A) (A) (A) (A) (A) (A) (A) (A) (A) (A) (A)
                 (A) (A) (A) (A) (A) (A) (A) (A) (A) (A) (A) (A)
                 (A) (A) (A) (A) (A) (A) (A) (A) (A) (A) (A) (A)
                 (A) (A) (A) (A) (A) (A) (A) (A) (A) (A) (A) (A)
                 (A) (A) (A) (A) (A) (A) (A) (A) (A) (A) (A) (A)
                 (A) (A) (A) (A) (A) (A) (A) (A) (A) (A) (A) (A)
                 (A) (A) (A) (A) (A) (A) (A) (A) (A) (A) (A) (A)
                 (A) (A) (A) (A) (A) (A) (A) (A) (A) (A) (A) (A)
                 (A) (A) (A) (A) (A) (A) (A) (A) (A) (A) (A) (A)
                 (A) (A) (A) (A) (A) (A) (A) (A) (A) (A) (A) (A)
                 (A) (A) (A) (A) (A) (A) (A) (A) (A) (A) (A) (A)
                 (A) (A) (A) (A) (A) (A) (A) (A) (A) (A) (A) (A)
                 (A) (A) (A) (A) (A) (A) (A) (A) (A) (A) (A) (A)
                 (A) (A) (A) (A) (A) (A) (A) (A) (A) (A) (A) (A)
                 (A) (A) (A) (A) (A) (A) (A) (A) (A) (A) (A) (A)
                 (A) (A) (A) (A) (A) (A) (A) (A) (A) (A) (A) (A)
                 (A) (A) (A) (A) (A) (A) (A) (A) (A) (A) (A) (A)
                 (A) (A) (A) (A) (A) (A) (A) (A) (A) (A) (A) (A)
                 (A) (A) (A) (A) (A) (A) (A) (A) (A) (A) (A)
 The electronic state is 1-A.
 Alpha  occ. eigenvalues --  -89.05178 -89.05114 -19.29511 -19.28915 -19.25014
 Alpha  occ. eigenvalues --  -19.25013 -19.24674 -19.24387 -14.50687 -14.50415
 Alpha  occ. eigenvalues --  -10.43033 -10.42956 -10.42805 -10.42323 -10.36267
 Alpha  occ. eigenvalues --  -10.36009 -10.35501 -10.34896 -10.34655 -10.34299
 Alpha  occ. eigenvalues --  -10.34264 -10.34067 -10.33973 -10.33959 -10.33900
 Alpha  occ. eigenvalues --  -10.33570 -10.33434 -10.33067 -10.33040 -10.32657
 Alpha  occ. eigenvalues --  -10.32585 -10.32535 -10.32242 -10.32115 -10.30282
 Alpha  occ. eigenvalues --  -10.29303  -8.09128  -8.09095  -6.03977  -6.03954
 Alpha  occ. eigenvalues --   -6.03585  -6.03557  -6.03213  -6.03153  -1.18824
 Alpha  occ. eigenvalues --   -1.18766  -1.18658  -1.18086  -1.16806  -1.16609
 Alpha  occ. eigenvalues --   -1.06326  -1.05994  -1.02626  -1.00273  -0.98733
 Alpha  occ. eigenvalues --   -0.96665  -0.94362  -0.90418  -0.88443  -0.87462
 Alpha  occ. eigenvalues --   -0.85914  -0.85029  -0.84713  -0.82846  -0.82087
 Alpha  occ. eigenvalues --   -0.81481  -0.79734  -0.78252  -0.76735  -0.75355
 Alpha  occ. eigenvalues --   -0.75084  -0.74082  -0.70334  -0.68868  -0.67868
 Alpha  occ. eigenvalues --   -0.66530  -0.65730  -0.65251  -0.64401  -0.63734
 Alpha  occ. eigenvalues --   -0.62164  -0.60552  -0.59701  -0.59216  -0.58761
 Alpha  occ. eigenvalues --   -0.58342  -0.57469  -0.57327  -0.57100  -0.56674
 Alpha  occ. eigenvalues --   -0.56643  -0.56086  -0.55147  -0.54783  -0.54420
 Alpha  occ. eigenvalues --   -0.53744  -0.53658  -0.53143  -0.52919  -0.51595
 Alpha  occ. eigenvalues --   -0.51439  -0.51196  -0.50740  -0.50522  -0.50241
 Alpha  occ. eigenvalues --   -0.50030  -0.49499  -0.49278  -0.48819  -0.48182
 Alpha  occ. eigenvalues --   -0.47843  -0.47564  -0.46382  -0.45880  -0.45178
 Alpha  occ. eigenvalues --   -0.44547  -0.44193  -0.42463  -0.41855  -0.41488
 Alpha  occ. eigenvalues --   -0.41034  -0.39984  -0.39406  -0.38463  -0.37994
 Alpha  occ. eigenvalues --   -0.37134  -0.37051  -0.36686  -0.36205  -0.34460
 Alpha  occ. eigenvalues --   -0.33155  -0.31901  -0.31759  -0.25561
 Alpha virt. eigenvalues --   -0.07534  -0.01592   0.00173   0.02225   0.03551
 Alpha virt. eigenvalues --    0.05300   0.05709   0.06103   0.06719   0.06898
 Alpha virt. eigenvalues --    0.07074   0.07302   0.07856   0.08055   0.08206
 Alpha virt. eigenvalues --    0.08347   0.08474   0.08839   0.09011   0.09292
 Alpha virt. eigenvalues --    0.09420   0.09652   0.09858   0.10099   0.10538
 Alpha virt. eigenvalues --    0.10592   0.10916   0.11322   0.11459   0.11782
 Alpha virt. eigenvalues --    0.12022   0.12126   0.12593   0.12693   0.12920
 Alpha virt. eigenvalues --    0.13138   0.13697   0.13745   0.14201   0.14413
 Alpha virt. eigenvalues --    0.14639   0.14798   0.15032   0.15231   0.15694
 Alpha virt. eigenvalues --    0.15761   0.16315   0.16618   0.16881   0.17320
 Alpha virt. eigenvalues --    0.17330   0.17651   0.17876   0.18055   0.18235
 Alpha virt. eigenvalues --    0.18341   0.19030   0.19181   0.19542   0.19612
 Alpha virt. eigenvalues --    0.19788   0.20239   0.20350   0.20483   0.20516
 Alpha virt. eigenvalues --    0.20950   0.21271   0.21351   0.21668   0.21974
 Alpha virt. eigenvalues --    0.22039   0.22202   0.22302   0.22506   0.22574
 Alpha virt. eigenvalues --    0.23273   0.23389   0.23617   0.24019   0.24037
 Alpha virt. eigenvalues --    0.24485   0.24540   0.24752   0.24851   0.25101
 Alpha virt. eigenvalues --    0.25156   0.25647   0.25786   0.26042   0.26190
 Alpha virt. eigenvalues --    0.26379   0.26613   0.26677   0.26816   0.27036
 Alpha virt. eigenvalues --    0.27153   0.27386   0.27449   0.27731   0.28097
 Alpha virt. eigenvalues --    0.28466   0.28629   0.28865   0.28930   0.29225
 Alpha virt. eigenvalues --    0.29278   0.29545   0.29858   0.30062   0.30154
 Alpha virt. eigenvalues --    0.30486   0.30603   0.30790   0.31152   0.31286
 Alpha virt. eigenvalues --    0.31399   0.31654   0.31723   0.32019   0.32097
 Alpha virt. eigenvalues --    0.32292   0.32414   0.32504   0.32674   0.32947
 Alpha virt. eigenvalues --    0.33123   0.33437   0.33549   0.33854   0.34088
 Alpha virt. eigenvalues --    0.34215   0.34639   0.34915   0.35102   0.35369
 Alpha virt. eigenvalues --    0.35408   0.35599   0.35809   0.35943   0.36393
 Alpha virt. eigenvalues --    0.36519   0.37010   0.37114   0.37430   0.37824
 Alpha virt. eigenvalues --    0.38294   0.38696   0.38787   0.39242   0.39382
 Alpha virt. eigenvalues --    0.39794   0.39924   0.40031   0.40110   0.40656
 Alpha virt. eigenvalues --    0.40782   0.41183   0.41842   0.41872   0.41931
 Alpha virt. eigenvalues --    0.42187   0.42348   0.42575   0.43407   0.43431
 Alpha virt. eigenvalues --    0.44171   0.44347   0.44707   0.44801   0.45238
 Alpha virt. eigenvalues --    0.45552   0.45745   0.46250   0.46832   0.47009
 Alpha virt. eigenvalues --    0.47642   0.47752   0.48379   0.48730   0.49544
 Alpha virt. eigenvalues --    0.49934   0.50001   0.50250   0.50980   0.51271
 Alpha virt. eigenvalues --    0.51669   0.51851   0.52408   0.52836   0.53113
 Alpha virt. eigenvalues --    0.53425   0.53999   0.54244   0.54550   0.54639
 Alpha virt. eigenvalues --    0.55412   0.55651   0.56736   0.57125   0.57496
 Alpha virt. eigenvalues --    0.57780   0.58200   0.58658   0.59066   0.59517
 Alpha virt. eigenvalues --    0.59946   0.60400   0.61287   0.61771   0.62007
 Alpha virt. eigenvalues --    0.62352   0.62455   0.63178   0.63608   0.63789
 Alpha virt. eigenvalues --    0.64034   0.64768   0.64942   0.65128   0.65409
 Alpha virt. eigenvalues --    0.66031   0.66681   0.66847   0.67303   0.67545
 Alpha virt. eigenvalues --    0.68057   0.68117   0.68742   0.69361   0.69670
 Alpha virt. eigenvalues --    0.69691   0.69731   0.70176   0.70755   0.71362
 Alpha virt. eigenvalues --    0.71624   0.71984   0.72640   0.72836   0.73025
 Alpha virt. eigenvalues --    0.73303   0.73639   0.73873   0.73983   0.74448
 Alpha virt. eigenvalues --    0.74571   0.75072   0.75828   0.75895   0.76448
 Alpha virt. eigenvalues --    0.76646   0.77405   0.77698   0.78074   0.78559
 Alpha virt. eigenvalues --    0.78838   0.79571   0.79901   0.80625   0.80813
 Alpha virt. eigenvalues --    0.80980   0.81489   0.81754   0.82023   0.82651
 Alpha virt. eigenvalues --    0.82900   0.83276   0.83592   0.83887   0.84219
 Alpha virt. eigenvalues --    0.84447   0.84747   0.85323   0.85868   0.86255
 Alpha virt. eigenvalues --    0.86452   0.86883   0.87074   0.87703   0.87980
 Alpha virt. eigenvalues --    0.88610   0.89128   0.89546   0.90829   0.91178
 Alpha virt. eigenvalues --    0.91937   0.92534   0.92843   0.93862   0.94251
 Alpha virt. eigenvalues --    0.95283   0.95676   0.95879   0.96841   0.97293
 Alpha virt. eigenvalues --    0.97889   0.98328   0.99273   0.99757   1.00021
 Alpha virt. eigenvalues --    1.00359   1.01001   1.01246   1.01487   1.01889
 Alpha virt. eigenvalues --    1.01964   1.02432   1.02912   1.03388   1.03618
 Alpha virt. eigenvalues --    1.04229   1.04605   1.05092   1.05182   1.05629
 Alpha virt. eigenvalues --    1.06071   1.06920   1.07361   1.08682   1.08728
 Alpha virt. eigenvalues --    1.08944   1.09509   1.09834   1.09926   1.10855
 Alpha virt. eigenvalues --    1.11079   1.11900   1.12132   1.12959   1.13110
 Alpha virt. eigenvalues --    1.13283   1.13411   1.14407   1.14774   1.15106
 Alpha virt. eigenvalues --    1.15373   1.15775   1.16131   1.16510   1.17226
 Alpha virt. eigenvalues --    1.17518   1.18064   1.18244   1.18637   1.19096
 Alpha virt. eigenvalues --    1.20110   1.20504   1.21887   1.23417   1.23609
 Alpha virt. eigenvalues --    1.23717   1.24719   1.25101   1.26128   1.26423
 Alpha virt. eigenvalues --    1.26697   1.27276   1.28416   1.29362   1.29810
 Alpha virt. eigenvalues --    1.30519   1.31478   1.31708   1.33083   1.33750
 Alpha virt. eigenvalues --    1.33839   1.34297   1.34666   1.34849   1.36028
 Alpha virt. eigenvalues --    1.37452   1.37719   1.38470   1.39304   1.40339
 Alpha virt. eigenvalues --    1.40812   1.41640   1.42167   1.43178   1.43695
 Alpha virt. eigenvalues --    1.43724   1.44916   1.46467   1.47035   1.47939
 Alpha virt. eigenvalues --    1.48844   1.50088   1.50438   1.50834   1.51150
 Alpha virt. eigenvalues --    1.51463   1.51678   1.52408   1.52588   1.52978
 Alpha virt. eigenvalues --    1.53229   1.53851   1.54180   1.54302   1.54649
 Alpha virt. eigenvalues --    1.55180   1.55746   1.56199   1.57079   1.57370
 Alpha virt. eigenvalues --    1.57766   1.59265   1.59623   1.60288   1.61321
 Alpha virt. eigenvalues --    1.61936   1.62398   1.62784   1.63428   1.63603
 Alpha virt. eigenvalues --    1.64058   1.64249   1.64538   1.65053   1.65578
 Alpha virt. eigenvalues --    1.66078   1.67295   1.68837   1.69354   1.70271
 Alpha virt. eigenvalues --    1.71008   1.71572   1.71904   1.72244   1.72775
 Alpha virt. eigenvalues --    1.73816   1.74825   1.75321   1.75990   1.76116
 Alpha virt. eigenvalues --    1.76593   1.77494   1.77838   1.77959   1.78492
 Alpha virt. eigenvalues --    1.78863   1.79224   1.79979   1.80074   1.80308
 Alpha virt. eigenvalues --    1.81275   1.82416   1.82968   1.84016   1.84571
 Alpha virt. eigenvalues --    1.84869   1.85702   1.86352   1.87238   1.87830
 Alpha virt. eigenvalues --    1.87862   1.88131   1.88790   1.90175   1.90765
 Alpha virt. eigenvalues --    1.92813   1.93654   1.93875   1.93955   1.95214
 Alpha virt. eigenvalues --    1.95537   1.95779   1.96208   1.96799   1.97211
 Alpha virt. eigenvalues --    1.97925   1.98638   1.99155   1.99798   2.00887
 Alpha virt. eigenvalues --    2.00900   2.01892   2.02539   2.03057   2.04032
 Alpha virt. eigenvalues --    2.04532   2.05524   2.05987   2.06858   2.07618
 Alpha virt. eigenvalues --    2.08403   2.09055   2.09956   2.10724   2.10950
 Alpha virt. eigenvalues --    2.11581   2.12034   2.12947   2.13517   2.14131
 Alpha virt. eigenvalues --    2.14801   2.15375   2.15716   2.16771   2.17610
 Alpha virt. eigenvalues --    2.17702   2.19193   2.19397   2.20068   2.20766
 Alpha virt. eigenvalues --    2.21772   2.22589   2.22947   2.23815   2.24386
 Alpha virt. eigenvalues --    2.24852   2.25294   2.27355   2.27764   2.28210
 Alpha virt. eigenvalues --    2.28962   2.29636   2.30481   2.31250   2.31846
 Alpha virt. eigenvalues --    2.33951   2.34335   2.35138   2.35586   2.38311
 Alpha virt. eigenvalues --    2.40551   2.41292   2.42144   2.43855   2.45471
 Alpha virt. eigenvalues --    2.47274   2.48173   2.48726   2.51000   2.52026
 Alpha virt. eigenvalues --    2.52647   2.52780   2.53595   2.54147   2.55224
 Alpha virt. eigenvalues --    2.56067   2.56694   2.57241   2.58864   2.58941
 Alpha virt. eigenvalues --    2.59500   2.60836   2.61217   2.61678   2.62374
 Alpha virt. eigenvalues --    2.62593   2.62947   2.63285   2.64323   2.65772
 Alpha virt. eigenvalues --    2.66381   2.67339   2.67972   2.68781   2.70264
 Alpha virt. eigenvalues --    2.72393   2.73116   2.73218   2.74141   2.76279
 Alpha virt. eigenvalues --    2.76320   2.77062   2.77317   2.77699   2.78409
 Alpha virt. eigenvalues --    2.78851   2.79225   2.80060   2.80897   2.81279
 Alpha virt. eigenvalues --    2.81632   2.82263   2.83450   2.83835   2.85172
 Alpha virt. eigenvalues --    2.86216   2.86965   2.87466   2.87930   2.90773
 Alpha virt. eigenvalues --    2.91140   2.92074   2.92370   2.93658   2.93786
 Alpha virt. eigenvalues --    2.93872   2.94386   2.95391   2.95683   2.96403
 Alpha virt. eigenvalues --    2.97731   2.97906   2.98073   2.98752   2.99877
 Alpha virt. eigenvalues --    3.00392   3.01106   3.02341   3.03430   3.03866
 Alpha virt. eigenvalues --    3.04460   3.04947   3.06580   3.07715   3.09809
 Alpha virt. eigenvalues --    3.11738   3.12646   3.13779   3.14609   3.15141
 Alpha virt. eigenvalues --    3.16474   3.17942   3.18019   3.18776   3.21121
 Alpha virt. eigenvalues --    3.22994   3.23606   3.24130   3.24778   3.26124
 Alpha virt. eigenvalues --    3.27122   3.28147   3.28942   3.30539   3.32200
 Alpha virt. eigenvalues --    3.32592   3.33233   3.33919   3.35216   3.36085
 Alpha virt. eigenvalues --    3.38122   3.38795   3.41049   3.41922   3.42903
 Alpha virt. eigenvalues --    3.43367   3.43749   3.43980   3.46130   3.47599
 Alpha virt. eigenvalues --    3.48842   3.49718   3.50835   3.51778   3.54056
 Alpha virt. eigenvalues --    3.54140   3.55084   3.55810   3.58467   3.58698
 Alpha virt. eigenvalues --    3.61223   3.63085   3.65704   3.67144   3.69029
 Alpha virt. eigenvalues --    3.69954   3.71666   3.74516   3.75825   3.76436
 Alpha virt. eigenvalues --    3.79091   3.79596   3.82015   3.82482   3.85807
 Alpha virt. eigenvalues --    3.85999   3.86612   3.90736   3.92586   3.94480
 Alpha virt. eigenvalues --    3.95065   3.95871   3.99801   4.01023   4.02678
 Alpha virt. eigenvalues --    4.03758   4.04952   4.06464   4.11175   4.12935
 Alpha virt. eigenvalues --    4.14050   4.18348   4.20228   4.22456   4.24275
 Alpha virt. eigenvalues --    4.30430   4.33816   4.35064   4.37768   4.45067
 Alpha virt. eigenvalues --    4.49961   4.50676   4.63663   4.82209   4.94049
 Alpha virt. eigenvalues --    4.96869   4.97749   5.00616   5.12668   5.14397
 Alpha virt. eigenvalues --    5.15040   5.16568   5.17094   5.19802   5.21609
 Alpha virt. eigenvalues --    5.23404   5.36118   5.37939   5.40317   5.44683
 Alpha virt. eigenvalues --    5.53567   5.54895   5.86550   5.87666   5.90763
 Alpha virt. eigenvalues --    5.91391   5.92971   5.95459   8.13366   8.16145
 Alpha virt. eigenvalues --   17.42848  17.44731  17.63586  17.66448  17.72496
 Alpha virt. eigenvalues --   17.77986  23.61727  23.69811  23.84579  23.91034
 Alpha virt. eigenvalues --   23.94886  23.95552  23.96610  23.99241  23.99333
 Alpha virt. eigenvalues --   24.00763  24.02225  24.03630  24.04614  24.05721
 Alpha virt. eigenvalues --   24.07764  24.08026  24.09056  24.11007  24.13427
 Alpha virt. eigenvalues --   24.14845  24.15727  24.17888  24.25792  24.26317
 Alpha virt. eigenvalues --   24.26875  24.27418  35.69334  35.72123  50.10155
 Alpha virt. eigenvalues --   50.12190  50.15862  50.17690  50.19517  50.21104
 Alpha virt. eigenvalues --  189.38848 189.42261
          Condensed to atoms (all electrons):
 Mulliken charges:
               1
     1  C    0.305084
     2  C    0.048766
     3  C    0.117830
     4  C    0.244066
     5  C    0.351467
     6  C    0.039558
     7  C    0.160101
     8  C    0.325936
     9  C    0.182806
    10  C   -0.357940
    11  C    0.291458
    12  C    0.156411
    13  C   -0.597457
    14  C   -0.777760
    15  H    0.188861
    16  H    0.191189
    17  H    0.190107
    18  N   -0.099379
    19  N   -0.081767
    20  O   -0.272862
    21  O   -0.267187
    22  O   -0.276883
    23  O   -0.234291
    24  C   -0.262642
    25  H    0.198255
    26  H    0.190360
    27  H    0.204254
    28  C   -0.279305
    29  H    0.192162
    30  H    0.193552
    31  H    0.201253
    32  C    0.074679
    33  C   -0.167609
    34  S   -0.760353
    35  C   -0.318925
    36  H    0.179780
    37  C    0.382128
    38  O   -0.120918
    39  C    0.914615
    40  C   -0.316847
    41  C   -0.007656
    42  S   -0.297516
    43  H    0.181348
    44  H    0.160960
    45  H    0.179857
    46  C   -0.608353
    47  O   -0.112231
    48  C   -0.377539
    49  H    0.158727
    50  C   -0.308118
    51  H    0.190705
    52  H    0.158814
    53  H    0.187890
    54  H    0.160558
 Sum of Mulliken charges =  -0.00000
 Mulliken charges with hydrogens summed into heavy atoms:
               1
     1  C    0.305084
     2  C    0.048766
     3  C    0.117830
     4  C    0.244066
     5  C    0.351467
     6  C    0.229666
     7  C    0.160101
     8  C    0.325936
     9  C    0.182806
    10  C   -0.357940
    11  C    0.291458
    12  C    0.156411
    13  C   -0.406268
    14  C   -0.588899
    18  N   -0.099379
    19  N   -0.081767
    20  O   -0.272862
    21  O   -0.267187
    22  O   -0.276883
    23  O   -0.234291
    24  C    0.330228
    28  C    0.307661
    32  C    0.074679
    33  C    0.012171
    34  S   -0.760353
    35  C   -0.318925
    37  C    0.382128
    38  O   -0.120918
    39  C    0.914615
    40  C    0.205318
    41  C   -0.007656
    42  S   -0.297516
    46  C   -0.449626
    47  O   -0.112231
    48  C   -0.186834
    50  C    0.199143
 Electronic spatial extent (au):  <R**2>=          22441.0403
 Charge=             -0.0000 electrons
 Dipole moment (field-independent basis, Debye):
    X=              3.9060    Y=             -0.5357    Z=             -0.0868  Tot=              3.9435
 Quadrupole moment (field-independent basis, Debye-Ang):
   XX=           -214.4627   YY=           -204.3884   ZZ=           -222.4817
   XY=             -5.4263   XZ=              0.3483   YZ=             -4.6527
 Traceless Quadrupole moment (field-independent basis, Debye-Ang):
   XX=             -0.6851   YY=              9.3892   ZZ=             -8.7041
   XY=             -5.4263   XZ=              0.3483   YZ=             -4.6527
 Octapole moment (field-independent basis, Debye-Ang**2):
  XXX=            365.0878  YYY=            -17.3310  ZZZ=              1.9583  XYY=            140.9538
  XXY=            -88.8695  XXZ=             15.3371  XZZ=            -14.7328  YZZ=             -0.3602
  YYZ=              1.0417  XYZ=            -18.1557
 Hexadecapole moment (field-independent basis, Debye-Ang**3):
 XXXX=         -20506.0433 YYYY=          -7837.4476 ZZZZ=           -370.5407 XXXY=           -595.8311
 XXXZ=             14.8026 YYYX=            220.3701 YYYZ=            -50.6109 ZZZX=              1.5359
 ZZZY=              4.4542 XXYY=          -4919.0059 XXZZ=          -3758.4704 YYZZ=          -1435.5976
 XXYZ=           -107.2279 YYXZ=              2.9183 ZZXY=             19.3961
 N-N= 4.090360678788D+03 E-N=-1.371984354477D+04  KE= 2.351279518740D+03
 Calling FoFJK, ICntrl=      2127 FMM=F ISym2X=0 I1Cent= 0 IOpClX= 0 NMat=1 NMatS=1 NMatT=0.
 ***** Axes restored to original set *****
 -------------------------------------------------------------------
 Center     Atomic                   Forces (Hartrees/Bohr)
 Number     Number              X              Y              Z
 -------------------------------------------------------------------
      1        6           0.006826546   -0.014181668   -0.001653419
      2        6           0.009140971    0.005180583    0.000517992
      3        6          -0.001171015    0.004436717    0.000381028
      4        6          -0.000511568    0.007698924    0.001262298
      5        6          -0.011674016   -0.008809285   -0.000974002
      6        6          -0.011390275   -0.001157934   -0.002581484
      7        6          -0.003283117   -0.003748286    0.000216142
      8        6           0.005099425   -0.003958885    0.001779592
      9        6          -0.001378256    0.005680176    0.000964545
     10        6           0.001026647    0.005373925    0.002154345
     11        6          -0.007831628    0.012221931    0.001697572
     12        6          -0.002748853   -0.005095328   -0.000553468
     13        6           0.005817612   -0.000374584   -0.000232185
     14        6           0.006259704   -0.002844923   -0.000501150
     15        1           0.000394008    0.000686491    0.000040200
     16        1           0.000381194   -0.000945056   -0.000179253
     17        1          -0.002054146   -0.000526261    0.000742345
     18        7           0.001736280   -0.002049878   -0.000731068
     19        7           0.000805187    0.001881698    0.000097171
     20        8          -0.014147162    0.014674292    0.002072499
     21        8           0.018401312    0.006106772    0.000529009
     22        8           0.014966274   -0.013403267   -0.001916288
     23        8          -0.031578588    0.003565903    0.009015369
     24        6           0.000837454   -0.001872417   -0.001365382
     25        1          -0.000996572   -0.000368658   -0.000278123
     26        1          -0.001647436   -0.000784074    0.000877533
     27        1           0.000626473    0.000026187    0.000029024
     28        6           0.001255551    0.001938826   -0.000118049
     29        1          -0.000856578    0.000840521    0.000903576
     30        1          -0.000617894    0.000843307   -0.000316964
     31        1           0.000652000   -0.000258777   -0.000029354
     32        6           0.003323995    0.000056670   -0.001818306
     33        6           0.012967317   -0.005029719   -0.007968934
     34       16           0.005564281    0.010331092   -0.000099323
     35        6           0.004211851   -0.010068999   -0.000412941
     36        1           0.008712000   -0.007864192   -0.004412747
     37        6          -0.013138848    0.007258866    0.001675184
     38        8          -0.005977724    0.001651384    0.001678567
     39        6           0.012815438   -0.006800270   -0.000876864
     40        6          -0.000089463   -0.003649677    0.000237650
     41        6          -0.006851098    0.004500980    0.000464508
     42       16          -0.002285316   -0.010395510    0.000796919
     43        1          -0.000656022   -0.001108315    0.000098524
     44        1           0.000955511   -0.001049743    0.000807665
     45        1           0.000792635   -0.000968406   -0.001267883
     46        6           0.000687412    0.005591641   -0.000535193
     47        8           0.006922196    0.000025177   -0.000996236
     48        6          -0.007187125    0.000023073    0.000751852
     49        1           0.000015701    0.000375784   -0.000046834
     50        6           0.000006883    0.003675608   -0.000081769
     51        1          -0.001716250   -0.000256275    0.000197970
     52        1          -0.000965222    0.000958840   -0.000487830
     53        1           0.000454614    0.000889140   -0.000123930
     54        1          -0.000902301    0.001075877    0.000569904
 -------------------------------------------------------------------
 Cartesian Forces:  Max     0.031578588 RMS     0.005623086

 GradGradGradGradGradGradGradGradGradGradGradGradGradGradGradGradGradGrad
 Berny optimization.
 FormGI is forming the generalized inverse of G from B-inverse, IUseBI=4.
 Internal  Forces:  Max     0.062488353 RMS     0.008140017
 Search for a local minimum.
 Step number   1 out of a maximum of  307
 All quantities printed in internal units (Hartrees-Bohrs-Radians)
 Mixed Optimization -- RFO/linear search
 Second derivative matrix not updated -- first step.
 ITU=  0
     Eigenvalues ---    0.01155   0.01172   0.01239   0.01297   0.01362
     Eigenvalues ---    0.01383   0.01397   0.01410   0.01452   0.01470
     Eigenvalues ---    0.01512   0.01544   0.01567   0.01590   0.01617
     Eigenvalues ---    0.01652   0.01679   0.01695   0.01714   0.01719
     Eigenvalues ---    0.01721   0.01763   0.01799   0.01845   0.01981
     Eigenvalues ---    0.02039   0.02047   0.02080   0.02088   0.02099
     Eigenvalues ---    0.02133   0.02149   0.02162   0.02179   0.02197
     Eigenvalues ---    0.02250   0.04601   0.04620   0.07665   0.07667
     Eigenvalues ---    0.10058   0.10068   0.10627   0.10635   0.15983
     Eigenvalues ---    0.15999   0.15999   0.16000   0.16000   0.16000
     Eigenvalues ---    0.16000   0.16000   0.16000   0.16000   0.16000
     Eigenvalues ---    0.16000   0.16000   0.16000   0.16000   0.16000
     Eigenvalues ---    0.16000   0.16000   0.22530   0.22583   0.23517
     Eigenvalues ---    0.23582   0.24513   0.24747   0.24865   0.24906
     Eigenvalues ---    0.24952   0.24985   0.24986   0.24988   0.24991
     Eigenvalues ---    0.24994   0.24996   0.24997   0.24998   0.24998
     Eigenvalues ---    0.25000   0.25000   0.25000   0.25000   0.25000
     Eigenvalues ---    0.25000   0.25000   0.25000   0.25000   0.25000
     Eigenvalues ---    0.28838   0.28851   0.30033   0.32124   0.32582
     Eigenvalues ---    0.32774   0.33104   0.33787   0.34017   0.34022
     Eigenvalues ---    0.34051   0.34051   0.34353   0.34466   0.34577
     Eigenvalues ---    0.34629   0.34693   0.34806   0.34885   0.35198
     Eigenvalues ---    0.35218   0.35468   0.35553   0.35582   0.35757
     Eigenvalues ---    0.35883   0.36078   0.36083   0.36218   0.36393
     Eigenvalues ---    0.36662   0.39348   0.40185   0.40194   0.40651
     Eigenvalues ---    0.40820   0.41524   0.41725   0.41962   0.42300
     Eigenvalues ---    0.42640   0.43455   0.43998   0.44092   0.44594
     Eigenvalues ---    0.44684   0.45014   0.45405   0.46251   0.47305
     Eigenvalues ---    0.47650   0.49309   0.49573   0.53030   0.53083
     Eigenvalues ---    0.93281   0.93432   0.93989   0.945851000.00000
     Eigenvalues --- 1000.000001000.000001000.000001000.000001000.00000
     Eigenvalues --- 1000.000001000.000001000.000001000.000001000.00000
     Eigenvalues --- 1000.000001000.000001000.000001000.000001000.00000
     Eigenvalues --- 1000.000001000.000001000.000001000.000001000.00000
     Eigenvalues --- 1000.000001000.000001000.000001000.000001000.00000
     Eigenvalues --- 1000.000001000.000001000.000001000.000001000.00000
     Eigenvalues --- 1000.000001000.000001000.000001000.000001000.00000
     Eigenvalues --- 1000.000001000.000001000.000001000.000001000.00000
     Eigenvalues --- 1000.000001000.000001000.000001000.000001000.00000
     Eigenvalues --- 1000.000001000.000001000.000001000.000001000.00000
     Eigenvalues --- 1000.000001000.000001000.000001000.000001000.00000
     Eigenvalues --- 1000.000001000.000001000.000001000.000001000.00000
     Eigenvalues --- 1000.000001000.000001000.000001000.000001000.00000
     Eigenvalues --- 1000.000001000.000001000.000001000.000001000.00000
     Eigenvalues --- 1000.000001000.000001000.000001000.000001000.00000
     Eigenvalues --- 1000.000001000.000001000.000001000.000001000.00000
     Eigenvalues --- 1000.000001000.000001000.000001000.000001000.00000
     Eigenvalues --- 1000.000001000.000001000.000001000.000001000.00000
     Eigenvalues --- 1000.000001000.000001000.000001000.000001000.00000
     Eigenvalues --- 1000.000001000.000001000.000001000.000001000.00000
     Eigenvalues --- 1000.000001000.000001000.000001000.000001000.00000
     Eigenvalues --- 1000.000001000.000001000.000001000.000001000.00000
     Eigenvalues --- 1000.000001000.000001000.000001000.000001000.00000
     Eigenvalues --- 1000.000001000.000001000.000001000.000001000.00000
     Eigenvalues --- 1000.000001000.000001000.000001000.000001000.00000
     Eigenvalues --- 1000.000001000.000001000.000001000.000001000.00000
     Eigenvalues --- 1000.000001000.000001000.000001000.000001000.00000
     Eigenvalues --- 1000.000001000.000001000.000001000.000001000.00000
     Eigenvalues --- 1000.000001000.000001000.000001000.000001000.00000
     Eigenvalues --- 1000.000001000.00000
 RFO step:  Lambda=-5.90759453D-02 EMin= 1.15532237D-02
 Linear search not attempted -- first point.
 Maximum step size (   0.300) exceeded in Quadratic search.
    -- Step size scaled by   0.758
 Iteration  1 RMS(Cart)=  0.34369638 RMS(Int)=  0.00872934
 Iteration  2 RMS(Cart)=  0.05582058 RMS(Int)=  0.00067210
 Iteration  3 RMS(Cart)=  0.00083474 RMS(Int)=  0.00065153
 Iteration  4 RMS(Cart)=  0.00000040 RMS(Int)=  0.00065153
 Iteration  1 RMS(Cart)=  0.00004228 RMS(Int)=  0.00002261
 Iteration  2 RMS(Cart)=  0.00002449 RMS(Int)=  0.00002522
 Iteration  3 RMS(Cart)=  0.00001414 RMS(Int)=  0.00002864
 Iteration  4 RMS(Cart)=  0.00000813 RMS(Int)=  0.00003106
 Iteration  5 RMS(Cart)=  0.00000466 RMS(Int)=  0.00003257
 Iteration  6 RMS(Cart)=  0.00000267 RMS(Int)=  0.00003347
 Iteration  7 RMS(Cart)=  0.00000153 RMS(Int)=  0.00003401
 Iteration  8 RMS(Cart)=  0.00000088 RMS(Int)=  0.00003432
 Variable       Old X    -DE/DX   Delta X   Delta X   Delta X     New X
                                 (Linear)    (Quad)   (Total)
    R1        2.80935  -0.00161   0.00000  -0.00355  -0.00355   2.80580
    R2        2.64584  -0.00920   0.00000  -0.01381  -0.01377   2.63207
    R3        2.31147  -0.02048   0.00000  -0.01555  -0.01555   2.29592
    R4        2.67311  -0.01153   0.00000  -0.02025  -0.02045   2.65266
    R5        2.59267  -0.02003   0.00000  -0.02953  -0.02952   2.56315
    R6        2.66894  -0.00383   0.00000  -0.00567  -0.00571   2.66323
    R7        2.69164  -0.00704   0.00000  -0.00945  -0.00957   2.68207
    R8        2.81049  -0.00149   0.00000  -0.00236  -0.00237   2.80812
    R9        2.62173  -0.01272   0.00000  -0.01896  -0.01895   2.60278
   R10        2.65570  -0.00915   0.00000  -0.01362  -0.01359   2.64211
   R11        2.30889  -0.01940   0.00000  -0.01463  -0.01463   2.29426
   R12        2.70248  -0.00034   0.00000  -0.00143  -0.00125   2.70123
   R13        2.04786  -0.00118   0.00000  -0.00215  -0.00215   2.04571
   R14        2.70495   0.01326   0.00000   0.02718   0.02720   2.73215
   R15        2.68322  -0.00084   0.00000   0.00105   0.00105   2.68427
   R16        2.68655   0.02365   0.00000   0.03972   0.03979   2.72634
   R17        2.81233   0.01074   0.00000   0.02175   0.02185   2.83418
   R18        2.76359   0.01637   0.00000   0.02916   0.02916   2.79276
   R19        2.66221  -0.01043   0.00000  -0.01710  -0.01711   2.64510
   R20        2.31391  -0.02628   0.00000  -0.02006  -0.02006   2.29385
   R21        2.79415  -0.01012   0.00000  -0.02010  -0.02012   2.77403
   R22        2.63842  -0.01629   0.00000  -0.02579  -0.02587   2.61254
   R23        2.31456  -0.02018   0.00000  -0.01543  -0.01543   2.29914
   R24        2.62448  -0.00853   0.00000  -0.01203  -0.01202   2.61246
   R25        2.64561  -0.00928   0.00000  -0.01460  -0.01459   2.63102
   R26        2.04921  -0.00094   0.00000  -0.00173  -0.00173   2.04748
   R27        2.04741  -0.00059   0.00000  -0.00108  -0.00108   2.04633
   R28        2.77259  -0.00327   0.00000  -0.00591  -0.00591   2.76669
   R29        2.77252  -0.00341   0.00000  -0.00616  -0.00616   2.76636
   R30        2.06176  -0.00078   0.00000  -0.00145  -0.00145   2.06031
   R31        2.06551  -0.00187   0.00000  -0.00351  -0.00351   2.06200
   R32        2.05322  -0.00053   0.00000  -0.00097  -0.00097   2.05225
   R33        2.06368  -0.00139   0.00000  -0.00261  -0.00261   2.06107
   R34        2.06281  -0.00093   0.00000  -0.00173  -0.00173   2.06108
   R35        2.05355  -0.00062   0.00000  -0.00114  -0.00114   2.05241
   R36        2.60992   0.00181   0.00000   0.00307   0.00312   2.61304
   R37        3.33265  -0.00237   0.00000  -0.00397  -0.00392   3.32873
   R38        2.66349  -0.00390   0.00000  -0.00623  -0.00625   2.65724
   R39        2.03743  -0.01078   0.00000  -0.01940  -0.01940   2.01802
   R40        3.30537  -0.01371   0.00000  -0.02897  -0.02900   3.27637
   R41        2.64138  -0.01733   0.00000  -0.02616  -0.02621   2.61517
   R42        2.56926  -0.00730   0.00000  -0.00939  -0.00939   2.55987
   R43        2.71303   0.00107   0.00000   0.00176   0.00176   2.71479
   R44        2.69275  -0.00676   0.00000  -0.01076  -0.01076   2.68199
   R45        2.63259  -0.01179   0.00000  -0.01718  -0.01718   2.61542
   R46        3.33022  -0.00848   0.00000  -0.01812  -0.01811   3.31211
   R47        2.05991  -0.00117   0.00000  -0.00217  -0.00217   2.05774
   R48        2.07302  -0.00143   0.00000  -0.00271  -0.00271   2.07031
   R49        2.07293  -0.00166   0.00000  -0.00314  -0.00314   2.06979
   R50        2.68909  -0.00325   0.00000  -0.00539  -0.00539   2.68370
   R51        2.56876  -0.00867   0.00000  -0.01115  -0.01115   2.55761
   R52        3.26264  -0.00771   0.00000  -0.01473  -0.01473   3.24790
   R53        2.58694  -0.00740   0.00000  -0.00980  -0.00980   2.57713
   R54        2.04265  -0.00033   0.00000  -0.00060  -0.00060   2.04206
   R55        2.68971  -0.00671   0.00000  -0.01063  -0.01063   2.67907
   R56        2.04463  -0.00175   0.00000  -0.00318  -0.00318   2.04145
   R57        2.07245  -0.00113   0.00000  -0.00214  -0.00214   2.07031
   R58        2.05861  -0.00088   0.00000  -0.00164  -0.00164   2.05697
   R59        2.07244  -0.00117   0.00000  -0.00222  -0.00222   2.07022
    A1        2.03797   0.00136   0.00000   0.00174   0.00172   2.03969
    A2        2.14521  -0.00132   0.00000  -0.00243  -0.00243   2.14278
    A3        2.10001  -0.00005   0.00000   0.00069   0.00069   2.10070
    A4        2.10395   0.00282   0.00000   0.00921   0.00923   2.11318
    A5        2.08282  -0.00472   0.00000  -0.00736  -0.00726   2.07557
    A6        2.09624   0.00188   0.00000  -0.00196  -0.00209   2.09415
    A7        2.10093  -0.00449   0.00000  -0.01208  -0.01199   2.08894
    A8        2.07104  -0.00032   0.00000  -0.00339  -0.00358   2.06746
    A9        2.11118   0.00480   0.00000   0.01544   0.01552   2.12670
   A10        2.10296   0.00180   0.00000   0.00527   0.00522   2.10818
   A11        2.09911   0.00222   0.00000   0.00472   0.00468   2.10379
   A12        2.08110  -0.00402   0.00000  -0.00999  -0.00990   2.07120
   A13        2.03739   0.00068   0.00000   0.00198   0.00194   2.03934
   A14        2.12972  -0.00021   0.00000  -0.00068  -0.00066   2.12906
   A15        2.11607  -0.00047   0.00000  -0.00131  -0.00129   2.11478
   A16        2.15098   0.01384   0.00000   0.03259   0.03279   2.18377
   A17        2.04399  -0.00885   0.00000  -0.02325  -0.02327   2.02072
   A18        2.08722  -0.00506   0.00000  -0.00995  -0.01017   2.07705
   A19        2.11101   0.00598   0.00000   0.01593   0.01596   2.12697
   A20        2.04385  -0.01117   0.00000  -0.03020  -0.03013   2.01372
   A21        2.12832   0.00519   0.00000   0.01426   0.01416   2.14248
   A22        2.08678  -0.01101   0.00000  -0.02151  -0.02152   2.06526
   A23        2.04738  -0.02174   0.00000  -0.05200  -0.05192   1.99546
   A24        2.14662   0.03261   0.00000   0.07081   0.07012   2.21674
   A25        2.04892  -0.01059   0.00000  -0.02234  -0.02238   2.02654
   A26        2.00754  -0.05194   0.00000  -0.12991  -0.13003   1.87752
   A27        2.22643   0.06249   0.00000   0.15092   0.14977   2.37620
   A28        2.06022   0.01060   0.00000   0.02720   0.02720   2.08742
   A29        2.17370   0.01527   0.00000   0.03680   0.03680   2.21050
   A30        2.04919  -0.02591   0.00000  -0.06403  -0.06406   1.98513
   A31        2.01621  -0.00219   0.00000  -0.00910  -0.00942   2.00679
   A32        2.14188   0.00134   0.00000   0.00507   0.00515   2.14703
   A33        2.12500   0.00082   0.00000   0.00377   0.00385   2.12885
   A34        2.10943   0.00360   0.00000   0.00940   0.00922   2.11865
   A35        2.11468   0.00620   0.00000   0.01747   0.01747   2.13215
   A36        2.05896  -0.00980   0.00000  -0.02693  -0.02675   2.03221
   A37        2.11176   0.00078   0.00000   0.00223   0.00215   2.11391
   A38        2.05670   0.00004   0.00000   0.00039   0.00042   2.05712
   A39        2.11471  -0.00083   0.00000  -0.00263  -0.00260   2.11212
   A40        2.08567  -0.00284   0.00000  -0.00979  -0.00985   2.07582
   A41        2.07549   0.00196   0.00000   0.00674   0.00677   2.08226
   A42        2.12199   0.00088   0.00000   0.00302   0.00305   2.12504
   A43        2.20043   0.00419   0.00000   0.00643   0.00622   2.20665
[...]
 Alpha  occ. eigenvalues --   -0.53826  -0.53689  -0.53250  -0.53099  -0.51751
 Alpha  occ. eigenvalues --   -0.51702  -0.51111  -0.50926  -0.50641  -0.50403
 Alpha  occ. eigenvalues --   -0.50144  -0.49487  -0.49388  -0.48770  -0.48350
 Alpha  occ. eigenvalues --   -0.47841  -0.47784  -0.46880  -0.45934  -0.45369
 Alpha  occ. eigenvalues --   -0.44583  -0.44222  -0.42555  -0.41940  -0.41452
 Alpha  occ. eigenvalues --   -0.41195  -0.39986  -0.39514  -0.38472  -0.37859
 Alpha  occ. eigenvalues --   -0.37225  -0.37055  -0.36673  -0.36285  -0.34491
 Alpha  occ. eigenvalues --   -0.33119  -0.31865  -0.31739  -0.25712
 Alpha virt. eigenvalues --   -0.07164  -0.01157   0.00548   0.02571   0.03650
 Alpha virt. eigenvalues --    0.05291   0.05714   0.06106   0.06763   0.07115
 Alpha virt. eigenvalues --    0.07122   0.07403   0.07840   0.08061   0.08089
 Alpha virt. eigenvalues --    0.08544   0.08719   0.08879   0.09094   0.09270
 Alpha virt. eigenvalues --    0.09534   0.09866   0.09968   0.10212   0.10534
 Alpha virt. eigenvalues --    0.10693   0.11088   0.11416   0.11492   0.11822
 Alpha virt. eigenvalues --    0.12049   0.12159   0.12521   0.12807   0.13010
 Alpha virt. eigenvalues --    0.13135   0.13622   0.13665   0.14010   0.14527
 Alpha virt. eigenvalues --    0.14737   0.15022   0.15140   0.15416   0.15785
 Alpha virt. eigenvalues --    0.15894   0.16256   0.16449   0.16732   0.17072
 Alpha virt. eigenvalues --    0.17400   0.17718   0.17733   0.18039   0.18133
 Alpha virt. eigenvalues --    0.18332   0.19034   0.19222   0.19613   0.19797
 Alpha virt. eigenvalues --    0.19844   0.20180   0.20289   0.20483   0.20681
 Alpha virt. eigenvalues --    0.21049   0.21205   0.21403   0.21601   0.21842
 Alpha virt. eigenvalues --    0.22261   0.22368   0.22468   0.22597   0.22766
 Alpha virt. eigenvalues --    0.22905   0.23328   0.23679   0.23971   0.24288
 Alpha virt. eigenvalues --    0.24465   0.24671   0.24816   0.24963   0.25352
 Alpha virt. eigenvalues --    0.25366   0.25718   0.26104   0.26185   0.26288
 Alpha virt. eigenvalues --    0.26327   0.26406   0.26726   0.26928   0.27046
 Alpha virt. eigenvalues --    0.27164   0.27494   0.27558   0.27739   0.28129
 Alpha virt. eigenvalues --    0.28235   0.28677   0.28739   0.29088   0.29123
 Alpha virt. eigenvalues --    0.29478   0.29837   0.29897   0.30137   0.30494
 Alpha virt. eigenvalues --    0.30587   0.30672   0.30943   0.31204   0.31293
 Alpha virt. eigenvalues --    0.31429   0.31632   0.31894   0.32194   0.32323
 Alpha virt. eigenvalues --    0.32406   0.32520   0.32652   0.32737   0.33160
 Alpha virt. eigenvalues --    0.33467   0.33757   0.33799   0.34036   0.34242
 Alpha virt. eigenvalues --    0.34444   0.34593   0.35099   0.35196   0.35510
 Alpha virt. eigenvalues --    0.35672   0.35764   0.36169   0.36197   0.36440
 Alpha virt. eigenvalues --    0.36537   0.36925   0.37174   0.37589   0.37897
 Alpha virt. eigenvalues --    0.38348   0.38573   0.38773   0.39216   0.39307
 Alpha virt. eigenvalues --    0.39722   0.39854   0.40159   0.40462   0.40739
 Alpha virt. eigenvalues --    0.40984   0.41142   0.41455   0.41769   0.41932
 Alpha virt. eigenvalues --    0.42217   0.42561   0.42838   0.43141   0.43461
 Alpha virt. eigenvalues --    0.43772   0.44440   0.44996   0.45296   0.45431
 Alpha virt. eigenvalues --    0.45743   0.46004   0.46246   0.46419   0.46641
 Alpha virt. eigenvalues --    0.47589   0.47783   0.48704   0.49158   0.49410
 Alpha virt. eigenvalues --    0.49558   0.50080   0.50448   0.50919   0.51649
 Alpha virt. eigenvalues --    0.52039   0.52189   0.52481   0.52821   0.53025
 Alpha virt. eigenvalues --    0.53374   0.53824   0.54340   0.54796   0.54922
 Alpha virt. eigenvalues --    0.55252   0.56144   0.56423   0.56982   0.57182
 Alpha virt. eigenvalues --    0.57929   0.58358   0.58679   0.59108   0.59782
 Alpha virt. eigenvalues --    0.60248   0.60653   0.61197   0.61445   0.61697
 Alpha virt. eigenvalues --    0.62815   0.63261   0.63357   0.63792   0.63810
 Alpha virt. eigenvalues --    0.64429   0.64838   0.64979   0.65311   0.65760
 Alpha virt. eigenvalues --    0.66268   0.66750   0.67128   0.67290   0.67480
 Alpha virt. eigenvalues --    0.68372   0.68501   0.69254   0.69430   0.69595
 Alpha virt. eigenvalues --    0.69839   0.70081   0.70442   0.70719   0.71537
 Alpha virt. eigenvalues --    0.71739   0.72101   0.72761   0.73073   0.73238
 Alpha virt. eigenvalues --    0.73451   0.73800   0.74024   0.74425   0.74714
 Alpha virt. eigenvalues --    0.74834   0.75289   0.75895   0.76406   0.76892
 Alpha virt. eigenvalues --    0.77412   0.77866   0.78220   0.78348   0.78864
 Alpha virt. eigenvalues --    0.79513   0.79853   0.80285   0.80306   0.80820
 Alpha virt. eigenvalues --    0.81119   0.81676   0.81935   0.82253   0.82911
 Alpha virt. eigenvalues --    0.83060   0.83463   0.83608   0.83997   0.84274
 Alpha virt. eigenvalues --    0.84612   0.84807   0.85089   0.85504   0.85946
 Alpha virt. eigenvalues --    0.86165   0.86318   0.86989   0.87269   0.87677
 Alpha virt. eigenvalues --    0.88090   0.88440   0.89129   0.89572   0.90775
 Alpha virt. eigenvalues --    0.91254   0.91985   0.92445   0.92964   0.93693
 Alpha virt. eigenvalues --    0.94748   0.95031   0.95627   0.96803   0.96995
 Alpha virt. eigenvalues --    0.97818   0.98133   0.98830   0.99310   0.99551
 Alpha virt. eigenvalues --    0.99959   1.00436   1.00837   1.01324   1.01658
 Alpha virt. eigenvalues --    1.02222   1.02497   1.03018   1.03476   1.03592
 Alpha virt. eigenvalues --    1.04263   1.04414   1.04803   1.05347   1.05494
 Alpha virt. eigenvalues --    1.05960   1.06983   1.07261   1.08228   1.08517
 Alpha virt. eigenvalues --    1.09160   1.09599   1.09928   1.10267   1.11085
 Alpha virt. eigenvalues --    1.11659   1.12238   1.12493   1.12748   1.13163
 Alpha virt. eigenvalues --    1.13273   1.13512   1.14186   1.15016   1.15242
 Alpha virt. eigenvalues --    1.15583   1.15768   1.15818   1.16392   1.16935
 Alpha virt. eigenvalues --    1.17496   1.18265   1.18483   1.18825   1.18928
 Alpha virt. eigenvalues --    1.19994   1.20892   1.21808   1.22634   1.23754
 Alpha virt. eigenvalues --    1.24153   1.24792   1.25516   1.26467   1.26543
 Alpha virt. eigenvalues --    1.26860   1.27554   1.27591   1.29032   1.30458
 Alpha virt. eigenvalues --    1.30616   1.31187   1.32497   1.32770   1.33706
 Alpha virt. eigenvalues --    1.34078   1.34507   1.34906   1.35032   1.35776
 Alpha virt. eigenvalues --    1.37009   1.37659   1.38979   1.39478   1.40437
 Alpha virt. eigenvalues --    1.40822   1.41185   1.41726   1.43253   1.43809
 Alpha virt. eigenvalues --    1.43927   1.44598   1.45953   1.47250   1.47311
 Alpha virt. eigenvalues --    1.48949   1.49566   1.49989   1.51209   1.51238
 Alpha virt. eigenvalues --    1.51297   1.52072   1.52792   1.53115   1.53153
 Alpha virt. eigenvalues --    1.53697   1.54159   1.54303   1.54442   1.54690
 Alpha virt. eigenvalues --    1.55089   1.55717   1.56454   1.57061   1.57769
 Alpha virt. eigenvalues --    1.58317   1.59169   1.59884   1.60300   1.60807
 Alpha virt. eigenvalues --    1.62005   1.62294   1.63079   1.63501   1.63612
 Alpha virt. eigenvalues --    1.64153   1.64532   1.64807   1.65387   1.65708
 Alpha virt. eigenvalues --    1.66812   1.66946   1.68813   1.69854   1.70493
 Alpha virt. eigenvalues --    1.71484   1.71792   1.72112   1.72700   1.73274
 Alpha virt. eigenvalues --    1.74773   1.74819   1.75741   1.76372   1.76610
 Alpha virt. eigenvalues --    1.77128   1.77984   1.78290   1.78373   1.78897
 Alpha virt. eigenvalues --    1.79288   1.79623   1.80257   1.80486   1.80840
 Alpha virt. eigenvalues --    1.81534   1.82889   1.83220   1.84085   1.84464
 Alpha virt. eigenvalues --    1.85011   1.85856   1.86491   1.87409   1.87906
 Alpha virt. eigenvalues --    1.88371   1.88900   1.89195   1.89578   1.91465
 Alpha virt. eigenvalues --    1.92702   1.93487   1.93702   1.94627   1.95343
 Alpha virt. eigenvalues --    1.95478   1.96091   1.96446   1.97059   1.97709
 Alpha virt. eigenvalues --    1.98427   1.99120   1.99506   2.00234   2.00671
 Alpha virt. eigenvalues --    2.00907   2.01917   2.02709   2.03650   2.04489
 Alpha virt. eigenvalues --    2.04749   2.06047   2.06520   2.07032   2.07474
 Alpha virt. eigenvalues --    2.08996   2.09328   2.10294   2.10620   2.11153
 Alpha virt. eigenvalues --    2.12016   2.12411   2.13029   2.13515   2.13933
 Alpha virt. eigenvalues --    2.14754   2.15229   2.15816   2.16703   2.16807
 Alpha virt. eigenvalues --    2.17796   2.18992   2.19708   2.20591   2.21033
 Alpha virt. eigenvalues --    2.21481   2.22800   2.23208   2.24137   2.24439
 Alpha virt. eigenvalues --    2.25714   2.25835   2.27035   2.27842   2.28258
 Alpha virt. eigenvalues --    2.29055   2.30165   2.30629   2.31026   2.32005
 Alpha virt. eigenvalues --    2.33545   2.34096   2.35028   2.36263   2.38471
 Alpha virt. eigenvalues --    2.40696   2.41562   2.42666   2.44911   2.46721
 Alpha virt. eigenvalues --    2.47816   2.48243   2.49161   2.51189   2.52746
 Alpha virt. eigenvalues --    2.53115   2.53507   2.53800   2.54582   2.55872
 Alpha virt. eigenvalues --    2.56493   2.56984   2.58522   2.58755   2.59802
 Alpha virt. eigenvalues --    2.60126   2.61561   2.61695   2.61807   2.62424
 Alpha virt. eigenvalues --    2.62838   2.63197   2.63825   2.65100   2.65553
 Alpha virt. eigenvalues --    2.66718   2.67910   2.68817   2.69141   2.70300
 Alpha virt. eigenvalues --    2.72996   2.73371   2.73843   2.74565   2.76521
 Alpha virt. eigenvalues --    2.76608   2.77475   2.77815   2.78734   2.79094
 Alpha virt. eigenvalues --    2.79262   2.80515   2.80993   2.81201   2.81712
 Alpha virt. eigenvalues --    2.82308   2.82584   2.83725   2.84583   2.85356
 Alpha virt. eigenvalues --    2.87191   2.87279   2.87793   2.88537   2.90970
 Alpha virt. eigenvalues --    2.91890   2.92642   2.93184   2.94165   2.94765
 Alpha virt. eigenvalues --    2.94807   2.94995   2.95628   2.95923   2.97449
 Alpha virt. eigenvalues --    2.97593   2.98217   2.99259   2.99724   3.00573
 Alpha virt. eigenvalues --    3.01214   3.01874   3.02449   3.03766   3.04236
 Alpha virt. eigenvalues --    3.05332   3.06338   3.07432   3.08436   3.09698
 Alpha virt. eigenvalues --    3.11911   3.12960   3.13427   3.14557   3.15575
 Alpha virt. eigenvalues --    3.16994   3.17562   3.18738   3.19241   3.20956
 Alpha virt. eigenvalues --    3.22248   3.24310   3.24756   3.25681   3.26147
 Alpha virt. eigenvalues --    3.27751   3.29150   3.30282   3.32152   3.32823
 Alpha virt. eigenvalues --    3.33843   3.34335   3.35130   3.36359   3.36922
 Alpha virt. eigenvalues --    3.39605   3.40292   3.42792   3.43218   3.44329
 Alpha virt. eigenvalues --    3.44912   3.45268   3.46224   3.47043   3.48894
 Alpha virt. eigenvalues --    3.50145   3.50808   3.52308   3.54244   3.55036
 Alpha virt. eigenvalues --    3.55352   3.56555   3.57283   3.59759   3.60232
 Alpha virt. eigenvalues --    3.62413   3.64544   3.66326   3.68799   3.70888
 Alpha virt. eigenvalues --    3.71163   3.73167   3.75946   3.76955   3.78066
 Alpha virt. eigenvalues --    3.79526   3.81317   3.82759   3.83614   3.86892
 Alpha virt. eigenvalues --    3.87163   3.87552   3.91341   3.93419   3.95560
 Alpha virt. eigenvalues --    3.95825   3.95967   3.99833   4.01661   4.03249
 Alpha virt. eigenvalues --    4.04543   4.06370   4.07150   4.11449   4.13082
 Alpha virt. eigenvalues --    4.14220   4.18747   4.21141   4.22466   4.25136
 Alpha virt. eigenvalues --    4.30672   4.33898   4.35379   4.37828   4.45569
 Alpha virt. eigenvalues --    4.49885   4.51043   4.63776   4.81142   4.95127
 Alpha virt. eigenvalues --    4.95513   4.98941   5.01587   5.12993   5.14497
 Alpha virt. eigenvalues --    5.15297   5.16787   5.17416   5.21599   5.22786
 Alpha virt. eigenvalues --    5.24017   5.36610   5.38337   5.39935   5.41414
 Alpha virt. eigenvalues --    5.54727   5.55951   5.87607   5.89364   5.91442
 Alpha virt. eigenvalues --    5.93168   5.93808   5.95836   8.14808   8.17174
 Alpha virt. eigenvalues --   17.43083  17.45475  17.64266  17.67142  17.72282
 Alpha virt. eigenvalues --   17.78189  23.61983  23.70281  23.84989  23.91875
 Alpha virt. eigenvalues --   23.96246  23.97179  23.98454  24.00338  24.01201
 Alpha virt. eigenvalues --   24.02002  24.02573  24.04320  24.05172  24.06966
 Alpha virt. eigenvalues --   24.08414  24.09697  24.10103  24.13409  24.16423
 Alpha virt. eigenvalues --   24.18354  24.19594  24.21194  24.28068  24.29468
 Alpha virt. eigenvalues --   24.29638  24.29908  35.70158  35.72541  50.10790
 Alpha virt. eigenvalues --   50.12635  50.16935  50.18385  50.20690  50.21882
 Alpha virt. eigenvalues --  189.40349 189.43342
          Condensed to atoms (all electrons):
 Mulliken charges:
               1
     1  C    0.302355
     2  C   -0.010085
     3  C    0.228657
     4  C    0.242654
     5  C    0.327030
     6  C    0.114757
     7  C    0.247626
     8  C    0.399866
     9  C    0.234745
    10  C   -0.939368
    11  C    0.244941
    12  C    0.121517
    13  C   -0.555386
    14  C   -0.669424
    15  H    0.186399
    16  H    0.188454
    17  H    0.189624
    18  N   -0.042707
    19  N   -0.089449
    20  O   -0.269419
    21  O   -0.264746
    22  O   -0.275953
    23  O   -0.243231
    24  C   -0.257593
    25  H    0.198772
    26  H    0.188204
    27  H    0.201473
    28  C   -0.282702
    29  H    0.192668
    30  H    0.192764
    31  H    0.199324
    32  C   -0.079232
    33  C   -0.265884
    34  S   -0.733982
    35  C   -0.338695
    36  H    0.169671
    37  C    0.674728
    38  O   -0.106362
    39  C    0.964952
    40  C   -0.315377
    41  C    0.045612
    42  S   -0.255911
    43  H    0.182455
    44  H    0.157107
    45  H    0.179946
    46  C   -0.649385
    47  O   -0.109379
    48  C   -0.361946
    49  H    0.157716
    50  C   -0.308967
    51  H    0.188676
    52  H    0.156755
    53  H    0.185835
    54  H    0.159905
 Sum of Mulliken charges =  -0.00000
 Mulliken charges with hydrogens summed into heavy atoms:
               1
     1  C    0.302355
     2  C   -0.010085
     3  C    0.228657
     4  C    0.242654
     5  C    0.327030
     6  C    0.304381
     7  C    0.247626
     8  C    0.399866
     9  C    0.234745
    10  C   -0.939368
    11  C    0.244941
    12  C    0.121517
    13  C   -0.366932
    14  C   -0.483025
    18  N   -0.042707
    19  N   -0.089449
    20  O   -0.269419
    21  O   -0.264746
    22  O   -0.275953
    23  O   -0.243231
    24  C    0.330855
    28  C    0.302054
    32  C   -0.079232
    33  C   -0.096213
    34  S   -0.733982
    35  C   -0.338695
    37  C    0.674728
    38  O   -0.106362
    39  C    0.964952
    40  C    0.204131
    41  C    0.045612
    42  S   -0.255911
    46  C   -0.491669
    47  O   -0.109379
    48  C   -0.173270
    50  C    0.193527
 Electronic spatial extent (au):  <R**2>=          22258.5741
 Charge=             -0.0000 electrons
 Dipole moment (field-independent basis, Debye):
    X=              3.5912    Y=             -0.5176    Z=             -0.1235  Tot=              3.6304
 Quadrupole moment (field-independent basis, Debye-Ang):
   XX=           -214.4291   YY=           -205.8454   ZZ=           -220.4382
   XY=             -4.6778   XZ=              0.7657   YZ=             -8.6103
 Traceless Quadrupole moment (field-independent basis, Debye-Ang):
   XX=             -0.8582   YY=              7.7255   ZZ=             -6.8673
   XY=             -4.6778   XZ=              0.7657   YZ=             -8.6103
 Octapole moment (field-independent basis, Debye-Ang**2):
  XXX=            344.6749  YYY=            -16.1674  ZZZ=              3.7192  XYY=            127.7579
  XXY=            -83.5105  XXZ=             25.6758  XZZ=             -9.3013  YZZ=             -0.6729
  YYZ=              2.9223  XYZ=            -34.0119
 Hexadecapole moment (field-independent basis, Debye-Ang**3):
 XXXX=         -20387.5204 YYYY=          -7627.6715 ZZZZ=           -566.6954 XXXY=           -566.0947
 XXXZ=             49.1964 YYYX=            250.7179 YYYZ=            -86.9111 ZZZX=              4.2764
 ZZZY=              0.2378 XXYY=          -4861.1096 XXZZ=          -3723.5349 YYZZ=          -1390.7635
 XXYZ=           -180.9761 YYXZ=             11.6841 ZZXY=             10.8221
 N-N= 4.105088588992D+03 E-N=-1.374990674724D+04  KE= 2.352010768415D+03
 Unable to Open any file for archive entry.
 1\1\GINC-CX3-6-28\FOpt\RwB97XD\6-311+G(d,p)\C26H18N2O6S2\NS5018\29-Nov
 -2020\0\\# opt=modredundant wb97xd/6-311+g(d,p)\\NDI_-15.pdb\\0,1\C,-2
 .5873586693,-2.962223789,-0.560340591\C,-2.2641200502,-1.5321849585,-0
 .3099158495\C,-3.2940328715,-0.5890239903,-0.1189891541\C,-4.642049063
 5,-0.9878164333,-0.1668171335\C,-4.9981389657,-2.4100563085,-0.4248154
 212\C,-0.9635456109,-1.1352807933,-0.2987766946\C,-2.9398101537,0.7517
 068689,0.1416728003\C,-1.5699105603,1.160117488,0.1707418576\C,-0.5555
 209364,0.2176092504,-0.0846665621\C,-1.2961152373,2.5324441628,0.68606
 29422\C,-3.7198080145,3.0806870693,0.6888924675\C,-3.996940301,1.66541
 87582,0.3588471806\C,-5.3144976907,1.2641670211,0.2930274672\C,-5.6470
 541353,-0.0678665728,0.0284377529\H,-6.6792140879,-0.3915541419,-0.016
 6251036\H,-6.0844222251,2.0072872629,0.4604762369\H,-0.220744427,-1.89
 68050621,-0.5019554833\N,-2.3811260374,3.3993522825,0.8720409884\N,-3.
 9371415933,-3.3044101084,-0.5968152099\O,-1.7343132641,-3.8031486343,-
 0.7336068679\O,-6.1483736297,-2.7805411198,-0.4801684941\O,-4.59914996
 62,3.9039716811,0.8210556904\O,-0.1913580109,2.9537112393,0.9518706797
 \C,-2.0467422246,4.7504452161,1.3203266332\H,-1.5246282185,4.704447683
 3,2.2757963905\H,-1.3932809727,5.2319228295,0.5923816478\H,-2.97449619
 69,5.3060140615,1.4184538351\C,-4.2405584799,-4.7123355619,-0.84886374
 92\H,-3.8091285492,-5.0165715628,-1.8025265943\H,-3.8098021027,-5.3290
 441279,-0.0597376276\H,-5.3204910855,-4.8239266832,-0.8684314426\C,0.8
 672719915,0.4668513844,-0.3319209137\C,1.5454508218,1.6185555821,-0.64
 89598696\S,1.9898148496,-0.8601688612,-0.1657465588\C,2.9319369869,1.4
 276560821,-0.7880298278\H,1.0633650454,2.5692387408,-0.7889258046\C,3.
 3521678942,0.1318082967,-0.5471468957\O,3.8393186377,2.3749475211,-1.1
 164227154\C,4.7034298613,-0.3748556024,-0.5878906834\C,3.3816196882,3.
 7103650057,-1.2061206531\C,5.1143879029,-1.6730661006,-0.361750429\S,6
 .084485212,0.6271902968,-0.9417212555\H,4.2635301124,4.3192355182,-1.3
 965110588\H,2.6742651929,3.8296526596,-2.0340396566\H,2.9090820372,4.0
 282322305,-0.2709335451\C,6.5192623455,-1.8600081254,-0.4713194036\O,4
 .1996230991,-2.6210795119,-0.0646039979\C,7.1576684359,-0.6967022053,-
 0.7799284678\H,7.0289506513,-2.8020276458,-0.3299539191\C,4.658125822,
 -3.9448091035,0.1243346628\H,8.2174972549,-0.5495049194,-0.9231404427\
 H,5.3487940191,-4.0057353622,0.9721310368\H,3.7737795,-4.5430325311,0.
 3353162167\H,5.1470459698,-4.3252563757,-0.7787484102\\Version=ES64L-G
 16RevC.01\State=1-A\HF=-2358.7707509\RMSD=4.360e-09\RMSF=1.718e-03\Dip
 ole=1.4019028,-0.2151712,-0.1685713\Quadrupole=-0.7426778,7.1619837,-6
 .419306,-3.7523443,-0.2945233,-4.7369776\PG=C01 [X(C26H18N2O6S2)]\\@
 The archive entry for this job was punched.


 ADAM SMITH SAID, "THE REAL PRICE OF ANYTHING IS THE TOIL AND TROUBLE
 OF ACQUIRING IT."  BUT IN ALL UNDERTAKINGS WITH NATURE WE SHOULD FIRST
 READ CAREFULLY THE SMALL PRINT IN THE CONTRACT. THIS MIGHT DISCLOSE
 THAT THE REAL PRICE IS TO BE PAID BY THOSE WHO INHERIT THE DEPLETION
 AND DESPOILATION THAT FOLLOWS.
                               -- E. R. HARRISON IN "COSMOLOGY" (1980)
 Job cpu time:       2 days  8 hours  2 minutes 36.4 seconds.
 Elapsed time:       0 days  7 hours  3 minutes 46.0 seconds.
 File lengths (MBytes):  RWF=    496 Int=      0 D2E=      0 Chk=     61 Scr=      1
 Normal termination of Gaussian 16 at Sun Nov 29 22:52:52 2020.
