 Entering Gaussian System, Link 0=g16
 Input=NDI_-100.gjf
 Output=NDI_-100.log
 Initial command:
 /apps/gaussian/g16-c01-avx/g16/l1.exe "/tmp/pbs.2626208[16].pbs/Gau-2689199.inp" -scrdir="/tmp/pbs.2626208[16].pbs/"
 Entering Link 1 = /apps/gaussian/g16-c01-avx/g16/l1.exe PID=   2689200.
  
 Copyright (c) 1988-2019, Gaussian, Inc.  All Rights Reserved.
  
 This is part of the Gaussian(R) 16 program.  It is based on
 the Gaussian(R) 09 system (copyright 2009, Gaussian, Inc.),
 the Gaussian(R) 03 system (copyright 2003, Gaussian, Inc.),
 the Gaussian(R) 98 system (copyright 1998, Gaussian, Inc.),
 the Gaussian(R) 94 system (copyright 1995, Gaussian, Inc.),
 the Gaussian 92(TM) system (copyright 1992, Gaussian, Inc.),
 the Gaussian 90(TM) system (copyright 1990, Gaussian, Inc.),
 the Gaussian 88(TM) system (copyright 1988, Gaussian, Inc.),
 the Gaussian 86(TM) system (copyright 1986, Carnegie Mellon
 University), and the Gaussian 82(TM) system (copyright 1983,
 Carnegie Mellon University). Gaussian is a federally registered
 trademark of Gaussian, Inc.
  
 This software contains proprietary and confidential information,
 including trade secrets, belonging to Gaussian, Inc.
  
 This software is provided under written license and may be
 used, copied, transmitted, or stored only in accord with that
 written license.
  
 The following legend is applicable only to US Government
 contracts under FAR:
  
                    RESTRICTED RIGHTS LEGEND
  
 Use, reproduction and disclosure by the US Government is
 subject to restrictions as set forth in subparagraphs (a)
 and (c) of the Commercial Computer Software - Restricted
 Rights clause in FAR 52.227-19.
  
 Gaussian, Inc.
 340 Quinnipiac St., Bldg. 40, Wallingford CT 06492
  
  
 ---------------------------------------------------------------
 Warning -- This program may not be used in any manner that
 competes with the business of Gaussian, Inc. or will provide
 assistance to any competitor of Gaussian, Inc.  The licensee
 of this program is prohibited from giving any competitor of
 Gaussian, Inc. access to this program.  By using this program,
 the user acknowledges that Gaussian, Inc. is engaged in the
 business of creating and licensing software in the field of
 computational chemistry and represents and warrants to the
 licensee that it is not a competitor of Gaussian, Inc. and that
 it will not use this program in any manner prohibited above.
 ---------------------------------------------------------------
  

 Cite this work as:
 Gaussian 16, Revision C.01,
 M. J. Frisch, G. W. Trucks, H. B. Schlegel, G. E. Scuseria, 
 M. A. Robb, J. R. Cheeseman, G. Scalmani, V. Barone, 
 G. A. Petersson, H. Nakatsuji, X. Li, M. Caricato, A. V. Marenich, 
 J. Bloino, B. G. Janesko, R. Gomperts, B. Mennucci, H. P. Hratchian, 
 J. V. Ortiz, A. F. Izmaylov, J. L. Sonnenberg, D. Williams-Young, 
 F. Ding, F. Lipparini, F. Egidi, J. Goings, B. Peng, A. Petrone, 
 T. Henderson, D. Ranasinghe, V. G. Zakrzewski, J. Gao, N. Rega, 
 G. Zheng, W. Liang, M. Hada, M. Ehara, K. Toyota, R. Fukuda, 
 J. Hasegawa, M. Ishida, T. Nakajima, Y. Honda, O. Kitao, H. Nakai, 
 T. Vreven, K. Throssell, J. A. Montgomery, Jr., J. E. Peralta, 
 F. Ogliaro, M. J. Bearpark, J. J. Heyd, E. N. Brothers, K. N. Kudin, 
 V. N. Staroverov, T. A. Keith, R. Kobayashi, J. Normand, 
 K. Raghavachari, A. P. Rendell, J. C. Burant, S. S. Iyengar, 
 J. Tomasi, M. Cossi, J. M. Millam, M. Klene, C. Adamo, R. Cammi, 
 J. W. Ochterski, R. L. Martin, K. Morokuma, O. Farkas, 
 J. B. Foresman, and D. J. Fox, Gaussian, Inc., Wallingford CT, 2019.
 
 ******************************************
 Gaussian 16:  ES64L-G16RevC.01  3-Jul-2019
                29-Nov-2020 
 ******************************************
 %mem=10GB
 %nprocshared=8
 Will use up to    8 processors via shared memory.
 --------------------------------------
 # opt=modredundant wb97xd/6-311+g(d,p)
 --------------------------------------
 1/18=120,19=15,26=3,38=1/1,3;
 2/9=110,12=2,17=6,18=5,40=1/2;
 3/5=4,6=6,7=111,11=2,25=1,30=1,71=1,74=-58/1,2,3;
 4//1;
 5/5=2,38=5/2;
 6/7=2,8=2,9=2,10=2,28=1/1;
 7//1,2,3,16;
 1/18=20,19=15,26=3/3(2);
 2/9=110/2;
 99//99;
 2/9=110/2;
 3/5=4,6=6,7=111,11=2,25=1,30=1,71=1,74=-58/1,2,3;
 4/5=5,16=3,69=1/1;
 5/5=2,38=5/2;
 7//1,2,3,16;
 1/18=20,19=15,26=3/3(-5);
 2/9=110/2;
 6/7=2,8=2,9=2,10=2,19=2,28=1/1;
 99/9=1/99;
 ------------
 NDI_-100.pdb
 ------------
 Symbolic Z-matrix:
 Charge =  0 Multiplicity = 1
 C                    -2.563    -2.994    -0.409 
 C                    -2.257    -1.551    -0.224 
 C                    -3.301    -0.607    -0.083 
 C                    -4.65     -1.024    -0.115 
 C                    -4.992    -2.459    -0.304 
 C                    -0.949    -1.137    -0.215 
 C                    -2.962     0.764     0.102 
 C                    -1.595     1.188     0.123 
 C                    -0.561     0.232    -0.072 
 C                    -1.328     2.616     0.446 
 C                    -3.777     3.115     0.508 
 C                    -4.035     1.679     0.268 
 C                    -5.356     1.252     0.23 
 C                    -5.672    -0.098     0.036 
 H                    -6.699    -0.442     0.008 
 H                    -6.133     1.997     0.361 
 H                    -0.19     -1.895    -0.369 
 N                    -2.432     3.476     0.608 
 N                    -3.916    -3.353    -0.438 
 O                    -1.695    -3.847    -0.532 
 O                    -6.149    -2.85     -0.34 
 O                    -4.676     3.938     0.629 
 O                    -0.212     3.097     0.596 
 C                    -2.111     4.875     0.912 
 H                    -1.54      4.931     1.84 
 H                    -1.5       5.299     0.111 
 H                    -3.05      5.414     1.003 
 C                    -4.206    -4.779    -0.625 
 H                    -3.759    -5.126    -1.559 
 H                    -3.775    -5.355     0.196 
 H                    -5.286    -4.897    -0.649 
 C                     0.876     0.482    -0.178 
 C                     1.7       0.565    -1.284 
 S                     1.836     0.561     1.3 
 C                     3.065     0.695    -0.96 
 H                     1.325     0.542    -2.294 
 C                     3.334     0.722     0.412 
 O                     4.099     0.793    -1.838 
 C                     4.608     0.886     1.053 
 C                     3.778     0.906    -3.222 
 C                     4.877     0.89      2.421 
 S                     6.109     1.121     0.163 
 H                     4.726     1.053    -3.738 
 H                     3.3      -0.009    -3.594 
 H                     3.119     1.762    -3.407 
 C                     6.251     1.077     2.744 
 O                     3.853     0.726     3.3 
 C                     7.025     1.214     1.624 
 H                     6.644     1.106     3.751 
 C                     4.164     0.699     4.688 
 H                     8.095     1.365     1.578 
 H                     4.608     1.648     5.015 
 H                     3.217     0.546     5.205 
 H                     4.847    -0.124     4.927 
 
 The following ModRedundant input section has been read:
 D       8       9      32      33 F                                           
 D      33      35      38      40 F                                           
 D      46      41      47      50 F                                           
 D      10      18      24      25 F                                           
 D       1      19      28      30 F                                           
 D       9       8      10      23 F                                           
 D      20       1       2       6 F                                           
 

 GradGradGradGradGradGradGradGradGradGradGradGradGradGradGradGradGradGrad
 Berny optimization.
 Initialization pass.
                           ----------------------------
                           !    Initial Parameters    !
                           ! (Angstroms and Degrees)  !
 --------------------------                            --------------------------
 ! Name  Definition              Value          Derivative Info.                !
 --------------------------------------------------------------------------------
 ! R1    R(1,2)                  1.4866         estimate D2E/DX2                !
 ! R2    R(1,19)                 1.4001         estimate D2E/DX2                !
 ! R3    R(1,20)                 1.2232         estimate D2E/DX2                !
 ! R4    R(2,3)                  1.4146         estimate D2E/DX2                !
 ! R5    R(2,6)                  1.372          estimate D2E/DX2                !
 ! R6    R(3,4)                  1.4123         estimate D2E/DX2                !
 ! R7    R(3,7)                  1.4244         estimate D2E/DX2                !
 ! R8    R(4,5)                  1.4872         estimate D2E/DX2                !
 ! R9    R(4,14)                 1.3874         estimate D2E/DX2                !
 ! R10   R(5,19)                 1.4053         estimate D2E/DX2                !
 ! R11   R(5,21)                 1.2218         estimate D2E/DX2                !
 ! R12   R(6,9)                  1.4301         estimate D2E/DX2                !
 ! R13   R(6,17)                 1.0837         estimate D2E/DX2                !
 ! R14   R(7,8)                  1.4314         estimate D2E/DX2                !
 ! R15   R(7,12)                 1.4199         estimate D2E/DX2                !
 ! R16   R(8,9)                  1.4217         estimate D2E/DX2                !
 ! R17   R(8,10)                 1.4882         estimate D2E/DX2                !
 ! R18   R(9,32)                 1.4624         estimate D2E/DX2                !
 ! R19   R(10,18)                1.4088         estimate D2E/DX2                !
 ! R20   R(10,23)                1.2245         estimate D2E/DX2                !
 ! R21   R(11,12)                1.4786         estimate D2E/DX2                !
 ! R22   R(11,18)                1.3962         estimate D2E/DX2                !
 ! R23   R(11,22)                1.2248         estimate D2E/DX2                !
 ! R24   R(12,13)                1.3888         estimate D2E/DX2                !
 ! R25   R(13,14)                1.4            estimate D2E/DX2                !
 ! R26   R(13,16)                1.0844         estimate D2E/DX2                !
 ! R27   R(14,15)                1.0834         estimate D2E/DX2                !
 ! R28   R(18,24)                1.4672         estimate D2E/DX2                !
 ! R29   R(19,28)                1.4672         estimate D2E/DX2                !
 ! R30   R(24,25)                1.091          estimate D2E/DX2                !
 ! R31   R(24,26)                1.093          estimate D2E/DX2                !
 ! R32   R(24,27)                1.0865         estimate D2E/DX2                !
 ! R33   R(28,29)                1.0921         estimate D2E/DX2                !
 ! R34   R(28,30)                1.0916         estimate D2E/DX2                !
 ! R35   R(28,31)                1.0867         estimate D2E/DX2                !
 ! R36   R(32,33)                1.3817         estimate D2E/DX2                !
 ! R37   R(32,34)                1.7642         estimate D2E/DX2                !
 ! R38   R(33,35)                1.4089         estimate D2E/DX2                !
 ! R39   R(33,36)                1.0776         estimate D2E/DX2                !
 ! R40   R(34,37)                1.7488         estimate D2E/DX2                !
 ! R41   R(35,37)                1.3984         estimate D2E/DX2                !
 ! R42   R(35,38)                1.36           estimate D2E/DX2                !
 ! R43   R(37,39)                1.4356         estimate D2E/DX2                !
 ! R44   R(38,40)                1.4252         estimate D2E/DX2                !
 ! R45   R(39,41)                1.3942         estimate D2E/DX2                !
 ! R46   R(39,42)                1.7608         estimate D2E/DX2                !
 ! R47   R(40,43)                1.0893         estimate D2E/DX2                !
 ! R48   R(40,44)                1.0973         estimate D2E/DX2                !
 ! R49   R(40,45)                1.096          estimate D2E/DX2                !
 ! R50   R(41,46)                1.4238         estimate D2E/DX2                !
 ! R51   R(41,47)                1.3595         estimate D2E/DX2                !
 ! R52   R(42,48)                1.7269         estimate D2E/DX2                !
 ! R53   R(46,48)                1.3683         estimate D2E/DX2                !
 ! R54   R(46,49)                1.0814         estimate D2E/DX2                !
 ! R55   R(47,50)                1.4227         estimate D2E/DX2                !
 ! R56   R(48,51)                1.0816         estimate D2E/DX2                !
 ! R57   R(50,52)                1.0976         estimate D2E/DX2                !
 ! R58   R(50,53)                1.0897         estimate D2E/DX2                !
 ! R59   R(50,54)                1.0959         estimate D2E/DX2                !
 ! A1    A(2,1,19)             116.767          estimate D2E/DX2                !
 ! A2    A(2,1,20)             122.9113         estimate D2E/DX2                !
 ! A3    A(19,1,20)            120.3217         estimate D2E/DX2                !
 ! A4    A(1,2,3)              120.5473         estimate D2E/DX2                !
 ! A5    A(1,2,6)              119.3369         estimate D2E/DX2                !
 ! A6    A(3,2,6)              120.1056         estimate D2E/DX2                !
 ! A7    A(2,3,4)              120.3743         estimate D2E/DX2                !
 ! A8    A(2,3,7)              118.662          estimate D2E/DX2                !
 ! A9    A(4,3,7)              120.9617         estimate D2E/DX2                !
 ! A10   A(3,4,5)              120.4909         estimate D2E/DX2                !
 ! A11   A(3,4,14)             120.2702         estimate D2E/DX2                !
 ! A12   A(5,4,14)             119.2382         estimate D2E/DX2                !
 ! A13   A(4,5,19)             116.7341         estimate D2E/DX2                !
 ! A14   A(4,5,21)             122.024          estimate D2E/DX2                !
 ! A15   A(19,5,21)            121.2418         estimate D2E/DX2                !
 ! A16   A(2,6,9)              123.2421         estimate D2E/DX2                !
 ! A17   A(2,6,17)             117.1119         estimate D2E/DX2                !
 ! A18   A(9,6,17)             119.589          estimate D2E/DX2                !
 ! A19   A(3,7,8)              120.9519         estimate D2E/DX2                !
 ! A20   A(3,7,12)             117.1037         estimate D2E/DX2                !
 ! A21   A(8,7,12)             121.944          estimate D2E/DX2                !
 ! A22   A(7,8,9)              119.5639         estimate D2E/DX2                !
 ! A23   A(7,8,10)             117.3064         estimate D2E/DX2                !
 ! A24   A(9,8,10)             122.9922         estimate D2E/DX2                !
 ! A25   A(6,9,8)              117.3944         estimate D2E/DX2                !
 ! A26   A(6,9,32)             115.0236         estimate D2E/DX2                !
 ! A27   A(8,9,32)             127.5648         estimate D2E/DX2                !
 ! A28   A(8,10,18)            118.042          estimate D2E/DX2                !
 ! A29   A(8,10,23)            124.5436         estimate D2E/DX2                !
 ! A30   A(18,10,23)           117.4097         estimate D2E/DX2                !
 ! A31   A(12,11,18)           115.5202         estimate D2E/DX2                !
 ! A32   A(12,11,22)           122.7205         estimate D2E/DX2                !
 ! A33   A(18,11,22)           121.7534         estimate D2E/DX2                !
 ! A34   A(7,12,11)            120.8614         estimate D2E/DX2                !
 ! A35   A(7,12,13)            121.162          estimate D2E/DX2                !
 ! A36   A(11,12,13)           117.9699         estimate D2E/DX2                !
 ! A37   A(12,13,14)           120.9948         estimate D2E/DX2                !
 ! A38   A(12,13,16)           117.8401         estimate D2E/DX2                !
 ! A39   A(14,13,16)           121.1642         estimate D2E/DX2                !
 ! A40   A(4,14,13)            119.5003         estimate D2E/DX2                !
 ! A41   A(4,14,15)            118.9169         estimate D2E/DX2                !
 ! A42   A(13,14,15)           121.5811         estimate D2E/DX2                !
 ! A43   A(10,18,11)           126.0753         estimate D2E/DX2                !
 ! A44   A(10,18,24)           115.7508         estimate D2E/DX2                !
 ! A45   A(11,18,24)           118.1737         estimate D2E/DX2                !
 ! A46   A(1,19,5)             125.0856         estimate D2E/DX2                !
 ! A47   A(1,19,28)            116.2868         estimate D2E/DX2                !
 ! A48   A(5,19,28)            118.6276         estimate D2E/DX2                !
 ! A49   A(18,24,25)           109.8574         estimate D2E/DX2                !
 ! A50   A(18,24,26)           109.8979         estimate D2E/DX2                !
 ! A51   A(18,24,27)           107.5355         estimate D2E/DX2                !
 ! A52   A(25,24,26)           108.1108         estimate D2E/DX2                !
 ! A53   A(25,24,27)           110.8301         estimate D2E/DX2                !
 ! A54   A(26,24,27)           110.6124         estimate D2E/DX2                !
 ! A55   A(19,28,29)           109.6906         estimate D2E/DX2                !
 ! A56   A(19,28,30)           109.8136         estimate D2E/DX2                !
 ! A57   A(19,28,31)           107.7461         estimate D2E/DX2                !
 ! A58   A(29,28,30)           108.2991         estimate D2E/DX2                !
 ! A59   A(29,28,31)           110.6959         estimate D2E/DX2                !
 ! A60   A(30,28,31)           110.5924         estimate D2E/DX2                !
 ! A61   A(9,32,33)            130.8653         estimate D2E/DX2                !
 ! A62   A(9,32,34)            118.792          estimate D2E/DX2                !
 ! A63   A(33,32,34)           110.0844         estimate D2E/DX2                !
 ! A64   A(32,33,35)           113.5305         estimate D2E/DX2                !
 ! A65   A(32,33,36)           122.7807         estimate D2E/DX2                !
 ! A66   A(35,33,36)           123.6859         estimate D2E/DX2                !
 ! A67   A(32,34,37)            92.5698         estimate D2E/DX2                !
 ! A68   A(33,35,37)           114.4419         estimate D2E/DX2                !
 ! A69   A(33,35,38)           126.496          estimate D2E/DX2                !
 ! A70   A(37,35,38)           119.0621         estimate D2E/DX2                !
 ! A71   A(34,37,35)           109.3679         estimate D2E/DX2                !
 ! A72   A(34,37,39)           122.9533         estimate D2E/DX2                !
 ! A73   A(35,37,39)           127.6626         estimate D2E/DX2                !
 ! A74   A(35,38,40)           117.4764         estimate D2E/DX2                !
 ! A75   A(37,39,41)           127.5661         estimate D2E/DX2                !
 ! A76   A(37,39,42)           123.0983         estimate D2E/DX2                !
 ! A77   A(41,39,42)           109.3356         estimate D2E/DX2                !
 ! A78   A(38,40,43)           105.9433         estimate D2E/DX2                !
 ! A79   A(38,40,44)           111.1741         estimate D2E/DX2                !
 ! A80   A(38,40,45)           111.1774         estimate D2E/DX2                !
 ! A81   A(43,40,44)           109.3322         estimate D2E/DX2                !
 ! A82   A(43,40,45)           109.7504         estimate D2E/DX2                !
 ! A83   A(44,40,45)           109.3969         estimate D2E/DX2                !
 ! A84   A(39,41,46)           114.1526         estimate D2E/DX2                !
 ! A85   A(39,41,47)           119.2587         estimate D2E/DX2                !
 ! A86   A(46,41,47)           126.5886         estimate D2E/DX2                !
 ! A87   A(39,42,48)            91.8183         estimate D2E/DX2                !
 ! A88   A(41,46,48)           111.9219         estimate D2E/DX2                !
 ! A89   A(41,46,49)           124.4373         estimate D2E/DX2                !
 ! A90   A(48,46,49)           123.6406         estimate D2E/DX2                !
 ! A91   A(41,47,50)           117.934          estimate D2E/DX2                !
 ! A92   A(42,48,46)           112.7716         estimate D2E/DX2                !
 ! A93   A(42,48,51)           119.7545         estimate D2E/DX2                !
 ! A94   A(46,48,51)           127.4739         estimate D2E/DX2                !
 ! A95   A(47,50,52)           111.2656         estimate D2E/DX2                !
 ! A96   A(47,50,53)           105.9955         estimate D2E/DX2                !
 ! A97   A(47,50,54)           111.3013         estimate D2E/DX2                !
 ! A98   A(52,50,53)           109.3656         estimate D2E/DX2                !
 ! A99   A(52,50,54)           109.405          estimate D2E/DX2                !
 ! A100  A(53,50,54)           109.4331         estimate D2E/DX2                !
 ! D1    D(19,1,2,3)             0.1578         estimate D2E/DX2                !
 ! D2    D(19,1,2,6)          -178.6792         estimate D2E/DX2                !
 ! D3    D(20,1,2,3)          -179.8231         estimate D2E/DX2                !
 ! D4    D(20,1,2,6)             1.3399         Frozen                          !
 ! D5    D(2,1,19,5)            -0.124          estimate D2E/DX2                !
 ! D6    D(2,1,19,28)          179.8267         estimate D2E/DX2                !
 ! D7    D(20,1,19,5)          179.8575         estimate D2E/DX2                !
 ! D8    D(20,1,19,28)          -0.1919         estimate D2E/DX2                !
 ! D9    D(1,2,3,4)              0.0571         estimate D2E/DX2                !
 ! D10   D(1,2,3,7)            179.5453         estimate D2E/DX2                !
 ! D11   D(6,2,3,4)            178.8851         estimate D2E/DX2                !
 ! D12   D(6,2,3,7)             -1.6266         estimate D2E/DX2                !
 ! D13   D(1,2,6,9)            178.625          estimate D2E/DX2                !
 ! D14   D(1,2,6,17)             1.3881         estimate D2E/DX2                !
 ! D15   D(3,2,6,9)             -0.2173         estimate D2E/DX2                !
 ! D16   D(3,2,6,17)          -177.4541         estimate D2E/DX2                !
 ! D17   D(2,3,4,5)             -0.3074         estimate D2E/DX2                !
 ! D18   D(2,3,4,14)           179.3968         estimate D2E/DX2                !
 ! D19   D(7,3,4,5)           -179.7837         estimate D2E/DX2                !
 ! D20   D(7,3,4,14)            -0.0795         estimate D2E/DX2                !
 ! D21   D(2,3,7,8)              1.0523         estimate D2E/DX2                !
 ! D22   D(2,3,7,12)          -178.712          estimate D2E/DX2                !
 ! D23   D(4,3,7,8)           -179.4626         estimate D2E/DX2                !
 ! D24   D(4,3,7,12)             0.7731         estimate D2E/DX2                !
 ! D25   D(3,4,5,19)             0.3343         estimate D2E/DX2                !
 ! D26   D(3,4,5,21)          -179.7799         estimate D2E/DX2                !
 ! D27   D(14,4,5,19)         -179.3729         estimate D2E/DX2                !
 ! D28   D(14,4,5,21)            0.5129         estimate D2E/DX2                !
 ! D29   D(3,4,14,13)           -0.4559         estimate D2E/DX2                !
 ! D30   D(3,4,14,15)         -179.9937         estimate D2E/DX2                !
 ! D31   D(5,4,14,13)          179.252          estimate D2E/DX2                !
 ! D32   D(5,4,14,15)           -0.2858         estimate D2E/DX2                !
 ! D33   D(4,5,19,1)            -0.1141         estimate D2E/DX2                !
 ! D34   D(4,5,19,28)          179.9364         estimate D2E/DX2                !
 ! D35   D(21,5,19,1)          179.9992         estimate D2E/DX2                !
 ! D36   D(21,5,19,28)           0.0496         estimate D2E/DX2                !
 ! D37   D(2,6,9,8)              2.5984         estimate D2E/DX2                !
 ! D38   D(2,6,9,32)          -176.0103         estimate D2E/DX2                !
 ! D39   D(17,6,9,8)           179.77           estimate D2E/DX2                !
 ! D40   D(17,6,9,32)            1.1613         estimate D2E/DX2                !
 ! D41   D(3,7,8,9)              1.3551         estimate D2E/DX2                !
 ! D42   D(3,7,8,10)          -174.5099         estimate D2E/DX2                !
 ! D43   D(12,7,8,9)          -178.8921         estimate D2E/DX2                !
 ! D44   D(12,7,8,10)            5.2428         estimate D2E/DX2                !
 ! D45   D(3,7,12,11)          178.0768         estimate D2E/DX2                !
 ! D46   D(3,7,12,13)           -0.9621         estimate D2E/DX2                !
 ! D47   D(8,7,12,11)           -1.685          estimate D2E/DX2                !
 ! D48   D(8,7,12,13)          179.2761         estimate D2E/DX2                !
 ! D49   D(7,8,9,6)             -3.0809         estimate D2E/DX2                !
 ! D50   D(7,8,9,32)           175.3285         estimate D2E/DX2                !
 ! D51   D(10,8,9,6)           172.5381         estimate D2E/DX2                !
 ! D52   D(10,8,9,32)           -9.0525         estimate D2E/DX2                !
 ! D53   D(7,8,10,18)           -4.7549         estimate D2E/DX2                !
 ! D54   D(7,8,10,23)          174.4235         estimate D2E/DX2                !
 ! D55   D(9,8,10,18)          179.5335         estimate D2E/DX2                !
 ! D56   D(9,8,10,23)           -1.2882         Frozen                          !
 ! D57   D(6,9,32,33)           78.4256         estimate D2E/DX2                !
 ! D58   D(6,9,32,34)          -95.0971         estimate D2E/DX2                !
 ! D59   D(8,9,32,33)         -100.016          Frozen                          !
 ! D60   D(8,9,32,34)           86.4614         estimate D2E/DX2                !
 ! D61   D(8,10,18,11)           0.7189         estimate D2E/DX2                !
 ! D62   D(8,10,18,24)        -179.4089         estimate D2E/DX2                !
 ! D63   D(23,10,18,11)       -178.5188         estimate D2E/DX2                !
 ! D64   D(23,10,18,24)          1.3535         estimate D2E/DX2                !
 ! D65   D(18,11,12,7)          -2.3856         estimate D2E/DX2                !
 ! D66   D(18,11,12,13)        176.6833         estimate D2E/DX2                !
 ! D67   D(22,11,12,7)         178.4862         estimate D2E/DX2                !
 ! D68   D(22,11,12,13)         -2.445          estimate D2E/DX2                !
 ! D69   D(12,11,18,10)          2.8444         estimate D2E/DX2                !
 ! D70   D(12,11,18,24)       -177.0251         estimate D2E/DX2                !
 ! D71   D(22,11,18,10)       -178.0181         estimate D2E/DX2                !
 ! D72   D(22,11,18,24)          2.1124         estimate D2E/DX2                !
 ! D73   D(7,12,13,14)           0.461          estimate D2E/DX2                !
 ! D74   D(7,12,13,16)        -179.8781         estimate D2E/DX2                !
 ! D75   D(11,12,13,14)       -178.6049         estimate D2E/DX2                !
 ! D76   D(11,12,13,16)          1.056          estimate D2E/DX2                !
 ! D77   D(12,13,14,4)           0.2708         estimate D2E/DX2                !
 ! D78   D(12,13,14,15)        179.7958         estimate D2E/DX2                !
 ! D79   D(16,13,14,4)        -179.3788         estimate D2E/DX2                !
 ! D80   D(16,13,14,15)          0.1463         estimate D2E/DX2                !
 ! D81   D(10,18,24,25)        -59.609          Frozen                          !
 ! D82   D(10,18,24,26)         59.2209         estimate D2E/DX2                !
 ! D83   D(10,18,24,27)        179.6858         estimate D2E/DX2                !
 ! D84   D(11,18,24,25)        120.2739         estimate D2E/DX2                !
 ! D85   D(11,18,24,26)       -120.8962         estimate D2E/DX2                !
 ! D86   D(11,18,24,27)         -0.4313         estimate D2E/DX2                !
 ! D87   D(1,19,28,29)         -58.1407         estimate D2E/DX2                !
 ! D88   D(1,19,28,30)          60.7668         Frozen                          !
 ! D89   D(1,19,28,31)        -178.7139         estimate D2E/DX2                !
 ! D90   D(5,19,28,29)         121.8132         estimate D2E/DX2                !
 ! D91   D(5,19,28,30)        -119.2792         estimate D2E/DX2                !
 ! D92   D(5,19,28,31)           1.2401         estimate D2E/DX2                !
 ! D93   D(9,32,33,35)        -174.2358         estimate D2E/DX2                !
 ! D94   D(9,32,33,36)           6.3631         estimate D2E/DX2                !
 ! D95   D(34,32,33,35)         -0.2783         estimate D2E/DX2                !
 ! D96   D(34,32,33,36)       -179.6794         estimate D2E/DX2                !
 ! D97   D(9,32,34,37)         175.3529         estimate D2E/DX2                !
 ! D98   D(33,32,34,37)          0.5647         estimate D2E/DX2                !
 ! D99   D(32,33,35,37)         -0.2656         estimate D2E/DX2                !
 ! D100  D(32,33,35,38)        179.7715         estimate D2E/DX2                !
 ! D101  D(36,33,35,37)        179.1293         estimate D2E/DX2                !
 ! D102  D(36,33,35,38)         -0.8336         estimate D2E/DX2                !
 ! D103  D(32,34,37,35)         -0.699          estimate D2E/DX2                !
 ! D104  D(32,34,37,39)        177.9379         estimate D2E/DX2                !
 ! D105  D(33,35,37,34)          0.6792         estimate D2E/DX2                !
 ! D106  D(33,35,37,39)       -177.876          estimate D2E/DX2                !
 ! D107  D(38,35,37,34)       -179.3548         estimate D2E/DX2                !
 ! D108  D(38,35,37,39)          2.09           estimate D2E/DX2                !
 ! D109  D(33,35,38,40)          6.5154         Frozen                          !
 ! D110  D(37,35,38,40)       -173.4461         estimate D2E/DX2                !
 ! D111  D(34,37,39,41)          2.808          estimate D2E/DX2                !
 ! D112  D(34,37,39,42)       -177.1574         estimate D2E/DX2                !
 ! D113  D(35,37,39,41)       -178.8164         estimate D2E/DX2                !
 ! D114  D(35,37,39,42)          1.2182         estimate D2E/DX2                !
 ! D115  D(35,38,40,43)        175.5182         estimate D2E/DX2                !
 ! D116  D(35,38,40,44)        -65.8048         estimate D2E/DX2                !
 ! D117  D(35,38,40,45)         56.3372         estimate D2E/DX2                !
 ! D118  D(37,39,41,46)       -179.9574         estimate D2E/DX2                !
 ! D119  D(37,39,41,47)         -0.1176         estimate D2E/DX2                !
 ! D120  D(42,39,41,46)          0.0119         estimate D2E/DX2                !
 ! D121  D(42,39,41,47)        179.8516         estimate D2E/DX2                !
 ! D122  D(37,39,42,48)        179.9842         estimate D2E/DX2                !
 ! D123  D(41,39,42,48)          0.0132         estimate D2E/DX2                !
 ! D124  D(39,41,46,48)         -0.0394         estimate D2E/DX2                !
 ! D125  D(39,41,46,49)       -179.8965         estimate D2E/DX2                !
 ! D126  D(47,41,46,48)       -179.8653         estimate D2E/DX2                !
 ! D127  D(47,41,46,49)          0.2776         estimate D2E/DX2                !
 ! D128  D(39,41,47,50)        178.3588         estimate D2E/DX2                !
 ! D129  D(46,41,47,50)         -1.8233         Frozen                          !
 ! D130  D(39,42,48,46)         -0.0363         estimate D2E/DX2                !
 ! D131  D(39,42,48,51)        179.8961         estimate D2E/DX2                !
 ! D132  D(41,46,48,42)          0.049          estimate D2E/DX2                !
 ! D133  D(41,46,48,51)       -179.877          estimate D2E/DX2                !
 ! D134  D(49,46,48,42)        179.9075         estimate D2E/DX2                !
 ! D135  D(49,46,48,51)         -0.0186         estimate D2E/DX2                !
 ! D136  D(41,47,50,52)         62.0195         estimate D2E/DX2                !
 ! D137  D(41,47,50,53)       -179.1827         estimate D2E/DX2                !
 ! D138  D(41,47,50,54)        -60.2844         estimate D2E/DX2                !
 --------------------------------------------------------------------------------
 Trust Radius=3.00D-01 FncErr=1.00D-07 GrdErr=1.00D-06 EigMax=2.50D+02 EigMin=1.00D-04
 Number of steps in this run=    307 maximum allowed number of steps=    324.
 GradGradGradGradGradGradGradGradGradGradGradGradGradGradGradGradGradGrad

 Stoichiometry    C26H18N2O6S2
 Framework group  C1[X(C26H18N2O6S2)]
 Deg. of freedom   156
 Full point group                 C1      NOp   1
 Largest Abelian subgroup         C1      NOp   1
 Largest concise Abelian subgroup C1      NOp   1
                         Standard orientation:                         
 ---------------------------------------------------------------------
 Center     Atomic      Atomic             Coordinates (Angstroms)
 Number     Number       Type             X           Y           Z
 ---------------------------------------------------------------------
      1          6           0        3.198190   -2.854047   -0.201943
      2          6           0        2.600669   -1.502020   -0.043503
      3          6           0        3.418377   -0.347916   -0.062239
      4          6           0        4.815418   -0.465218   -0.233215
      5          6           0        5.446951   -1.802680   -0.389008
      6          6           0        1.247001   -1.383327    0.145801
      7          6           0        2.802526    0.928144    0.083312
      8          6           0        1.388005    1.046153    0.267995
      9          6           0        0.589109   -0.127850    0.335825
     10          6           0        0.813996    2.419106    0.285726
     11          6           0        3.094519    3.431886    0.131021
     12          6           0        3.650880    2.065566    0.031568
     13          6           0        5.023334    1.931540   -0.133425
     14          6           0        5.613903    0.668911   -0.263762
     15          1           0        6.683016    0.553498   -0.396145
     16          1           0        5.620516    2.836185   -0.163513
     17          1           0        0.672718   -2.301064    0.193950
     18          7           0        1.703564    3.509721    0.223375
     19          7           0        4.587637   -2.914390   -0.363585
     20          8           0        2.532112   -3.879942   -0.195537
     21          8           0        6.652617   -1.936880   -0.534564
     22          8           0        3.796772    4.435295    0.117486
     23          8           0       -0.383313    2.670479    0.336531
     24          6           0        1.084931    4.839672    0.257763
     25          1           0        0.401877    4.952597   -0.585472
     26          1           0        0.509510    4.958574    1.179420
     27          1           0        1.884291    5.573918    0.208484
     28          6           0        5.166577   -4.253952   -0.515068
     29          1           0        4.915191   -4.864006    0.355112
     30          1           0        4.754305   -4.736979   -1.402927
     31          1           0        6.243486   -4.140938   -0.606696
     32          6           0       -0.844275   -0.216151    0.612080
     33          6           0       -1.523420   -0.528720    1.774046
     34         16           0       -1.979444   -0.056854   -0.728943
     35          6           0       -2.917714   -0.632515    1.600061
     36          1           0       -1.027183   -0.667934    2.720419
     37          6           0       -3.356982   -0.396124    0.293678
     38          8           0       -3.832773   -0.931040    2.560891
     39          6           0       -4.709006   -0.386019   -0.188797
     40          6           0       -3.368200   -1.024662    3.905016
     41          6           0       -5.143366   -0.172424   -1.496279
     42         16           0       -6.103389   -0.655487    0.852072
     43          1           0       -4.254380   -1.187206    4.517253
     44          1           0       -2.680922   -1.871080    4.028782
     45          1           0       -2.867473   -0.100693    4.216137
     46          6           0       -6.557214   -0.223777   -1.656180
     47          8           0       -4.225523    0.060985   -2.471573
     48          6           0       -7.196275   -0.476713   -0.473019
     49          1           0       -7.071746   -0.083249   -2.596844
     50          6           0       -4.697338    0.239843   -3.801758
     51          1           0       -8.260983   -0.569678   -0.306972
     52          1           0       -5.352384    1.117277   -3.877191
     53          1           0       -3.811109    0.396626   -4.416187
     54          1           0       -5.234528   -0.647116   -4.156258
 ---------------------------------------------------------------------
 Rotational constants (GHZ):           0.1602855           0.0543157           0.0472738
 Standard basis: 6-311+G(d,p) (5D, 7F)
 There are   952 symmetry adapted cartesian basis functions of A   symmetry.
 There are   916 symmetry adapted basis functions of A   symmetry.
   916 basis functions,  1468 primitive gaussians,   952 cartesian basis functions
   134 alpha electrons      134 beta electrons
       nuclear repulsion energy      4079.9206738677 Hartrees.
 NAtoms=   54 NActive=   54 NUniq=   54 SFac= 1.00D+00 NAtFMM=   60 NAOKFM=F Big=F
 Integral buffers will be    131072 words long.
 Raffenetti 2 integral format.
 Two-electron integral symmetry is turned on.
 Nuclear repulsion after empirical dispersion term =     4079.8801567467 Hartrees.
 One-electron integrals computed using PRISM.
 NBasis=   916 RedAO= T EigKep=  1.04D-06  NBF=   916
 NBsUse=   902 1.00D-06 EigRej=  6.71D-07 NBFU=   902
 ExpMin= 4.05D-02 ExpMax= 9.34D+04 ExpMxC= 3.17D+03 IAcc=3 IRadAn=         5 AccDes= 0.00D+00
 Harris functional with IExCor= 4639 and IRadAn=       5 diagonalized for initial guess.
 HarFok:  IExCor= 4639 AccDes= 0.00D+00 IRadAn=         5 IDoV= 1 UseB2=F ITyADJ=14
 ICtDFT=  3500011 ScaDFX=  1.000000  1.000000  1.000000  1.000000
 FoFCou: FMM=F IPFlag=           0 FMFlag=      100000 FMFlg1=           0
         NFxFlg=           0 DoJE=T BraDBF=F KetDBF=T FulRan=T
         wScrn=  0.000000 ICntrl=       500 IOpCl=  0 I1Cent=   200000004 NGrid=           0
         NMat0=    1 NMatS0=      1 NMatT0=    0 NMatD0=    1 NMtDS0=    0 NMtDT0=    0
 Petite list used in FoFCou.
 Requested convergence on RMS density matrix=1.00D-08 within 128 cycles.
 Requested convergence on MAX density matrix=1.00D-06.
 Requested convergence on             energy=1.00D-06.
 No special actions if energy rises.
 SCF Done:  E(RwB97XD) =  -2358.76410544     A.U. after   20 cycles
            NFock= 20  Conv=0.33D-08     -V/T= 2.0032

 **********************************************************************

            Population analysis using the SCF Density.

 **********************************************************************

 Orbital symmetries:
       Occupied  (A) (A) (A) (A) (A) (A) (A) (A) (A) (A) (A) (A)
                 (A) (A) (A) (A) (A) (A) (A) (A) (A) (A) (A) (A)
                 (A) (A) (A) (A) (A) (A) (A) (A) (A) (A) (A) (A)
                 (A) (A) (A) (A) (A) (A) (A) (A) (A) (A) (A) (A)
                 (A) (A) (A) (A) (A) (A) (A) (A) (A) (A) (A) (A)
                 (A) (A) (A) (A) (A) (A) (A) (A) (A) (A) (A) (A)
                 (A) (A) (A) (A) (A) (A) (A) (A) (A) (A) (A) (A)
                 (A) (A) (A) (A) (A) (A) (A) (A) (A) (A) (A) (A)
                 (A) (A) (A) (A) (A) (A) (A) (A) (A) (A) (A) (A)
                 (A) (A) (A) (A) (A) (A) (A) (A) (A) (A) (A) (A)
                 (A) (A) (A) (A) (A) (A) (A) (A) (A) (A) (A) (A)
                 (A) (A)
       Virtual   (A) (A) (A) (A) (A) (A) (A) (A) (A) (A) (A) (A)
                 (A) (A) (A) (A) (A) (A) (A) (A) (A) (A) (A) (A)
                 (A) (A) (A) (A) (A) (A) (A) (A) (A) (A) (A) (A)
                 (A) (A) (A) (A) (A) (A) (A) (A) (A) (A) (A) (A)
                 (A) (A) (A) (A) (A) (A) (A) (A) (A) (A) (A) (A)
                 (A) (A) (A) (A) (A) (A) (A) (A) (A) (A) (A) (A)
                 (A) (A) (A) (A) (A) (A) (A) (A) (A) (A) (A) (A)
                 (A) (A) (A) (A) (A) (A) (A) (A) (A) (A) (A) (A)
                 (A) (A) (A) (A) (A) (A) (A) (A) (A) (A) (A) (A)
                 (A) (A) (A) (A) (A) (A) (A) (A) (A) (A) (A) (A)
                 (A) (A) (A) (A) (A) (A) (A) (A) (A) (A) (A) (A)
                 (A) (A) (A) (A) (A) (A) (A) (A) (A) (A) (A) (A)
                 (A) (A) (A) (A) (A) (A) (A) (A) (A) (A) (A) (A)
                 (A) (A) (A) (A) (A) (A) (A) (A) (A) (A) (A) (A)
                 (A) (A) (A) (A) (A) (A) (A) (A) (A) (A) (A) (A)
                 (A) (A) (A) (A) (A) (A) (A) (A) (A) (A) (A) (A)
                 (A) (A) (A) (A) (A) (A) (A) (A) (A) (A) (A) (A)
                 (A) (A) (A) (A) (A) (A) (A) (A) (A) (A) (A) (A)
                 (A) (A) (A) (A) (A) (A) (A) (A) (A) (A) (A) (A)
                 (A) (A) (A) (A) (A) (A) (A) (A) (A) (A) (A) (A)
                 (A) (A) (A) (A) (A) (A) (A) (A) (A) (A) (A) (A)
                 (A) (A) (A) (A) (A) (A) (A) (A) (A) (A) (A) (A)
                 (A) (A) (A) (A) (A) (A) (A) (A) (A) (A) (A) (A)
                 (A) (A) (A) (A) (A) (A) (A) (A) (A) (A) (A) (A)
                 (A) (A) (A) (A) (A) (A) (A) (A) (A) (A) (A) (A)
                 (A) (A) (A) (A) (A) (A) (A) (A) (A) (A) (A) (A)
                 (A) (A) (A) (A) (A) (A) (A) (A) (A) (A) (A) (A)
                 (A) (A) (A) (A) (A) (A) (A) (A) (A) (A) (A) (A)
                 (A) (A) (A) (A) (A) (A) (A) (A) (A) (A) (A) (A)
                 (A) (A) (A) (A) (A) (A) (A) (A) (A) (A) (A) (A)
                 (A) (A) (A) (A) (A) (A) (A) (A) (A) (A) (A) (A)
                 (A) (A) (A) (A) (A) (A) (A) (A) (A) (A) (A) (A)
                 (A) (A) (A) (A) (A) (A) (A) (A) (A) (A) (A) (A)
                 (A) (A) (A) (A) (A) (A) (A) (A) (A) (A) (A) (A)
                 (A) (A) (A) (A) (A) (A) (A) (A) (A) (A) (A) (A)
                 (A) (A) (A) (A) (A) (A) (A) (A) (A) (A) (A) (A)
                 (A) (A) (A) (A) (A) (A) (A) (A) (A) (A) (A) (A)
                 (A) (A) (A) (A) (A) (A) (A) (A) (A) (A) (A) (A)
                 (A) (A) (A) (A) (A) (A) (A) (A) (A) (A) (A) (A)
                 (A) (A) (A) (A) (A) (A) (A) (A) (A) (A) (A) (A)
                 (A) (A) (A) (A) (A) (A) (A) (A) (A) (A) (A) (A)
                 (A) (A) (A) (A) (A) (A) (A) (A) (A) (A) (A) (A)
                 (A) (A) (A) (A) (A) (A) (A) (A) (A) (A) (A) (A)
                 (A) (A) (A) (A) (A) (A) (A) (A) (A) (A) (A) (A)
                 (A) (A) (A) (A) (A) (A) (A) (A) (A) (A) (A) (A)
                 (A) (A) (A) (A) (A) (A) (A) (A) (A) (A) (A) (A)
                 (A) (A) (A) (A) (A) (A) (A) (A) (A) (A) (A) (A)
                 (A) (A) (A) (A) (A) (A) (A) (A) (A) (A) (A) (A)
                 (A) (A) (A) (A) (A) (A) (A) (A) (A) (A) (A) (A)
                 (A) (A) (A) (A) (A) (A) (A) (A) (A) (A) (A) (A)
                 (A) (A) (A) (A) (A) (A) (A) (A) (A) (A) (A) (A)
                 (A) (A) (A) (A) (A) (A) (A) (A) (A) (A) (A) (A)
                 (A) (A) (A) (A) (A) (A) (A) (A) (A) (A) (A) (A)
                 (A) (A) (A) (A) (A) (A) (A) (A) (A) (A) (A) (A)
                 (A) (A) (A) (A) (A) (A) (A) (A) (A) (A) (A) (A)
                 (A) (A) (A) (A) (A) (A) (A) (A) (A) (A) (A) (A)
                 (A) (A) (A) (A) (A) (A) (A) (A) (A) (A) (A) (A)
                 (A) (A) (A) (A) (A) (A) (A) (A) (A) (A) (A) (A)
                 (A) (A) (A) (A) (A) (A) (A) (A) (A) (A) (A) (A)
                 (A) (A) (A) (A) (A) (A) (A) (A) (A) (A) (A) (A)
                 (A) (A) (A) (A) (A) (A) (A) (A) (A) (A) (A) (A)
                 (A) (A) (A) (A) (A) (A) (A) (A) (A) (A) (A) (A)
                 (A) (A) (A) (A) (A) (A) (A) (A) (A) (A) (A) (A)
                 (A) (A) (A) (A) (A) (A) (A) (A) (A) (A) (A) (A)
 The electronic state is 1-A.
 Alpha  occ. eigenvalues --  -89.04433 -89.04265 -19.28619 -19.28614 -19.25445
 Alpha  occ. eigenvalues --  -19.25351 -19.24934 -19.24830 -14.51074 -14.50583
 Alpha  occ. eigenvalues --  -10.43423 -10.43160 -10.42991 -10.42834 -10.36117
 Alpha  occ. eigenvalues --  -10.35633 -10.35324 -10.35082 -10.35054 -10.34976
 Alpha  occ. eigenvalues --  -10.34576 -10.34479 -10.34425 -10.34383 -10.34371
 Alpha  occ. eigenvalues --  -10.33538 -10.33396 -10.33388 -10.33290 -10.32530
 Alpha  occ. eigenvalues --  -10.32415 -10.32139 -10.32045 -10.31482 -10.30012
 Alpha  occ. eigenvalues --  -10.29395  -8.08353  -8.08220  -6.03218  -6.03069
 Alpha  occ. eigenvalues --   -6.02820  -6.02678  -6.02414  -6.02306  -1.19161
 Alpha  occ. eigenvalues --   -1.18721  -1.17837  -1.17757  -1.17193  -1.16655
 Alpha  occ. eigenvalues --   -1.06723  -1.06123  -1.03204  -0.99646  -0.98195
 Alpha  occ. eigenvalues --   -0.96777  -0.94971  -0.90565  -0.89005  -0.86990
 Alpha  occ. eigenvalues --   -0.85483  -0.85304  -0.84140  -0.82579  -0.82253
 Alpha  occ. eigenvalues --   -0.81508  -0.79359  -0.78161  -0.76920  -0.75785
 Alpha  occ. eigenvalues --   -0.75211  -0.74315  -0.70097  -0.68690  -0.67852
 Alpha  occ. eigenvalues --   -0.66888  -0.65626  -0.64503  -0.64369  -0.62999
 Alpha  occ. eigenvalues --   -0.62778  -0.60916  -0.59694  -0.59044  -0.59019
 Alpha  occ. eigenvalues --   -0.57795  -0.57764  -0.57423  -0.56812  -0.56490
 Alpha  occ. eigenvalues --   -0.56311  -0.56116  -0.55524  -0.55236  -0.54148
 Alpha  occ. eigenvalues --   -0.53908  -0.53499  -0.53367  -0.53048  -0.52518
 Alpha  occ. eigenvalues --   -0.51512  -0.51252  -0.50905  -0.50326  -0.49966
 Alpha  occ. eigenvalues --   -0.49694  -0.49475  -0.49307  -0.48923  -0.48356
 Alpha  occ. eigenvalues --   -0.48106  -0.46772  -0.46578  -0.45950  -0.45097
 Alpha  occ. eigenvalues --   -0.43824  -0.43718  -0.41913  -0.41245  -0.40965
 Alpha  occ. eigenvalues --   -0.40852  -0.40347  -0.39799  -0.38710  -0.37561
 Alpha  occ. eigenvalues --   -0.37532  -0.36971  -0.36786  -0.35911  -0.35303
 Alpha  occ. eigenvalues --   -0.33451  -0.31534  -0.31142  -0.25092
 Alpha virt. eigenvalues --   -0.07900  -0.00505   0.00187   0.01613   0.02151
 Alpha virt. eigenvalues --    0.04968   0.05937   0.06150   0.06582   0.06809
 Alpha virt. eigenvalues --    0.07164   0.07408   0.07573   0.07605   0.07850
 Alpha virt. eigenvalues --    0.08003   0.08354   0.08789   0.08917   0.09127
 Alpha virt. eigenvalues --    0.09330   0.09486   0.09709   0.09993   0.10334
 Alpha virt. eigenvalues --    0.10638   0.11113   0.11251   0.11517   0.11679
 Alpha virt. eigenvalues --    0.11966   0.11981   0.12086   0.12677   0.13016
 Alpha virt. eigenvalues --    0.13111   0.13428   0.13648   0.13935   0.14283
 Alpha virt. eigenvalues --    0.14598   0.14747   0.15017   0.15288   0.15604
 Alpha virt. eigenvalues --    0.15653   0.15880   0.16242   0.16436   0.16818
 Alpha virt. eigenvalues --    0.17003   0.17371   0.17560   0.17797   0.18280
 Alpha virt. eigenvalues --    0.18447   0.18746   0.18905   0.19162   0.19345
 Alpha virt. eigenvalues --    0.19824   0.19926   0.20003   0.20390   0.20547
 Alpha virt. eigenvalues --    0.20661   0.20768   0.21069   0.21210   0.21612
 Alpha virt. eigenvalues --    0.21846   0.21947   0.22230   0.22430   0.22552
 Alpha virt. eigenvalues --    0.22994   0.23307   0.23578   0.23733   0.23995
 Alpha virt. eigenvalues --    0.24344   0.24468   0.24584   0.24688   0.24767
 Alpha virt. eigenvalues --    0.25068   0.25376   0.25743   0.25779   0.26108
 Alpha virt. eigenvalues --    0.26200   0.26384   0.26419   0.26543   0.26796
 Alpha virt. eigenvalues --    0.26905   0.27157   0.27465   0.27661   0.27746
 Alpha virt. eigenvalues --    0.27974   0.28148   0.28401   0.28559   0.28744
 Alpha virt. eigenvalues --    0.28832   0.29060   0.29390   0.29525   0.29784
 Alpha virt. eigenvalues --    0.29943   0.30317   0.30421   0.30625   0.30796
 Alpha virt. eigenvalues --    0.30984   0.31144   0.31307   0.31499   0.31706
 Alpha virt. eigenvalues --    0.31894   0.32063   0.32194   0.32425   0.32755
 Alpha virt. eigenvalues --    0.33047   0.33315   0.33340   0.33659   0.33852
 Alpha virt. eigenvalues --    0.34110   0.34202   0.34471   0.34594   0.34886
 Alpha virt. eigenvalues --    0.35026   0.35193   0.35498   0.35818   0.36036
 Alpha virt. eigenvalues --    0.36214   0.36388   0.36888   0.37065   0.37393
 Alpha virt. eigenvalues --    0.37431   0.37678   0.37866   0.38230   0.38429
 Alpha virt. eigenvalues --    0.38859   0.38948   0.39230   0.39764   0.39895
 Alpha virt. eigenvalues --    0.40099   0.40415   0.40553   0.40645   0.41159
 Alpha virt. eigenvalues --    0.41478   0.41669   0.42164   0.42424   0.42767
 Alpha virt. eigenvalues --    0.42953   0.43483   0.43799   0.44095   0.44546
 Alpha virt. eigenvalues --    0.45059   0.45304   0.45624   0.45753   0.46275
 Alpha virt. eigenvalues --    0.46723   0.47337   0.47627   0.48319   0.49159
 Alpha virt. eigenvalues --    0.49287   0.49498   0.49792   0.50325   0.50836
 Alpha virt. eigenvalues --    0.51122   0.51983   0.52459   0.52646   0.52897
 Alpha virt. eigenvalues --    0.53137   0.53211   0.53517   0.53801   0.54090
 Alpha virt. eigenvalues --    0.54517   0.55286   0.55734   0.56552   0.57138
 Alpha virt. eigenvalues --    0.57232   0.57820   0.57885   0.58095   0.58463
 Alpha virt. eigenvalues --    0.59649   0.59964   0.60621   0.60837   0.61477
 Alpha virt. eigenvalues --    0.62107   0.62686   0.63027   0.63385   0.63743
 Alpha virt. eigenvalues --    0.64042   0.64395   0.64635   0.64707   0.65030
 Alpha virt. eigenvalues --    0.65416   0.65963   0.66856   0.67178   0.67371
 Alpha virt. eigenvalues --    0.67640   0.68249   0.68612   0.68883   0.69255
 Alpha virt. eigenvalues --    0.70046   0.70189   0.70478   0.70592   0.71305
 Alpha virt. eigenvalues --    0.71705   0.71872   0.72257   0.72280   0.72622
 Alpha virt. eigenvalues --    0.73130   0.73409   0.73814   0.74091   0.74288
 Alpha virt. eigenvalues --    0.75161   0.75402   0.75886   0.76274   0.76403
 Alpha virt. eigenvalues --    0.76938   0.77528   0.77788   0.78299   0.78565
 Alpha virt. eigenvalues --    0.78685   0.79150   0.79691   0.79943   0.80455
 Alpha virt. eigenvalues --    0.80490   0.81498   0.81852   0.81982   0.82227
 Alpha virt. eigenvalues --    0.82401   0.82992   0.83145   0.83445   0.83609
 Alpha virt. eigenvalues --    0.83775   0.84321   0.84565   0.85014   0.85554
 Alpha virt. eigenvalues --    0.85616   0.85926   0.86125   0.86452   0.86903
 Alpha virt. eigenvalues --    0.87211   0.88125   0.88502   0.89200   0.90040
 Alpha virt. eigenvalues --    0.90613   0.91074   0.91744   0.92427   0.93592
 Alpha virt. eigenvalues --    0.94219   0.94490   0.95509   0.95915   0.95962
 Alpha virt. eigenvalues --    0.96511   0.96696   0.97260   0.98101   0.98726
 Alpha virt. eigenvalues --    0.99452   0.99748   0.99993   1.00489   1.01196
 Alpha virt. eigenvalues --    1.01708   1.01947   1.02218   1.02896   1.03043
 Alpha virt. eigenvalues --    1.03549   1.03942   1.04322   1.04819   1.05052
 Alpha virt. eigenvalues --    1.05924   1.06161   1.06878   1.08207   1.08547
 Alpha virt. eigenvalues --    1.08928   1.09258   1.09606   1.09855   1.09980
 Alpha virt. eigenvalues --    1.10759   1.11684   1.11981   1.12112   1.12512
 Alpha virt. eigenvalues --    1.12916   1.13279   1.13391   1.14036   1.14428
 Alpha virt. eigenvalues --    1.14772   1.15587   1.15868   1.16079   1.16556
 Alpha virt. eigenvalues --    1.16781   1.17508   1.17924   1.18471   1.19200
 Alpha virt. eigenvalues --    1.19414   1.19791   1.20631   1.21618   1.22280
 Alpha virt. eigenvalues --    1.22681   1.23648   1.24557   1.25135   1.26019
 Alpha virt. eigenvalues --    1.26230   1.26899   1.27246   1.28010   1.28433
 Alpha virt. eigenvalues --    1.29490   1.30370   1.30678   1.32606   1.33696
 Alpha virt. eigenvalues --    1.34020   1.34242   1.34470   1.34586   1.35067
 Alpha virt. eigenvalues --    1.35833   1.36289   1.37112   1.37827   1.38393
 Alpha virt. eigenvalues --    1.39931   1.41041   1.41364   1.41889   1.42885
 Alpha virt. eigenvalues --    1.43857   1.44458   1.44905   1.45246   1.46225
 Alpha virt. eigenvalues --    1.48350   1.48893   1.49413   1.50032   1.50666
 Alpha virt. eigenvalues --    1.51492   1.51588   1.51805   1.52078   1.52536
 Alpha virt. eigenvalues --    1.53022   1.53159   1.53202   1.53358   1.54026
 Alpha virt. eigenvalues --    1.54268   1.55153   1.55253   1.55547   1.56591
 Alpha virt. eigenvalues --    1.57858   1.58763   1.59061   1.59506   1.60495
 Alpha virt. eigenvalues --    1.60579   1.61507   1.62092   1.62501   1.62775
 Alpha virt. eigenvalues --    1.63367   1.63851   1.63877   1.64608   1.65186
 Alpha virt. eigenvalues --    1.66214   1.67472   1.68248   1.68334   1.69325
 Alpha virt. eigenvalues --    1.69989   1.70580   1.71428   1.71824   1.72394
 Alpha virt. eigenvalues --    1.72685   1.73317   1.74200   1.74898   1.75487
 Alpha virt. eigenvalues --    1.75927   1.76148   1.77026   1.77726   1.78014
 Alpha virt. eigenvalues --    1.78356   1.79012   1.79055   1.79168   1.79367
 Alpha virt. eigenvalues --    1.80361   1.81448   1.82250   1.82679   1.83300
 Alpha virt. eigenvalues --    1.84029   1.85225   1.85443   1.86151   1.87242
 Alpha virt. eigenvalues --    1.87809   1.87890   1.89438   1.89777   1.90456
 Alpha virt. eigenvalues --    1.91104   1.91856   1.92855   1.93380   1.94368
 Alpha virt. eigenvalues --    1.94648   1.95046   1.95572   1.96205   1.96586
 Alpha virt. eigenvalues --    1.97366   1.98278   1.98423   1.98767   1.99484
 Alpha virt. eigenvalues --    2.00061   2.00370   2.01077   2.02494   2.03014
 Alpha virt. eigenvalues --    2.03884   2.04166   2.04782   2.05524   2.06223
 Alpha virt. eigenvalues --    2.07407   2.07737   2.09259   2.09774   2.10448
 Alpha virt. eigenvalues --    2.10501   2.11316   2.12253   2.12739   2.13189
 Alpha virt. eigenvalues --    2.13843   2.14770   2.15122   2.15938   2.16883
 Alpha virt. eigenvalues --    2.17011   2.17380   2.18648   2.19661   2.20148
 Alpha virt. eigenvalues --    2.21115   2.21259   2.21908   2.22747   2.23459
 Alpha virt. eigenvalues --    2.23597   2.24501   2.24969   2.25599   2.26559
 Alpha virt. eigenvalues --    2.27239   2.27785   2.28853   2.29229   2.30174
 Alpha virt. eigenvalues --    2.30980   2.31417   2.33942   2.34840   2.35677
 Alpha virt. eigenvalues --    2.36831   2.40120   2.40602   2.41221   2.42919
 Alpha virt. eigenvalues --    2.44126   2.46115   2.48070   2.48242   2.50728
 Alpha virt. eigenvalues --    2.52581   2.52630   2.53238   2.53723   2.54559
 Alpha virt. eigenvalues --    2.55220   2.56126   2.56728   2.57375   2.58481
 Alpha virt. eigenvalues --    2.59061   2.60109   2.60553   2.61526   2.61590
 Alpha virt. eigenvalues --    2.61830   2.62294   2.62617   2.63246   2.64563
 Alpha virt. eigenvalues --    2.65223   2.67050   2.67283   2.67998   2.68526
 Alpha virt. eigenvalues --    2.69513   2.69987   2.72959   2.73312   2.73531
 Alpha virt. eigenvalues --    2.74005   2.75812   2.76626   2.77384   2.77805
 Alpha virt. eigenvalues --    2.77924   2.78760   2.79100   2.79720   2.80395
 Alpha virt. eigenvalues --    2.80678   2.81458   2.82048   2.83762   2.83924
 Alpha virt. eigenvalues --    2.84423   2.85534   2.86743   2.88432   2.89162
 Alpha virt. eigenvalues --    2.89949   2.91778   2.92394   2.92931   2.93248
 Alpha virt. eigenvalues --    2.94050   2.94439   2.95010   2.95146   2.95480
 Alpha virt. eigenvalues --    2.96434   2.97024   2.97887   2.98335   2.98966
 Alpha virt. eigenvalues --    2.99544   3.00842   3.01283   3.02256   3.02908
 Alpha virt. eigenvalues --    3.04149   3.05113   3.05719   3.07368   3.08641
 Alpha virt. eigenvalues --    3.09169   3.10679   3.11447   3.13527   3.14261
 Alpha virt. eigenvalues --    3.14758   3.15820   3.16631   3.18136   3.18335
 Alpha virt. eigenvalues --    3.20077   3.20745   3.22816   3.23359   3.24513
 Alpha virt. eigenvalues --    3.25908   3.26698   3.27602   3.29328   3.30073
 Alpha virt. eigenvalues --    3.32049   3.33357   3.33626   3.33821   3.34161
 Alpha virt. eigenvalues --    3.36378   3.38123   3.39494   3.40991   3.42455
 Alpha virt. eigenvalues --    3.42512   3.43033   3.43226   3.44129   3.44854
 Alpha virt. eigenvalues --    3.46151   3.48020   3.48810   3.51125   3.51519
 Alpha virt. eigenvalues --    3.52757   3.53591   3.54701   3.56435   3.57791
 Alpha virt. eigenvalues --    3.59132   3.59770   3.63398   3.66186   3.66608
 Alpha virt. eigenvalues --    3.68478   3.69347   3.70961   3.74044   3.75011
 Alpha virt. eigenvalues --    3.75849   3.78421   3.80112   3.81782   3.82489
 Alpha virt. eigenvalues --    3.86131   3.86474   3.86702   3.91309   3.92484
 Alpha virt. eigenvalues --    3.94636   3.94778   3.95738   3.99302   4.01904
 Alpha virt. eigenvalues --    4.02355   4.03542   4.04475   4.06731   4.10519
 Alpha virt. eigenvalues --    4.13416   4.14258   4.18337   4.20977   4.21736
 Alpha virt. eigenvalues --    4.24429   4.28755   4.33276   4.34530   4.37236
 Alpha virt. eigenvalues --    4.44478   4.47445   4.49230   4.59998   4.76331
 Alpha virt. eigenvalues --    4.93153   4.94768   4.97081   5.00227   5.13914
 Alpha virt. eigenvalues --    5.14512   5.14893   5.16074   5.16476   5.19197
 Alpha virt. eigenvalues --    5.21144   5.22714   5.35514   5.37224   5.39287
 Alpha virt. eigenvalues --    5.41778   5.54189   5.55606   5.85863   5.88178
 Alpha virt. eigenvalues --    5.90374   5.91743   5.92240   5.95823   8.13916
 Alpha virt. eigenvalues --    8.18050  17.43825  17.49587  17.64365  17.67525
 Alpha virt. eigenvalues --   17.71332  17.77841  23.61863  23.70075  23.85943
 Alpha virt. eigenvalues --   23.91840  23.94537  23.95745  23.96594  23.98707
 Alpha virt. eigenvalues --   23.99077  24.00261  24.03191  24.03849  24.04937
 Alpha virt. eigenvalues --   24.05383  24.07471  24.07759  24.08813  24.10236
 Alpha virt. eigenvalues --   24.12338  24.15869  24.16572  24.16950  24.24919
 Alpha virt. eigenvalues --   24.26035  24.26511  24.28443  35.68772  35.71644
 Alpha virt. eigenvalues --   50.10925  50.11955  50.15224  50.16839  50.18989
 Alpha virt. eigenvalues --   50.20539 189.39296 189.44706
          Condensed to atoms (all electrons):
 Mulliken charges:
               1
     1  C    0.377912
     2  C    0.082140
     3  C    0.112432
     4  C    0.206370
     5  C    0.291268
     6  C   -0.866338
     7  C    0.171659
     8  C   -0.127450
     9  C    0.363747
    10  C   -0.106655
    11  C    0.407831
    12  C    0.166456
    13  C   -0.625382
    14  C   -0.744082
    15  H    0.191587
    16  H    0.193883
    17  H    0.203602
    18  N   -0.098537
    19  N   -0.089348
    20  O   -0.261109
    21  O   -0.270003
    22  O   -0.276404
    23  O   -0.170313
    24  C   -0.278817
    25  H    0.197049
    26  H    0.195372
    27  H    0.201904
    28  C   -0.277642
    29  H    0.193320
    30  H    0.196047
    31  H    0.201763
    32  C    0.247930
    33  C   -0.502517
    34  S   -0.101925
    35  C   -0.043372
    36  H    0.142513
    37  C    0.165824
    38  O   -0.106996
    39  C    0.884770
    40  C   -0.301757
    41  C    0.115731
    42  S   -0.299858
    43  H    0.183253
    44  H    0.160251
    45  H    0.169605
    46  C   -0.496521
    47  O   -0.132579
    48  C   -0.384924
    49  H    0.154783
    50  C   -0.297600
    51  H    0.185774
    52  H    0.157968
    53  H    0.179364
    54  H    0.158023
 Sum of Mulliken charges =  -0.00000
 Mulliken charges with hydrogens summed into heavy atoms:
               1
     1  C    0.377912
     2  C    0.082140
     3  C    0.112432
     4  C    0.206370
     5  C    0.291268
     6  C   -0.662736
     7  C    0.171659
     8  C   -0.127450
     9  C    0.363747
    10  C   -0.106655
    11  C    0.407831
    12  C    0.166456
    13  C   -0.431499
    14  C   -0.552495
    18  N   -0.098537
    19  N   -0.089348
    20  O   -0.261109
    21  O   -0.270003
    22  O   -0.276404
    23  O   -0.170313
    24  C    0.315507
    28  C    0.313488
    32  C    0.247930
    33  C   -0.360004
    34  S   -0.101925
    35  C   -0.043372
    37  C    0.165824
    38  O   -0.106996
    39  C    0.884770
    40  C    0.211351
    41  C    0.115731
    42  S   -0.299858
    46  C   -0.341738
    47  O   -0.132579
    48  C   -0.199150
    50  C    0.197755
 Electronic spatial extent (au):  <R**2>=          22351.8115
 Charge=             -0.0000 electrons
 Dipole moment (field-independent basis, Debye):
    X=             -1.2188    Y=             -0.0941    Z=              0.0469  Tot=              1.2233
 Quadrupole moment (field-independent basis, Debye-Ang):
   XX=           -217.0963   YY=           -232.7819   ZZ=           -194.4476
   XY=             -4.4068   XZ=              8.9103   YZ=             -4.8228
 Traceless Quadrupole moment (field-independent basis, Debye-Ang):
   XX=             -2.3210   YY=            -18.0066   ZZ=             20.3277
   XY=             -4.4068   XZ=              8.9103   YZ=             -4.8228
 Octapole moment (field-independent basis, Debye-Ang**2):
  XXX=           -273.5267  YYY=             -8.0353  ZZZ=              3.1271  XYY=            -12.3868
  XXY=            -19.6131  XXZ=            -61.0005  XZZ=            -96.8727  YZZ=             -9.6963
  YYZ=             -0.3114  XYZ=             11.5549
 Hexadecapole moment (field-independent basis, Debye-Ang**3):
 XXXX=         -21196.6783 YYYY=          -6040.5910 ZZZZ=          -2115.0879 XXXY=            164.8835
 XXXZ=            488.7971 YYYX=           -523.4722 YYYZ=             14.0150 ZZZX=             57.4072
 ZZZY=            -69.6494 XXYY=          -4820.2563 XXZZ=          -3629.0792 YYZZ=          -1373.0524
 XXYZ=            -91.3222 YYXZ=            -43.0867 ZZXY=            -11.9730
 N-N= 4.079880156747D+03 E-N=-1.369890830155D+04  KE= 2.351128453433D+03
 Calling FoFJK, ICntrl=      2127 FMM=F ISym2X=0 I1Cent= 0 IOpClX= 0 NMat=1 NMatS=1 NMatT=0.
 ***** Axes restored to original set *****
 -------------------------------------------------------------------
 Center     Atomic                   Forces (Hartrees/Bohr)
 Number     Number              X              Y              Z
 -------------------------------------------------------------------
      1        6           0.007244960   -0.014713673   -0.001466751
      2        6          -0.000023437    0.005415003    0.000270064
      3        6           0.005715844    0.002356907    0.000050131
      4        6          -0.005278813    0.007692452    0.001484577
      5        6          -0.011450523   -0.009982018   -0.001166554
      6        6          -0.000738073    0.005024389   -0.004952826
      7        6          -0.002773280   -0.004738954    0.001104981
      8        6           0.008543918   -0.017932764    0.001219824
      9        6          -0.031450460    0.000326409   -0.003705023
     10        6           0.020296904    0.019561182    0.002834610
     11        6          -0.005618559    0.016545763    0.002453425
     12        6          -0.006437574   -0.006362445   -0.000835705
     13        6           0.008633858    0.003234291    0.000149320
     14        6           0.008655406   -0.006733977   -0.001103914
     15        1           0.000321195    0.000537191    0.000021690
     16        1           0.000449644   -0.000870683   -0.000198333
     17        1           0.002503885    0.001779345    0.001751241
     18        7          -0.002423728   -0.002243890   -0.001332166
     19        7           0.000103955    0.002461022    0.000176420
     20        8          -0.014795360    0.015383341    0.001974229
     21        8           0.018301146    0.006615741    0.000593247
     22        8           0.014987289   -0.015219079   -0.002143714
     23        8          -0.019977331   -0.015867603   -0.005781939
     24        6           0.001061182   -0.001385263   -0.001516173
     25        1          -0.000885311   -0.000461297   -0.000412199
     26        1          -0.001493802   -0.001037400    0.001053111
     27        1           0.000699440    0.000020319    0.000100044
     28        6           0.001132575    0.001734056   -0.000120245
     29        1          -0.000837705    0.000866811    0.000937122
     30        1          -0.000602674    0.000887879   -0.000350963
     31        1           0.000696551   -0.000310728   -0.000024738
     32        6           0.032730887    0.010435538    0.011796064
     33        6          -0.019179798   -0.002739822    0.009155845
     34       16          -0.004393975   -0.000421000   -0.015049716
     35        6           0.012387252    0.002361591    0.018302242
     36        1          -0.002057037   -0.000768134   -0.002307103
     37        6          -0.014718201   -0.000982926   -0.017616376
     38        8          -0.005780598    0.000912465   -0.005703178
     39        6           0.015142010    0.000647267    0.012436468
     40        6           0.000591348   -0.001425165    0.006322961
     41        6          -0.004264398   -0.000222352   -0.010381612
     42       16          -0.003835672   -0.001077050    0.010653539
     43        1          -0.000656659    0.000042406    0.000443321
     44        1           0.000764059    0.000682104    0.000911540
     45        1           0.001026059    0.000001773    0.000493714
     46        6           0.000900128    0.000201954   -0.005551795
     47        8           0.004607024    0.000055130    0.003161795
     48        6          -0.005792232   -0.000647206   -0.000093016
     49        1           0.000182654    0.000091228   -0.000616263
     50        6          -0.000054948    0.001269495   -0.004913860
     51        1          -0.001528094   -0.000177135    0.000076748
     52        1          -0.000884993   -0.000982059   -0.001048018
     53        1           0.000715405    0.000152448   -0.000724190
     54        1          -0.000461344    0.000007126   -0.000811903
 -------------------------------------------------------------------
 Cartesian Forces:  Max     0.032730887 RMS     0.007665739

 GradGradGradGradGradGradGradGradGradGradGradGradGradGradGradGradGradGrad
 Berny optimization.
 FormGI is forming the generalized inverse of G from B-inverse, IUseBI=4.
 Internal  Forces:  Max     0.028249890 RMS     0.004566393
 Search for a local minimum.
 Step number   1 out of a maximum of  307
 All quantities printed in internal units (Hartrees-Bohrs-Radians)
 Mixed Optimization -- RFO/linear search
 Second derivative matrix not updated -- first step.
 ITU=  0
     Eigenvalues ---    0.01155   0.01172   0.01239   0.01297   0.01358
     Eigenvalues ---    0.01392   0.01397   0.01410   0.01451   0.01468
     Eigenvalues ---    0.01511   0.01543   0.01567   0.01591   0.01618
     Eigenvalues ---    0.01650   0.01679   0.01692   0.01711   0.01719
     Eigenvalues ---    0.01721   0.01763   0.01799   0.01845   0.01974
     Eigenvalues ---    0.02039   0.02046   0.02077   0.02086   0.02096
     Eigenvalues ---    0.02133   0.02149   0.02162   0.02176   0.02197
     Eigenvalues ---    0.02253   0.04601   0.04620   0.07665   0.07667
     Eigenvalues ---    0.10061   0.10072   0.10636   0.10640   0.15983
     Eigenvalues ---    0.15999   0.15999   0.16000   0.16000   0.16000
     Eigenvalues ---    0.16000   0.16000   0.16000   0.16000   0.16000
     Eigenvalues ---    0.16000   0.16000   0.16000   0.16000   0.16000
     Eigenvalues ---    0.16000   0.16000   0.22530   0.22583   0.23517
     Eigenvalues ---    0.23582   0.24513   0.24747   0.24864   0.24906
     Eigenvalues ---    0.24952   0.24985   0.24986   0.24988   0.24991
     Eigenvalues ---    0.24994   0.24996   0.24997   0.24998   0.24998
     Eigenvalues ---    0.25000   0.25000   0.25000   0.25000   0.25000
     Eigenvalues ---    0.25000   0.25000   0.25000   0.25000   0.25000
     Eigenvalues ---    0.28799   0.28964   0.30057   0.32085   0.32582
     Eigenvalues ---    0.32774   0.33104   0.33787   0.33952   0.33981
     Eigenvalues ---    0.34127   0.34143   0.34353   0.34466   0.34577
     Eigenvalues ---    0.34629   0.34693   0.34844   0.34894   0.35198
     Eigenvalues ---    0.35218   0.35468   0.35553   0.35582   0.35804
     Eigenvalues ---    0.35831   0.36078   0.36083   0.36284   0.36393
     Eigenvalues ---    0.36662   0.39348   0.40194   0.40200   0.40651
     Eigenvalues ---    0.40713   0.41524   0.41683   0.42061   0.42300
     Eigenvalues ---    0.42704   0.43455   0.43915   0.44092   0.44539
     Eigenvalues ---    0.44594   0.45014   0.45405   0.46251   0.47305
     Eigenvalues ---    0.47551   0.49309   0.49662   0.52944   0.53058
     Eigenvalues ---    0.93281   0.93432   0.93989   0.945851000.00000
     Eigenvalues --- 1000.000001000.000001000.000001000.000001000.00000
     Eigenvalues --- 1000.000001000.000001000.000001000.000001000.00000
     Eigenvalues --- 1000.000001000.000001000.000001000.000001000.00000
     Eigenvalues --- 1000.000001000.000001000.000001000.000001000.00000
     Eigenvalues --- 1000.000001000.000001000.000001000.000001000.00000
     Eigenvalues --- 1000.000001000.000001000.000001000.000001000.00000
     Eigenvalues --- 1000.000001000.000001000.000001000.000001000.00000
     Eigenvalues --- 1000.000001000.000001000.000001000.000001000.00000
     Eigenvalues --- 1000.000001000.000001000.000001000.000001000.00000
     Eigenvalues --- 1000.000001000.000001000.000001000.000001000.00000
     Eigenvalues --- 1000.000001000.000001000.000001000.000001000.00000
     Eigenvalues --- 1000.000001000.000001000.000001000.000001000.00000
     Eigenvalues --- 1000.000001000.000001000.000001000.000001000.00000
     Eigenvalues --- 1000.000001000.000001000.000001000.000001000.00000
     Eigenvalues --- 1000.000001000.000001000.000001000.000001000.00000
     Eigenvalues --- 1000.000001000.000001000.000001000.000001000.00000
     Eigenvalues --- 1000.000001000.000001000.000001000.000001000.00000
     Eigenvalues --- 1000.000001000.000001000.000001000.000001000.00000
     Eigenvalues --- 1000.000001000.000001000.000001000.000001000.00000
     Eigenvalues --- 1000.000001000.000001000.000001000.000001000.00000
     Eigenvalues --- 1000.000001000.000001000.000001000.000001000.00000
     Eigenvalues --- 1000.000001000.000001000.000001000.000001000.00000
     Eigenvalues --- 1000.000001000.000001000.000001000.000001000.00000
     Eigenvalues --- 1000.000001000.000001000.000001000.000001000.00000
     Eigenvalues --- 1000.000001000.000001000.000001000.000001000.00000
     Eigenvalues --- 1000.000001000.000001000.000001000.000001000.00000
     Eigenvalues --- 1000.000001000.000001000.000001000.000001000.00000
     Eigenvalues --- 1000.000001000.000001000.000001000.000001000.00000
     Eigenvalues --- 1000.000001000.000001000.000001000.000001000.00000
     Eigenvalues --- 1000.000001000.00000
 RFO step:  Lambda=-1.47614981D-02 EMin= 1.15532237D-02
 Linear search not attempted -- first point.
 Iteration  1 RMS(Cart)=  0.10040947 RMS(Int)=  0.00114415
 Iteration  2 RMS(Cart)=  0.00259139 RMS(Int)=  0.00015332
 Iteration  3 RMS(Cart)=  0.00000307 RMS(Int)=  0.00015331
 Iteration  4 RMS(Cart)=  0.00000000 RMS(Int)=  0.00015331
 Iteration  1 RMS(Cart)=  0.00001907 RMS(Int)=  0.00001156
 Iteration  2 RMS(Cart)=  0.00001056 RMS(Int)=  0.00001284
 Iteration  3 RMS(Cart)=  0.00000583 RMS(Int)=  0.00001469
 Iteration  4 RMS(Cart)=  0.00000323 RMS(Int)=  0.00001610
 Iteration  5 RMS(Cart)=  0.00000181 RMS(Int)=  0.00001706
 Iteration  6 RMS(Cart)=  0.00000104 RMS(Int)=  0.00001769
 Iteration  7 RMS(Cart)=  0.00000062 RMS(Int)=  0.00001809
 Variable       Old X    -DE/DX   Delta X   Delta X   Delta X     New X
                                 (Linear)    (Quad)   (Total)
    R1        2.80935  -0.00170   0.00000  -0.00466  -0.00466   2.80469
    R2        2.64584  -0.00582   0.00000  -0.01263  -0.01262   2.63322
    R3        2.31147  -0.02143   0.00000  -0.02244  -0.02244   2.28903
    R4        2.67311  -0.00606   0.00000  -0.01151  -0.01160   2.66151
    R5        2.59267  -0.00315   0.00000  -0.00484  -0.00485   2.58782
    R6        2.66894  -0.00510   0.00000  -0.01086  -0.01088   2.65806
    R7        2.69164  -0.01078   0.00000  -0.02492  -0.02497   2.66667
    R8        2.81049  -0.00122   0.00000  -0.00361  -0.00361   2.80688
    R9        2.62173  -0.00973   0.00000  -0.01942  -0.01944   2.60229
   R10        2.65570  -0.00669   0.00000  -0.01486  -0.01485   2.64085
   R11        2.30889  -0.01946   0.00000  -0.02026  -0.02026   2.28863
   R12        2.70248  -0.01037   0.00000  -0.02454  -0.02448   2.67800
   R13        2.04786   0.00026   0.00000   0.00070   0.00070   2.04856
   R14        2.70495  -0.01074   0.00000  -0.02752  -0.02747   2.67749
   R15        2.68322  -0.00727   0.00000  -0.01707  -0.01706   2.66615
   R16        2.68655  -0.02825   0.00000  -0.06632  -0.06625   2.62030
   R17        2.81233  -0.00262   0.00000  -0.00799  -0.00793   2.80440
   R18        2.76359   0.00596   0.00000   0.01564   0.01564   2.77923
   R19        2.66221  -0.00584   0.00000  -0.01262  -0.01262   2.64959
   R20        2.31391  -0.02515   0.00000  -0.02650  -0.02650   2.28741
   R21        2.79415   0.00271   0.00000   0.00801   0.00797   2.80212
   R22        2.63842  -0.00525   0.00000  -0.01047  -0.01051   2.62791
   R23        2.31456  -0.02144   0.00000  -0.02262  -0.02262   2.29194
   R24        2.62448  -0.01011   0.00000  -0.02079  -0.02078   2.60371
   R25        2.64561   0.00037   0.00000   0.00097   0.00097   2.64658
   R26        2.04921  -0.00094   0.00000  -0.00255  -0.00255   2.04666
   R27        2.04741  -0.00048   0.00000  -0.00128  -0.00128   2.04613
   R28        2.77259  -0.00302   0.00000  -0.00805  -0.00805   2.76454
   R29        2.77252  -0.00322   0.00000  -0.00858  -0.00858   2.76394
   R30        2.06176  -0.00084   0.00000  -0.00231  -0.00231   2.05945
   R31        2.06551  -0.00201   0.00000  -0.00559  -0.00559   2.05992
   R32        2.05322  -0.00059   0.00000  -0.00160  -0.00160   2.05162
   R33        2.06368  -0.00142   0.00000  -0.00394  -0.00394   2.05974
   R34        2.06281  -0.00097   0.00000  -0.00269  -0.00269   2.06012
   R35        2.05355  -0.00066   0.00000  -0.00179  -0.00179   2.05176
   R36        2.61104  -0.01891   0.00000  -0.03787  -0.03782   2.57321
   R37        3.33381  -0.01630   0.00000  -0.05314  -0.05307   3.28074
   R38        2.66250   0.00438   0.00000   0.00934   0.00931   2.67181
   R39        2.03640   0.00289   0.00000   0.00767   0.00767   2.04406
   R40        3.30484  -0.00549   0.00000  -0.01665  -0.01667   3.28817
   R41        2.64256  -0.01793   0.00000  -0.03778  -0.03786   2.60470
   R42        2.57006  -0.00466   0.00000  -0.00857  -0.00857   2.56149
   R43        2.71283   0.00509   0.00000   0.01222   0.01222   2.72505
   R44        2.69328  -0.00838   0.00000  -0.01942  -0.01942   2.67387
   R45        2.63466  -0.01458   0.00000  -0.03089  -0.03089   2.60377
   R46        3.32738  -0.00838   0.00000  -0.02708  -0.02707   3.30031
   R47        2.05847  -0.00078   0.00000  -0.00213  -0.00213   2.05634
   R48        2.07362  -0.00121   0.00000  -0.00341  -0.00341   2.07021
   R49        2.07116  -0.00070   0.00000  -0.00196  -0.00196   2.06920
   R50        2.69057  -0.00264   0.00000  -0.00656  -0.00656   2.68401
   R51        2.56899  -0.00582   0.00000  -0.01067  -0.01067   2.55833
   R52        3.26339  -0.00747   0.00000  -0.02092  -0.02092   3.24247
   R53        2.58571  -0.00770   0.00000  -0.01437  -0.01438   2.57133
   R54        2.04347  -0.00050   0.00000  -0.00135  -0.00135   2.04212
   R55        2.68846  -0.00747   0.00000  -0.01717  -0.01717   2.67129
   R56        2.04389  -0.00154   0.00000  -0.00413  -0.00413   2.03976
   R57        2.07411  -0.00152   0.00000  -0.00429  -0.00429   2.06982
   R58        2.05929  -0.00099   0.00000  -0.00272  -0.00272   2.05657
   R59        2.07090  -0.00047   0.00000  -0.00132  -0.00132   2.06958
    A1        2.03797   0.00077   0.00000   0.00346   0.00344   2.04141
    A2        2.14521  -0.00106   0.00000  -0.00428  -0.00427   2.14093
    A3        2.10001   0.00029   0.00000   0.00082   0.00083   2.10084
    A4        2.10395  -0.00145   0.00000  -0.00639  -0.00639   2.09756
    A5        2.08282   0.00324   0.00000   0.00861   0.00865   2.09148
    A6        2.09624  -0.00179   0.00000  -0.00209  -0.00216   2.09408
    A7        2.10093   0.00154   0.00000   0.00607   0.00610   2.10703
    A8        2.07104   0.00030   0.00000   0.00351   0.00342   2.07447
    A9        2.11118  -0.00184   0.00000  -0.00951  -0.00949   2.10169
   A10        2.10296  -0.00128   0.00000  -0.00430  -0.00432   2.09864
   A11        2.09911  -0.00052   0.00000  -0.00132  -0.00137   2.09774
   A12        2.08110   0.00181   0.00000   0.00565   0.00570   2.08680
   A13        2.03739   0.00036   0.00000   0.00126   0.00124   2.03863
   A14        2.12972  -0.00065   0.00000  -0.00241  -0.00240   2.12732
   A15        2.11607   0.00029   0.00000   0.00115   0.00116   2.11723
   A16        2.15098  -0.00528   0.00000  -0.01927  -0.01958   2.13141
   A17        2.04399   0.00589   0.00000   0.02914   0.02875   2.07274
   A18        2.08722  -0.00054   0.00000  -0.00780  -0.00818   2.07904
   A19        2.11101  -0.00245   0.00000  -0.00984  -0.00987   2.10114
   A20        2.04385   0.00469   0.00000   0.01872   0.01866   2.06250
   A21        2.12832  -0.00223   0.00000  -0.00881  -0.00886   2.11946
   A22        2.08678   0.00345   0.00000   0.01016   0.00993   2.09671
   A23        2.04738   0.00579   0.00000   0.02321   0.02287   2.07025
   A24        2.14662  -0.00915   0.00000  -0.03023  -0.03069   2.11593
   A25        2.04892   0.00583   0.00000   0.01927   0.01938   2.06830
   A26        2.00754   0.00666   0.00000   0.02674   0.02663   2.03417
   A27        2.22643  -0.01249   0.00000  -0.04564  -0.04576   2.18067
   A28        2.06022  -0.00203   0.00000  -0.00834  -0.00835   2.05188
   A29        2.17370  -0.00715   0.00000  -0.02656  -0.02661   2.14708
   A30        2.04919   0.00918   0.00000   0.03510   0.03504   2.08423
   A31        2.01621   0.00214   0.00000   0.00967   0.00947   2.02568
   A32        2.14188  -0.00234   0.00000  -0.00949  -0.00949   2.13239
   A33        2.12500   0.00020   0.00000   0.00010   0.00010   2.12510
   A34        2.10943  -0.00136   0.00000  -0.00465  -0.00476   2.10467
   A35        2.11468  -0.00217   0.00000  -0.00884  -0.00883   2.10585
   A36        2.05896   0.00354   0.00000   0.01366   0.01370   2.07266
   A37        2.11176  -0.00101   0.00000  -0.00389  -0.00393   2.10782
   A38        2.05670   0.00083   0.00000   0.00385   0.00386   2.06055
   A39        2.11471   0.00018   0.00000   0.00008   0.00009   2.11481
   A40        2.08567   0.00087   0.00000   0.00516   0.00508   2.09075
   A41        2.07549  -0.00002   0.00000  -0.00016  -0.00015   2.07534
   A42        2.12199  -0.00085   0.00000  -0.00491  -0.00490   2.11709
   A43        2.20043  -0.00220   0.00000  -0.00739  -0.00746   2.19297
   A44        2.02023   0.00045   0.00000   0.00123   0.00126   2.02149
   A45        2.06252   0.00175   0.00000   0.00616   0.00620   2.06872
[...]
 Alpha  occ. eigenvalues --   -0.66882  -0.65603  -0.64604  -0.64482  -0.63034
 Alpha  occ. eigenvalues --   -0.62882  -0.60952  -0.59975  -0.59375  -0.59113
 Alpha  occ. eigenvalues --   -0.57901  -0.57808  -0.57483  -0.56962  -0.56624
 Alpha  occ. eigenvalues --   -0.56388  -0.56154  -0.55659  -0.55397  -0.54218
 Alpha  occ. eigenvalues --   -0.53993  -0.53743  -0.53482  -0.53086  -0.52470
 Alpha  occ. eigenvalues --   -0.51730  -0.51351  -0.51236  -0.50428  -0.50049
 Alpha  occ. eigenvalues --   -0.49683  -0.49553  -0.49181  -0.48933  -0.48475
 Alpha  occ. eigenvalues --   -0.48411  -0.46921  -0.46705  -0.45894  -0.44965
 Alpha  occ. eigenvalues --   -0.44137  -0.43505  -0.41986  -0.41213  -0.41009
 Alpha  occ. eigenvalues --   -0.40767  -0.40544  -0.39815  -0.38667  -0.37616
 Alpha  occ. eigenvalues --   -0.37586  -0.37185  -0.36943  -0.35975  -0.34978
 Alpha  occ. eigenvalues --   -0.33581  -0.31387  -0.31065  -0.25275
 Alpha virt. eigenvalues --   -0.07323  -0.00050   0.00631   0.02276   0.02614
 Alpha virt. eigenvalues --    0.04950   0.05993   0.06210   0.06575   0.06875
 Alpha virt. eigenvalues --    0.07329   0.07414   0.07585   0.07621   0.08031
 Alpha virt. eigenvalues --    0.08285   0.08600   0.08902   0.08980   0.09165
 Alpha virt. eigenvalues --    0.09472   0.09562   0.09790   0.10067   0.10403
 Alpha virt. eigenvalues --    0.10680   0.11241   0.11372   0.11575   0.11704
 Alpha virt. eigenvalues --    0.11970   0.12062   0.12206   0.12725   0.13047
 Alpha virt. eigenvalues --    0.13164   0.13637   0.13829   0.14063   0.14195
 Alpha virt. eigenvalues --    0.14657   0.14872   0.15313   0.15410   0.15602
 Alpha virt. eigenvalues --    0.15735   0.15967   0.16387   0.16583   0.16907
 Alpha virt. eigenvalues --    0.17093   0.17526   0.17611   0.18056   0.18495
 Alpha virt. eigenvalues --    0.18561   0.18985   0.19123   0.19336   0.19570
 Alpha virt. eigenvalues --    0.19878   0.20014   0.20234   0.20416   0.20531
 Alpha virt. eigenvalues --    0.20724   0.20996   0.21214   0.21240   0.21764
 Alpha virt. eigenvalues --    0.21910   0.22152   0.22395   0.22486   0.22837
 Alpha virt. eigenvalues --    0.22999   0.23513   0.23547   0.23969   0.24212
 Alpha virt. eigenvalues --    0.24477   0.24685   0.24706   0.24778   0.25093
 Alpha virt. eigenvalues --    0.25250   0.25521   0.25866   0.25943   0.26239
 Alpha virt. eigenvalues --    0.26357   0.26497   0.26615   0.26744   0.26945
 Alpha virt. eigenvalues --    0.27223   0.27322   0.27757   0.27812   0.27991
 Alpha virt. eigenvalues --    0.28272   0.28438   0.28548   0.28655   0.28812
 Alpha virt. eigenvalues --    0.29072   0.29218   0.29525   0.29715   0.30022
 Alpha virt. eigenvalues --    0.30175   0.30491   0.30755   0.30821   0.31071
 Alpha virt. eigenvalues --    0.31184   0.31348   0.31504   0.31675   0.31995
 Alpha virt. eigenvalues --    0.32199   0.32260   0.32316   0.32709   0.32986
 Alpha virt. eigenvalues --    0.33338   0.33387   0.33619   0.33737   0.33995
 Alpha virt. eigenvalues --    0.34246   0.34302   0.34594   0.34692   0.35114
 Alpha virt. eigenvalues --    0.35239   0.35458   0.35719   0.35888   0.36441
 Alpha virt. eigenvalues --    0.36533   0.36690   0.37174   0.37291   0.37523
 Alpha virt. eigenvalues --    0.37857   0.37921   0.38103   0.38292   0.38747
 Alpha virt. eigenvalues --    0.39028   0.39296   0.39493   0.39964   0.40096
 Alpha virt. eigenvalues --    0.40289   0.40489   0.40994   0.41072   0.41386
 Alpha virt. eigenvalues --    0.41685   0.41880   0.42139   0.42558   0.43080
 Alpha virt. eigenvalues --    0.43210   0.43888   0.44187   0.44265   0.44777
 Alpha virt. eigenvalues --    0.45042   0.45579   0.45956   0.46374   0.46418
 Alpha virt. eigenvalues --    0.46918   0.47409   0.48038   0.48764   0.49354
 Alpha virt. eigenvalues --    0.49530   0.50051   0.50463   0.50767   0.50877
 Alpha virt. eigenvalues --    0.51813   0.52321   0.52752   0.53240   0.53249
 Alpha virt. eigenvalues --    0.53285   0.53357   0.53632   0.54269   0.54738
 Alpha virt. eigenvalues --    0.54833   0.55638   0.56317   0.57196   0.57560
 Alpha virt. eigenvalues --    0.58109   0.58550   0.58701   0.58895   0.59483
 Alpha virt. eigenvalues --    0.60538   0.60731   0.61182   0.61441   0.62054
 Alpha virt. eigenvalues --    0.62746   0.62993   0.63438   0.63705   0.64068
 Alpha virt. eigenvalues --    0.64474   0.64910   0.65045   0.65329   0.65997
 Alpha virt. eigenvalues --    0.66301   0.66732   0.66910   0.67388   0.67457
 Alpha virt. eigenvalues --    0.68080   0.68342   0.68749   0.69268   0.69326
 Alpha virt. eigenvalues --    0.70284   0.70582   0.70924   0.71417   0.71497
 Alpha virt. eigenvalues --    0.71755   0.72279   0.72547   0.72824   0.73255
 Alpha virt. eigenvalues --    0.73721   0.73968   0.74135   0.74553   0.74705
 Alpha virt. eigenvalues --    0.75652   0.75829   0.76263   0.76634   0.76769
 Alpha virt. eigenvalues --    0.77528   0.77714   0.77986   0.78654   0.79134
 Alpha virt. eigenvalues --    0.79151   0.79776   0.79913   0.80436   0.80835
 Alpha virt. eigenvalues --    0.81132   0.81763   0.82354   0.82809   0.82893
 Alpha virt. eigenvalues --    0.83064   0.83279   0.83545   0.83821   0.84119
 Alpha virt. eigenvalues --    0.84253   0.84734   0.84963   0.85309   0.85633
 Alpha virt. eigenvalues --    0.85862   0.86022   0.86610   0.86966   0.87343
 Alpha virt. eigenvalues --    0.87599   0.88365   0.88665   0.89009   0.90480
 Alpha virt. eigenvalues --    0.91271   0.91523   0.91821   0.92899   0.93940
 Alpha virt. eigenvalues --    0.94546   0.95235   0.95754   0.96114   0.96340
 Alpha virt. eigenvalues --    0.97009   0.97279   0.98066   0.98285   0.98930
 Alpha virt. eigenvalues --    0.99389   1.00330   1.00594   1.01491   1.01735
 Alpha virt. eigenvalues --    1.01803   1.02444   1.02770   1.03005   1.03153
 Alpha virt. eigenvalues --    1.03984   1.04353   1.04543   1.05215   1.05862
 Alpha virt. eigenvalues --    1.06141   1.07160   1.07840   1.08263   1.08780
 Alpha virt. eigenvalues --    1.09016   1.09280   1.09318   1.10123   1.10637
 Alpha virt. eigenvalues --    1.11102   1.11992   1.12292   1.12604   1.13021
 Alpha virt. eigenvalues --    1.13164   1.13582   1.13945   1.14507   1.14942
 Alpha virt. eigenvalues --    1.15244   1.15542   1.16122   1.16468   1.16885
 Alpha virt. eigenvalues --    1.16944   1.17859   1.18331   1.19251   1.19704
 Alpha virt. eigenvalues --    1.19847   1.20614   1.21389   1.22218   1.23013
 Alpha virt. eigenvalues --    1.23468   1.24007   1.24472   1.25235   1.26168
 Alpha virt. eigenvalues --    1.26480   1.26854   1.27571   1.28011   1.28994
 Alpha virt. eigenvalues --    1.29522   1.30158   1.30704   1.32762   1.33595
 Alpha virt. eigenvalues --    1.34367   1.34696   1.35051   1.35294   1.35676
 Alpha virt. eigenvalues --    1.35933   1.36905   1.36945   1.37978   1.38456
 Alpha virt. eigenvalues --    1.40658   1.41905   1.42534   1.42658   1.43154
 Alpha virt. eigenvalues --    1.44670   1.45332   1.45564   1.46443   1.47219
 Alpha virt. eigenvalues --    1.49258   1.50054   1.50289   1.50450   1.51388
 Alpha virt. eigenvalues --    1.51789   1.51878   1.52306   1.52755   1.53146
 Alpha virt. eigenvalues --    1.53386   1.53448   1.53711   1.54137   1.54411
 Alpha virt. eigenvalues --    1.54624   1.55319   1.55652   1.55701   1.57282
 Alpha virt. eigenvalues --    1.58744   1.59268   1.59811   1.59944   1.60776
 Alpha virt. eigenvalues --    1.62092   1.62267   1.62745   1.63260   1.63274
 Alpha virt. eigenvalues --    1.63662   1.63811   1.64325   1.64929   1.65785
 Alpha virt. eigenvalues --    1.66817   1.68287   1.68871   1.69298   1.69978
 Alpha virt. eigenvalues --    1.70471   1.70805   1.72217   1.72758   1.73334
 Alpha virt. eigenvalues --    1.73881   1.74219   1.74506   1.75267   1.76236
 Alpha virt. eigenvalues --    1.76597   1.76723   1.77565   1.78221   1.78556
 Alpha virt. eigenvalues --    1.78869   1.79108   1.79330   1.79823   1.80457
 Alpha virt. eigenvalues --    1.81192   1.82210   1.82539   1.83343   1.84206
 Alpha virt. eigenvalues --    1.84292   1.85716   1.85985   1.87362   1.87886
 Alpha virt. eigenvalues --    1.88349   1.89036   1.90383   1.91211   1.91499
 Alpha virt. eigenvalues --    1.91935   1.92821   1.93699   1.94024   1.94750
 Alpha virt. eigenvalues --    1.95525   1.95690   1.96080   1.96980   1.97661
 Alpha virt. eigenvalues --    1.98045   1.98904   1.99376   1.99935   2.00336
 Alpha virt. eigenvalues --    2.00661   2.01471   2.02204   2.02918   2.03662
 Alpha virt. eigenvalues --    2.04842   2.04900   2.05519   2.05991   2.07334
 Alpha virt. eigenvalues --    2.07949   2.08398   2.09882   2.10692   2.11146
 Alpha virt. eigenvalues --    2.11541   2.11789   2.12876   2.13239   2.13662
 Alpha virt. eigenvalues --    2.14568   2.15281   2.15893   2.16515   2.17150
 Alpha virt. eigenvalues --    2.17712   2.18432   2.19578   2.20727   2.21136
 Alpha virt. eigenvalues --    2.21831   2.21986   2.22801   2.23774   2.23888
 Alpha virt. eigenvalues --    2.24940   2.25156   2.25593   2.26399   2.27753
 Alpha virt. eigenvalues --    2.28266   2.28889   2.29430   2.29983   2.30585
 Alpha virt. eigenvalues --    2.31505   2.32245   2.34233   2.35359   2.36168
 Alpha virt. eigenvalues --    2.37729   2.40802   2.41278   2.42530   2.43664
 Alpha virt. eigenvalues --    2.45667   2.46862   2.49091   2.49243   2.51417
 Alpha virt. eigenvalues --    2.53041   2.53337   2.53838   2.54471   2.55287
 Alpha virt. eigenvalues --    2.55961   2.56636   2.57045   2.58675   2.58969
 Alpha virt. eigenvalues --    2.60142   2.60584   2.61487   2.61697   2.62229
 Alpha virt. eigenvalues --    2.62400   2.62766   2.62955   2.63340   2.65524
 Alpha virt. eigenvalues --    2.65763   2.67805   2.68133   2.68816   2.69255
 Alpha virt. eigenvalues --    2.69641   2.71084   2.73854   2.74165   2.74531
 Alpha virt. eigenvalues --    2.75060   2.76570   2.77678   2.78224   2.78849
 Alpha virt. eigenvalues --    2.79108   2.79477   2.79859   2.80735   2.81301
 Alpha virt. eigenvalues --    2.81744   2.82038   2.82517   2.84363   2.84521
 Alpha virt. eigenvalues --    2.85126   2.85890   2.86904   2.89042   2.90337
 Alpha virt. eigenvalues --    2.91312   2.92560   2.93473   2.94366   2.94643
 Alpha virt. eigenvalues --    2.94936   2.95388   2.95869   2.96078   2.96943
 Alpha virt. eigenvalues --    2.97090   2.98201   2.98556   2.98799   2.99187
 Alpha virt. eigenvalues --    3.00177   3.01684   3.02356   3.02878   3.03599
 Alpha virt. eigenvalues --    3.04961   3.05520   3.06954   3.08003   3.10299
 Alpha virt. eigenvalues --    3.10986   3.12223   3.12403   3.14380   3.15283
 Alpha virt. eigenvalues --    3.15906   3.17097   3.18108   3.18752   3.19381
 Alpha virt. eigenvalues --    3.21152   3.21273   3.24342   3.24428   3.24977
 Alpha virt. eigenvalues --    3.26674   3.27937   3.29094   3.31533   3.32495
 Alpha virt. eigenvalues --    3.33085   3.34621   3.35256   3.35815   3.36343
 Alpha virt. eigenvalues --    3.37695   3.40613   3.41206   3.43091   3.43946
 Alpha virt. eigenvalues --    3.43969   3.44531   3.44735   3.45850   3.47442
 Alpha virt. eigenvalues --    3.48146   3.49973   3.50351   3.53212   3.53992
 Alpha virt. eigenvalues --    3.55589   3.55991   3.57576   3.58040   3.59737
 Alpha virt. eigenvalues --    3.60693   3.62118   3.65153   3.67116   3.68385
 Alpha virt. eigenvalues --    3.70396   3.71231   3.72366   3.75805   3.76476
 Alpha virt. eigenvalues --    3.77466   3.80166   3.82493   3.83079   3.83363
 Alpha virt. eigenvalues --    3.87428   3.87643   3.88284   3.92819   3.93516
 Alpha virt. eigenvalues --    3.95141   3.96046   3.96419   4.00123   4.03186
 Alpha virt. eigenvalues --    4.03723   4.04160   4.05091   4.07257   4.11106
 Alpha virt. eigenvalues --    4.13978   4.14981   4.19369   4.21865   4.22157
 Alpha virt. eigenvalues --    4.25788   4.29788   4.33819   4.34932   4.37963
 Alpha virt. eigenvalues --    4.45350   4.48244   4.50444   4.60968   4.77672
 Alpha virt. eigenvalues --    4.95000   4.98249   4.98531   5.01491   5.14116
 Alpha virt. eigenvalues --    5.14817   5.15388   5.16406   5.16670   5.19049
 Alpha virt. eigenvalues --    5.22649   5.24344   5.36203   5.37944   5.40202
 Alpha virt. eigenvalues --    5.44239   5.55602   5.56965   5.87383   5.90036
 Alpha virt. eigenvalues --    5.91957   5.93175   5.93748   5.98246   8.15548
 Alpha virt. eigenvalues --    8.20372  17.44063  17.50079  17.65492  17.68315
 Alpha virt. eigenvalues --   17.73433  17.78190  23.62252  23.70990  23.86690
 Alpha virt. eigenvalues --   23.92400  23.96169  23.96766  23.97912  24.00291
 Alpha virt. eigenvalues --   24.01061  24.02001  24.02873  24.04788  24.05614
 Alpha virt. eigenvalues --   24.07150  24.08268  24.09598  24.10534  24.15028
 Alpha virt. eigenvalues --   24.17398  24.20672  24.21084  24.22312  24.27233
 Alpha virt. eigenvalues --   24.28647  24.30807  24.32567  35.69970  35.73079
 Alpha virt. eigenvalues --   50.11654  50.12805  50.16420  50.18361  50.20440
 Alpha virt. eigenvalues --   50.22035 189.41081 189.47183
          Condensed to atoms (all electrons):
 Mulliken charges:
               1
     1  C    0.459646
     2  C    0.130401
     3  C    0.151654
     4  C    0.198068
     5  C    0.339866
     6  C   -0.837728
     7  C    0.153298
     8  C   -0.059267
     9  C    0.398216
    10  C   -0.158590
    11  C    0.345568
    12  C    0.216444
    13  C   -0.631070
    14  C   -0.751946
    15  H    0.188969
    16  H    0.189983
    17  H    0.197301
    18  N   -0.103099
    19  N   -0.096866
    20  O   -0.256141
    21  O   -0.267887
    22  O   -0.267739
    23  O   -0.111469
    24  C   -0.301371
    25  H    0.198957
    26  H    0.194565
    27  H    0.202015
    28  C   -0.284954
    29  H    0.192980
    30  H    0.195797
    31  H    0.200921
    32  C    0.378660
    33  C   -0.692391
    34  S   -0.143928
    35  C   -0.250150
    36  H    0.141657
    37  C    0.185744
    38  O   -0.105788
    39  C    0.976592
    40  C   -0.300482
    41  C    0.076214
    42  S   -0.284780
    43  H    0.181442
    44  H    0.156873
    45  H    0.168271
    46  C   -0.527041
    47  O   -0.127647
    48  C   -0.388350
    49  H    0.153887
    50  C   -0.299077
    51  H    0.184022
    52  H    0.156146
    53  H    0.177583
    54  H    0.156023
 Sum of Mulliken charges =  -0.00000
 Mulliken charges with hydrogens summed into heavy atoms:
               1
     1  C    0.459646
     2  C    0.130401
     3  C    0.151654
     4  C    0.198068
     5  C    0.339866
     6  C   -0.640426
     7  C    0.153298
     8  C   -0.059267
     9  C    0.398216
    10  C   -0.158590
    11  C    0.345568
    12  C    0.216444
    13  C   -0.441088
    14  C   -0.562977
    18  N   -0.103099
    19  N   -0.096866
    20  O   -0.256141
    21  O   -0.267887
    22  O   -0.267739
    23  O   -0.111469
    24  C    0.294166
    28  C    0.304744
    32  C    0.378660
    33  C   -0.550734
    34  S   -0.143928
    35  C   -0.250150
    37  C    0.185744
    38  O   -0.105788
    39  C    0.976592
    40  C    0.206104
    41  C    0.076214
    42  S   -0.284780
    46  C   -0.373154
    47  O   -0.127647
    48  C   -0.204328
    50  C    0.190675
 Electronic spatial extent (au):  <R**2>=          21995.4881
 Charge=              0.0000 electrons
 Dipole moment (field-independent basis, Debye):
    X=             -0.9300    Y=              0.1446    Z=              0.0558  Tot=              0.9428
 Quadrupole moment (field-independent basis, Debye-Ang):
   XX=           -217.8873   YY=           -231.7998   ZZ=           -194.8343
   XY=             -3.5035   XZ=             10.0303   YZ=             -0.2634
 Traceless Quadrupole moment (field-independent basis, Debye-Ang):
   XX=             -3.0469   YY=            -16.9593   ZZ=             20.0062
   XY=             -3.5035   XZ=             10.0303   YZ=             -0.2634
 Octapole moment (field-independent basis, Debye-Ang**2):
  XXX=           -249.1572  YYY=             -4.0415  ZZZ=              5.1314  XYY=             -8.9809
  XXY=            -25.4025  XXZ=            -50.4442  XZZ=            -92.7115  YZZ=             -9.3033
  YYZ=              2.7787  XYZ=              3.0164
 Hexadecapole moment (field-independent basis, Debye-Ang**3):
 XXXX=         -20947.6111 YYYY=          -5885.2421 ZZZZ=          -2165.9429 XXXY=            179.3021
 XXXZ=            486.8945 YYYX=           -507.6435 YYYZ=             74.2726 ZZZX=             63.5217
 ZZZY=            -17.6208 XXYY=          -4655.3823 XXZZ=          -3593.3768 YYZZ=          -1364.0008
 XXYZ=            -34.8654 YYXZ=              0.0121 ZZXY=              1.3753
 N-N= 4.109875331653D+03 E-N=-1.375970964745D+04  KE= 2.352000187403D+03
 Unable to Open any file for archive entry.
 1\1\GINC-CX3-2-10\FOpt\RwB97XD\6-311+G(d,p)\C26H18N2O6S2\NS5018\29-Nov
 -2020\0\\# opt=modredundant wb97xd/6-311+g(d,p)\\NDI_-100.pdb\\0,1\C,-
 2.6002767554,-3.0338167669,-0.4577555241\C,-2.2554698873,-1.6015641186
 ,-0.2556447261\C,-3.2724637701,-0.6523904916,-0.0330876446\C,-4.627159
 8413,-1.043981742,-0.0014798119\C,-5.0016812492,-2.470822851,-0.202772
 1619\C,-0.9455081855,-1.205178722,-0.2943738229\C,-2.9227945011,0.7026
 542587,0.1469776435\C,-1.5599520761,1.0977698337,0.1144187615\C,-0.571
 9183248,0.147738344,-0.1054388806\C,-1.233835157,2.5500782309,0.258178
 98\C,-3.646744748,3.083701508,0.5320516436\C,-3.9580284231,1.641585383
 5,0.3552161732\C,-5.2732867707,1.240096608,0.3879362018\C,-5.613042661
 1,-0.1099188866,0.2095522523\H,-6.6469555255,-0.4317396379,0.230559317
 8\H,-6.0391171178,1.9885597574,0.5503656239\H,-0.172462447,-1.94547086
 98,-0.4625546382\N,-2.3026632672,3.4335385578,0.4585223599\N,-3.954209
 4914,-3.3683048722,-0.4267919703\O,-1.7607426077,-3.8862957078,-0.6352
 667985\O,-6.1539791976,-2.8379334201,-0.1767163745\O,-4.5129136774,3.9
 078687832,0.722634975\O,-0.1100747139,2.9882760831,0.2170777537\C,-1.9
 398624984,4.8426617364,0.60918954\H,-1.2759886276,4.9629707019,1.46532
 19214\H,-1.4181691085,5.1862887341,-0.283971982\H,-2.8545561321,5.4089
 365683,0.7561168124\C,-4.2734231868,-4.7814692989,-0.6271597083\H,-3.8
 831957303,-5.1125842986,-1.5894370218\H,-3.8119112066,-5.3793328362,0.
 159102515\H,-5.3535658632,-4.8885892959,-0.598216641\C,0.8788428514,0.
 43674575,-0.1404920766\C,1.657011529,0.5942377072,-1.2460680342\S,1.79
 85970988,0.4903066067,1.3145795335\C,3.0237721399,0.7976410632,-0.9103
 668676\H,1.2610273839,0.5902491817,-2.2517444431\C,3.2800342398,0.7697
 707834,0.4410688383\O,4.0386955183,0.993396456,-1.7857462927\C,4.55821
 0595,0.9329025623,1.1029423881\C,3.7057805994,1.1387180752,-3.14982904
 17\C,4.8112823325,0.8817579017,2.4559543054\S,6.038575491,1.2465033706
 ,0.2408875859\H,4.6409801413,1.3370423942,-3.6706142221\H,3.2587887166
 ,0.2216275079,-3.5497182937\H,3.0196472938,1.9790699341,-3.3020565404\
 C,6.1758987448,1.0927207599,2.7982563584\O,3.7937153459,0.6505731986,3
 .3209298961\C,6.9452048934,1.301673208,1.6942433254\H,6.566426102,1.08
 9385959,3.8057352664\C,4.1075660305,0.5732407425,4.6946963759\H,8.0082
 690572,1.4852988667,1.6590623514\H,4.523562906,1.5184783538,5.06062753
 16\H,3.1696825111,0.3707778934,5.2091219851\H,4.8133812283,-0.24044954
 86,4.8949753026\\Version=ES64L-G16RevC.01\State=1-A\HF=-2358.7733571\R
 MSD=8.787e-09\RMSF=3.406e-04\Dipole=0.3434139,0.1364802,0.0322426\Quad
 rupole=-5.1645524,-10.9411343,16.1056867,3.55033,5.9689562,-1.9978649\
 PG=C01 [X(C26H18N2O6S2)]\\@
 The archive entry for this job was punched.


 A DANDELION FROM A LOVER MEANS MORE THAN AN ORCHID FROM A FRIEND.
 Job cpu time:       1 days 23 hours  7 minutes 38.0 seconds.
 Elapsed time:       0 days  5 hours 57 minutes 10.9 seconds.
 File lengths (MBytes):  RWF=    496 Int=      0 D2E=      0 Chk=     70 Scr=      1
 Normal termination of Gaussian 16 at Sun Nov 29 21:24:58 2020.
