 Entering Gaussian System, Link 0=g16
 Input=NDI_20.gjf
 Output=NDI_20.log
 Initial command:
 /apps/gaussian/g16-c01-avx/g16/l1.exe "/tmp/pbs.2626208[40].pbs/Gau-3345512.inp" -scrdir="/tmp/pbs.2626208[40].pbs/"
 Entering Link 1 = /apps/gaussian/g16-c01-avx/g16/l1.exe PID=   3345515.
  
 Copyright (c) 1988-2019, Gaussian, Inc.  All Rights Reserved.
  
 This is part of the Gaussian(R) 16 program.  It is based on
 the Gaussian(R) 09 system (copyright 2009, Gaussian, Inc.),
 the Gaussian(R) 03 system (copyright 2003, Gaussian, Inc.),
 the Gaussian(R) 98 system (copyright 1998, Gaussian, Inc.),
 the Gaussian(R) 94 system (copyright 1995, Gaussian, Inc.),
 the Gaussian 92(TM) system (copyright 1992, Gaussian, Inc.),
 the Gaussian 90(TM) system (copyright 1990, Gaussian, Inc.),
 the Gaussian 88(TM) system (copyright 1988, Gaussian, Inc.),
 the Gaussian 86(TM) system (copyright 1986, Carnegie Mellon
 University), and the Gaussian 82(TM) system (copyright 1983,
 Carnegie Mellon University). Gaussian is a federally registered
 trademark of Gaussian, Inc.
  
 This software contains proprietary and confidential information,
 including trade secrets, belonging to Gaussian, Inc.
  
 This software is provided under written license and may be
 used, copied, transmitted, or stored only in accord with that
 written license.
  
 The following legend is applicable only to US Government
 contracts under FAR:
  
                    RESTRICTED RIGHTS LEGEND
  
 Use, reproduction and disclosure by the US Government is
 subject to restrictions as set forth in subparagraphs (a)
 and (c) of the Commercial Computer Software - Restricted
 Rights clause in FAR 52.227-19.
  
 Gaussian, Inc.
 340 Quinnipiac St., Bldg. 40, Wallingford CT 06492
  
  
 ---------------------------------------------------------------
 Warning -- This program may not be used in any manner that
 competes with the business of Gaussian, Inc. or will provide
 assistance to any competitor of Gaussian, Inc.  The licensee
 of this program is prohibited from giving any competitor of
 Gaussian, Inc. access to this program.  By using this program,
 the user acknowledges that Gaussian, Inc. is engaged in the
 business of creating and licensing software in the field of
 computational chemistry and represents and warrants to the
 licensee that it is not a competitor of Gaussian, Inc. and that
 it will not use this program in any manner prohibited above.
 ---------------------------------------------------------------
  

 Cite this work as:
 Gaussian 16, Revision C.01,
 M. J. Frisch, G. W. Trucks, H. B. Schlegel, G. E. Scuseria, 
 M. A. Robb, J. R. Cheeseman, G. Scalmani, V. Barone, 
 G. A. Petersson, H. Nakatsuji, X. Li, M. Caricato, A. V. Marenich, 
 J. Bloino, B. G. Janesko, R. Gomperts, B. Mennucci, H. P. Hratchian, 
 J. V. Ortiz, A. F. Izmaylov, J. L. Sonnenberg, D. Williams-Young, 
 F. Ding, F. Lipparini, F. Egidi, J. Goings, B. Peng, A. Petrone, 
 T. Henderson, D. Ranasinghe, V. G. Zakrzewski, J. Gao, N. Rega, 
 G. Zheng, W. Liang, M. Hada, M. Ehara, K. Toyota, R. Fukuda, 
 J. Hasegawa, M. Ishida, T. Nakajima, Y. Honda, O. Kitao, H. Nakai, 
 T. Vreven, K. Throssell, J. A. Montgomery, Jr., J. E. Peralta, 
 F. Ogliaro, M. J. Bearpark, J. J. Heyd, E. N. Brothers, K. N. Kudin, 
 V. N. Staroverov, T. A. Keith, R. Kobayashi, J. Normand, 
 K. Raghavachari, A. P. Rendell, J. C. Burant, S. S. Iyengar, 
 J. Tomasi, M. Cossi, J. M. Millam, M. Klene, C. Adamo, R. Cammi, 
 J. W. Ochterski, R. L. Martin, K. Morokuma, O. Farkas, 
 J. B. Foresman, and D. J. Fox, Gaussian, Inc., Wallingford CT, 2019.
 
 ******************************************
 Gaussian 16:  ES64L-G16RevC.01  3-Jul-2019
                29-Nov-2020 
 ******************************************
 %mem=10GB
 %nprocshared=8
 Will use up to    8 processors via shared memory.
 --------------------------------------
 # opt=modredundant wb97xd/6-311+g(d,p)
 --------------------------------------
 1/18=120,19=15,26=3,38=1/1,3;
 2/9=110,12=2,17=6,18=5,40=1/2;
 3/5=4,6=6,7=111,11=2,25=1,30=1,71=1,74=-58/1,2,3;
 4//1;
 5/5=2,38=5/2;
 6/7=2,8=2,9=2,10=2,28=1/1;
 7//1,2,3,16;
 1/18=20,19=15,26=3/3(2);
 2/9=110/2;
 99//99;
 2/9=110/2;
 3/5=4,6=6,7=111,11=2,25=1,30=1,71=1,74=-58/1,2,3;
 4/5=5,16=3,69=1/1;
 5/5=2,38=5/2;
 7//1,2,3,16;
 1/18=20,19=15,26=3/3(-5);
 2/9=110/2;
 6/7=2,8=2,9=2,10=2,19=2,28=1/1;
 99/9=1/99;
 ----------
 NDI_20.pdb
 ----------
 Symbolic Z-matrix:
 Charge =  0 Multiplicity = 1
 C                    -2.563    -2.994    -0.409 
 C                    -2.257    -1.551    -0.224 
 C                    -3.301    -0.607    -0.083 
 C                    -4.65     -1.024    -0.115 
 C                    -4.992    -2.459    -0.304 
 C                    -0.949    -1.137    -0.215 
 C                    -2.962     0.764     0.102 
 C                    -1.595     1.188     0.123 
 C                    -0.561     0.232    -0.072 
 C                    -1.328     2.616     0.446 
 C                    -3.777     3.115     0.508 
 C                    -4.035     1.679     0.268 
 C                    -5.356     1.252     0.23 
 C                    -5.672    -0.098     0.036 
 H                    -6.699    -0.442     0.008 
 H                    -6.133     1.997     0.361 
 H                    -0.19     -1.895    -0.369 
 N                    -2.432     3.476     0.608 
 N                    -3.916    -3.353    -0.438 
 O                    -1.695    -3.847    -0.532 
 O                    -6.149    -2.85     -0.34 
 O                    -4.676     3.938     0.629 
 O                    -0.212     3.097     0.596 
 C                    -2.111     4.875     0.912 
 H                    -1.54      4.931     1.84 
 H                    -1.5       5.299     0.111 
 H                    -3.05      5.414     1.003 
 C                    -4.206    -4.779    -0.625 
 H                    -3.759    -5.126    -1.559 
 H                    -3.775    -5.355     0.196 
 H                    -5.286    -4.897    -0.649 
 C                     0.876     0.482    -0.178 
 C                     1.638     1.561     0.225 
 S                     1.872    -0.657    -1.084 
 C                     2.986     1.479    -0.174 
 H                     1.234     2.38      0.799 
 C                     3.307     0.324    -0.895 
 O                     3.961     2.393     0.076 
 C                     4.593    -0.067    -1.399 
 C                     3.636     3.484     0.933 
 C                     4.905    -1.207    -2.137 
 S                     6.054     0.884    -1.148 
 H                     4.56      4.046     1.068 
 H                     2.879     4.135     0.477 
 H                     3.273     3.13      1.905 
 C                     6.281    -1.313    -2.491 
 O                     3.92     -2.09     -2.445 
 C                     7.012    -0.255    -2.023 
 H                     6.705    -2.128    -3.062 
 C                     4.263    -3.227    -3.23 
 H                     8.072    -0.082    -2.148 
 H                     4.996    -3.86     -2.715 
 H                     3.338    -3.786    -3.371 
 H                     4.662    -2.929    -4.207 
 
 The following ModRedundant input section has been read:
 D       8       9      32      33 F                                           
 D      33      35      38      40 F                                           
 D      46      41      47      50 F                                           
 D      10      18      24      25 F                                           
 D       1      19      28      30 F                                           
 D       9       8      10      23 F                                           
 D      20       1       2       6 F                                           
 

 GradGradGradGradGradGradGradGradGradGradGradGradGradGradGradGradGradGrad
 Berny optimization.
 Initialization pass.
                           ----------------------------
                           !    Initial Parameters    !
                           ! (Angstroms and Degrees)  !
 --------------------------                            --------------------------
 ! Name  Definition              Value          Derivative Info.                !
 --------------------------------------------------------------------------------
 ! R1    R(1,2)                  1.4866         estimate D2E/DX2                !
 ! R2    R(1,19)                 1.4001         estimate D2E/DX2                !
 ! R3    R(1,20)                 1.2232         estimate D2E/DX2                !
 ! R4    R(2,3)                  1.4146         estimate D2E/DX2                !
 ! R5    R(2,6)                  1.372          estimate D2E/DX2                !
 ! R6    R(3,4)                  1.4123         estimate D2E/DX2                !
 ! R7    R(3,7)                  1.4244         estimate D2E/DX2                !
 ! R8    R(4,5)                  1.4872         estimate D2E/DX2                !
 ! R9    R(4,14)                 1.3874         estimate D2E/DX2                !
 ! R10   R(5,19)                 1.4053         estimate D2E/DX2                !
 ! R11   R(5,21)                 1.2218         estimate D2E/DX2                !
 ! R12   R(6,9)                  1.4301         estimate D2E/DX2                !
 ! R13   R(6,17)                 1.0837         estimate D2E/DX2                !
 ! R14   R(7,8)                  1.4314         estimate D2E/DX2                !
 ! R15   R(7,12)                 1.4199         estimate D2E/DX2                !
 ! R16   R(8,9)                  1.4217         estimate D2E/DX2                !
 ! R17   R(8,10)                 1.4882         estimate D2E/DX2                !
 ! R18   R(9,32)                 1.4624         estimate D2E/DX2                !
 ! R19   R(10,18)                1.4088         estimate D2E/DX2                !
 ! R20   R(10,23)                1.2245         estimate D2E/DX2                !
 ! R21   R(11,12)                1.4786         estimate D2E/DX2                !
 ! R22   R(11,18)                1.3962         estimate D2E/DX2                !
 ! R23   R(11,22)                1.2248         estimate D2E/DX2                !
 ! R24   R(12,13)                1.3888         estimate D2E/DX2                !
 ! R25   R(13,14)                1.4            estimate D2E/DX2                !
 ! R26   R(13,16)                1.0844         estimate D2E/DX2                !
 ! R27   R(14,15)                1.0834         estimate D2E/DX2                !
 ! R28   R(18,24)                1.4672         estimate D2E/DX2                !
 ! R29   R(19,28)                1.4672         estimate D2E/DX2                !
 ! R30   R(24,25)                1.091          estimate D2E/DX2                !
 ! R31   R(24,26)                1.093          estimate D2E/DX2                !
 ! R32   R(24,27)                1.0865         estimate D2E/DX2                !
 ! R33   R(28,29)                1.0921         estimate D2E/DX2                !
 ! R34   R(28,30)                1.0916         estimate D2E/DX2                !
 ! R35   R(28,31)                1.0867         estimate D2E/DX2                !
 ! R36   R(32,33)                1.381          estimate D2E/DX2                !
 ! R37   R(32,34)                1.7636         estimate D2E/DX2                !
 ! R38   R(33,35)                1.4082         estimate D2E/DX2                !
 ! R39   R(33,36)                1.0786         estimate D2E/DX2                !
 ! R40   R(34,37)                1.7485         estimate D2E/DX2                !
 ! R41   R(35,37)                1.3989         estimate D2E/DX2                !
 ! R42   R(35,38)                1.3596         estimate D2E/DX2                !
 ! R43   R(37,39)                1.4355         estimate D2E/DX2                !
 ! R44   R(38,40)                1.4249         estimate D2E/DX2                !
 ! R45   R(39,41)                1.3934         estimate D2E/DX2                !
 ! R46   R(39,42)                1.7612         estimate D2E/DX2                !
 ! R47   R(40,43)                1.0899         estimate D2E/DX2                !
 ! R48   R(40,44)                1.0976         estimate D2E/DX2                !
 ! R49   R(40,45)                1.0963         estimate D2E/DX2                !
 ! R50   R(41,46)                1.4248         estimate D2E/DX2                !
 ! R51   R(41,47)                1.3582         estimate D2E/DX2                !
 ! R52   R(42,48)                1.7265         estimate D2E/DX2                !
 ! R53   R(46,48)                1.3685         estimate D2E/DX2                !
 ! R54   R(46,49)                1.0817         estimate D2E/DX2                !
 ! R55   R(47,50)                1.4236         estimate D2E/DX2                !
 ! R56   R(48,51)                1.0813         estimate D2E/DX2                !
 ! R57   R(50,52)                1.0969         estimate D2E/DX2                !
 ! R58   R(50,53)                1.0899         estimate D2E/DX2                !
 ! R59   R(50,54)                1.0966         estimate D2E/DX2                !
 ! A1    A(2,1,19)             116.767          estimate D2E/DX2                !
 ! A2    A(2,1,20)             122.9113         estimate D2E/DX2                !
 ! A3    A(19,1,20)            120.3217         estimate D2E/DX2                !
 ! A4    A(1,2,3)              120.5473         estimate D2E/DX2                !
 ! A5    A(1,2,6)              119.3369         estimate D2E/DX2                !
 ! A6    A(3,2,6)              120.1056         estimate D2E/DX2                !
 ! A7    A(2,3,4)              120.3743         estimate D2E/DX2                !
 ! A8    A(2,3,7)              118.662          estimate D2E/DX2                !
 ! A9    A(4,3,7)              120.9617         estimate D2E/DX2                !
 ! A10   A(3,4,5)              120.4909         estimate D2E/DX2                !
 ! A11   A(3,4,14)             120.2702         estimate D2E/DX2                !
 ! A12   A(5,4,14)             119.2382         estimate D2E/DX2                !
 ! A13   A(4,5,19)             116.7341         estimate D2E/DX2                !
 ! A14   A(4,5,21)             122.024          estimate D2E/DX2                !
 ! A15   A(19,5,21)            121.2418         estimate D2E/DX2                !
 ! A16   A(2,6,9)              123.2421         estimate D2E/DX2                !
 ! A17   A(2,6,17)             117.1119         estimate D2E/DX2                !
 ! A18   A(9,6,17)             119.589          estimate D2E/DX2                !
 ! A19   A(3,7,8)              120.9519         estimate D2E/DX2                !
 ! A20   A(3,7,12)             117.1037         estimate D2E/DX2                !
 ! A21   A(8,7,12)             121.944          estimate D2E/DX2                !
 ! A22   A(7,8,9)              119.5639         estimate D2E/DX2                !
 ! A23   A(7,8,10)             117.3064         estimate D2E/DX2                !
 ! A24   A(9,8,10)             122.9922         estimate D2E/DX2                !
 ! A25   A(6,9,8)              117.3944         estimate D2E/DX2                !
 ! A26   A(6,9,32)             115.0236         estimate D2E/DX2                !
 ! A27   A(8,9,32)             127.5648         estimate D2E/DX2                !
 ! A28   A(8,10,18)            118.042          estimate D2E/DX2                !
 ! A29   A(8,10,23)            124.5436         estimate D2E/DX2                !
 ! A30   A(18,10,23)           117.4097         estimate D2E/DX2                !
 ! A31   A(12,11,18)           115.5202         estimate D2E/DX2                !
 ! A32   A(12,11,22)           122.7205         estimate D2E/DX2                !
 ! A33   A(18,11,22)           121.7534         estimate D2E/DX2                !
 ! A34   A(7,12,11)            120.8614         estimate D2E/DX2                !
 ! A35   A(7,12,13)            121.162          estimate D2E/DX2                !
 ! A36   A(11,12,13)           117.9699         estimate D2E/DX2                !
 ! A37   A(12,13,14)           120.9948         estimate D2E/DX2                !
 ! A38   A(12,13,16)           117.8401         estimate D2E/DX2                !
 ! A39   A(14,13,16)           121.1642         estimate D2E/DX2                !
 ! A40   A(4,14,13)            119.5003         estimate D2E/DX2                !
 ! A41   A(4,14,15)            118.9169         estimate D2E/DX2                !
 ! A42   A(13,14,15)           121.5811         estimate D2E/DX2                !
 ! A43   A(10,18,11)           126.0753         estimate D2E/DX2                !
 ! A44   A(10,18,24)           115.7508         estimate D2E/DX2                !
 ! A45   A(11,18,24)           118.1737         estimate D2E/DX2                !
 ! A46   A(1,19,5)             125.0856         estimate D2E/DX2                !
 ! A47   A(1,19,28)            116.2868         estimate D2E/DX2                !
 ! A48   A(5,19,28)            118.6276         estimate D2E/DX2                !
 ! A49   A(18,24,25)           109.8574         estimate D2E/DX2                !
 ! A50   A(18,24,26)           109.8979         estimate D2E/DX2                !
 ! A51   A(18,24,27)           107.5355         estimate D2E/DX2                !
 ! A52   A(25,24,26)           108.1108         estimate D2E/DX2                !
 ! A53   A(25,24,27)           110.8301         estimate D2E/DX2                !
 ! A54   A(26,24,27)           110.6124         estimate D2E/DX2                !
 ! A55   A(19,28,29)           109.6906         estimate D2E/DX2                !
 ! A56   A(19,28,30)           109.8136         estimate D2E/DX2                !
 ! A57   A(19,28,31)           107.7461         estimate D2E/DX2                !
 ! A58   A(29,28,30)           108.2991         estimate D2E/DX2                !
 ! A59   A(29,28,31)           110.6959         estimate D2E/DX2                !
 ! A60   A(30,28,31)           110.5924         estimate D2E/DX2                !
 ! A61   A(9,32,33)            130.887          estimate D2E/DX2                !
 ! A62   A(9,32,34)            118.8012         estimate D2E/DX2                !
 ! A63   A(33,32,34)           110.0534         estimate D2E/DX2                !
 ! A64   A(32,33,35)           113.5777         estimate D2E/DX2                !
 ! A65   A(32,33,36)           122.8101         estimate D2E/DX2                !
 ! A66   A(35,33,36)           123.6095         estimate D2E/DX2                !
 ! A67   A(32,34,37)            92.6146         estimate D2E/DX2                !
 ! A68   A(33,35,37)           114.4419         estimate D2E/DX2                !
 ! A69   A(33,35,38)           126.5282         estimate D2E/DX2                !
 ! A70   A(37,35,38)           119.0298         estimate D2E/DX2                !
 ! A71   A(34,37,35)           109.3063         estimate D2E/DX2                !
 ! A72   A(34,37,39)           122.9872         estimate D2E/DX2                !
 ! A73   A(35,37,39)           127.6917         estimate D2E/DX2                !
 ! A74   A(35,38,40)           117.5            estimate D2E/DX2                !
 ! A75   A(37,39,41)           127.545          estimate D2E/DX2                !
 ! A76   A(37,39,42)           123.0949         estimate D2E/DX2                !
 ! A77   A(41,39,42)           109.3601         estimate D2E/DX2                !
 ! A78   A(38,40,43)           106.0183         estimate D2E/DX2                !
 ! A79   A(38,40,44)           111.1956         estimate D2E/DX2                !
 ! A80   A(38,40,45)           111.1946         estimate D2E/DX2                !
 ! A81   A(43,40,44)           109.2887         estimate D2E/DX2                !
 ! A82   A(43,40,45)           109.7187         estimate D2E/DX2                !
 ! A83   A(44,40,45)           109.3595         estimate D2E/DX2                !
 ! A84   A(39,41,46)           114.124          estimate D2E/DX2                !
 ! A85   A(39,41,47)           119.3145         estimate D2E/DX2                !
 ! A86   A(46,41,47)           126.5613         estimate D2E/DX2                !
 ! A87   A(39,42,48)            91.8248         estimate D2E/DX2                !
 ! A88   A(41,46,48)           111.9254         estimate D2E/DX2                !
 ! A89   A(41,46,49)           124.4567         estimate D2E/DX2                !
 ! A90   A(48,46,49)           123.6179         estimate D2E/DX2                !
 ! A91   A(41,47,50)           118.0046         estimate D2E/DX2                !
 ! A92   A(42,48,46)           112.7658         estimate D2E/DX2                !
 ! A93   A(42,48,51)           119.8022         estimate D2E/DX2                !
 ! A94   A(46,48,51)           127.432          estimate D2E/DX2                !
 ! A95   A(47,50,52)           111.2853         estimate D2E/DX2                !
 ! A96   A(47,50,53)           106.0499         estimate D2E/DX2                !
 ! A97   A(47,50,54)           111.2171         estimate D2E/DX2                !
 ! A98   A(52,50,53)           109.3833         estimate D2E/DX2                !
 ! A99   A(52,50,54)           109.3887         estimate D2E/DX2                !
 ! A100  A(53,50,54)           109.4452         estimate D2E/DX2                !
 ! D1    D(19,1,2,3)             0.1578         estimate D2E/DX2                !
 ! D2    D(19,1,2,6)          -178.6792         estimate D2E/DX2                !
 ! D3    D(20,1,2,3)          -179.8231         estimate D2E/DX2                !
 ! D4    D(20,1,2,6)             1.3399         Frozen                          !
 ! D5    D(2,1,19,5)            -0.124          estimate D2E/DX2                !
 ! D6    D(2,1,19,28)          179.8267         estimate D2E/DX2                !
 ! D7    D(20,1,19,5)          179.8575         estimate D2E/DX2                !
 ! D8    D(20,1,19,28)          -0.1919         estimate D2E/DX2                !
 ! D9    D(1,2,3,4)              0.0571         estimate D2E/DX2                !
 ! D10   D(1,2,3,7)            179.5453         estimate D2E/DX2                !
 ! D11   D(6,2,3,4)            178.8851         estimate D2E/DX2                !
 ! D12   D(6,2,3,7)             -1.6266         estimate D2E/DX2                !
 ! D13   D(1,2,6,9)            178.625          estimate D2E/DX2                !
 ! D14   D(1,2,6,17)             1.3881         estimate D2E/DX2                !
 ! D15   D(3,2,6,9)             -0.2173         estimate D2E/DX2                !
 ! D16   D(3,2,6,17)          -177.4541         estimate D2E/DX2                !
 ! D17   D(2,3,4,5)             -0.3074         estimate D2E/DX2                !
 ! D18   D(2,3,4,14)           179.3968         estimate D2E/DX2                !
 ! D19   D(7,3,4,5)           -179.7837         estimate D2E/DX2                !
 ! D20   D(7,3,4,14)            -0.0795         estimate D2E/DX2                !
 ! D21   D(2,3,7,8)              1.0523         estimate D2E/DX2                !
 ! D22   D(2,3,7,12)          -178.712          estimate D2E/DX2                !
 ! D23   D(4,3,7,8)           -179.4626         estimate D2E/DX2                !
 ! D24   D(4,3,7,12)             0.7731         estimate D2E/DX2                !
 ! D25   D(3,4,5,19)             0.3343         estimate D2E/DX2                !
 ! D26   D(3,4,5,21)          -179.7799         estimate D2E/DX2                !
 ! D27   D(14,4,5,19)         -179.3729         estimate D2E/DX2                !
 ! D28   D(14,4,5,21)            0.5129         estimate D2E/DX2                !
 ! D29   D(3,4,14,13)           -0.4559         estimate D2E/DX2                !
 ! D30   D(3,4,14,15)         -179.9937         estimate D2E/DX2                !
 ! D31   D(5,4,14,13)          179.252          estimate D2E/DX2                !
 ! D32   D(5,4,14,15)           -0.2858         estimate D2E/DX2                !
 ! D33   D(4,5,19,1)            -0.1141         estimate D2E/DX2                !
 ! D34   D(4,5,19,28)          179.9364         estimate D2E/DX2                !
 ! D35   D(21,5,19,1)          179.9992         estimate D2E/DX2                !
 ! D36   D(21,5,19,28)           0.0496         estimate D2E/DX2                !
 ! D37   D(2,6,9,8)              2.5984         estimate D2E/DX2                !
 ! D38   D(2,6,9,32)          -176.0103         estimate D2E/DX2                !
 ! D39   D(17,6,9,8)           179.77           estimate D2E/DX2                !
 ! D40   D(17,6,9,32)            1.1613         estimate D2E/DX2                !
 ! D41   D(3,7,8,9)              1.3551         estimate D2E/DX2                !
 ! D42   D(3,7,8,10)          -174.5099         estimate D2E/DX2                !
 ! D43   D(12,7,8,9)          -178.8921         estimate D2E/DX2                !
 ! D44   D(12,7,8,10)            5.2428         estimate D2E/DX2                !
 ! D45   D(3,7,12,11)          178.0768         estimate D2E/DX2                !
 ! D46   D(3,7,12,13)           -0.9621         estimate D2E/DX2                !
 ! D47   D(8,7,12,11)           -1.685          estimate D2E/DX2                !
 ! D48   D(8,7,12,13)          179.2761         estimate D2E/DX2                !
 ! D49   D(7,8,9,6)             -3.0809         estimate D2E/DX2                !
 ! D50   D(7,8,9,32)           175.3285         estimate D2E/DX2                !
 ! D51   D(10,8,9,6)           172.5381         estimate D2E/DX2                !
 ! D52   D(10,8,9,32)           -9.0525         estimate D2E/DX2                !
 ! D53   D(7,8,10,18)           -4.7549         estimate D2E/DX2                !
 ! D54   D(7,8,10,23)          174.4235         estimate D2E/DX2                !
 ! D55   D(9,8,10,18)          179.5335         estimate D2E/DX2                !
 ! D56   D(9,8,10,23)           -1.2882         Frozen                          !
 ! D57   D(6,9,32,33)         -161.5732         estimate D2E/DX2                !
 ! D58   D(6,9,32,34)           24.907          estimate D2E/DX2                !
 ! D59   D(8,9,32,33)           19.9853         Frozen                          !
 ! D60   D(8,9,32,34)         -153.5345         estimate D2E/DX2                !
 ! D61   D(8,10,18,11)           0.7189         estimate D2E/DX2                !
 ! D62   D(8,10,18,24)        -179.4089         estimate D2E/DX2                !
 ! D63   D(23,10,18,11)       -178.5188         estimate D2E/DX2                !
 ! D64   D(23,10,18,24)          1.3535         estimate D2E/DX2                !
 ! D65   D(18,11,12,7)          -2.3856         estimate D2E/DX2                !
 ! D66   D(18,11,12,13)        176.6833         estimate D2E/DX2                !
 ! D67   D(22,11,12,7)         178.4862         estimate D2E/DX2                !
 ! D68   D(22,11,12,13)         -2.445          estimate D2E/DX2                !
 ! D69   D(12,11,18,10)          2.8444         estimate D2E/DX2                !
 ! D70   D(12,11,18,24)       -177.0251         estimate D2E/DX2                !
 ! D71   D(22,11,18,10)       -178.0181         estimate D2E/DX2                !
 ! D72   D(22,11,18,24)          2.1124         estimate D2E/DX2                !
 ! D73   D(7,12,13,14)           0.461          estimate D2E/DX2                !
 ! D74   D(7,12,13,16)        -179.8781         estimate D2E/DX2                !
 ! D75   D(11,12,13,14)       -178.6049         estimate D2E/DX2                !
 ! D76   D(11,12,13,16)          1.056          estimate D2E/DX2                !
 ! D77   D(12,13,14,4)           0.2708         estimate D2E/DX2                !
 ! D78   D(12,13,14,15)        179.7958         estimate D2E/DX2                !
 ! D79   D(16,13,14,4)        -179.3788         estimate D2E/DX2                !
 ! D80   D(16,13,14,15)          0.1463         estimate D2E/DX2                !
 ! D81   D(10,18,24,25)        -59.609          Frozen                          !
 ! D82   D(10,18,24,26)         59.2209         estimate D2E/DX2                !
 ! D83   D(10,18,24,27)        179.6858         estimate D2E/DX2                !
 ! D84   D(11,18,24,25)        120.2739         estimate D2E/DX2                !
 ! D85   D(11,18,24,26)       -120.8962         estimate D2E/DX2                !
 ! D86   D(11,18,24,27)         -0.4313         estimate D2E/DX2                !
 ! D87   D(1,19,28,29)         -58.1407         estimate D2E/DX2                !
 ! D88   D(1,19,28,30)          60.7668         Frozen                          !
 ! D89   D(1,19,28,31)        -178.7139         estimate D2E/DX2                !
 ! D90   D(5,19,28,29)         121.8132         estimate D2E/DX2                !
 ! D91   D(5,19,28,30)        -119.2792         estimate D2E/DX2                !
 ! D92   D(5,19,28,31)           1.2401         estimate D2E/DX2                !
 ! D93   D(9,32,33,35)        -174.2174         estimate D2E/DX2                !
 ! D94   D(9,32,33,36)           6.3584         estimate D2E/DX2                !
 ! D95   D(34,32,33,35)         -0.2608         estimate D2E/DX2                !
 ! D96   D(34,32,33,36)       -179.6849         estimate D2E/DX2                !
 ! D97   D(9,32,34,37)         175.366          estimate D2E/DX2                !
 ! D98   D(33,32,34,37)          0.5773         estimate D2E/DX2                !
 ! D99   D(32,33,35,37)         -0.3145         estimate D2E/DX2                !
 ! D100  D(32,33,35,38)        179.7754         estimate D2E/DX2                !
 ! D101  D(36,33,35,37)        179.1043         estimate D2E/DX2                !
 ! D102  D(36,33,35,38)         -0.8057         estimate D2E/DX2                !
 ! D103  D(32,34,37,35)         -0.7372         estimate D2E/DX2                !
 ! D104  D(32,34,37,39)        177.9625         estimate D2E/DX2                !
 ! D105  D(33,35,37,34)          0.735          estimate D2E/DX2                !
 ! D106  D(33,35,37,39)       -177.8867         estimate D2E/DX2                !
 ! D107  D(38,35,37,34)       -179.3476         estimate D2E/DX2                !
 ! D108  D(38,35,37,39)          2.0307         estimate D2E/DX2                !
 ! D109  D(33,35,38,40)          6.5096         Frozen                          !
 ! D110  D(37,35,38,40)       -173.3968         estimate D2E/DX2                !
 ! D111  D(34,37,39,41)          2.7682         estimate D2E/DX2                !
 ! D112  D(34,37,39,42)       -177.1783         estimate D2E/DX2                !
 ! D113  D(35,37,39,41)       -178.7826         estimate D2E/DX2                !
 ! D114  D(35,37,39,42)          1.2709         estimate D2E/DX2                !
 ! D115  D(35,38,40,43)        175.5333         estimate D2E/DX2                !
 ! D116  D(35,38,40,44)        -65.7854         estimate D2E/DX2                !
 ! D117  D(35,38,40,45)         56.3357         estimate D2E/DX2                !
 ! D118  D(37,39,41,46)       -179.9534         estimate D2E/DX2                !
 ! D119  D(37,39,41,47)         -0.1067         estimate D2E/DX2                !
 ! D120  D(42,39,41,46)         -0.0008         estimate D2E/DX2                !
 ! D121  D(42,39,41,47)        179.8458         estimate D2E/DX2                !
 ! D122  D(37,39,42,48)        179.9758         estimate D2E/DX2                !
 ! D123  D(41,39,42,48)          0.0207         estimate D2E/DX2                !
 ! D124  D(39,41,46,48)         -0.0266         estimate D2E/DX2                !
 ! D125  D(39,41,46,49)       -179.9553         estimate D2E/DX2                !
 ! D126  D(47,41,46,48)       -179.8601         estimate D2E/DX2                !
 ! D127  D(47,41,46,49)          0.2112         estimate D2E/DX2                !
 ! D128  D(39,41,47,50)        178.3734         estimate D2E/DX2                !
 ! D129  D(46,41,47,50)         -1.8009         Frozen                          !
 ! D130  D(39,42,48,46)         -0.0368         estimate D2E/DX2                !
 ! D131  D(39,42,48,51)        179.8867         estimate D2E/DX2                !
 ! D132  D(41,46,48,42)          0.0424         estimate D2E/DX2                !
 ! D133  D(41,46,48,51)       -179.8739         estimate D2E/DX2                !
 ! D134  D(49,46,48,42)        179.9718         estimate D2E/DX2                !
 ! D135  D(49,46,48,51)          0.0554         estimate D2E/DX2                !
 ! D136  D(41,47,50,52)         61.9887         estimate D2E/DX2                !
 ! D137  D(41,47,50,53)       -179.1488         estimate D2E/DX2                !
 ! D138  D(41,47,50,54)        -60.2488         estimate D2E/DX2                !
 --------------------------------------------------------------------------------
 Trust Radius=3.00D-01 FncErr=1.00D-07 GrdErr=1.00D-06 EigMax=2.50D+02 EigMin=1.00D-04
 Number of steps in this run=    307 maximum allowed number of steps=    324.
 GradGradGradGradGradGradGradGradGradGradGradGradGradGradGradGradGradGrad

 Stoichiometry    C26H18N2O6S2
 Framework group  C1[X(C26H18N2O6S2)]
 Deg. of freedom   156
 Full point group                 C1      NOp   1
 Largest Abelian subgroup         C1      NOp   1
 Largest concise Abelian subgroup C1      NOp   1
                         Standard orientation:                         
 ---------------------------------------------------------------------
 Center     Atomic      Atomic             Coordinates (Angstroms)
 Number     Number       Type             X           Y           Z
 ---------------------------------------------------------------------
      1          6           0       -2.589821   -2.981963    0.485164
      2          6           0       -2.269895   -1.539472    0.320918
      3          6           0       -3.291685   -0.604741    0.032512
      4          6           0       -4.631630   -1.030317   -0.102202
      5          6           0       -4.986193   -2.466610    0.050305
      6          6           0       -0.966885   -1.123497    0.428015
      7          6           0       -2.941541    0.768837   -0.107018
      8          6           0       -1.581868    1.198372    0.018257
      9          6           0       -0.561820    0.237325    0.257020
     10          6           0       -1.322693    2.663423   -0.017186
     11          6           0       -3.733196    3.132231   -0.486379
     12          6           0       -3.996843    1.682106   -0.368528
     13          6           0       -5.308533    1.245602   -0.501744
     14          6           0       -5.633872   -0.109943   -0.372725
     15          1           0       -6.654271   -0.460461   -0.471583
     16          1           0       -6.071730    1.989179   -0.703086
     17          1           0       -0.218249   -1.886035    0.608132
     18          7           0       -2.409754    3.522317   -0.272645
     19          7           0       -3.932293   -3.350950    0.337017
     20          8           0       -1.741601   -3.826260    0.737844
     21          8           0       -6.135166   -2.866032   -0.064366
     22          8           0       -4.612675    3.946755   -0.737851
     23          8           0       -0.229231    3.179923    0.174870
     24          6           0       -2.095234    4.954925   -0.309632
     25          1           0       -1.676263    5.267220    0.648124
     26          1           0       -1.352010    5.152689   -1.086295
     27          1           0       -3.018729    5.487523   -0.519441
     28          6           0       -4.235557   -4.777439    0.497352
     29          1           0       -3.658379   -5.359676   -0.224062
     30          1           0       -3.958509   -5.104038    1.501421
     31          1           0       -5.301516   -4.909978    0.332840
     32          6           0        0.881294    0.465747    0.319875
     33          6           0        1.604989    1.622336    0.534028
     34         16           0        1.970029   -0.864788   -0.073196
     35          6           0        2.995650    1.450705    0.393904
     36          1           0        1.142450    2.561643    0.793282
     37          6           0        3.388494    0.147182    0.072336
     38          8           0        3.948313    2.409438    0.541503
     39          6           0        4.724442   -0.351041   -0.094131
     40          6           0        3.527977    3.688224    1.008812
     41          6           0        5.111575   -1.644845   -0.437331
     42         16           0        6.157807    0.649180    0.122534
     43          1           0        4.436957    4.276394    1.133934
     44          1           0        2.874054    4.182285    0.278692
     45          1           0        3.004822    3.607091    1.968810
     46          6           0        6.521988   -1.827040   -0.523758
     47          8           0        4.159204   -2.589597   -0.649963
     48          6           0        7.204148   -0.673382   -0.247210
     49          1           0        7.003922   -2.761453   -0.778029
     50          6           0        4.584445   -3.892909   -1.033616
     51          1           0        8.275670   -0.528572   -0.242211
     52          1           0        5.205962   -4.353914   -0.256188
     53          1           0        3.675522   -4.479831   -1.165405
     54          1           0        5.142090   -3.866613   -1.977477
 ---------------------------------------------------------------------
 Rotational constants (GHZ):           0.1523201           0.0602769           0.0440040
 Standard basis: 6-311+G(d,p) (5D, 7F)
 There are   952 symmetry adapted cartesian basis functions of A   symmetry.
 There are   916 symmetry adapted basis functions of A   symmetry.
   916 basis functions,  1468 primitive gaussians,   952 cartesian basis functions
   134 alpha electrons      134 beta electrons
       nuclear repulsion energy      4091.4399790186 Hartrees.
 NAtoms=   54 NActive=   54 NUniq=   54 SFac= 1.00D+00 NAtFMM=   60 NAOKFM=F Big=F
 Integral buffers will be    131072 words long.
 Raffenetti 2 integral format.
 Two-electron integral symmetry is turned on.
 Nuclear repulsion after empirical dispersion term =     4091.3991578106 Hartrees.
 One-electron integrals computed using PRISM.
 NBasis=   916 RedAO= T EigKep=  1.43D-06  NBF=   916
 NBsUse=   901 1.00D-06 EigRej=  7.77D-07 NBFU=   901
 ExpMin= 4.05D-02 ExpMax= 9.34D+04 ExpMxC= 3.17D+03 IAcc=3 IRadAn=         5 AccDes= 0.00D+00
 Harris functional with IExCor= 4639 and IRadAn=       5 diagonalized for initial guess.
 HarFok:  IExCor= 4639 AccDes= 0.00D+00 IRadAn=         5 IDoV= 1 UseB2=F ITyADJ=14
 ICtDFT=  3500011 ScaDFX=  1.000000  1.000000  1.000000  1.000000
 FoFCou: FMM=F IPFlag=           0 FMFlag=      100000 FMFlg1=           0
         NFxFlg=           0 DoJE=T BraDBF=F KetDBF=T FulRan=T
         wScrn=  0.000000 ICntrl=       500 IOpCl=  0 I1Cent=   200000004 NGrid=           0
         NMat0=    1 NMatS0=      1 NMatT0=    0 NMatD0=    1 NMtDS0=    0 NMtDT0=    0
 Petite list used in FoFCou.
 Requested convergence on RMS density matrix=1.00D-08 within 128 cycles.
 Requested convergence on MAX density matrix=1.00D-06.
 Requested convergence on             energy=1.00D-06.
 No special actions if energy rises.
 SCF Done:  E(RwB97XD) =  -2358.75563134     A.U. after   19 cycles
            NFock= 19  Conv=0.78D-08     -V/T= 2.0032

 **********************************************************************

            Population analysis using the SCF Density.

 **********************************************************************

 Orbital symmetries:
       Occupied  (A) (A) (A) (A) (A) (A) (A) (A) (A) (A) (A) (A)
                 (A) (A) (A) (A) (A) (A) (A) (A) (A) (A) (A) (A)
                 (A) (A) (A) (A) (A) (A) (A) (A) (A) (A) (A) (A)
                 (A) (A) (A) (A) (A) (A) (A) (A) (A) (A) (A) (A)
                 (A) (A) (A) (A) (A) (A) (A) (A) (A) (A) (A) (A)
                 (A) (A) (A) (A) (A) (A) (A) (A) (A) (A) (A) (A)
                 (A) (A) (A) (A) (A) (A) (A) (A) (A) (A) (A) (A)
                 (A) (A) (A) (A) (A) (A) (A) (A) (A) (A) (A) (A)
                 (A) (A) (A) (A) (A) (A) (A) (A) (A) (A) (A) (A)
                 (A) (A) (A) (A) (A) (A) (A) (A) (A) (A) (A) (A)
                 (A) (A) (A) (A) (A) (A) (A) (A) (A) (A) (A) (A)
                 (A) (A)
       Virtual   (A) (A) (A) (A) (A) (A) (A) (A) (A) (A) (A) (A)
                 (A) (A) (A) (A) (A) (A) (A) (A) (A) (A) (A) (A)
                 (A) (A) (A) (A) (A) (A) (A) (A) (A) (A) (A) (A)
                 (A) (A) (A) (A) (A) (A) (A) (A) (A) (A) (A) (A)
                 (A) (A) (A) (A) (A) (A) (A) (A) (A) (A) (A) (A)
                 (A) (A) (A) (A) (A) (A) (A) (A) (A) (A) (A) (A)
                 (A) (A) (A) (A) (A) (A) (A) (A) (A) (A) (A) (A)
                 (A) (A) (A) (A) (A) (A) (A) (A) (A) (A) (A) (A)
                 (A) (A) (A) (A) (A) (A) (A) (A) (A) (A) (A) (A)
                 (A) (A) (A) (A) (A) (A) (A) (A) (A) (A) (A) (A)
                 (A) (A) (A) (A) (A) (A) (A) (A) (A) (A) (A) (A)
                 (A) (A) (A) (A) (A) (A) (A) (A) (A) (A) (A) (A)
                 (A) (A) (A) (A) (A) (A) (A) (A) (A) (A) (A) (A)
                 (A) (A) (A) (A) (A) (A) (A) (A) (A) (A) (A) (A)
                 (A) (A) (A) (A) (A) (A) (A) (A) (A) (A) (A) (A)
                 (A) (A) (A) (A) (A) (A) (A) (A) (A) (A) (A) (A)
                 (A) (A) (A) (A) (A) (A) (A) (A) (A) (A) (A) (A)
                 (A) (A) (A) (A) (A) (A) (A) (A) (A) (A) (A) (A)
                 (A) (A) (A) (A) (A) (A) (A) (A) (A) (A) (A) (A)
                 (A) (A) (A) (A) (A) (A) (A) (A) (A) (A) (A) (A)
                 (A) (A) (A) (A) (A) (A) (A) (A) (A) (A) (A) (A)
                 (A) (A) (A) (A) (A) (A) (A) (A) (A) (A) (A) (A)
                 (A) (A) (A) (A) (A) (A) (A) (A) (A) (A) (A) (A)
                 (A) (A) (A) (A) (A) (A) (A) (A) (A) (A) (A) (A)
                 (A) (A) (A) (A) (A) (A) (A) (A) (A) (A) (A) (A)
                 (A) (A) (A) (A) (A) (A) (A) (A) (A) (A) (A) (A)
                 (A) (A) (A) (A) (A) (A) (A) (A) (A) (A) (A) (A)
                 (A) (A) (A) (A) (A) (A) (A) (A) (A) (A) (A) (A)
                 (A) (A) (A) (A) (A) (A) (A) (A) (A) (A) (A) (A)
                 (A) (A) (A) (A) (A) (A) (A) (A) (A) (A) (A) (A)
                 (A) (A) (A) (A) (A) (A) (A) (A) (A) (A) (A) (A)
                 (A) (A) (A) (A) (A) (A) (A) (A) (A) (A) (A) (A)
                 (A) (A) (A) (A) (A) (A) (A) (A) (A) (A) (A) (A)
                 (A) (A) (A) (A) (A) (A) (A) (A) (A) (A) (A) (A)
                 (A) (A) (A) (A) (A) (A) (A) (A) (A) (A) (A) (A)
                 (A) (A) (A) (A) (A) (A) (A) (A) (A) (A) (A) (A)
                 (A) (A) (A) (A) (A) (A) (A) (A) (A) (A) (A) (A)
                 (A) (A) (A) (A) (A) (A) (A) (A) (A) (A) (A) (A)
                 (A) (A) (A) (A) (A) (A) (A) (A) (A) (A) (A) (A)
                 (A) (A) (A) (A) (A) (A) (A) (A) (A) (A) (A) (A)
                 (A) (A) (A) (A) (A) (A) (A) (A) (A) (A) (A) (A)
                 (A) (A) (A) (A) (A) (A) (A) (A) (A) (A) (A) (A)
                 (A) (A) (A) (A) (A) (A) (A) (A) (A) (A) (A) (A)
                 (A) (A) (A) (A) (A) (A) (A) (A) (A) (A) (A) (A)
                 (A) (A) (A) (A) (A) (A) (A) (A) (A) (A) (A) (A)
                 (A) (A) (A) (A) (A) (A) (A) (A) (A) (A) (A) (A)
                 (A) (A) (A) (A) (A) (A) (A) (A) (A) (A) (A) (A)
                 (A) (A) (A) (A) (A) (A) (A) (A) (A) (A) (A) (A)
                 (A) (A) (A) (A) (A) (A) (A) (A) (A) (A) (A) (A)
                 (A) (A) (A) (A) (A) (A) (A) (A) (A) (A) (A) (A)
                 (A) (A) (A) (A) (A) (A) (A) (A) (A) (A) (A) (A)
                 (A) (A) (A) (A) (A) (A) (A) (A) (A) (A) (A) (A)
                 (A) (A) (A) (A) (A) (A) (A) (A) (A) (A) (A) (A)
                 (A) (A) (A) (A) (A) (A) (A) (A) (A) (A) (A) (A)
                 (A) (A) (A) (A) (A) (A) (A) (A) (A) (A) (A) (A)
                 (A) (A) (A) (A) (A) (A) (A) (A) (A) (A) (A) (A)
                 (A) (A) (A) (A) (A) (A) (A) (A) (A) (A) (A) (A)
                 (A) (A) (A) (A) (A) (A) (A) (A) (A) (A) (A) (A)
                 (A) (A) (A) (A) (A) (A) (A) (A) (A) (A) (A) (A)
                 (A) (A) (A) (A) (A) (A) (A) (A) (A) (A) (A) (A)
                 (A) (A) (A) (A) (A) (A) (A) (A) (A) (A) (A) (A)
                 (A) (A) (A) (A) (A) (A) (A) (A) (A) (A) (A) (A)
                 (A) (A) (A) (A) (A) (A) (A) (A) (A) (A) (A) (A)
                 (A) (A) (A) (A) (A) (A) (A) (A) (A) (A) (A)
 The electronic state is 1-A.
 Alpha  occ. eigenvalues --  -89.05020 -89.04945 -19.29399 -19.28681 -19.25085
 Alpha  occ. eigenvalues --  -19.25061 -19.24888 -19.24502 -14.50744 -14.50571
 Alpha  occ. eigenvalues --  -10.43320 -10.43028 -10.42854 -10.42445 -10.36096
 Alpha  occ. eigenvalues --  -10.36037 -10.35156 -10.34858 -10.34776 -10.34462
 Alpha  occ. eigenvalues --  -10.34184 -10.34116 -10.34049 -10.34006 -10.33699
 Alpha  occ. eigenvalues --  -10.33692 -10.33254 -10.33058 -10.32896 -10.32772
 Alpha  occ. eigenvalues --  -10.32654 -10.32401 -10.32283 -10.32219 -10.30152
 Alpha  occ. eigenvalues --  -10.28641  -8.08971  -8.08918  -6.03820  -6.03779
 Alpha  occ. eigenvalues --   -6.03427  -6.03383  -6.03056  -6.02975  -1.19090
 Alpha  occ. eigenvalues --   -1.18826  -1.18569  -1.17849  -1.16863  -1.16794
 Alpha  occ. eigenvalues --   -1.06400  -1.06170  -1.02712  -1.00095  -0.98602
 Alpha  occ. eigenvalues --   -0.96673  -0.94467  -0.90389  -0.88528  -0.87368
 Alpha  occ. eigenvalues --   -0.85784  -0.85120  -0.84520  -0.82796  -0.82137
 Alpha  occ. eigenvalues --   -0.81440  -0.79637  -0.78205  -0.76860  -0.75451
 Alpha  occ. eigenvalues --   -0.75074  -0.74179  -0.70274  -0.68762  -0.67859
 Alpha  occ. eigenvalues --   -0.66620  -0.65698  -0.65147  -0.64434  -0.63797
 Alpha  occ. eigenvalues --   -0.62184  -0.60571  -0.59911  -0.59418  -0.58907
 Alpha  occ. eigenvalues --   -0.58391  -0.57492  -0.57232  -0.57122  -0.56589
 Alpha  occ. eigenvalues --   -0.56470  -0.56219  -0.55235  -0.54761  -0.54410
 Alpha  occ. eigenvalues --   -0.53854  -0.53588  -0.53180  -0.52896  -0.51716
 Alpha  occ. eigenvalues --   -0.51394  -0.51042  -0.50764  -0.50352  -0.50233
 Alpha  occ. eigenvalues --   -0.50017  -0.49576  -0.49227  -0.48891  -0.48074
 Alpha  occ. eigenvalues --   -0.47928  -0.47429  -0.46327  -0.45791  -0.45077
 Alpha  occ. eigenvalues --   -0.44346  -0.44094  -0.42381  -0.41754  -0.41334
 Alpha  occ. eigenvalues --   -0.41046  -0.40051  -0.39389  -0.38445  -0.37993
 Alpha  occ. eigenvalues --   -0.37163  -0.37085  -0.36828  -0.36129  -0.34415
 Alpha  occ. eigenvalues --   -0.33167  -0.31758  -0.31601  -0.25462
 Alpha virt. eigenvalues --   -0.07568  -0.01356   0.00058   0.02141   0.03421
 Alpha virt. eigenvalues --    0.05313   0.05733   0.06112   0.06672   0.06772
 Alpha virt. eigenvalues --    0.07110   0.07354   0.07816   0.08016   0.08158
 Alpha virt. eigenvalues --    0.08325   0.08559   0.08708   0.09047   0.09235
 Alpha virt. eigenvalues --    0.09495   0.09665   0.09826   0.10161   0.10512
 Alpha virt. eigenvalues --    0.10685   0.10950   0.11395   0.11456   0.11836
 Alpha virt. eigenvalues --    0.11962   0.12119   0.12506   0.12678   0.13045
 Alpha virt. eigenvalues --    0.13095   0.13435   0.13858   0.14061   0.14475
 Alpha virt. eigenvalues --    0.14531   0.14967   0.15121   0.15385   0.15577
 Alpha virt. eigenvalues --    0.15914   0.16309   0.16573   0.16637   0.17116
 Alpha virt. eigenvalues --    0.17333   0.17821   0.18016   0.18122   0.18235
 Alpha virt. eigenvalues --    0.18382   0.19209   0.19286   0.19516   0.19691
 Alpha virt. eigenvalues --    0.19910   0.20107   0.20257   0.20593   0.20740
 Alpha virt. eigenvalues --    0.20788   0.21042   0.21244   0.21610   0.21854
 Alpha virt. eigenvalues --    0.22042   0.22213   0.22378   0.22496   0.22750
 Alpha virt. eigenvalues --    0.23325   0.23501   0.23630   0.23828   0.24183
 Alpha virt. eigenvalues --    0.24385   0.24463   0.24688   0.24912   0.25082
 Alpha virt. eigenvalues --    0.25291   0.25543   0.25801   0.26079   0.26122
 Alpha virt. eigenvalues --    0.26234   0.26512   0.26672   0.26788   0.27061
 Alpha virt. eigenvalues --    0.27173   0.27363   0.27505   0.27602   0.27980
 Alpha virt. eigenvalues --    0.28255   0.28606   0.28760   0.29028   0.29223
 Alpha virt. eigenvalues --    0.29381   0.29543   0.29680   0.29915   0.30159
 Alpha virt. eigenvalues --    0.30531   0.30621   0.30697   0.30757   0.31079
 Alpha virt. eigenvalues --    0.31175   0.31395   0.31787   0.32008   0.32188
 Alpha virt. eigenvalues --    0.32383   0.32628   0.32735   0.32861   0.33082
 Alpha virt. eigenvalues --    0.33156   0.33401   0.33587   0.33975   0.34110
 Alpha virt. eigenvalues --    0.34290   0.34474   0.34667   0.35110   0.35262
 Alpha virt. eigenvalues --    0.35414   0.35640   0.35841   0.35895   0.36238
 Alpha virt. eigenvalues --    0.36652   0.36830   0.37278   0.37423   0.37849
 Alpha virt. eigenvalues --    0.38300   0.38486   0.38829   0.39051   0.39200
 Alpha virt. eigenvalues --    0.39532   0.39668   0.39916   0.40049   0.40329
 Alpha virt. eigenvalues --    0.40965   0.41052   0.41515   0.41535   0.41823
 Alpha virt. eigenvalues --    0.42335   0.42635   0.42865   0.43169   0.43570
 Alpha virt. eigenvalues --    0.43917   0.44234   0.44668   0.44751   0.45120
 Alpha virt. eigenvalues --    0.45364   0.45707   0.45825   0.46185   0.46660
 Alpha virt. eigenvalues --    0.47195   0.47783   0.48007   0.49005   0.49348
 Alpha virt. eigenvalues --    0.49473   0.50023   0.50171   0.50599   0.51345
 Alpha virt. eigenvalues --    0.51844   0.52159   0.52336   0.52722   0.53088
 Alpha virt. eigenvalues --    0.53444   0.53611   0.53737   0.54133   0.54531
 Alpha virt. eigenvalues --    0.55217   0.55410   0.56196   0.56538   0.57504
 Alpha virt. eigenvalues --    0.57640   0.58027   0.58851   0.59108   0.59366
 Alpha virt. eigenvalues --    0.59650   0.60813   0.61188   0.61563   0.61749
 Alpha virt. eigenvalues --    0.62150   0.62997   0.63319   0.63735   0.63920
 Alpha virt. eigenvalues --    0.64225   0.64405   0.64820   0.65141   0.65382
 Alpha virt. eigenvalues --    0.66075   0.66644   0.66782   0.67193   0.67445
 Alpha virt. eigenvalues --    0.67980   0.68174   0.68311   0.69198   0.69379
 Alpha virt. eigenvalues --    0.69697   0.69837   0.70201   0.71252   0.71303
 Alpha virt. eigenvalues --    0.71668   0.72146   0.72555   0.73106   0.73218
 Alpha virt. eigenvalues --    0.73501   0.73767   0.74004   0.74257   0.74509
 Alpha virt. eigenvalues --    0.74971   0.75309   0.75356   0.75951   0.76289
 Alpha virt. eigenvalues --    0.76714   0.77569   0.77839   0.78190   0.78698
 Alpha virt. eigenvalues --    0.79183   0.79576   0.79985   0.80742   0.81074
 Alpha virt. eigenvalues --    0.81143   0.81612   0.81802   0.82454   0.82658
 Alpha virt. eigenvalues --    0.83047   0.83259   0.83590   0.83927   0.84290
 Alpha virt. eigenvalues --    0.84764   0.85156   0.85265   0.85939   0.86144
 Alpha virt. eigenvalues --    0.86729   0.86840   0.87187   0.87634   0.88150
 Alpha virt. eigenvalues --    0.88363   0.89576   0.90245   0.90600   0.91365
 Alpha virt. eigenvalues --    0.91622   0.92246   0.92922   0.93374   0.93815
 Alpha virt. eigenvalues --    0.94906   0.95693   0.95917   0.96553   0.97177
 Alpha virt. eigenvalues --    0.97601   0.98031   0.98658   0.99550   0.99863
 Alpha virt. eigenvalues --    1.00081   1.00583   1.01028   1.01517   1.01766
 Alpha virt. eigenvalues --    1.02142   1.02657   1.02921   1.03377   1.03690
 Alpha virt. eigenvalues --    1.04023   1.04683   1.05070   1.05327   1.05756
 Alpha virt. eigenvalues --    1.06317   1.06610   1.07237   1.07828   1.08320
 Alpha virt. eigenvalues --    1.08979   1.09396   1.09759   1.10121   1.10591
 Alpha virt. eigenvalues --    1.11082   1.11646   1.11881   1.12632   1.12823
 Alpha virt. eigenvalues --    1.13315   1.14014   1.14286   1.14637   1.14852
 Alpha virt. eigenvalues --    1.15091   1.15725   1.15937   1.16524   1.16771
 Alpha virt. eigenvalues --    1.17093   1.17928   1.18496   1.19096   1.19331
 Alpha virt. eigenvalues --    1.19485   1.20465   1.21952   1.22595   1.23713
 Alpha virt. eigenvalues --    1.23843   1.24097   1.24878   1.25588   1.26305
 Alpha virt. eigenvalues --    1.26755   1.27135   1.27598   1.29365   1.29511
 Alpha virt. eigenvalues --    1.30162   1.31314   1.31978   1.33286   1.33508
 Alpha virt. eigenvalues --    1.33897   1.34336   1.34598   1.35015   1.36654
 Alpha virt. eigenvalues --    1.36896   1.37736   1.38890   1.39177   1.40356
 Alpha virt. eigenvalues --    1.41088   1.41184   1.42279   1.42770   1.43874
 Alpha virt. eigenvalues --    1.44053   1.44726   1.45462   1.46371   1.48971
 Alpha virt. eigenvalues --    1.49563   1.50028   1.50458   1.51068   1.51312
 Alpha virt. eigenvalues --    1.51431   1.51954   1.52102   1.52635   1.52834
 Alpha virt. eigenvalues --    1.53499   1.53754   1.54105   1.54190   1.54815
 Alpha virt. eigenvalues --    1.55267   1.55553   1.56021   1.57030   1.57246
 Alpha virt. eigenvalues --    1.57761   1.59391   1.59665   1.60581   1.61346
 Alpha virt. eigenvalues --    1.62400   1.62582   1.62972   1.63511   1.63834
 Alpha virt. eigenvalues --    1.64002   1.64252   1.64808   1.65256   1.65915
 Alpha virt. eigenvalues --    1.66442   1.67313   1.68573   1.69525   1.70498
 Alpha virt. eigenvalues --    1.70834   1.71591   1.72356   1.72577   1.72839
 Alpha virt. eigenvalues --    1.74290   1.74920   1.74930   1.75981   1.76097
 Alpha virt. eigenvalues --    1.76804   1.77709   1.77848   1.77998   1.78250
 Alpha virt. eigenvalues --    1.79033   1.79256   1.79546   1.79935   1.80316
 Alpha virt. eigenvalues --    1.82112   1.82660   1.83216   1.84122   1.84741
 Alpha virt. eigenvalues --    1.85520   1.85945   1.86604   1.87023   1.87610
 Alpha virt. eigenvalues --    1.87742   1.88142   1.89168   1.90088   1.90738
 Alpha virt. eigenvalues --    1.92587   1.93200   1.94073   1.94588   1.94962
 Alpha virt. eigenvalues --    1.95280   1.95671   1.96447   1.96768   1.97050
 Alpha virt. eigenvalues --    1.98239   1.98466   1.98937   1.99460   2.00637
 Alpha virt. eigenvalues --    2.01425   2.01854   2.02433   2.03074   2.03750
 Alpha virt. eigenvalues --    2.04261   2.05163   2.06088   2.06206   2.08016
 Alpha virt. eigenvalues --    2.08739   2.09417   2.09884   2.10564   2.10970
 Alpha virt. eigenvalues --    2.11825   2.12391   2.12843   2.13670   2.14534
 Alpha virt. eigenvalues --    2.15488   2.15627   2.16071   2.16661   2.16747
 Alpha virt. eigenvalues --    2.17904   2.18456   2.20267   2.20425   2.20721
 Alpha virt. eigenvalues --    2.21865   2.22628   2.23065   2.23817   2.24046
 Alpha virt. eigenvalues --    2.24664   2.25229   2.26941   2.27524   2.27914
 Alpha virt. eigenvalues --    2.28778   2.29178   2.30252   2.31212   2.31738
 Alpha virt. eigenvalues --    2.32797   2.34591   2.35060   2.36286   2.38588
 Alpha virt. eigenvalues --    2.40351   2.40659   2.41562   2.43578   2.45583
 Alpha virt. eigenvalues --    2.47385   2.48232   2.48438   2.50835   2.52283
 Alpha virt. eigenvalues --    2.52714   2.52938   2.53784   2.54248   2.55441
 Alpha virt. eigenvalues --    2.56165   2.56427   2.57519   2.58340   2.59190
 Alpha virt. eigenvalues --    2.59325   2.60781   2.61749   2.62010   2.62059
 Alpha virt. eigenvalues --    2.62193   2.62616   2.63760   2.64297   2.65742
 Alpha virt. eigenvalues --    2.67001   2.67838   2.68419   2.68787   2.69586
 Alpha virt. eigenvalues --    2.72208   2.72641   2.73129   2.74269   2.76120
 Alpha virt. eigenvalues --    2.76521   2.77069   2.77908   2.78221   2.78287
 Alpha virt. eigenvalues --    2.78764   2.79368   2.79942   2.80836   2.81619
 Alpha virt. eigenvalues --    2.82213   2.82900   2.83077   2.83646   2.85390
 Alpha virt. eigenvalues --    2.86204   2.87009   2.87215   2.88438   2.90586
 Alpha virt. eigenvalues --    2.91551   2.92208   2.92549   2.93750   2.93755
 Alpha virt. eigenvalues --    2.94149   2.94554   2.95368   2.95558   2.96946
 Alpha virt. eigenvalues --    2.97220   2.97839   2.98812   2.99249   2.99624
 Alpha virt. eigenvalues --    3.00488   3.01594   3.02044   3.03487   3.03849
 Alpha virt. eigenvalues --    3.05130   3.05571   3.06977   3.07991   3.10034
 Alpha virt. eigenvalues --    3.12405   3.12748   3.13953   3.14302   3.14925
 Alpha virt. eigenvalues --    3.16479   3.18044   3.18519   3.19121   3.20917
 Alpha virt. eigenvalues --    3.23045   3.23233   3.24068   3.24859   3.26476
 Alpha virt. eigenvalues --    3.27522   3.27557   3.29286   3.30236   3.32254
 Alpha virt. eigenvalues --    3.32799   3.33402   3.33819   3.34755   3.36716
 Alpha virt. eigenvalues --    3.38227   3.38828   3.41205   3.41868   3.42521
 Alpha virt. eigenvalues --    3.42850   3.43360   3.43642   3.46231   3.47170
 Alpha virt. eigenvalues --    3.48457   3.50102   3.50922   3.51733   3.53165
 Alpha virt. eigenvalues --    3.53989   3.55590   3.55945   3.58470   3.58795
 Alpha virt. eigenvalues --    3.60935   3.62696   3.65744   3.67020   3.68898
 Alpha virt. eigenvalues --    3.69800   3.72110   3.74925   3.75829   3.76013
 Alpha virt. eigenvalues --    3.79422   3.80475   3.82012   3.82260   3.85874
 Alpha virt. eigenvalues --    3.86087   3.86953   3.90929   3.92519   3.94694
 Alpha virt. eigenvalues --    3.94953   3.95904   3.99593   4.00822   4.02485
 Alpha virt. eigenvalues --    4.03752   4.04783   4.06605   4.11045   4.12837
 Alpha virt. eigenvalues --    4.14271   4.18439   4.20296   4.22300   4.24191
 Alpha virt. eigenvalues --    4.30517   4.33874   4.35064   4.38276   4.45108
 Alpha virt. eigenvalues --    4.49963   4.50933   4.63357   4.81601   4.93871
 Alpha virt. eigenvalues --    4.95215   4.97725   5.00559   5.12970   5.14602
 Alpha virt. eigenvalues --    5.14986   5.16509   5.16642   5.18473   5.21607
 Alpha virt. eigenvalues --    5.23528   5.36025   5.37889   5.40064   5.47290
 Alpha virt. eigenvalues --    5.53521   5.55117   5.86403   5.87879   5.90708
 Alpha virt. eigenvalues --    5.91601   5.92745   5.95017   8.13348   8.14906
 Alpha virt. eigenvalues --   17.43041  17.45436  17.63484  17.66456  17.71497
 Alpha virt. eigenvalues --   17.76840  23.61690  23.70084  23.84780  23.91326
 Alpha virt. eigenvalues --   23.94752  23.95554  23.96386  23.99265  23.99306
 Alpha virt. eigenvalues --   24.00731  24.02057  24.03657  24.04798  24.05642
 Alpha virt. eigenvalues --   24.07660  24.07897  24.08978  24.10654  24.13256
 Alpha virt. eigenvalues --   24.14849  24.15787  24.17688  24.25912  24.26729
 Alpha virt. eigenvalues --   24.26792  24.27668  35.69422  35.72493  50.10237
 Alpha virt. eigenvalues --   50.12392  50.15719  50.17665  50.19430  50.21099
 Alpha virt. eigenvalues --  189.38754 189.40776
          Condensed to atoms (all electrons):
 Mulliken charges:
               1
     1  C    0.352256
     2  C   -0.032109
     3  C    0.124423
     4  C    0.265721
     5  C    0.319648
     6  C   -0.169463
     7  C    0.173065
     8  C    0.176192
     9  C    0.320314
    10  C   -0.222115
    11  C    0.196867
    12  C    0.232143
    13  C   -0.553471
    14  C   -0.736846
    15  H    0.188924
    16  H    0.190967
    17  H    0.193711
    18  N   -0.116645
    19  N   -0.078207
    20  O   -0.267270
    21  O   -0.272741
    22  O   -0.273966
    23  O   -0.228435
    24  C   -0.287854
    25  H    0.191534
    26  H    0.194132
    27  H    0.206428
    28  C   -0.280193
    29  H    0.192610
    30  H    0.194048
    31  H    0.200675
    32  C   -0.415170
    33  C   -0.255564
    34  S   -0.817101
    35  C    0.001340
    36  H    0.184456
    37  C    0.635117
    38  O   -0.117720
    39  C    0.927806
    40  C   -0.306130
    41  C    0.030057
    42  S   -0.286959
    43  H    0.181024
    44  H    0.172718
    45  H    0.165952
    46  C   -0.584183
    47  O   -0.111486
    48  C   -0.344197
    49  H    0.157754
    50  C   -0.306936
    51  H    0.189845
    52  H    0.159658
    53  H    0.185796
    54  H    0.159582
 Sum of Mulliken charges =  -0.00000
 Mulliken charges with hydrogens summed into heavy atoms:
               1
     1  C    0.352256
     2  C   -0.032109
     3  C    0.124423
     4  C    0.265721
     5  C    0.319648
     6  C    0.024248
     7  C    0.173065
     8  C    0.176192
     9  C    0.320314
    10  C   -0.222115
    11  C    0.196867
    12  C    0.232143
    13  C   -0.362504
    14  C   -0.547922
    18  N   -0.116645
    19  N   -0.078207
    20  O   -0.267270
    21  O   -0.272741
    22  O   -0.273966
    23  O   -0.228435
    24  C    0.304240
    28  C    0.307139
    32  C   -0.415170
    33  C   -0.071108
    34  S   -0.817101
    35  C    0.001340
    37  C    0.635117
    38  O   -0.117720
    39  C    0.927806
    40  C    0.213564
    41  C    0.030057
    42  S   -0.286959
    46  C   -0.426428
    47  O   -0.111486
    48  C   -0.154351
    50  C    0.198100
 Electronic spatial extent (au):  <R**2>=          22386.9100
 Charge=             -0.0000 electrons
 Dipole moment (field-independent basis, Debye):
    X=              3.4329    Y=             -0.4844    Z=             -0.0278  Tot=              3.4670
 Quadrupole moment (field-independent basis, Debye-Ang):
   XX=           -215.2678   YY=           -205.0883   ZZ=           -221.5269
   XY=             -5.4157   XZ=             -5.3884   YZ=              9.7824
 Traceless Quadrupole moment (field-independent basis, Debye-Ang):
   XX=             -1.3068   YY=              8.8727   ZZ=             -7.5659
   XY=             -5.4157   XZ=             -5.3884   YZ=              9.7824
 Octapole moment (field-independent basis, Debye-Ang**2):
  XXX=            341.1679  YYY=            -19.8097  ZZZ=              2.5313  XYY=            131.9827
  XXY=            -83.1428  XXZ=             -4.7810  XZZ=             -6.0800  YZZ=             -0.7233
  YYZ=              0.2319  XYZ=             27.2747
 Hexadecapole moment (field-independent basis, Debye-Ang**3):
 XXXX=         -20502.7363 YYYY=          -7735.4457 ZZZZ=           -532.3851 XXXY=           -585.6572
 XXXZ=           -195.3483 YYYX=            225.7923 YYYZ=            164.0495 ZZZX=             -5.6326
 ZZZY=              6.2183 XXYY=          -4865.5082 XXZZ=          -3735.3582 YYZZ=          -1441.7322
 XXYZ=            177.6510 YYXZ=           -125.1714 ZZXY=             33.6034
 N-N= 4.091399157811D+03 E-N=-1.372199997401D+04  KE= 2.351319797540D+03
 Calling FoFJK, ICntrl=      2127 FMM=F ISym2X=0 I1Cent= 0 IOpClX= 0 NMat=1 NMatS=1 NMatT=0.
 ***** Axes restored to original set *****
 -------------------------------------------------------------------
 Center     Atomic                   Forces (Hartrees/Bohr)
 Number     Number              X              Y              Z
 -------------------------------------------------------------------
      1        6           0.006947036   -0.014535888   -0.001142592
      2        6           0.008602547    0.005389986   -0.001013635
      3        6          -0.000783192    0.004268602    0.000722510
      4        6          -0.000679101    0.007762138    0.001463464
      5        6          -0.011635055   -0.009052565   -0.001031878
      6        6          -0.010379007   -0.001263087   -0.005787126
      7        6          -0.003410964   -0.003795625    0.000864192
      8        6           0.005530825   -0.004111176    0.006755584
      9        6          -0.001470336    0.004082851    0.001378010
     10        6          -0.001359496    0.004908786   -0.000479930
     11        6          -0.008283697    0.012315264    0.001248415
     12        6          -0.002741578   -0.005014547   -0.000576333
     13        6           0.005875892   -0.000220450   -0.000283604
     14        6           0.006392819   -0.002961386   -0.000514491
     15        1           0.000387968    0.000684634    0.000008142
     16        1           0.000382037   -0.000939708   -0.000238979
     17        1          -0.000413054   -0.000334420    0.002859510
     18        7           0.002586262   -0.001971037   -0.002042648
     19        7           0.000672415    0.001984143    0.000047030
     20        8          -0.014369364    0.014887528    0.001926541
     21        8           0.018429427    0.006199130    0.000564475
     22        8           0.015160834   -0.013593201   -0.001638931
     23        8          -0.043339430    0.013139364   -0.000104331
     24        6           0.000941030   -0.001643822   -0.001743627
     25        1          -0.001064814   -0.000332230   -0.000147991
     26        1          -0.001701034   -0.000856677    0.000926136
     27        1           0.000662447    0.000025919    0.000104547
     28        6           0.001225674    0.001904550   -0.000121127
     29        1          -0.000843365    0.000850357    0.000909733
     30        1          -0.000601955    0.000850140   -0.000329174
     31        1           0.000643257   -0.000246969   -0.000031732
     32        6           0.003313565    0.005489813   -0.004581508
     33        6           0.019855285   -0.007945903    0.002387126
     34       16           0.002821507    0.006903997    0.003784037
     35        6           0.005609123   -0.012580239   -0.005969888
     36        1           0.013134401   -0.012317469   -0.003519677
     37        6          -0.012491623    0.007471522    0.007811219
     38        8          -0.005200600    0.000327113    0.003778676
     39        6           0.011840230   -0.006073541   -0.007532790
     40        6          -0.000859229   -0.002358447   -0.003320492
     41        6          -0.004092793    0.004671952    0.003834954
     42       16          -0.002850478   -0.008495054   -0.004945389
     43        1          -0.000492268   -0.001068254   -0.000230049
     44        1           0.000869169   -0.001950034    0.000414149
     45        1           0.000842637   -0.000094798   -0.001109791
     46        6          -0.000026616    0.004144120    0.002425478
     47        8           0.005885973   -0.000424377   -0.001921167
     48        6          -0.007419490   -0.000487928    0.001499020
     49        1          -0.000062604    0.000725361    0.000446743
     50        6           0.000220648    0.003282794    0.002219621
     51        1          -0.001245647   -0.000205295    0.000238545
     52        1          -0.001086428    0.001129409    0.000211219
     53        1           0.000843779    0.000986192    0.000485432
     54        1          -0.000773567    0.000488458    0.001044373
 -------------------------------------------------------------------
 Cartesian Forces:  Max     0.043339430 RMS     0.006419767

 GradGradGradGradGradGradGradGradGradGradGradGradGradGradGradGradGradGrad
 Berny optimization.
 FormGI is forming the generalized inverse of G from B-inverse, IUseBI=4.
 Internal  Forces:  Max     0.102580364 RMS     0.012635988
 Search for a local minimum.
 Step number   1 out of a maximum of  307
 All quantities printed in internal units (Hartrees-Bohrs-Radians)
 Mixed Optimization -- RFO/linear search
 Second derivative matrix not updated -- first step.
 ITU=  0
     Eigenvalues ---    0.01155   0.01172   0.01239   0.01297   0.01362
     Eigenvalues ---    0.01380   0.01397   0.01410   0.01452   0.01470
     Eigenvalues ---    0.01513   0.01544   0.01567   0.01592   0.01619
     Eigenvalues ---    0.01653   0.01679   0.01694   0.01710   0.01719
     Eigenvalues ---    0.01721   0.01763   0.01799   0.01845   0.01971
     Eigenvalues ---    0.02039   0.02049   0.02075   0.02091   0.02098
     Eigenvalues ---    0.02133   0.02149   0.02162   0.02184   0.02197
     Eigenvalues ---    0.02250   0.04601   0.04620   0.07665   0.07667
     Eigenvalues ---    0.10063   0.10070   0.10629   0.10631   0.15983
     Eigenvalues ---    0.15999   0.15999   0.16000   0.16000   0.16000
     Eigenvalues ---    0.16000   0.16000   0.16000   0.16000   0.16000
     Eigenvalues ---    0.16000   0.16000   0.16000   0.16000   0.16000
     Eigenvalues ---    0.16000   0.16000   0.22530   0.22583   0.23517
     Eigenvalues ---    0.23581   0.24513   0.24747   0.24864   0.24906
     Eigenvalues ---    0.24952   0.24985   0.24986   0.24988   0.24992
     Eigenvalues ---    0.24994   0.24996   0.24997   0.24998   0.24998
     Eigenvalues ---    0.25000   0.25000   0.25000   0.25000   0.25000
     Eigenvalues ---    0.25000   0.25000   0.25000   0.25000   0.25000
     Eigenvalues ---    0.28850   0.28925   0.30087   0.32127   0.32582
     Eigenvalues ---    0.32774   0.33104   0.33787   0.33946   0.34027
     Eigenvalues ---    0.34061   0.34095   0.34353   0.34466   0.34577
     Eigenvalues ---    0.34629   0.34693   0.34819   0.34826   0.35198
     Eigenvalues ---    0.35218   0.35468   0.35553   0.35582   0.35792
     Eigenvalues ---    0.35841   0.36078   0.36083   0.36160   0.36393
     Eigenvalues ---    0.36662   0.39348   0.40194   0.40208   0.40583
     Eigenvalues ---    0.40651   0.41524   0.41730   0.41922   0.42300
     Eigenvalues ---    0.42794   0.43455   0.43878   0.44092   0.44594
     Eigenvalues ---    0.44647   0.45014   0.45405   0.46251   0.47305
     Eigenvalues ---    0.47638   0.49309   0.49643   0.53028   0.53308
     Eigenvalues ---    0.93281   0.93432   0.93989   0.945851000.00000
     Eigenvalues --- 1000.000001000.000001000.000001000.000001000.00000
     Eigenvalues --- 1000.000001000.000001000.000001000.000001000.00000
     Eigenvalues --- 1000.000001000.000001000.000001000.000001000.00000
     Eigenvalues --- 1000.000001000.000001000.000001000.000001000.00000
     Eigenvalues --- 1000.000001000.000001000.000001000.000001000.00000
     Eigenvalues --- 1000.000001000.000001000.000001000.000001000.00000
     Eigenvalues --- 1000.000001000.000001000.000001000.000001000.00000
     Eigenvalues --- 1000.000001000.000001000.000001000.000001000.00000
     Eigenvalues --- 1000.000001000.000001000.000001000.000001000.00000
     Eigenvalues --- 1000.000001000.000001000.000001000.000001000.00000
     Eigenvalues --- 1000.000001000.000001000.000001000.000001000.00000
     Eigenvalues --- 1000.000001000.000001000.000001000.000001000.00000
     Eigenvalues --- 1000.000001000.000001000.000001000.000001000.00000
     Eigenvalues --- 1000.000001000.000001000.000001000.000001000.00000
     Eigenvalues --- 1000.000001000.000001000.000001000.000001000.00000
     Eigenvalues --- 1000.000001000.000001000.000001000.000001000.00000
     Eigenvalues --- 1000.000001000.000001000.000001000.000001000.00000
     Eigenvalues --- 1000.000001000.000001000.000001000.000001000.00000
     Eigenvalues --- 1000.000001000.000001000.000001000.000001000.00000
     Eigenvalues --- 1000.000001000.000001000.000001000.000001000.00000
     Eigenvalues --- 1000.000001000.000001000.000001000.000001000.00000
     Eigenvalues --- 1000.000001000.000001000.000001000.000001000.00000
     Eigenvalues --- 1000.000001000.000001000.000001000.000001000.00000
     Eigenvalues --- 1000.000001000.000001000.000001000.000001000.00000
     Eigenvalues --- 1000.000001000.000001000.000001000.000001000.00000
     Eigenvalues --- 1000.000001000.000001000.000001000.000001000.00000
     Eigenvalues --- 1000.000001000.000001000.000001000.000001000.00000
     Eigenvalues --- 1000.000001000.000001000.000001000.000001000.00000
     Eigenvalues --- 1000.000001000.000001000.000001000.000001000.00000
     Eigenvalues --- 1000.000001000.00000
 RFO step:  Lambda=-1.17783564D-01 EMin= 1.15532237D-02
 Linear search not attempted -- first point.
 Maximum step size (   0.300) exceeded in Quadratic search.
    -- Step size scaled by   0.547
 Iteration  1 RMS(Cart)=  0.31019723 RMS(Int)=  0.00774063
 Iteration  2 RMS(Cart)=  0.08891922 RMS(Int)=  0.00050713
 Iteration  3 RMS(Cart)=  0.00178198 RMS(Int)=  0.00015034
 Iteration  4 RMS(Cart)=  0.00000044 RMS(Int)=  0.00015034
 Iteration  1 RMS(Cart)=  0.00000322 RMS(Int)=  0.00000382
 Iteration  2 RMS(Cart)=  0.00000193 RMS(Int)=  0.00000425
 Iteration  3 RMS(Cart)=  0.00000119 RMS(Int)=  0.00000486
 Iteration  4 RMS(Cart)=  0.00000075 RMS(Int)=  0.00000534
 Variable       Old X    -DE/DX   Delta X   Delta X   Delta X     New X
                                 (Linear)    (Quad)   (Total)
    R1        2.80935  -0.00132   0.00000  -0.00201  -0.00200   2.80735
    R2        2.64584  -0.01044   0.00000  -0.01020  -0.01020   2.63564
    R3        2.31147  -0.02077   0.00000  -0.01075  -0.01075   2.30072
    R4        2.67311  -0.01593   0.00000  -0.01776  -0.01784   2.65527
    R5        2.59267  -0.02481   0.00000  -0.02412  -0.02416   2.56851
    R6        2.66894  -0.00199   0.00000  -0.00174  -0.00174   2.66720
    R7        2.69164  -0.00401   0.00000  -0.00222  -0.00223   2.68941
    R8        2.81049  -0.00155   0.00000  -0.00143  -0.00144   2.80906
    R9        2.62173  -0.01537   0.00000  -0.01507  -0.01510   2.60662
   R10        2.65570  -0.01070   0.00000  -0.01029  -0.01029   2.64541
   R11        2.30889  -0.01945   0.00000  -0.01001  -0.01001   2.29888
   R12        2.70248  -0.00077   0.00000  -0.00181  -0.00178   2.70070
   R13        2.04786  -0.00046   0.00000  -0.00053  -0.00053   2.04732
   R14        2.70495   0.02435   0.00000   0.03028   0.03043   2.73539
   R15        2.68322   0.00270   0.00000   0.00487   0.00489   2.68811
   R16        2.68655   0.04357   0.00000   0.04607   0.04617   2.73272
   R17        2.81233   0.01925   0.00000   0.02419   0.02432   2.83665
   R18        2.76359   0.02519   0.00000   0.02846   0.02846   2.79205
   R19        2.66221  -0.01229   0.00000  -0.01319  -0.01318   2.64902
   R20        2.31391  -0.03435   0.00000  -0.01787  -0.01787   2.29603
   R21        2.79415  -0.01497   0.00000  -0.01865  -0.01879   2.77536
   R22        2.63842  -0.02185   0.00000  -0.02248  -0.02259   2.61583
   R23        2.31456  -0.02042   0.00000  -0.01064  -0.01064   2.30392
   R24        2.62448  -0.00917   0.00000  -0.00845  -0.00845   2.61603
   R25        2.64561  -0.01226   0.00000  -0.01263  -0.01267   2.63294
   R26        2.04921  -0.00095   0.00000  -0.00110  -0.00110   2.04811
   R27        2.04741  -0.00058   0.00000  -0.00068  -0.00068   2.04673
   R28        2.77259  -0.00311   0.00000  -0.00356  -0.00356   2.76903
   R29        2.77252  -0.00340   0.00000  -0.00389  -0.00389   2.76864
   R30        2.06176  -0.00070   0.00000  -0.00083  -0.00083   2.06093
   R31        2.06551  -0.00196   0.00000  -0.00232  -0.00232   2.06319
   R32        2.05322  -0.00055   0.00000  -0.00064  -0.00064   2.05258
   R33        2.06368  -0.00139   0.00000  -0.00164  -0.00164   2.06203
   R34        2.06281  -0.00093   0.00000  -0.00110  -0.00110   2.06171
   R35        2.05355  -0.00061   0.00000  -0.00071  -0.00071   2.05284
   R36        2.60980   0.00331   0.00000   0.00362   0.00364   2.61345
   R37        3.33266  -0.00105   0.00000  -0.00042  -0.00039   3.33227
   R38        2.66111  -0.00159   0.00000  -0.00175  -0.00176   2.65936
   R39        2.03832  -0.01614   0.00000  -0.01843  -0.01843   2.01989
   R40        3.30422  -0.01486   0.00000  -0.01976  -0.01978   3.28444
   R41        2.64353  -0.02066   0.00000  -0.02046  -0.02049   2.62304
   R42        2.56928  -0.00702   0.00000  -0.00593  -0.00593   2.56335
   R43        2.71272   0.00188   0.00000   0.00197   0.00197   2.71470
   R44        2.69268  -0.00682   0.00000  -0.00698  -0.00698   2.68570
   R45        2.63316  -0.01203   0.00000  -0.01140  -0.01140   2.62177
   R46        3.32824  -0.00821   0.00000  -0.01082  -0.01081   3.31742
   R47        2.05958  -0.00100   0.00000  -0.00117  -0.00117   2.05841
   R48        2.07422  -0.00193   0.00000  -0.00231  -0.00231   2.07191
   R49        2.07170  -0.00123   0.00000  -0.00147  -0.00147   2.07023
   R50        2.69240  -0.00429   0.00000  -0.00456  -0.00456   2.68784
   R51        2.56668  -0.00771   0.00000  -0.00649  -0.00649   2.56019
   R52        3.26256  -0.00761   0.00000  -0.00910  -0.00910   3.25346
   R53        2.58606  -0.00722   0.00000  -0.00626  -0.00626   2.57980
   R54        2.04409  -0.00081   0.00000  -0.00093  -0.00093   2.04316
   R55        2.69022  -0.00708   0.00000  -0.00722  -0.00722   2.68300
   R56        2.04331  -0.00128   0.00000  -0.00147  -0.00147   2.04184
   R57        2.07285  -0.00128   0.00000  -0.00153  -0.00153   2.07132
   R58        2.05970  -0.00129   0.00000  -0.00151  -0.00151   2.05819
   R59        2.07228  -0.00108   0.00000  -0.00129  -0.00129   2.07099
    A1        2.03797   0.00169   0.00000   0.00121   0.00121   2.03918
    A2        2.14521  -0.00146   0.00000  -0.00152  -0.00152   2.14369
    A3        2.10001  -0.00023   0.00000   0.00031   0.00031   2.10032
    A4        2.10395   0.00518   0.00000   0.00964   0.00967   2.11362
    A5        2.08282  -0.00671   0.00000  -0.00661  -0.00657   2.07625
    A6        2.09624   0.00152   0.00000  -0.00302  -0.00309   2.09314
    A7        2.10093  -0.00759   0.00000  -0.01248  -0.01247   2.08846
    A8        2.07104   0.00031   0.00000  -0.00152  -0.00161   2.06943
    A9        2.11118   0.00729   0.00000   0.01400   0.01409   2.12527
   A10        2.10296   0.00344   0.00000   0.00590   0.00589   2.10885
   A11        2.09911   0.00322   0.00000   0.00421   0.00419   2.10330
   A12        2.08110  -0.00665   0.00000  -0.01011  -0.01008   2.07102
   A13        2.03739   0.00060   0.00000   0.00126   0.00124   2.03863
   A14        2.12972  -0.00027   0.00000  -0.00058  -0.00057   2.12915
   A15        2.11607  -0.00034   0.00000  -0.00068  -0.00067   2.11540
   A16        2.15098   0.02192   0.00000   0.03091   0.03094   2.18192
   A17        2.04399  -0.01128   0.00000  -0.01599  -0.01604   2.02795
   A18        2.08722  -0.01051   0.00000  -0.01457  -0.01459   2.07263
   A19        2.11101   0.01027   0.00000   0.01600   0.01592   2.12693
   A20        2.04385  -0.01807   0.00000  -0.02902  -0.02905   2.01479
   A21        2.12832   0.00781   0.00000   0.01304   0.01314   2.14147
   A22        2.08678  -0.02052   0.00000  -0.02579  -0.02580   2.06099
   A23        2.04738  -0.03340   0.00000  -0.04731  -0.04719   2.00020
   A24        2.14662   0.05422   0.00000   0.07419   0.07394   2.22056
   A25        2.04892  -0.01349   0.00000  -0.01682  -0.01661   2.03231
   A26        2.00754  -0.08914   0.00000  -0.13417  -0.13432   1.87322
   A27        2.22643   0.10258   0.00000   0.15124   0.15113   2.37755
   A28        2.06022   0.01600   0.00000   0.02510   0.02525   2.08547
   A29        2.17370   0.02612   0.00000   0.03825   0.03815   2.21184
   A30        2.04919  -0.04211   0.00000  -0.06321  -0.06332   1.98587
   A31        2.01621  -0.00355   0.00000  -0.00806  -0.00830   2.00791
   A32        2.14188   0.00208   0.00000   0.00450   0.00462   2.14649
   A33        2.12500   0.00148   0.00000   0.00359   0.00371   2.12871
   A34        2.10943   0.00624   0.00000   0.01009   0.00997   2.11940
   A35        2.11468   0.00981   0.00000   0.01643   0.01651   2.13118
   A36        2.05896  -0.01604   0.00000  -0.02647  -0.02644   2.03253
   A37        2.11176   0.00172   0.00000   0.00269   0.00264   2.11440
   A38        2.05670  -0.00043   0.00000  -0.00049  -0.00047   2.05623
   A39        2.11471  -0.00129   0.00000  -0.00220  -0.00217   2.11254
   A40        2.08567  -0.00393   0.00000  -0.00823  -0.00832   2.07736
   A41        2.07549   0.00250   0.00000   0.00517   0.00521   2.08070
   A42        2.12199   0.00144   0.00000   0.00308   0.00312   2.12511
   A43        2.20043   0.00708   0.00000   0.00765   0.00759   2.20802
   A44        2.02023  -0.00314   0.00000  -0.00323  -0.00320   2.01703
   A45        2.06252  -0.00394   0.00000  -0.00442  -0.00439   2.05813
   A46        2.18316  -0.00331   0.00000  -0.00553  -0.00554   2.17762
   A47        2.02959   0.00157   0.00000   0.00264   0.00264   2.03223
[...]
 Alpha  occ. eigenvalues --   -0.62335  -0.60586  -0.59639  -0.59159  -0.58695
 Alpha  occ. eigenvalues --   -0.58410  -0.57615  -0.57549  -0.57221  -0.57089
 Alpha  occ. eigenvalues --   -0.56701  -0.55780  -0.55364  -0.55007  -0.54501
 Alpha  occ. eigenvalues --   -0.53854  -0.53652  -0.53232  -0.53102  -0.51816
 Alpha  occ. eigenvalues --   -0.51658  -0.51110  -0.50929  -0.50497  -0.50464
 Alpha  occ. eigenvalues --   -0.50146  -0.49481  -0.49387  -0.48751  -0.48315
 Alpha  occ. eigenvalues --   -0.47849  -0.47731  -0.46947  -0.45902  -0.45296
 Alpha  occ. eigenvalues --   -0.44560  -0.44182  -0.42517  -0.41830  -0.41506
 Alpha  occ. eigenvalues --   -0.41215  -0.40003  -0.39531  -0.38487  -0.37841
 Alpha  occ. eigenvalues --   -0.37238  -0.37050  -0.36670  -0.36262  -0.34488
 Alpha  occ. eigenvalues --   -0.33121  -0.31824  -0.31712  -0.25688
 Alpha virt. eigenvalues --   -0.07162  -0.01043   0.00529   0.02549   0.03626
 Alpha virt. eigenvalues --    0.05286   0.05722   0.06114   0.06775   0.07106
 Alpha virt. eigenvalues --    0.07122   0.07451   0.07811   0.08015   0.08045
 Alpha virt. eigenvalues --    0.08581   0.08705   0.08825   0.09156   0.09247
 Alpha virt. eigenvalues --    0.09521   0.09894   0.09953   0.10173   0.10483
 Alpha virt. eigenvalues --    0.10742   0.11053   0.11460   0.11499   0.11864
 Alpha virt. eigenvalues --    0.12059   0.12097   0.12482   0.12775   0.12954
 Alpha virt. eigenvalues --    0.13172   0.13583   0.13665   0.13937   0.14534
 Alpha virt. eigenvalues --    0.14763   0.15094   0.15156   0.15372   0.15751
 Alpha virt. eigenvalues --    0.15919   0.16282   0.16370   0.16714   0.17080
 Alpha virt. eigenvalues --    0.17365   0.17700   0.17711   0.17971   0.18120
 Alpha virt. eigenvalues --    0.18319   0.18986   0.19310   0.19552   0.19877
 Alpha virt. eigenvalues --    0.19937   0.20109   0.20330   0.20473   0.20666
 Alpha virt. eigenvalues --    0.20937   0.21211   0.21359   0.21522   0.21833
 Alpha virt. eigenvalues --    0.22247   0.22368   0.22472   0.22647   0.22798
 Alpha virt. eigenvalues --    0.23060   0.23154   0.23665   0.24019   0.24342
 Alpha virt. eigenvalues --    0.24452   0.24654   0.24935   0.25057   0.25351
 Alpha virt. eigenvalues --    0.25419   0.25610   0.25896   0.26137   0.26218
 Alpha virt. eigenvalues --    0.26336   0.26383   0.26659   0.26945   0.27103
 Alpha virt. eigenvalues --    0.27307   0.27443   0.27522   0.27706   0.28121
 Alpha virt. eigenvalues --    0.28269   0.28757   0.28812   0.28964   0.29077
 Alpha virt. eigenvalues --    0.29458   0.29840   0.29983   0.30117   0.30351
 Alpha virt. eigenvalues --    0.30527   0.30787   0.30991   0.31041   0.31253
 Alpha virt. eigenvalues --    0.31308   0.31639   0.32076   0.32160   0.32252
 Alpha virt. eigenvalues --    0.32339   0.32548   0.32712   0.32796   0.33235
 Alpha virt. eigenvalues --    0.33455   0.33741   0.33847   0.33923   0.34209
 Alpha virt. eigenvalues --    0.34398   0.34671   0.35021   0.35209   0.35387
 Alpha virt. eigenvalues --    0.35656   0.35820   0.36192   0.36282   0.36472
 Alpha virt. eigenvalues --    0.36628   0.36905   0.37280   0.37566   0.37698
 Alpha virt. eigenvalues --    0.38362   0.38440   0.38660   0.39106   0.39323
 Alpha virt. eigenvalues --    0.39481   0.39650   0.40104   0.40416   0.40626
 Alpha virt. eigenvalues --    0.41068   0.41266   0.41402   0.41631   0.41795
 Alpha virt. eigenvalues --    0.42127   0.42675   0.42818   0.43348   0.43403
 Alpha virt. eigenvalues --    0.43691   0.44373   0.44834   0.45188   0.45449
 Alpha virt. eigenvalues --    0.45705   0.45961   0.46158   0.46506   0.46719
 Alpha virt. eigenvalues --    0.47511   0.47846   0.48822   0.48960   0.49338
 Alpha virt. eigenvalues --    0.49647   0.50046   0.50380   0.50888   0.51351
 Alpha virt. eigenvalues --    0.51776   0.52309   0.52557   0.52946   0.53058
 Alpha virt. eigenvalues --    0.53466   0.53621   0.53975   0.54940   0.55008
 Alpha virt. eigenvalues --    0.55252   0.55920   0.56412   0.56962   0.57078
 Alpha virt. eigenvalues --    0.57948   0.58425   0.58626   0.59018   0.59571
 Alpha virt. eigenvalues --    0.60003   0.60924   0.61248   0.61362   0.61916
 Alpha virt. eigenvalues --    0.62686   0.63295   0.63471   0.63729   0.63881
 Alpha virt. eigenvalues --    0.64440   0.64908   0.65131   0.65214   0.66049
 Alpha virt. eigenvalues --    0.66082   0.66819   0.67199   0.67311   0.67412
 Alpha virt. eigenvalues --    0.68161   0.68326   0.69162   0.69430   0.69592
 Alpha virt. eigenvalues --    0.69830   0.70228   0.70339   0.70959   0.71630
 Alpha virt. eigenvalues --    0.71790   0.72225   0.72979   0.73141   0.73358
 Alpha virt. eigenvalues --    0.73698   0.73784   0.74131   0.74410   0.74484
 Alpha virt. eigenvalues --    0.75051   0.75437   0.75550   0.76402   0.77179
 Alpha virt. eigenvalues --    0.77550   0.77682   0.78197   0.78446   0.78842
 Alpha virt. eigenvalues --    0.79317   0.80005   0.80280   0.80389   0.80824
 Alpha virt. eigenvalues --    0.81140   0.81750   0.81948   0.82205   0.82945
 Alpha virt. eigenvalues --    0.83083   0.83563   0.83721   0.83930   0.84299
 Alpha virt. eigenvalues --    0.84558   0.84893   0.85250   0.85581   0.86036
 Alpha virt. eigenvalues --    0.86224   0.86327   0.86956   0.87167   0.87889
 Alpha virt. eigenvalues --    0.88086   0.88735   0.89413   0.89450   0.90481
 Alpha virt. eigenvalues --    0.91344   0.92021   0.92603   0.93083   0.93884
 Alpha virt. eigenvalues --    0.94773   0.95008   0.95843   0.96497   0.97123
 Alpha virt. eigenvalues --    0.98040   0.98142   0.98802   0.99214   0.99466
 Alpha virt. eigenvalues --    1.00172   1.00277   1.01092   1.01324   1.01402
 Alpha virt. eigenvalues --    1.02027   1.02504   1.02710   1.03369   1.03772
 Alpha virt. eigenvalues --    1.04323   1.04536   1.04914   1.05333   1.05666
 Alpha virt. eigenvalues --    1.05862   1.06968   1.07077   1.07774   1.08696
 Alpha virt. eigenvalues --    1.09187   1.09644   1.09741   1.09949   1.11341
 Alpha virt. eigenvalues --    1.11453   1.11973   1.12066   1.12878   1.13022
 Alpha virt. eigenvalues --    1.13533   1.13725   1.14116   1.14744   1.15070
 Alpha virt. eigenvalues --    1.15359   1.15465   1.15948   1.16702   1.17144
 Alpha virt. eigenvalues --    1.17311   1.18192   1.18380   1.18691   1.19062
 Alpha virt. eigenvalues --    1.19796   1.20765   1.22030   1.22376   1.23919
 Alpha virt. eigenvalues --    1.24093   1.25051   1.25227   1.26417   1.26436
 Alpha virt. eigenvalues --    1.26783   1.27578   1.27828   1.28905   1.30333
 Alpha virt. eigenvalues --    1.30494   1.30989   1.32438   1.32828   1.33584
 Alpha virt. eigenvalues --    1.34261   1.34400   1.35016   1.35268   1.35980
 Alpha virt. eigenvalues --    1.37096   1.37815   1.39097   1.39460   1.40549
 Alpha virt. eigenvalues --    1.40762   1.41284   1.41757   1.43364   1.43972
 Alpha virt. eigenvalues --    1.44062   1.44697   1.45914   1.47134   1.47741
 Alpha virt. eigenvalues --    1.49019   1.49639   1.50175   1.51237   1.51329
 Alpha virt. eigenvalues --    1.51533   1.52069   1.52690   1.53018   1.53131
 Alpha virt. eigenvalues --    1.53541   1.53959   1.54267   1.54533   1.54704
 Alpha virt. eigenvalues --    1.55002   1.55466   1.56496   1.56982   1.57885
 Alpha virt. eigenvalues --    1.58573   1.59302   1.59774   1.60487   1.60762
 Alpha virt. eigenvalues --    1.61940   1.62068   1.63117   1.63469   1.63619
 Alpha virt. eigenvalues --    1.64151   1.64341   1.64741   1.65377   1.65729
 Alpha virt. eigenvalues --    1.66777   1.66936   1.69020   1.69900   1.70619
 Alpha virt. eigenvalues --    1.71841   1.71896   1.72205   1.73082   1.73272
 Alpha virt. eigenvalues --    1.74812   1.75036   1.75743   1.76269   1.76457
 Alpha virt. eigenvalues --    1.77028   1.78021   1.78350   1.78492   1.78710
 Alpha virt. eigenvalues --    1.79404   1.79544   1.80095   1.80489   1.80599
 Alpha virt. eigenvalues --    1.81660   1.82438   1.83211   1.84060   1.84524
 Alpha virt. eigenvalues --    1.84957   1.86449   1.86515   1.87237   1.87923
 Alpha virt. eigenvalues --    1.88491   1.88832   1.89295   1.89716   1.91168
 Alpha virt. eigenvalues --    1.92668   1.93531   1.93834   1.94500   1.95407
 Alpha virt. eigenvalues --    1.95550   1.96248   1.96290   1.96775   1.97805
 Alpha virt. eigenvalues --    1.98561   1.99081   1.99358   2.00274   2.00739
 Alpha virt. eigenvalues --    2.00904   2.01803   2.02665   2.03758   2.04458
 Alpha virt. eigenvalues --    2.04719   2.05962   2.06704   2.06942   2.07561
 Alpha virt. eigenvalues --    2.08937   2.09223   2.10278   2.10768   2.11230
 Alpha virt. eigenvalues --    2.11914   2.12514   2.13116   2.13713   2.13814
 Alpha virt. eigenvalues --    2.14880   2.15305   2.15915   2.16661   2.16896
 Alpha virt. eigenvalues --    2.17830   2.19261   2.19747   2.20481   2.21227
 Alpha virt. eigenvalues --    2.21728   2.22752   2.22914   2.24250   2.24582
 Alpha virt. eigenvalues --    2.25609   2.25970   2.26897   2.27862   2.28337
 Alpha virt. eigenvalues --    2.29093   2.29596   2.30350   2.31214   2.32027
 Alpha virt. eigenvalues --    2.34086   2.34221   2.34941   2.36253   2.38422
 Alpha virt. eigenvalues --    2.40579   2.41560   2.42426   2.45043   2.46702
 Alpha virt. eigenvalues --    2.47750   2.48224   2.49162   2.51237   2.52835
 Alpha virt. eigenvalues --    2.53107   2.53445   2.53707   2.54611   2.55897
 Alpha virt. eigenvalues --    2.56518   2.56878   2.58481   2.58698   2.59758
 Alpha virt. eigenvalues --    2.60189   2.61458   2.61663   2.61889   2.62541
 Alpha virt. eigenvalues --    2.62688   2.62979   2.63632   2.65080   2.65438
 Alpha virt. eigenvalues --    2.66696   2.67833   2.68810   2.69179   2.70150
 Alpha virt. eigenvalues --    2.72944   2.73411   2.73853   2.74577   2.76649
 Alpha virt. eigenvalues --    2.76780   2.77407   2.77776   2.78807   2.79258
 Alpha virt. eigenvalues --    2.79519   2.80406   2.81019   2.81324   2.81729
 Alpha virt. eigenvalues --    2.82192   2.82595   2.83796   2.84532   2.85451
 Alpha virt. eigenvalues --    2.87014   2.87190   2.87795   2.88807   2.90953
 Alpha virt. eigenvalues --    2.92322   2.92737   2.93149   2.94406   2.94561
 Alpha virt. eigenvalues --    2.95014   2.95110   2.95497   2.95982   2.97408
 Alpha virt. eigenvalues --    2.97625   2.98234   2.99627   2.99863   3.00490
 Alpha virt. eigenvalues --    3.01160   3.02023   3.02351   3.03812   3.04331
 Alpha virt. eigenvalues --    3.05390   3.06220   3.07549   3.08651   3.09860
 Alpha virt. eigenvalues --    3.11970   3.12834   3.13492   3.14499   3.15650
 Alpha virt. eigenvalues --    3.16922   3.17578   3.18726   3.19208   3.20714
 Alpha virt. eigenvalues --    3.22577   3.24317   3.24868   3.25633   3.26140
 Alpha virt. eigenvalues --    3.27872   3.29171   3.30396   3.32264   3.32874
 Alpha virt. eigenvalues --    3.33810   3.34316   3.35130   3.36366   3.36931
 Alpha virt. eigenvalues --    3.39663   3.40254   3.42846   3.43218   3.44321
 Alpha virt. eigenvalues --    3.44916   3.45237   3.46091   3.46872   3.48761
 Alpha virt. eigenvalues --    3.50053   3.50660   3.52297   3.54265   3.55025
 Alpha virt. eigenvalues --    3.55426   3.56704   3.57349   3.59736   3.60264
 Alpha virt. eigenvalues --    3.62487   3.64614   3.66327   3.68769   3.70847
 Alpha virt. eigenvalues --    3.71209   3.73168   3.75990   3.77014   3.78107
 Alpha virt. eigenvalues --    3.79791   3.81387   3.82751   3.83547   3.86929
 Alpha virt. eigenvalues --    3.87302   3.87466   3.91406   3.93284   3.95528
 Alpha virt. eigenvalues --    3.95844   3.96039   3.99916   4.01575   4.03200
 Alpha virt. eigenvalues --    4.04560   4.06195   4.07061   4.11362   4.13052
 Alpha virt. eigenvalues --    4.14292   4.18725   4.21113   4.22496   4.25124
 Alpha virt. eigenvalues --    4.30582   4.33856   4.35377   4.37930   4.45606
 Alpha virt. eigenvalues --    4.50072   4.50902   4.63745   4.80900   4.95329
 Alpha virt. eigenvalues --    4.95505   4.98925   5.01675   5.13066   5.14550
 Alpha virt. eigenvalues --    5.15299   5.16818   5.17297   5.21116   5.22884
 Alpha virt. eigenvalues --    5.24198   5.36594   5.38308   5.40186   5.41554
 Alpha virt. eigenvalues --    5.54751   5.55980   5.87609   5.89419   5.91630
 Alpha virt. eigenvalues --    5.93204   5.93702   5.96077   8.14831   8.16959
 Alpha virt. eigenvalues --   17.43158  17.45792  17.64344  17.67156  17.72224
 Alpha virt. eigenvalues --   17.78073  23.62010  23.70338  23.85081  23.91866
 Alpha virt. eigenvalues --   23.96250  23.97115  23.98368  24.00323  24.01157
 Alpha virt. eigenvalues --   24.02003  24.02591  24.04312  24.05321  24.06955
 Alpha virt. eigenvalues --   24.08421  24.09712  24.10174  24.13528  24.16341
 Alpha virt. eigenvalues --   24.18478  24.19679  24.21217  24.28100  24.29445
 Alpha virt. eigenvalues --   24.29593  24.29930  35.70224  35.72678  50.10811
 Alpha virt. eigenvalues --   50.12587  50.16901  50.18500  50.20702  50.21985
 Alpha virt. eigenvalues --  189.40363 189.43097
          Condensed to atoms (all electrons):
 Mulliken charges:
               1
     1  C    0.302124
     2  C    0.011690
     3  C    0.257616
     4  C    0.226164
     5  C    0.329138
     6  C    0.093930
     7  C    0.253618
     8  C    0.376974
     9  C    0.230168
    10  C   -0.847209
    11  C    0.253193
    12  C    0.118864
    13  C   -0.559438
    14  C   -0.684452
    15  H    0.186478
    16  H    0.188654
    17  H    0.192468
    18  N   -0.061164
    19  N   -0.089094
    20  O   -0.268031
    21  O   -0.265581
    22  O   -0.275649
    23  O   -0.233402
    24  C   -0.262022
    25  H    0.188946
    26  H    0.198052
    27  H    0.201215
    28  C   -0.282292
    29  H    0.191470
    30  H    0.194204
    31  H    0.199699
    32  C   -0.149683
    33  C   -0.356113
    34  S   -0.729656
    35  C   -0.285928
    36  H    0.172279
    37  C    0.720143
    38  O   -0.105692
    39  C    0.942851
    40  C   -0.309479
    41  C    0.047376
    42  S   -0.259880
    43  H    0.182407
    44  H    0.171765
    45  H    0.161770
    46  C   -0.636461
    47  O   -0.110594
    48  C   -0.360137
    49  H    0.157466
    50  C   -0.308719
    51  H    0.188290
    52  H    0.158151
    53  H    0.184987
    54  H    0.158529
 Sum of Mulliken charges =  -0.00000
 Mulliken charges with hydrogens summed into heavy atoms:
               1
     1  C    0.302124
     2  C    0.011690
     3  C    0.257616
     4  C    0.226164
     5  C    0.329138
     6  C    0.286398
     7  C    0.253618
     8  C    0.376974
     9  C    0.230168
    10  C   -0.847209
    11  C    0.253193
    12  C    0.118864
    13  C   -0.370784
    14  C   -0.497975
    18  N   -0.061164
    19  N   -0.089094
    20  O   -0.268031
    21  O   -0.265581
    22  O   -0.275649
    23  O   -0.233402
    24  C    0.326191
    28  C    0.303081
    32  C   -0.149683
    33  C   -0.183834
    34  S   -0.729656
    35  C   -0.285928
    37  C    0.720143
    38  O   -0.105692
    39  C    0.942851
    40  C    0.206462
    41  C    0.047376
    42  S   -0.259880
    46  C   -0.478995
    47  O   -0.110594
    48  C   -0.171847
    50  C    0.192947
 Electronic spatial extent (au):  <R**2>=          22253.1609
 Charge=              0.0000 electrons
 Dipole moment (field-independent basis, Debye):
    X=              3.4519    Y=             -0.5713    Z=              0.2119  Tot=              3.5052
 Quadrupole moment (field-independent basis, Debye-Ang):
   XX=           -215.1034   YY=           -207.5271   ZZ=           -218.4227
   XY=             -4.7560   XZ=             -1.1653   YZ=             11.3404
 Traceless Quadrupole moment (field-independent basis, Debye-Ang):
   XX=             -1.4190   YY=              6.1573   ZZ=             -4.7383
   XY=             -4.7560   XZ=             -1.1653   YZ=             11.3404
 Octapole moment (field-independent basis, Debye-Ang**2):
  XXX=            340.6550  YYY=            -19.5921  ZZZ=             -1.5919  XYY=            120.0426
  XXY=            -83.4186  XXZ=            -22.8868  XZZ=             -1.9584  YZZ=              2.1567
  YYZ=             -2.7629  XYZ=             41.1258
 Hexadecapole moment (field-independent basis, Debye-Ang**3):
 XXXX=         -20422.4820 YYYY=          -7547.7523 ZZZZ=           -677.6368 XXXY=           -559.3908
 XXXZ=            -80.6376 YYYX=            249.0237 YYYZ=            120.0753 ZZZX=              0.2464
 ZZZY=              8.3466 XXYY=          -4869.9214 XXZZ=          -3714.2437 YYZZ=          -1368.4167
 XXYZ=            227.9228 YYXZ=            -28.9554 ZZXY=             18.3835
 N-N= 4.104284769925D+03 E-N=-1.374833167612D+04  KE= 2.352009059584D+03
 Unable to Open any file for archive entry.
 1\1\GINC-CX3-3-16\FOpt\RwB97XD\6-311+G(d,p)\C26H18N2O6S2\NS5018\29-Nov
 -2020\0\\# opt=modredundant wb97xd/6-311+g(d,p)\\NDI_20.pdb\\0,1\C,-2.
 5541303685,-2.9345967686,-0.5520708439\C,-2.2556465456,-1.490666644,-0
 .3559332199\C,-3.2806561898,-0.5897444744,-0.003035158\C,-4.6017252855
 ,-1.044801065,0.1612125676\C,-4.9335300083,-2.4828152041,-0.0346126433
 \C,-0.9785053914,-1.0478381406,-0.5057642332\C,-2.9557769684,0.7746880
 857,0.1535935616\C,-1.6107967179,1.234563449,-0.0020044478\C,-0.593236
 3612,0.3152847309,-0.3173805285\C,-1.4065194988,2.7121066306,-0.022539
 1999\C,-3.7801044097,3.1107280602,0.5985193337\C,-4.0150633032,1.65531
 58353,0.4730315889\C,-5.3020998866,1.1928940946,0.6483267693\C,-5.6048
 590057,-0.1634293138,0.494341024\H,-6.6151221747,-0.5319080114,0.61997
 09153\H,-6.0740580824,1.9107032415,0.8970057614\H,-0.2255064649,-1.791
 3901027,-0.7361924525\N,-2.4954086804,3.5367955091,0.2910863189\N,-3.8
 813764117,-3.3286445279,-0.3982106786\O,-1.6980628539,-3.7472581547,-0
 .8192784342\O,-6.05858835,-2.9038314696,0.1082606791\O,-4.6535342527,3
 .8863307421,0.9212430034\O,-0.3547259324,3.2521897231,-0.2867554709\C,
 -2.2230264046,4.9735710278,0.2963579957\H,-1.4462993303,5.2021343719,1
 .0265378727\H,-1.8747253886,5.2865707231,-0.6876588374\H,-3.1451688726
 ,5.4850695251,0.5550222376\C,-4.1607594671,-4.7500284773,-0.5968070085
 \H,-3.8524053808,-5.046842148,-1.5991866085\H,-3.601135547,-5.34198200
 53,0.1279663862\H,-5.2277655642,-4.9033932337,-0.466304495\C,0.8557009
 031,0.5381052662,-0.3286810398\C,1.6302552387,1.4989458414,0.272639937
 9\S,1.8552955053,-0.5321633733,-1.2772934035\C,3.0038584932,1.35184177
 53,0.0045452805\H,1.2278525121,2.2763935779,0.8971739082\C,3.306784175
 5,0.2974837166,-0.8380630895\O,3.9968584368,2.1485054315,0.4610987234\
 C,4.6102745981,-0.095636235,-1.3191876165\C,3.6507941912,3.1488197919,
 1.3985113884\C,4.9082400243,-1.1611133739,-2.1444138933\S,6.0726844195
 ,0.7587615342,-0.9093061957\H,4.5801412135,3.6514241681,1.6601180536\H
 ,2.9542867173,3.8733718311,0.9634876774\H,3.2089106212,2.708165233,2.2
 988134676\C,6.2922088081,-1.2899562206,-2.4423204537\O,3.9149932524,-1
 .9648385883,-2.5828666668\C,7.0285345459,-0.3163288271,-1.8374481476\H
 ,6.7190585159,-2.0598691096,-3.0686187657\C,4.2590706929,-3.0239173251
 ,-3.4533515805\H,8.0975407882,-0.1755265721,-1.8903798737\H,4.94161099
 43,-3.7287803752,-2.9667500807\H,3.3271276238,-3.5324788938,-3.6928402
 066\H,4.7142368278,-2.644985282,-4.3746091784\\Version=ES64L-G16RevC.0
 1\State=1-A\HF=-2358.7711511\RMSD=3.846e-09\RMSF=1.656e-03\Dipole=1.34
 79643,-0.2103307,-0.2014591\Quadrupole=-1.4933512,-0.3604933,1.8538444
 ,-1.6394181,-1.49412,9.6830801\PG=C01 [X(C26H18N2O6S2)]\\@
 The archive entry for this job was punched.


 GOOD SENSE ABOUT TRIVIALITIES IS BETTER THAN NONSENSE
 ABOUT THINGS THAT MATTER

                                       -- MAX BEERBOHM
 Job cpu time:       1 days 19 hours 24 minutes 38.7 seconds.
 Elapsed time:       0 days  5 hours 27 minutes 34.2 seconds.
 File lengths (MBytes):  RWF=    496 Int=      0 D2E=      0 Chk=     61 Scr=      1
 Normal termination of Gaussian 16 at Sun Nov 29 21:36:00 2020.
