 Entering Gaussian System, Link 0=g16
 Input=NDI_120.gjf
 Output=NDI_120.log
 Initial command:
 /apps/gaussian/g16-c01-avx/g16/l1.exe "/tmp/pbs.2626208[60].pbs/Gau-1744512.inp" -scrdir="/tmp/pbs.2626208[60].pbs/"
 Entering Link 1 = /apps/gaussian/g16-c01-avx/g16/l1.exe PID=   1744513.
  
 Copyright (c) 1988-2019, Gaussian, Inc.  All Rights Reserved.
  
 This is part of the Gaussian(R) 16 program.  It is based on
 the Gaussian(R) 09 system (copyright 2009, Gaussian, Inc.),
 the Gaussian(R) 03 system (copyright 2003, Gaussian, Inc.),
 the Gaussian(R) 98 system (copyright 1998, Gaussian, Inc.),
 the Gaussian(R) 94 system (copyright 1995, Gaussian, Inc.),
 the Gaussian 92(TM) system (copyright 1992, Gaussian, Inc.),
 the Gaussian 90(TM) system (copyright 1990, Gaussian, Inc.),
 the Gaussian 88(TM) system (copyright 1988, Gaussian, Inc.),
 the Gaussian 86(TM) system (copyright 1986, Carnegie Mellon
 University), and the Gaussian 82(TM) system (copyright 1983,
 Carnegie Mellon University). Gaussian is a federally registered
 trademark of Gaussian, Inc.
  
 This software contains proprietary and confidential information,
 including trade secrets, belonging to Gaussian, Inc.
  
 This software is provided under written license and may be
 used, copied, transmitted, or stored only in accord with that
 written license.
  
 The following legend is applicable only to US Government
 contracts under FAR:
  
                    RESTRICTED RIGHTS LEGEND
  
 Use, reproduction and disclosure by the US Government is
 subject to restrictions as set forth in subparagraphs (a)
 and (c) of the Commercial Computer Software - Restricted
 Rights clause in FAR 52.227-19.
  
 Gaussian, Inc.
 340 Quinnipiac St., Bldg. 40, Wallingford CT 06492
  
  
 ---------------------------------------------------------------
 Warning -- This program may not be used in any manner that
 competes with the business of Gaussian, Inc. or will provide
 assistance to any competitor of Gaussian, Inc.  The licensee
 of this program is prohibited from giving any competitor of
 Gaussian, Inc. access to this program.  By using this program,
 the user acknowledges that Gaussian, Inc. is engaged in the
 business of creating and licensing software in the field of
 computational chemistry and represents and warrants to the
 licensee that it is not a competitor of Gaussian, Inc. and that
 it will not use this program in any manner prohibited above.
 ---------------------------------------------------------------
  

 Cite this work as:
 Gaussian 16, Revision C.01,
 M. J. Frisch, G. W. Trucks, H. B. Schlegel, G. E. Scuseria, 
 M. A. Robb, J. R. Cheeseman, G. Scalmani, V. Barone, 
 G. A. Petersson, H. Nakatsuji, X. Li, M. Caricato, A. V. Marenich, 
 J. Bloino, B. G. Janesko, R. Gomperts, B. Mennucci, H. P. Hratchian, 
 J. V. Ortiz, A. F. Izmaylov, J. L. Sonnenberg, D. Williams-Young, 
 F. Ding, F. Lipparini, F. Egidi, J. Goings, B. Peng, A. Petrone, 
 T. Henderson, D. Ranasinghe, V. G. Zakrzewski, J. Gao, N. Rega, 
 G. Zheng, W. Liang, M. Hada, M. Ehara, K. Toyota, R. Fukuda, 
 J. Hasegawa, M. Ishida, T. Nakajima, Y. Honda, O. Kitao, H. Nakai, 
 T. Vreven, K. Throssell, J. A. Montgomery, Jr., J. E. Peralta, 
 F. Ogliaro, M. J. Bearpark, J. J. Heyd, E. N. Brothers, K. N. Kudin, 
 V. N. Staroverov, T. A. Keith, R. Kobayashi, J. Normand, 
 K. Raghavachari, A. P. Rendell, J. C. Burant, S. S. Iyengar, 
 J. Tomasi, M. Cossi, J. M. Millam, M. Klene, C. Adamo, R. Cammi, 
 J. W. Ochterski, R. L. Martin, K. Morokuma, O. Farkas, 
 J. B. Foresman, and D. J. Fox, Gaussian, Inc., Wallingford CT, 2019.
 
 ******************************************
 Gaussian 16:  ES64L-G16RevC.01  3-Jul-2019
                29-Nov-2020 
 ******************************************
 %mem=10GB
 %nprocshared=8
 Will use up to    8 processors via shared memory.
 --------------------------------------
 # opt=modredundant wb97xd/6-311+g(d,p)
 --------------------------------------
 1/18=120,19=15,26=3,38=1/1,3;
 2/9=110,12=2,17=6,18=5,40=1/2;
 3/5=4,6=6,7=111,11=2,25=1,30=1,71=1,74=-58/1,2,3;
 4//1;
 5/5=2,38=5/2;
 6/7=2,8=2,9=2,10=2,28=1/1;
 7//1,2,3,16;
 1/18=20,19=15,26=3/3(2);
 2/9=110/2;
 99//99;
 2/9=110/2;
 3/5=4,6=6,7=111,11=2,25=1,30=1,71=1,74=-58/1,2,3;
 4/5=5,16=3,69=1/1;
 5/5=2,38=5/2;
 7//1,2,3,16;
 1/18=20,19=15,26=3/3(-5);
 2/9=110/2;
 6/7=2,8=2,9=2,10=2,19=2,28=1/1;
 99/9=1/99;
 -----------
 NDI_120.pdb
 -----------
 Symbolic Z-matrix:
 Charge =  0 Multiplicity = 1
 C                    -2.563    -2.994    -0.409 
 C                    -2.257    -1.551    -0.224 
 C                    -3.301    -0.607    -0.083 
 C                    -4.65     -1.024    -0.115 
 C                    -4.992    -2.459    -0.304 
 C                    -0.949    -1.137    -0.215 
 C                    -2.962     0.764     0.102 
 C                    -1.595     1.188     0.123 
 C                    -0.561     0.232    -0.072 
 C                    -1.328     2.616     0.446 
 C                    -3.777     3.115     0.508 
 C                    -4.035     1.679     0.268 
 C                    -5.356     1.252     0.23 
 C                    -5.672    -0.098     0.036 
 H                    -6.699    -0.442     0.008 
 H                    -6.133     1.997     0.361 
 H                    -0.19     -1.895    -0.369 
 N                    -2.432     3.476     0.608 
 N                    -3.916    -3.353    -0.438 
 O                    -1.695    -3.847    -0.532 
 O                    -6.149    -2.85     -0.34 
 O                    -4.676     3.938     0.629 
 O                    -0.212     3.097     0.596 
 C                    -2.111     4.875     0.912 
 H                    -1.54      4.931     1.84 
 H                    -1.5       5.299     0.111 
 H                    -3.05      5.414     1.003 
 C                    -4.206    -4.779    -0.625 
 H                    -3.759    -5.126    -1.559 
 H                    -3.775    -5.355     0.196 
 H                    -5.286    -4.897    -0.649 
 C                     0.876     0.482    -0.178 
 C                     1.931     0.031     0.591 
 S                     1.449     1.656    -1.363 
 C                     3.169     0.604     0.24 
 H                     1.812    -0.697     1.377 
 C                     3.105     1.514    -0.821 
 O                     4.371     0.354     0.824 
 C                     4.191     2.225    -1.434 
 C                     4.424    -0.68      1.802 
 C                     4.123     3.149    -2.475 
 S                     5.87      2.029    -0.937 
 H                     5.474    -0.775     2.082 
 H                     3.835    -0.418     2.689 
 H                     4.063    -1.632     1.394 
 C                     5.384     3.684    -2.864 
 O                     2.914     3.45     -3.017 
 C                     6.409     3.168    -2.118 
 H                     5.523     4.411    -3.651 
 C                     2.871     4.423    -4.055 
 H                     7.462     3.4      -2.199 
 H                     3.448     4.097    -4.929 
 H                     1.822     4.522    -4.331 
 H                     3.251     5.391    -3.708 
 
 The following ModRedundant input section has been read:
 D       8       9      32      33 F                                           
 D      33      35      38      40 F                                           
 D      46      41      47      50 F                                           
 D      10      18      24      25 F                                           
 D       1      19      28      30 F                                           
 D       9       8      10      23 F                                           
 D      20       1       2       6 F                                           
 

 GradGradGradGradGradGradGradGradGradGradGradGradGradGradGradGradGradGrad
 Berny optimization.
 Initialization pass.
                           ----------------------------
                           !    Initial Parameters    !
                           ! (Angstroms and Degrees)  !
 --------------------------                            --------------------------
 ! Name  Definition              Value          Derivative Info.                !
 --------------------------------------------------------------------------------
 ! R1    R(1,2)                  1.4866         estimate D2E/DX2                !
 ! R2    R(1,19)                 1.4001         estimate D2E/DX2                !
 ! R3    R(1,20)                 1.2232         estimate D2E/DX2                !
 ! R4    R(2,3)                  1.4146         estimate D2E/DX2                !
 ! R5    R(2,6)                  1.372          estimate D2E/DX2                !
 ! R6    R(3,4)                  1.4123         estimate D2E/DX2                !
 ! R7    R(3,7)                  1.4244         estimate D2E/DX2                !
 ! R8    R(4,5)                  1.4872         estimate D2E/DX2                !
 ! R9    R(4,14)                 1.3874         estimate D2E/DX2                !
 ! R10   R(5,19)                 1.4053         estimate D2E/DX2                !
 ! R11   R(5,21)                 1.2218         estimate D2E/DX2                !
 ! R12   R(6,9)                  1.4301         estimate D2E/DX2                !
 ! R13   R(6,17)                 1.0837         estimate D2E/DX2                !
 ! R14   R(7,8)                  1.4314         estimate D2E/DX2                !
 ! R15   R(7,12)                 1.4199         estimate D2E/DX2                !
 ! R16   R(8,9)                  1.4217         estimate D2E/DX2                !
 ! R17   R(8,10)                 1.4882         estimate D2E/DX2                !
 ! R18   R(9,32)                 1.4624         estimate D2E/DX2                !
 ! R19   R(10,18)                1.4088         estimate D2E/DX2                !
 ! R20   R(10,23)                1.2245         estimate D2E/DX2                !
 ! R21   R(11,12)                1.4786         estimate D2E/DX2                !
 ! R22   R(11,18)                1.3962         estimate D2E/DX2                !
 ! R23   R(11,22)                1.2248         estimate D2E/DX2                !
 ! R24   R(12,13)                1.3888         estimate D2E/DX2                !
 ! R25   R(13,14)                1.4            estimate D2E/DX2                !
 ! R26   R(13,16)                1.0844         estimate D2E/DX2                !
 ! R27   R(14,15)                1.0834         estimate D2E/DX2                !
 ! R28   R(18,24)                1.4672         estimate D2E/DX2                !
 ! R29   R(19,28)                1.4672         estimate D2E/DX2                !
 ! R30   R(24,25)                1.091          estimate D2E/DX2                !
 ! R31   R(24,26)                1.093          estimate D2E/DX2                !
 ! R32   R(24,27)                1.0865         estimate D2E/DX2                !
 ! R33   R(28,29)                1.0921         estimate D2E/DX2                !
 ! R34   R(28,30)                1.0916         estimate D2E/DX2                !
 ! R35   R(28,31)                1.0867         estimate D2E/DX2                !
 ! R36   R(32,33)                1.3812         estimate D2E/DX2                !
 ! R37   R(32,34)                1.7638         estimate D2E/DX2                !
 ! R38   R(33,35)                1.4086         estimate D2E/DX2                !
 ! R39   R(33,36)                1.0779         estimate D2E/DX2                !
 ! R40   R(34,37)                1.7482         estimate D2E/DX2                !
 ! R41   R(35,37)                1.3993         estimate D2E/DX2                !
 ! R42   R(35,38)                1.3595         estimate D2E/DX2                !
 ! R43   R(37,39)                1.4355         estimate D2E/DX2                !
 ! R44   R(38,40)                1.4242         estimate D2E/DX2                !
 ! R45   R(39,41)                1.3936         estimate D2E/DX2                !
 ! R46   R(39,42)                1.7619         estimate D2E/DX2                !
 ! R47   R(40,43)                1.0908         estimate D2E/DX2                !
 ! R48   R(40,44)                1.0965         estimate D2E/DX2                !
 ! R49   R(40,45)                1.0969         estimate D2E/DX2                !
 ! R50   R(41,46)                1.424          estimate D2E/DX2                !
 ! R51   R(41,47)                1.3587         estimate D2E/DX2                !
 ! R52   R(42,48)                1.727          estimate D2E/DX2                !
 ! R53   R(46,48)                1.3687         estimate D2E/DX2                !
 ! R54   R(46,49)                1.0804         estimate D2E/DX2                !
 ! R55   R(47,50)                1.4234         estimate D2E/DX2                !
 ! R56   R(48,51)                1.0813         estimate D2E/DX2                !
 ! R57   R(50,52)                1.0969         estimate D2E/DX2                !
 ! R58   R(50,53)                1.0892         estimate D2E/DX2                !
 ! R59   R(50,54)                1.0963         estimate D2E/DX2                !
 ! A1    A(2,1,19)             116.767          estimate D2E/DX2                !
 ! A2    A(2,1,20)             122.9113         estimate D2E/DX2                !
 ! A3    A(19,1,20)            120.3217         estimate D2E/DX2                !
 ! A4    A(1,2,3)              120.5473         estimate D2E/DX2                !
 ! A5    A(1,2,6)              119.3369         estimate D2E/DX2                !
 ! A6    A(3,2,6)              120.1056         estimate D2E/DX2                !
 ! A7    A(2,3,4)              120.3743         estimate D2E/DX2                !
 ! A8    A(2,3,7)              118.662          estimate D2E/DX2                !
 ! A9    A(4,3,7)              120.9617         estimate D2E/DX2                !
 ! A10   A(3,4,5)              120.4909         estimate D2E/DX2                !
 ! A11   A(3,4,14)             120.2702         estimate D2E/DX2                !
 ! A12   A(5,4,14)             119.2382         estimate D2E/DX2                !
 ! A13   A(4,5,19)             116.7341         estimate D2E/DX2                !
 ! A14   A(4,5,21)             122.024          estimate D2E/DX2                !
 ! A15   A(19,5,21)            121.2418         estimate D2E/DX2                !
 ! A16   A(2,6,9)              123.2421         estimate D2E/DX2                !
 ! A17   A(2,6,17)             117.1119         estimate D2E/DX2                !
 ! A18   A(9,6,17)             119.589          estimate D2E/DX2                !
 ! A19   A(3,7,8)              120.9519         estimate D2E/DX2                !
 ! A20   A(3,7,12)             117.1037         estimate D2E/DX2                !
 ! A21   A(8,7,12)             121.944          estimate D2E/DX2                !
 ! A22   A(7,8,9)              119.5639         estimate D2E/DX2                !
 ! A23   A(7,8,10)             117.3064         estimate D2E/DX2                !
 ! A24   A(9,8,10)             122.9922         estimate D2E/DX2                !
 ! A25   A(6,9,8)              117.3944         estimate D2E/DX2                !
 ! A26   A(6,9,32)             115.0236         estimate D2E/DX2                !
 ! A27   A(8,9,32)             127.5648         estimate D2E/DX2                !
 ! A28   A(8,10,18)            118.042          estimate D2E/DX2                !
 ! A29   A(8,10,23)            124.5436         estimate D2E/DX2                !
 ! A30   A(18,10,23)           117.4097         estimate D2E/DX2                !
 ! A31   A(12,11,18)           115.5202         estimate D2E/DX2                !
 ! A32   A(12,11,22)           122.7205         estimate D2E/DX2                !
 ! A33   A(18,11,22)           121.7534         estimate D2E/DX2                !
 ! A34   A(7,12,11)            120.8614         estimate D2E/DX2                !
 ! A35   A(7,12,13)            121.162          estimate D2E/DX2                !
 ! A36   A(11,12,13)           117.9699         estimate D2E/DX2                !
 ! A37   A(12,13,14)           120.9948         estimate D2E/DX2                !
 ! A38   A(12,13,16)           117.8401         estimate D2E/DX2                !
 ! A39   A(14,13,16)           121.1642         estimate D2E/DX2                !
 ! A40   A(4,14,13)            119.5003         estimate D2E/DX2                !
 ! A41   A(4,14,15)            118.9169         estimate D2E/DX2                !
 ! A42   A(13,14,15)           121.5811         estimate D2E/DX2                !
 ! A43   A(10,18,11)           126.0753         estimate D2E/DX2                !
 ! A44   A(10,18,24)           115.7508         estimate D2E/DX2                !
 ! A45   A(11,18,24)           118.1737         estimate D2E/DX2                !
 ! A46   A(1,19,5)             125.0856         estimate D2E/DX2                !
 ! A47   A(1,19,28)            116.2868         estimate D2E/DX2                !
 ! A48   A(5,19,28)            118.6276         estimate D2E/DX2                !
 ! A49   A(18,24,25)           109.8574         estimate D2E/DX2                !
 ! A50   A(18,24,26)           109.8979         estimate D2E/DX2                !
 ! A51   A(18,24,27)           107.5355         estimate D2E/DX2                !
 ! A52   A(25,24,26)           108.1108         estimate D2E/DX2                !
 ! A53   A(25,24,27)           110.8301         estimate D2E/DX2                !
 ! A54   A(26,24,27)           110.6124         estimate D2E/DX2                !
 ! A55   A(19,28,29)           109.6906         estimate D2E/DX2                !
 ! A56   A(19,28,30)           109.8136         estimate D2E/DX2                !
 ! A57   A(19,28,31)           107.7461         estimate D2E/DX2                !
 ! A58   A(29,28,30)           108.2991         estimate D2E/DX2                !
 ! A59   A(29,28,31)           110.6959         estimate D2E/DX2                !
 ! A60   A(30,28,31)           110.5924         estimate D2E/DX2                !
 ! A61   A(9,32,33)            130.871          estimate D2E/DX2                !
 ! A62   A(9,32,34)            118.7972         estimate D2E/DX2                !
 ! A63   A(33,32,34)           110.0754         estimate D2E/DX2                !
 ! A64   A(32,33,35)           113.5623         estimate D2E/DX2                !
 ! A65   A(32,33,36)           122.8313         estimate D2E/DX2                !
 ! A66   A(35,33,36)           123.6041         estimate D2E/DX2                !
 ! A67   A(32,34,37)            92.6007         estimate D2E/DX2                !
 ! A68   A(33,35,37)           114.4121         estimate D2E/DX2                !
 ! A69   A(33,35,38)           126.5268         estimate D2E/DX2                !
 ! A70   A(37,35,38)           119.0611         estimate D2E/DX2                !
 ! A71   A(34,37,35)           109.3437         estimate D2E/DX2                !
 ! A72   A(34,37,39)           122.9562         estimate D2E/DX2                !
 ! A73   A(35,37,39)           127.6841         estimate D2E/DX2                !
 ! A74   A(35,38,40)           117.4756         estimate D2E/DX2                !
 ! A75   A(37,39,41)           127.6235         estimate D2E/DX2                !
 ! A76   A(37,39,42)           123.0493         estimate D2E/DX2                !
 ! A77   A(41,39,42)           109.3272         estimate D2E/DX2                !
 ! A78   A(38,40,43)           105.9803         estimate D2E/DX2                !
 ! A79   A(38,40,44)           111.2242         estimate D2E/DX2                !
 ! A80   A(38,40,45)           111.2507         estimate D2E/DX2                !
 ! A81   A(43,40,44)           109.2821         estimate D2E/DX2                !
 ! A82   A(43,40,45)           109.6756         estimate D2E/DX2                !
 ! A83   A(44,40,45)           109.3594         estimate D2E/DX2                !
 ! A84   A(39,41,46)           114.2027         estimate D2E/DX2                !
 ! A85   A(39,41,47)           119.2284         estimate D2E/DX2                !
 ! A86   A(46,41,47)           126.5684         estimate D2E/DX2                !
 ! A87   A(39,42,48)            91.7849         estimate D2E/DX2                !
 ! A88   A(41,46,48)           111.8783         estimate D2E/DX2                !
 ! A89   A(41,46,49)           124.4547         estimate D2E/DX2                !
 ! A90   A(48,46,49)           123.6669         estimate D2E/DX2                !
 ! A91   A(41,47,50)           117.9841         estimate D2E/DX2                !
 ! A92   A(42,48,46)           112.8069         estimate D2E/DX2                !
 ! A93   A(42,48,51)           119.7795         estimate D2E/DX2                !
 ! A94   A(46,48,51)           127.4136         estimate D2E/DX2                !
 ! A95   A(47,50,52)           111.2244         estimate D2E/DX2                !
 ! A96   A(47,50,53)           106.0224         estimate D2E/DX2                !
 ! A97   A(47,50,54)           111.2413         estimate D2E/DX2                !
 ! A98   A(52,50,53)           109.3741         estimate D2E/DX2                !
 ! A99   A(52,50,54)           109.4089         estimate D2E/DX2                !
 ! A100  A(53,50,54)           109.4984         estimate D2E/DX2                !
 ! D1    D(19,1,2,3)             0.1578         estimate D2E/DX2                !
 ! D2    D(19,1,2,6)          -178.6792         estimate D2E/DX2                !
 ! D3    D(20,1,2,3)          -179.8231         estimate D2E/DX2                !
 ! D4    D(20,1,2,6)             1.3399         Frozen                          !
 ! D5    D(2,1,19,5)            -0.124          estimate D2E/DX2                !
 ! D6    D(2,1,19,28)          179.8267         estimate D2E/DX2                !
 ! D7    D(20,1,19,5)          179.8575         estimate D2E/DX2                !
 ! D8    D(20,1,19,28)          -0.1919         estimate D2E/DX2                !
 ! D9    D(1,2,3,4)              0.0571         estimate D2E/DX2                !
 ! D10   D(1,2,3,7)            179.5453         estimate D2E/DX2                !
 ! D11   D(6,2,3,4)            178.8851         estimate D2E/DX2                !
 ! D12   D(6,2,3,7)             -1.6266         estimate D2E/DX2                !
 ! D13   D(1,2,6,9)            178.625          estimate D2E/DX2                !
 ! D14   D(1,2,6,17)             1.3881         estimate D2E/DX2                !
 ! D15   D(3,2,6,9)             -0.2173         estimate D2E/DX2                !
 ! D16   D(3,2,6,17)          -177.4541         estimate D2E/DX2                !
 ! D17   D(2,3,4,5)             -0.3074         estimate D2E/DX2                !
 ! D18   D(2,3,4,14)           179.3968         estimate D2E/DX2                !
 ! D19   D(7,3,4,5)           -179.7837         estimate D2E/DX2                !
 ! D20   D(7,3,4,14)            -0.0795         estimate D2E/DX2                !
 ! D21   D(2,3,7,8)              1.0523         estimate D2E/DX2                !
 ! D22   D(2,3,7,12)          -178.712          estimate D2E/DX2                !
 ! D23   D(4,3,7,8)           -179.4626         estimate D2E/DX2                !
 ! D24   D(4,3,7,12)             0.7731         estimate D2E/DX2                !
 ! D25   D(3,4,5,19)             0.3343         estimate D2E/DX2                !
 ! D26   D(3,4,5,21)          -179.7799         estimate D2E/DX2                !
 ! D27   D(14,4,5,19)         -179.3729         estimate D2E/DX2                !
 ! D28   D(14,4,5,21)            0.5129         estimate D2E/DX2                !
 ! D29   D(3,4,14,13)           -0.4559         estimate D2E/DX2                !
 ! D30   D(3,4,14,15)         -179.9937         estimate D2E/DX2                !
 ! D31   D(5,4,14,13)          179.252          estimate D2E/DX2                !
 ! D32   D(5,4,14,15)           -0.2858         estimate D2E/DX2                !
 ! D33   D(4,5,19,1)            -0.1141         estimate D2E/DX2                !
 ! D34   D(4,5,19,28)          179.9364         estimate D2E/DX2                !
 ! D35   D(21,5,19,1)          179.9992         estimate D2E/DX2                !
 ! D36   D(21,5,19,28)           0.0496         estimate D2E/DX2                !
 ! D37   D(2,6,9,8)              2.5984         estimate D2E/DX2                !
 ! D38   D(2,6,9,32)          -176.0103         estimate D2E/DX2                !
 ! D39   D(17,6,9,8)           179.77           estimate D2E/DX2                !
 ! D40   D(17,6,9,32)            1.1613         estimate D2E/DX2                !
 ! D41   D(3,7,8,9)              1.3551         estimate D2E/DX2                !
 ! D42   D(3,7,8,10)          -174.5099         estimate D2E/DX2                !
 ! D43   D(12,7,8,9)          -178.8921         estimate D2E/DX2                !
 ! D44   D(12,7,8,10)            5.2428         estimate D2E/DX2                !
 ! D45   D(3,7,12,11)          178.0768         estimate D2E/DX2                !
 ! D46   D(3,7,12,13)           -0.9621         estimate D2E/DX2                !
 ! D47   D(8,7,12,11)           -1.685          estimate D2E/DX2                !
 ! D48   D(8,7,12,13)          179.2761         estimate D2E/DX2                !
 ! D49   D(7,8,9,6)             -3.0809         estimate D2E/DX2                !
 ! D50   D(7,8,9,32)           175.3285         estimate D2E/DX2                !
 ! D51   D(10,8,9,6)           172.5381         estimate D2E/DX2                !
 ! D52   D(10,8,9,32)           -9.0525         estimate D2E/DX2                !
 ! D53   D(7,8,10,18)           -4.7549         estimate D2E/DX2                !
 ! D54   D(7,8,10,23)          174.4235         estimate D2E/DX2                !
 ! D55   D(9,8,10,18)          179.5335         estimate D2E/DX2                !
 ! D56   D(9,8,10,23)           -1.2882         Frozen                          !
 ! D57   D(6,9,32,33)          -61.5469         estimate D2E/DX2                !
 ! D58   D(6,9,32,34)          124.9059         estimate D2E/DX2                !
 ! D59   D(8,9,32,33)          120.0116         Frozen                          !
 ! D60   D(8,9,32,34)          -53.5356         estimate D2E/DX2                !
 ! D61   D(8,10,18,11)           0.7189         estimate D2E/DX2                !
 ! D62   D(8,10,18,24)        -179.4089         estimate D2E/DX2                !
 ! D63   D(23,10,18,11)       -178.5188         estimate D2E/DX2                !
 ! D64   D(23,10,18,24)          1.3535         estimate D2E/DX2                !
 ! D65   D(18,11,12,7)          -2.3856         estimate D2E/DX2                !
 ! D66   D(18,11,12,13)        176.6833         estimate D2E/DX2                !
 ! D67   D(22,11,12,7)         178.4862         estimate D2E/DX2                !
 ! D68   D(22,11,12,13)         -2.445          estimate D2E/DX2                !
 ! D69   D(12,11,18,10)          2.8444         estimate D2E/DX2                !
 ! D70   D(12,11,18,24)       -177.0251         estimate D2E/DX2                !
 ! D71   D(22,11,18,10)       -178.0181         estimate D2E/DX2                !
 ! D72   D(22,11,18,24)          2.1124         estimate D2E/DX2                !
 ! D73   D(7,12,13,14)           0.461          estimate D2E/DX2                !
 ! D74   D(7,12,13,16)        -179.8781         estimate D2E/DX2                !
 ! D75   D(11,12,13,14)       -178.6049         estimate D2E/DX2                !
 ! D76   D(11,12,13,16)          1.056          estimate D2E/DX2                !
 ! D77   D(12,13,14,4)           0.2708         estimate D2E/DX2                !
 ! D78   D(12,13,14,15)        179.7958         estimate D2E/DX2                !
 ! D79   D(16,13,14,4)        -179.3788         estimate D2E/DX2                !
 ! D80   D(16,13,14,15)          0.1463         estimate D2E/DX2                !
 ! D81   D(10,18,24,25)        -59.609          Frozen                          !
 ! D82   D(10,18,24,26)         59.2209         estimate D2E/DX2                !
 ! D83   D(10,18,24,27)        179.6858         estimate D2E/DX2                !
 ! D84   D(11,18,24,25)        120.2739         estimate D2E/DX2                !
 ! D85   D(11,18,24,26)       -120.8962         estimate D2E/DX2                !
 ! D86   D(11,18,24,27)         -0.4313         estimate D2E/DX2                !
 ! D87   D(1,19,28,29)         -58.1407         estimate D2E/DX2                !
 ! D88   D(1,19,28,30)          60.7668         Frozen                          !
 ! D89   D(1,19,28,31)        -178.7139         estimate D2E/DX2                !
 ! D90   D(5,19,28,29)         121.8132         estimate D2E/DX2                !
 ! D91   D(5,19,28,30)        -119.2792         estimate D2E/DX2                !
 ! D92   D(5,19,28,31)           1.2401         estimate D2E/DX2                !
 ! D93   D(9,32,33,35)        -174.2264         estimate D2E/DX2                !
 ! D94   D(9,32,33,36)           6.3075         estimate D2E/DX2                !
 ! D95   D(34,32,33,35)         -0.2454         estimate D2E/DX2                !
 ! D96   D(34,32,33,36)       -179.7114         estimate D2E/DX2                !
 ! D97   D(9,32,34,37)         175.3643         estimate D2E/DX2                !
 ! D98   D(33,32,34,37)          0.5556         estimate D2E/DX2                !
 ! D99   D(32,33,35,37)         -0.3127         estimate D2E/DX2                !
 ! D100  D(32,33,35,38)        179.7307         estimate D2E/DX2                !
 ! D101  D(36,33,35,37)        179.1486         estimate D2E/DX2                !
 ! D102  D(36,33,35,38)         -0.808          estimate D2E/DX2                !
 ! D103  D(32,34,37,35)         -0.715          estimate D2E/DX2                !
 ! D104  D(32,34,37,39)        177.9321         estimate D2E/DX2                !
 ! D105  D(33,35,37,34)          0.7171         estimate D2E/DX2                !
 ! D106  D(33,35,37,39)       -177.8485         estimate D2E/DX2                !
 ! D107  D(38,35,37,34)       -179.3228         estimate D2E/DX2                !
 ! D108  D(38,35,37,39)          2.1116         estimate D2E/DX2                !
 ! D109  D(33,35,38,40)          6.5146         Frozen                          !
 ! D110  D(37,35,38,40)       -173.4402         estimate D2E/DX2                !
 ! D111  D(34,37,39,41)          2.8586         estimate D2E/DX2                !
 ! D112  D(34,37,39,42)       -177.1729         estimate D2E/DX2                !
 ! D113  D(35,37,39,41)       -178.7544         estimate D2E/DX2                !
 ! D114  D(35,37,39,42)          1.214          estimate D2E/DX2                !
 ! D115  D(35,38,40,43)        175.4866         estimate D2E/DX2                !
 ! D116  D(35,38,40,44)        -65.8473         estimate D2E/DX2                !
 ! D117  D(35,38,40,45)         56.3333         estimate D2E/DX2                !
 ! D118  D(37,39,41,46)       -179.9692         estimate D2E/DX2                !
 ! D119  D(37,39,41,47)         -0.2195         estimate D2E/DX2                !
 ! D120  D(42,39,41,46)          0.0589         estimate D2E/DX2                !
 ! D121  D(42,39,41,47)        179.8086         estimate D2E/DX2                !
 ! D122  D(37,39,42,48)       -179.998          estimate D2E/DX2                !
 ! D123  D(41,39,42,48)         -0.0245         estimate D2E/DX2                !
 ! D124  D(39,41,46,48)         -0.0726         estimate D2E/DX2                !
 ! D125  D(39,41,46,49)       -179.9823         estimate D2E/DX2                !
 ! D126  D(47,41,46,48)       -179.8006         estimate D2E/DX2                !
 ! D127  D(47,41,46,49)          0.2896         estimate D2E/DX2                !
 ! D128  D(39,41,47,50)        178.3869         estimate D2E/DX2                !
 ! D129  D(46,41,47,50)         -1.8974         Frozen                          !
 ! D130  D(39,42,48,46)         -0.016          estimate D2E/DX2                !
 ! D131  D(39,42,48,51)        179.8719         estimate D2E/DX2                !
 ! D132  D(41,46,48,42)          0.0518         estimate D2E/DX2                !
 ! D133  D(41,46,48,51)       -179.8257         estimate D2E/DX2                !
 ! D134  D(49,46,48,42)        179.9624         estimate D2E/DX2                !
 ! D135  D(49,46,48,51)          0.0849         estimate D2E/DX2                !
 ! D136  D(41,47,50,52)         62.0406         estimate D2E/DX2                !
 ! D137  D(41,47,50,53)       -179.1575         estimate D2E/DX2                !
 ! D138  D(41,47,50,54)        -60.197          estimate D2E/DX2                !
 --------------------------------------------------------------------------------
 Trust Radius=3.00D-01 FncErr=1.00D-07 GrdErr=1.00D-06 EigMax=2.50D+02 EigMin=1.00D-04
 Number of steps in this run=    307 maximum allowed number of steps=    324.
 GradGradGradGradGradGradGradGradGradGradGradGradGradGradGradGradGradGrad

 Stoichiometry    C26H18N2O6S2
 Framework group  C1[X(C26H18N2O6S2)]
 Deg. of freedom   156
 Full point group                 C1      NOp   1
 Largest Abelian subgroup         C1      NOp   1
 Largest concise Abelian subgroup C1      NOp   1
                         Standard orientation:                         
 ---------------------------------------------------------------------
 Center     Atomic      Atomic             Coordinates (Angstroms)
 Number     Number       Type             X           Y           Z
 ---------------------------------------------------------------------
      1          6           0        3.632456   -2.653671    0.496193
      2          6           0        2.837000   -1.437953    0.180930
      3          6           0        3.458809   -0.169131    0.114619
      4          6           0        4.846091   -0.040718    0.346289
      5          6           0        5.670937   -1.235288    0.669616
      6          6           0        1.485095   -1.553282   -0.022522
      7          6           0        2.660164    0.967449   -0.200244
      8          6           0        1.252195    0.838773   -0.423788
      9          6           0        0.636316   -0.436756   -0.301982
     10          6           0        0.517844    2.053985   -0.869650
     11          6           0        2.581998    3.447159   -0.648787
     12          6           0        3.322996    2.220230   -0.285706
     13          6           0        4.687533    2.328801   -0.051049
     14          6           0        5.455944    1.202977    0.268417
     15          1           0        6.521530    1.276242    0.450097
     16          1           0        5.138120    3.312072   -0.128923
     17          1           0        1.052578   -2.541472    0.081260
     18          7           0        1.229139    3.267758   -0.943633
     19          7           0        5.002057   -2.470139    0.721672
     20          8           0        3.140229   -3.771535    0.561422
     21          8           0        6.872067   -1.155896    0.878925
     22          8           0        3.113589    4.549109   -0.706127
     23          8           0       -0.663204    2.072191   -1.192309
     24          6           0        0.453506    4.435800   -1.375755
     25          1           0        0.042487    4.260177   -2.371035
     26          1           0       -0.379880    4.603823   -0.688781
     27          1           0        1.124050    5.290713   -1.379987
     28          6           0        5.776193   -3.676209    1.035767
     29          1           0        5.363391   -4.157188    1.925051
     30          1           0        5.715321   -4.381731    0.205037
     31          1           0        6.806039   -3.373844    1.205740
     32          6           0       -0.788616   -0.751600   -0.397625
     33          6           0       -1.475274   -1.578574   -1.265035
     34         16           0       -1.923758    0.128488    0.625961
     35          6           0       -2.874320   -1.516360   -1.113470
     36          1           0       -0.980444   -2.214848   -1.980745
     37          6           0       -3.309278   -0.639167   -0.113839
     38          8           0       -3.797541   -2.211465   -1.829607
     39          6           0       -4.658460   -0.388661    0.307637
     40          6           0       -3.317844   -3.198227   -2.737703
     41          6           0       -5.092146    0.502784    1.287087
     42         16           0       -6.051212   -1.214518   -0.387105
     43          1           0       -4.203596   -3.688870   -3.143460
     44          1           0       -2.749829   -2.741267   -3.556776
     45          1           0       -2.688287   -3.936616   -2.226303
     46          6           0       -6.503430    0.521515    1.475753
     47          8           0       -4.175648    1.247257    1.959275
     48          6           0       -7.141507   -0.353890    0.639140
     49          1           0       -7.016342    1.149260    2.189949
     50          6           0       -4.650194    2.174457    2.929393
     51          1           0       -8.204463   -0.539437    0.569204
     52          1           0       -5.181331    1.662750    3.741261
     53          1           0       -3.766286    2.668374    3.330805
     54          1           0       -5.311890    2.921062    2.474892
 ---------------------------------------------------------------------
 Rotational constants (GHZ):           0.1667744           0.0557634           0.0466362
 Standard basis: 6-311+G(d,p) (5D, 7F)
 There are   952 symmetry adapted cartesian basis functions of A   symmetry.
 There are   916 symmetry adapted basis functions of A   symmetry.
   916 basis functions,  1468 primitive gaussians,   952 cartesian basis functions
   134 alpha electrons      134 beta electrons
       nuclear repulsion energy      4098.8405185704 Hartrees.
 NAtoms=   54 NActive=   54 NUniq=   54 SFac= 1.00D+00 NAtFMM=   60 NAOKFM=F Big=F
 Integral buffers will be    131072 words long.
 Raffenetti 2 integral format.
 Two-electron integral symmetry is turned on.
 Nuclear repulsion after empirical dispersion term =     4098.7998269682 Hartrees.
 One-electron integrals computed using PRISM.
 NBasis=   916 RedAO= T EigKep=  1.02D-06  NBF=   916
 NBsUse=   902 1.00D-06 EigRej=  6.91D-07 NBFU=   902
 ExpMin= 4.05D-02 ExpMax= 9.34D+04 ExpMxC= 3.17D+03 IAcc=3 IRadAn=         5 AccDes= 0.00D+00
 Harris functional with IExCor= 4639 and IRadAn=       5 diagonalized for initial guess.
 HarFok:  IExCor= 4639 AccDes= 0.00D+00 IRadAn=         5 IDoV= 1 UseB2=F ITyADJ=14
 ICtDFT=  3500011 ScaDFX=  1.000000  1.000000  1.000000  1.000000
 FoFCou: FMM=F IPFlag=           0 FMFlag=      100000 FMFlg1=           0
         NFxFlg=           0 DoJE=T BraDBF=F KetDBF=T FulRan=T
         wScrn=  0.000000 ICntrl=       500 IOpCl=  0 I1Cent=   200000004 NGrid=           0
         NMat0=    1 NMatS0=      1 NMatT0=    0 NMatD0=    1 NMtDS0=    0 NMtDT0=    0
 Petite list used in FoFCou.
 Requested convergence on RMS density matrix=1.00D-08 within 128 cycles.
 Requested convergence on MAX density matrix=1.00D-06.
 Requested convergence on             energy=1.00D-06.
 No special actions if energy rises.
 Restarting incremental Fock formation.
 SCF Done:  E(RwB97XD) =  -2358.76475455     A.U. after   23 cycles
            NFock= 23  Conv=0.31D-09     -V/T= 2.0032

 **********************************************************************

            Population analysis using the SCF Density.

 **********************************************************************

 Orbital symmetries:
       Occupied  (A) (A) (A) (A) (A) (A) (A) (A) (A) (A) (A) (A)
                 (A) (A) (A) (A) (A) (A) (A) (A) (A) (A) (A) (A)
                 (A) (A) (A) (A) (A) (A) (A) (A) (A) (A) (A) (A)
                 (A) (A) (A) (A) (A) (A) (A) (A) (A) (A) (A) (A)
                 (A) (A) (A) (A) (A) (A) (A) (A) (A) (A) (A) (A)
                 (A) (A) (A) (A) (A) (A) (A) (A) (A) (A) (A) (A)
                 (A) (A) (A) (A) (A) (A) (A) (A) (A) (A) (A) (A)
                 (A) (A) (A) (A) (A) (A) (A) (A) (A) (A) (A) (A)
                 (A) (A) (A) (A) (A) (A) (A) (A) (A) (A) (A) (A)
                 (A) (A) (A) (A) (A) (A) (A) (A) (A) (A) (A) (A)
                 (A) (A) (A) (A) (A) (A) (A) (A) (A) (A) (A) (A)
                 (A) (A)
       Virtual   (A) (A) (A) (A) (A) (A) (A) (A) (A) (A) (A) (A)
                 (A) (A) (A) (A) (A) (A) (A) (A) (A) (A) (A) (A)
                 (A) (A) (A) (A) (A) (A) (A) (A) (A) (A) (A) (A)
                 (A) (A) (A) (A) (A) (A) (A) (A) (A) (A) (A) (A)
                 (A) (A) (A) (A) (A) (A) (A) (A) (A) (A) (A) (A)
                 (A) (A) (A) (A) (A) (A) (A) (A) (A) (A) (A) (A)
                 (A) (A) (A) (A) (A) (A) (A) (A) (A) (A) (A) (A)
                 (A) (A) (A) (A) (A) (A) (A) (A) (A) (A) (A) (A)
                 (A) (A) (A) (A) (A) (A) (A) (A) (A) (A) (A) (A)
                 (A) (A) (A) (A) (A) (A) (A) (A) (A) (A) (A) (A)
                 (A) (A) (A) (A) (A) (A) (A) (A) (A) (A) (A) (A)
                 (A) (A) (A) (A) (A) (A) (A) (A) (A) (A) (A) (A)
                 (A) (A) (A) (A) (A) (A) (A) (A) (A) (A) (A) (A)
                 (A) (A) (A) (A) (A) (A) (A) (A) (A) (A) (A) (A)
                 (A) (A) (A) (A) (A) (A) (A) (A) (A) (A) (A) (A)
                 (A) (A) (A) (A) (A) (A) (A) (A) (A) (A) (A) (A)
                 (A) (A) (A) (A) (A) (A) (A) (A) (A) (A) (A) (A)
                 (A) (A) (A) (A) (A) (A) (A) (A) (A) (A) (A) (A)
                 (A) (A) (A) (A) (A) (A) (A) (A) (A) (A) (A) (A)
                 (A) (A) (A) (A) (A) (A) (A) (A) (A) (A) (A) (A)
                 (A) (A) (A) (A) (A) (A) (A) (A) (A) (A) (A) (A)
                 (A) (A) (A) (A) (A) (A) (A) (A) (A) (A) (A) (A)
                 (A) (A) (A) (A) (A) (A) (A) (A) (A) (A) (A) (A)
                 (A) (A) (A) (A) (A) (A) (A) (A) (A) (A) (A) (A)
                 (A) (A) (A) (A) (A) (A) (A) (A) (A) (A) (A) (A)
                 (A) (A) (A) (A) (A) (A) (A) (A) (A) (A) (A) (A)
                 (A) (A) (A) (A) (A) (A) (A) (A) (A) (A) (A) (A)
                 (A) (A) (A) (A) (A) (A) (A) (A) (A) (A) (A) (A)
                 (A) (A) (A) (A) (A) (A) (A) (A) (A) (A) (A) (A)
                 (A) (A) (A) (A) (A) (A) (A) (A) (A) (A) (A) (A)
                 (A) (A) (A) (A) (A) (A) (A) (A) (A) (A) (A) (A)
                 (A) (A) (A) (A) (A) (A) (A) (A) (A) (A) (A) (A)
                 (A) (A) (A) (A) (A) (A) (A) (A) (A) (A) (A) (A)
                 (A) (A) (A) (A) (A) (A) (A) (A) (A) (A) (A) (A)
                 (A) (A) (A) (A) (A) (A) (A) (A) (A) (A) (A) (A)
                 (A) (A) (A) (A) (A) (A) (A) (A) (A) (A) (A) (A)
                 (A) (A) (A) (A) (A) (A) (A) (A) (A) (A) (A) (A)
                 (A) (A) (A) (A) (A) (A) (A) (A) (A) (A) (A) (A)
                 (A) (A) (A) (A) (A) (A) (A) (A) (A) (A) (A) (A)
                 (A) (A) (A) (A) (A) (A) (A) (A) (A) (A) (A) (A)
                 (A) (A) (A) (A) (A) (A) (A) (A) (A) (A) (A) (A)
                 (A) (A) (A) (A) (A) (A) (A) (A) (A) (A) (A) (A)
                 (A) (A) (A) (A) (A) (A) (A) (A) (A) (A) (A) (A)
                 (A) (A) (A) (A) (A) (A) (A) (A) (A) (A) (A) (A)
                 (A) (A) (A) (A) (A) (A) (A) (A) (A) (A) (A) (A)
                 (A) (A) (A) (A) (A) (A) (A) (A) (A) (A) (A) (A)
                 (A) (A) (A) (A) (A) (A) (A) (A) (A) (A) (A) (A)
                 (A) (A) (A) (A) (A) (A) (A) (A) (A) (A) (A) (A)
                 (A) (A) (A) (A) (A) (A) (A) (A) (A) (A) (A) (A)
                 (A) (A) (A) (A) (A) (A) (A) (A) (A) (A) (A) (A)
                 (A) (A) (A) (A) (A) (A) (A) (A) (A) (A) (A) (A)
                 (A) (A) (A) (A) (A) (A) (A) (A) (A) (A) (A) (A)
                 (A) (A) (A) (A) (A) (A) (A) (A) (A) (A) (A) (A)
                 (A) (A) (A) (A) (A) (A) (A) (A) (A) (A) (A) (A)
                 (A) (A) (A) (A) (A) (A) (A) (A) (A) (A) (A) (A)
                 (A) (A) (A) (A) (A) (A) (A) (A) (A) (A) (A) (A)
                 (A) (A) (A) (A) (A) (A) (A) (A) (A) (A) (A) (A)
                 (A) (A) (A) (A) (A) (A) (A) (A) (A) (A) (A) (A)
                 (A) (A) (A) (A) (A) (A) (A) (A) (A) (A) (A) (A)
                 (A) (A) (A) (A) (A) (A) (A) (A) (A) (A) (A) (A)
                 (A) (A) (A) (A) (A) (A) (A) (A) (A) (A) (A) (A)
                 (A) (A) (A) (A) (A) (A) (A) (A) (A) (A) (A) (A)
                 (A) (A) (A) (A) (A) (A) (A) (A) (A) (A) (A) (A)
                 (A) (A) (A) (A) (A) (A) (A) (A) (A) (A) (A) (A)
 The electronic state is 1-A.
 Alpha  occ. eigenvalues --  -89.04618 -89.04441 -19.28975 -19.28836 -19.25250
 Alpha  occ. eigenvalues --  -19.25226 -19.24573 -19.24331 -14.50912 -14.50248
 Alpha  occ. eigenvalues --  -10.43215 -10.43022 -10.42592 -10.42479 -10.35973
 Alpha  occ. eigenvalues --  -10.35553 -10.35351 -10.35057 -10.34994 -10.34642
 Alpha  occ. eigenvalues --  -10.34586 -10.34583 -10.34261 -10.34169 -10.34070
 Alpha  occ. eigenvalues --  -10.33351 -10.33228 -10.33134 -10.33041 -10.33018
 Alpha  occ. eigenvalues --  -10.32487 -10.32414 -10.31925 -10.31808 -10.30397
 Alpha  occ. eigenvalues --  -10.29747  -8.08571  -8.08383  -6.03419  -6.03245
 Alpha  occ. eigenvalues --   -6.03028  -6.02846  -6.02656  -6.02444  -1.18999
 Alpha  occ. eigenvalues --   -1.18378  -1.18172  -1.18038  -1.17036  -1.16316
 Alpha  occ. eigenvalues --   -1.06549  -1.05788  -1.02903  -0.99817  -0.98348
 Alpha  occ. eigenvalues --   -0.96757  -0.94660  -0.90455  -0.88708  -0.87192
 Alpha  occ. eigenvalues --   -0.85641  -0.85134  -0.84410  -0.82559  -0.82212
 Alpha  occ. eigenvalues --   -0.81406  -0.79592  -0.78231  -0.76677  -0.75533
 Alpha  occ. eigenvalues --   -0.74978  -0.74270  -0.70043  -0.68831  -0.67845
 Alpha  occ. eigenvalues --   -0.66694  -0.65708  -0.64718  -0.64117  -0.63318
 Alpha  occ. eigenvalues --   -0.62737  -0.60706  -0.59491  -0.58815  -0.58752
 Alpha  occ. eigenvalues --   -0.58030  -0.57589  -0.57238  -0.57034  -0.56706
 Alpha  occ. eigenvalues --   -0.56342  -0.55963  -0.55312  -0.55102  -0.54121
 Alpha  occ. eigenvalues --   -0.53787  -0.53470  -0.53293  -0.53098  -0.52489
 Alpha  occ. eigenvalues --   -0.51390  -0.51027  -0.50650  -0.50386  -0.49881
 Alpha  occ. eigenvalues --   -0.49781  -0.49515  -0.49464  -0.48767  -0.48180
 Alpha  occ. eigenvalues --   -0.47888  -0.47215  -0.46303  -0.45760  -0.45404
 Alpha  occ. eigenvalues --   -0.44070  -0.43880  -0.42158  -0.41556  -0.41220
 Alpha  occ. eigenvalues --   -0.40895  -0.40115  -0.39587  -0.38397  -0.37539
 Alpha  occ. eigenvalues --   -0.37350  -0.37034  -0.36528  -0.36125  -0.34918
 Alpha  occ. eigenvalues --   -0.33165  -0.31679  -0.31108  -0.25293
 Alpha virt. eigenvalues --   -0.07721  -0.00719   0.00151   0.01906   0.02834
 Alpha virt. eigenvalues --    0.05120   0.05758   0.06053   0.06637   0.06738
 Alpha virt. eigenvalues --    0.07107   0.07475   0.07560   0.07633   0.07873
 Alpha virt. eigenvalues --    0.08285   0.08599   0.08735   0.08812   0.09039
 Alpha virt. eigenvalues --    0.09208   0.09483   0.09885   0.10039   0.10370
 Alpha virt. eigenvalues --    0.10669   0.10998   0.11318   0.11526   0.11709
 Alpha virt. eigenvalues --    0.11797   0.12038   0.12157   0.12933   0.13104
 Alpha virt. eigenvalues --    0.13152   0.13442   0.13610   0.13924   0.14287
 Alpha virt. eigenvalues --    0.14650   0.14868   0.15073   0.15270   0.15369
 Alpha virt. eigenvalues --    0.15712   0.15759   0.16151   0.16732   0.17046
 Alpha virt. eigenvalues --    0.17159   0.17511   0.17715   0.17778   0.17950
 Alpha virt. eigenvalues --    0.18287   0.18804   0.19088   0.19377   0.19557
 Alpha virt. eigenvalues --    0.19833   0.20004   0.20200   0.20436   0.20562
 Alpha virt. eigenvalues --    0.20736   0.20897   0.21033   0.21252   0.21567
 Alpha virt. eigenvalues --    0.21776   0.21886   0.22363   0.22533   0.22792
 Alpha virt. eigenvalues --    0.23065   0.23243   0.23324   0.23884   0.24284
 Alpha virt. eigenvalues --    0.24312   0.24469   0.24702   0.24793   0.25087
 Alpha virt. eigenvalues --    0.25340   0.25419   0.25540   0.25820   0.26020
 Alpha virt. eigenvalues --    0.26204   0.26486   0.26596   0.26746   0.26862
 Alpha virt. eigenvalues --    0.26974   0.27273   0.27419   0.27568   0.27846
 Alpha virt. eigenvalues --    0.28080   0.28164   0.28355   0.28788   0.28895
 Alpha virt. eigenvalues --    0.29015   0.29205   0.29387   0.29733   0.29859
 Alpha virt. eigenvalues --    0.29952   0.30059   0.30268   0.30682   0.30910
 Alpha virt. eigenvalues --    0.31087   0.31290   0.31518   0.31621   0.31836
 Alpha virt. eigenvalues --    0.32113   0.32353   0.32384   0.32576   0.32807
 Alpha virt. eigenvalues --    0.33003   0.33408   0.33618   0.33813   0.33942
 Alpha virt. eigenvalues --    0.33991   0.34158   0.34626   0.34686   0.35066
 Alpha virt. eigenvalues --    0.35094   0.35346   0.35603   0.36053   0.36123
 Alpha virt. eigenvalues --    0.36447   0.36582   0.36833   0.37109   0.37349
 Alpha virt. eigenvalues --    0.37648   0.37882   0.38198   0.38237   0.38559
 Alpha virt. eigenvalues --    0.38938   0.39308   0.39477   0.39873   0.39930
 Alpha virt. eigenvalues --    0.40251   0.40331   0.40658   0.41031   0.41517
 Alpha virt. eigenvalues --    0.41597   0.41899   0.42018   0.42757   0.42859
 Alpha virt. eigenvalues --    0.43390   0.43716   0.43874   0.44169   0.44847
 Alpha virt. eigenvalues --    0.44950   0.45597   0.45882   0.46141   0.46475
 Alpha virt. eigenvalues --    0.46877   0.47089   0.47895   0.48202   0.49084
 Alpha virt. eigenvalues --    0.49208   0.49573   0.50241   0.50350   0.50773
 Alpha virt. eigenvalues --    0.51386   0.51837   0.52454   0.52578   0.52879
 Alpha virt. eigenvalues --    0.53017   0.53503   0.53954   0.54195   0.54649
 Alpha virt. eigenvalues --    0.54744   0.54998   0.55537   0.56679   0.57113
 Alpha virt. eigenvalues --    0.57125   0.57676   0.57937   0.58585   0.58778
 Alpha virt. eigenvalues --    0.59062   0.59803   0.60681   0.61350   0.61444
 Alpha virt. eigenvalues --    0.62032   0.62120   0.62594   0.63312   0.63754
 Alpha virt. eigenvalues --    0.64086   0.64341   0.64775   0.65112   0.65326
 Alpha virt. eigenvalues --    0.65720   0.66012   0.66590   0.66881   0.67251
 Alpha virt. eigenvalues --    0.67723   0.68347   0.68622   0.69013   0.69448
 Alpha virt. eigenvalues --    0.69547   0.69873   0.70344   0.70668   0.70933
 Alpha virt. eigenvalues --    0.71442   0.71935   0.72220   0.72477   0.72722
 Alpha virt. eigenvalues --    0.73320   0.73939   0.74206   0.74336   0.74581
 Alpha virt. eigenvalues --    0.74894   0.75290   0.75543   0.76188   0.76445
 Alpha virt. eigenvalues --    0.76915   0.77252   0.77740   0.77986   0.78176
 Alpha virt. eigenvalues --    0.78730   0.79191   0.79667   0.80058   0.80524
 Alpha virt. eigenvalues --    0.80557   0.80749   0.81388   0.81806   0.81935
 Alpha virt. eigenvalues --    0.82441   0.82562   0.83103   0.83210   0.83436
 Alpha virt. eigenvalues --    0.84191   0.84468   0.84712   0.85117   0.85277
 Alpha virt. eigenvalues --    0.85736   0.85998   0.86239   0.86732   0.87176
 Alpha virt. eigenvalues --    0.87556   0.88080   0.88692   0.88778   0.89713
 Alpha virt. eigenvalues --    0.90253   0.91481   0.91719   0.92154   0.93004
 Alpha virt. eigenvalues --    0.94323   0.94893   0.95389   0.96065   0.96704
 Alpha virt. eigenvalues --    0.97000   0.97274   0.97968   0.98334   0.98997
 Alpha virt. eigenvalues --    0.99264   1.00096   1.00728   1.00922   1.01358
 Alpha virt. eigenvalues --    1.01804   1.01906   1.02089   1.02402   1.03175
 Alpha virt. eigenvalues --    1.03553   1.04449   1.04538   1.05242   1.06130
 Alpha virt. eigenvalues --    1.06241   1.06462   1.06876   1.07170   1.08238
 Alpha virt. eigenvalues --    1.08841   1.09166   1.09181   1.09576   1.10216
 Alpha virt. eigenvalues --    1.10397   1.11225   1.11786   1.12369   1.12678
 Alpha virt. eigenvalues --    1.13034   1.13217   1.13773   1.14254   1.14772
 Alpha virt. eigenvalues --    1.15071   1.15320   1.15396   1.16182   1.16582
 Alpha virt. eigenvalues --    1.16937   1.17425   1.18075   1.18242   1.18934
 Alpha virt. eigenvalues --    1.19297   1.19932   1.20661   1.21020   1.22096
 Alpha virt. eigenvalues --    1.22446   1.23805   1.24160   1.24807   1.25696
 Alpha virt. eigenvalues --    1.26298   1.26924   1.27177   1.28139   1.28825
 Alpha virt. eigenvalues --    1.29956   1.30206   1.30631   1.32465   1.33163
 Alpha virt. eigenvalues --    1.33799   1.34119   1.34466   1.35055   1.35792
 Alpha virt. eigenvalues --    1.36124   1.36371   1.36829   1.38602   1.38889
 Alpha virt. eigenvalues --    1.40430   1.40884   1.41616   1.42204   1.42966
 Alpha virt. eigenvalues --    1.44255   1.44589   1.45504   1.46486   1.46892
 Alpha virt. eigenvalues --    1.48615   1.49279   1.49424   1.49505   1.50348
 Alpha virt. eigenvalues --    1.51386   1.51542   1.51930   1.52303   1.52723
 Alpha virt. eigenvalues --    1.52994   1.53292   1.53562   1.53841   1.54091
 Alpha virt. eigenvalues --    1.54439   1.54575   1.55596   1.56057   1.56630
 Alpha virt. eigenvalues --    1.57488   1.58339   1.59305   1.59677   1.59791
 Alpha virt. eigenvalues --    1.61201   1.61700   1.62375   1.62789   1.63238
 Alpha virt. eigenvalues --    1.63446   1.63651   1.64129   1.64414   1.65283
 Alpha virt. eigenvalues --    1.65980   1.66458   1.67737   1.67900   1.69305
 Alpha virt. eigenvalues --    1.70750   1.70987   1.71441   1.71800   1.72280
 Alpha virt. eigenvalues --    1.72907   1.73811   1.74218   1.75014   1.75408
 Alpha virt. eigenvalues --    1.75863   1.76567   1.76953   1.77933   1.78069
 Alpha virt. eigenvalues --    1.78190   1.78796   1.79348   1.79385   1.79634
 Alpha virt. eigenvalues --    1.80283   1.81858   1.82397   1.83017   1.83544
 Alpha virt. eigenvalues --    1.84274   1.84678   1.85994   1.86154   1.87022
 Alpha virt. eigenvalues --    1.87550   1.87927   1.88885   1.89126   1.90334
 Alpha virt. eigenvalues --    1.90651   1.92005   1.92755   1.93605   1.94621
 Alpha virt. eigenvalues --    1.94689   1.94856   1.95423   1.95815   1.96264
 Alpha virt. eigenvalues --    1.97380   1.98241   1.98363   1.98931   1.99465
 Alpha virt. eigenvalues --    1.99937   2.00148   2.00356   2.02424   2.03168
 Alpha virt. eigenvalues --    2.03997   2.04290   2.04628   2.05494   2.06823
 Alpha virt. eigenvalues --    2.07369   2.07603   2.09110   2.09896   2.10687
 Alpha virt. eigenvalues --    2.10831   2.11235   2.11536   2.12589   2.13132
 Alpha virt. eigenvalues --    2.14104   2.15063   2.15265   2.15908   2.16450
 Alpha virt. eigenvalues --    2.16665   2.17336   2.18157   2.18855   2.20081
 Alpha virt. eigenvalues --    2.20782   2.21179   2.21438   2.22625   2.23130
 Alpha virt. eigenvalues --    2.23822   2.24550   2.25039   2.25422   2.26377
 Alpha virt. eigenvalues --    2.27871   2.28773   2.29114   2.29764   2.30552
 Alpha virt. eigenvalues --    2.30731   2.31993   2.34394   2.35064   2.35707
 Alpha virt. eigenvalues --    2.37801   2.40346   2.40782   2.41704   2.43109
 Alpha virt. eigenvalues --    2.44110   2.46438   2.47902   2.48412   2.50809
 Alpha virt. eigenvalues --    2.52330   2.52815   2.53053   2.53291   2.54795
 Alpha virt. eigenvalues --    2.55157   2.55799   2.56570   2.57394   2.58135
 Alpha virt. eigenvalues --    2.58421   2.59493   2.60855   2.61350   2.61722
 Alpha virt. eigenvalues --    2.61934   2.62491   2.62768   2.63735   2.64270
 Alpha virt. eigenvalues --    2.65482   2.66243   2.67641   2.67966   2.68681
 Alpha virt. eigenvalues --    2.70337   2.71098   2.72894   2.73887   2.74039
 Alpha virt. eigenvalues --    2.75323   2.76214   2.77234   2.77331   2.77526
 Alpha virt. eigenvalues --    2.78217   2.78435   2.79229   2.79625   2.80253
 Alpha virt. eigenvalues --    2.80763   2.81584   2.81875   2.83726   2.83989
 Alpha virt. eigenvalues --    2.84802   2.85889   2.87481   2.87952   2.88196
 Alpha virt. eigenvalues --    2.90209   2.91379   2.92759   2.92957   2.93574
 Alpha virt. eigenvalues --    2.93994   2.94077   2.94528   2.95299   2.95650
 Alpha virt. eigenvalues --    2.96043   2.96893   2.97405   2.98478   2.99413
 Alpha virt. eigenvalues --    2.99676   3.00776   3.01340   3.02282   3.03417
 Alpha virt. eigenvalues --    3.04136   3.05177   3.05325   3.06669   3.07943
 Alpha virt. eigenvalues --    3.09986   3.10436   3.11970   3.13203   3.14125
 Alpha virt. eigenvalues --    3.14664   3.16087   3.16571   3.18042   3.18401
 Alpha virt. eigenvalues --    3.19638   3.20731   3.22853   3.23496   3.24589
 Alpha virt. eigenvalues --    3.25058   3.27117   3.27372   3.29442   3.29865
 Alpha virt. eigenvalues --    3.31899   3.32931   3.33389   3.33740   3.34276
 Alpha virt. eigenvalues --    3.36665   3.38251   3.39388   3.41535   3.42202
 Alpha virt. eigenvalues --    3.42702   3.43171   3.43540   3.44388   3.45225
 Alpha virt. eigenvalues --    3.46850   3.47908   3.49096   3.51467   3.51609
 Alpha virt. eigenvalues --    3.52536   3.54049   3.55014   3.56241   3.58212
 Alpha virt. eigenvalues --    3.59226   3.59435   3.63300   3.65491   3.66839
 Alpha virt. eigenvalues --    3.68640   3.69577   3.71101   3.74081   3.75296
 Alpha virt. eigenvalues --    3.75940   3.79011   3.79599   3.81893   3.82825
 Alpha virt. eigenvalues --    3.86031   3.86270   3.86375   3.91591   3.92419
 Alpha virt. eigenvalues --    3.94496   3.94859   3.96033   3.99617   4.01937
 Alpha virt. eigenvalues --    4.02267   4.03671   4.05245   4.06366   4.10735
 Alpha virt. eigenvalues --    4.13360   4.14316   4.18262   4.20669   4.22167
 Alpha virt. eigenvalues --    4.24394   4.29246   4.32991   4.34781   4.36967
 Alpha virt. eigenvalues --    4.44741   4.47822   4.49614   4.60330   4.77101
 Alpha virt. eigenvalues --    4.93498   4.95436   4.97409   5.00536   5.13972
 Alpha virt. eigenvalues --    5.14467   5.15003   5.16445   5.16933   5.20645
 Alpha virt. eigenvalues --    5.21348   5.23071   5.35704   5.37475   5.39579
 Alpha virt. eigenvalues --    5.42346   5.54074   5.55422   5.86056   5.88004
 Alpha virt. eigenvalues --    5.90632   5.91524   5.92283   5.95843   8.13598
 Alpha virt. eigenvalues --    8.17062  17.43530  17.49424  17.64065  17.66863
 Alpha virt. eigenvalues --   17.72415  17.77303  23.61958  23.69914  23.85476
 Alpha virt. eigenvalues --   23.91669  23.94595  23.95452  23.96610  23.99073
 Alpha virt. eigenvalues --   23.99235  24.00638  24.02664  24.03557  24.04720
 Alpha virt. eigenvalues --   24.05605  24.07645  24.07880  24.09135  24.10482
 Alpha virt. eigenvalues --   24.12798  24.15189  24.16286  24.17284  24.24519
 Alpha virt. eigenvalues --   24.26347  24.26410  24.27985  35.68952  35.71950
 Alpha virt. eigenvalues --   50.10493  50.11870  50.15457  50.17389  50.19218
 Alpha virt. eigenvalues --   50.20888 189.38984 189.43244
          Condensed to atoms (all electrons):
 Mulliken charges:
               1
     1  C    0.413685
     2  C   -0.133337
     3  C    0.080196
     4  C    0.259427
     5  C    0.346514
     6  C   -0.548484
     7  C    0.127781
     8  C    0.178848
     9  C    0.336499
    10  C   -0.220883
    11  C    0.343655
    12  C    0.283764
    13  C   -0.582709
    14  C   -0.741210
    15  H    0.190666
    16  H    0.192737
    17  H    0.192512
    18  N   -0.054676
    19  N   -0.080669
    20  O   -0.267939
    21  O   -0.272035
    22  O   -0.280697
    23  O   -0.188855
    24  C   -0.275378
    25  H    0.197372
    26  H    0.198110
    27  H    0.201436
    28  C   -0.280143
    29  H    0.193803
    30  H    0.193712
    31  H    0.201348
    32  C    0.489752
    33  C   -0.971897
    34  S   -0.460597
    35  C   -0.332378
    36  H    0.156060
    37  C    0.519001
    38  O   -0.100058
    39  C    1.079112
    40  C   -0.315729
    41  C   -0.033072
    42  S   -0.290728
    43  H    0.183573
    44  H    0.161440
    45  H    0.166596
    46  C   -0.528217
    47  O   -0.117112
    48  C   -0.347415
    49  H    0.156206
    50  C   -0.305438
    51  H    0.187535
    52  H    0.157517
    53  H    0.181385
    54  H    0.159415
 Sum of Mulliken charges =  -0.00000
 Mulliken charges with hydrogens summed into heavy atoms:
               1
     1  C    0.413685
     2  C   -0.133337
     3  C    0.080196
     4  C    0.259427
     5  C    0.346514
     6  C   -0.355972
     7  C    0.127781
     8  C    0.178848
     9  C    0.336499
    10  C   -0.220883
    11  C    0.343655
    12  C    0.283764
    13  C   -0.389972
    14  C   -0.550544
    18  N   -0.054676
    19  N   -0.080669
    20  O   -0.267939
    21  O   -0.272035
    22  O   -0.280697
    23  O   -0.188855
    24  C    0.321540
    28  C    0.308720
    32  C    0.489752
    33  C   -0.815838
    34  S   -0.460597
    35  C   -0.332378
    37  C    0.519001
    38  O   -0.100058
    39  C    1.079112
    40  C    0.195880
    41  C   -0.033072
    42  S   -0.290728
    46  C   -0.372011
    47  O   -0.117112
    48  C   -0.159881
    50  C    0.192879
 Electronic spatial extent (au):  <R**2>=          22149.3776
 Charge=             -0.0000 electrons
 Dipole moment (field-independent basis, Debye):
    X=             -2.3337    Y=             -0.3375    Z=              0.2461  Tot=              2.3707
 Quadrupole moment (field-independent basis, Debye-Ang):
   XX=           -213.8738   YY=           -221.2531   ZZ=           -208.2162
   XY=             -8.5725   XZ=             -9.2449   YZ=             15.6228
 Traceless Quadrupole moment (field-independent basis, Debye-Ang):
   XX=              0.5739   YY=             -6.8054   ZZ=              6.2315
   XY=             -8.5725   XZ=             -9.2449   YZ=             15.6228
 Octapole moment (field-independent basis, Debye-Ang**2):
  XXX=           -289.2670  YYY=            -33.1432  ZZZ=              1.1052  XYY=            -69.4754
  XXY=              6.4871  XXZ=             50.6870  XZZ=            -45.4809  YZZ=             -3.4926
  YYZ=            -13.8022  XYZ=            -54.3596
 Hexadecapole moment (field-independent basis, Debye-Ang**3):
 XXXX=         -21204.9506 YYYY=          -6590.2814 ZZZZ=          -1741.4922 XXXY=           -171.4572
 XXXZ=           -521.2487 YYYX=           -378.0792 YYYZ=            128.8667 ZZZX=            -18.6687
 ZZZY=            109.8637 XXYY=          -4481.5243 XXZZ=          -3766.5324 YYZZ=          -1208.2309
 XXYZ=            272.9991 YYXZ=            110.6212 ZZXY=            -77.2644
 N-N= 4.098799826968D+03 E-N=-1.373684895521D+04  KE= 2.351150064340D+03
 Calling FoFJK, ICntrl=      2127 FMM=F ISym2X=0 I1Cent= 0 IOpClX= 0 NMat=1 NMatS=1 NMatT=0.
 ***** Axes restored to original set *****
 -------------------------------------------------------------------
 Center     Atomic                   Forces (Hartrees/Bohr)
 Number     Number              X              Y              Z
 -------------------------------------------------------------------
      1        6           0.006690730   -0.014024435   -0.001870651
      2        6           0.002494829    0.004995995    0.000884190
      3        6           0.003641633    0.002940241    0.000193529
      4        6          -0.003941121    0.007584354    0.001274799
      5        6          -0.011598277   -0.009242654   -0.001078202
      6        6          -0.002387779    0.002492125   -0.000350664
      7        6          -0.002670744   -0.004463476   -0.000351023
      8        6           0.007496938   -0.013708464   -0.002509143
      9        6          -0.020079763   -0.005518861    0.004378450
     10        6           0.018783534    0.017179396    0.003929022
     11        6          -0.005104177    0.015783247    0.002239134
     12        6          -0.005529744   -0.006164814   -0.000749141
     13        6           0.007918308    0.002153858    0.000195687
     14        6           0.007937597   -0.005628600   -0.000950699
     15        1           0.000340377    0.000566285    0.000035396
     16        1           0.000452949   -0.000866351   -0.000159704
     17        1           0.002132045    0.001562464    0.000640012
     18        7          -0.002871127   -0.002071861   -0.001155558
     19        7           0.000559064    0.002116057    0.000180872
     20        8          -0.014262215    0.014761926    0.002268265
     21        8           0.018324889    0.006336225    0.000572873
     22        8           0.014508035   -0.014621621   -0.002068885
     23        8          -0.021757171   -0.013335667    0.000008478
     24        6           0.000983310   -0.001602905   -0.001538221
     25        1          -0.000856991   -0.000441024   -0.000421685
     26        1          -0.001438703   -0.001052156    0.001044358
     27        1           0.000606545   -0.000019662    0.000075481
     28        6           0.001182187    0.001817016   -0.000160663
     29        1          -0.000843170    0.000866501    0.000926972
     30        1          -0.000617110    0.000846975   -0.000334811
     31        1           0.000658095   -0.000279762   -0.000025579
     32        6           0.017368852    0.028123640   -0.007613743
     33        6          -0.013062676   -0.003440970   -0.006272850
     34       16           0.004112319   -0.012963294    0.009240243
     35        6           0.005349629    0.010794122   -0.011472970
     36        1          -0.001677510   -0.000588790    0.003162080
     37        6          -0.011878269   -0.012346793    0.011203041
     38        8          -0.003607450   -0.005501996    0.003381847
     39        6           0.011462432    0.009554383   -0.009094439
     40        6          -0.000087533    0.004052337   -0.003461637
     41        6          -0.002555039   -0.006517574    0.006623384
     42       16          -0.006101944    0.005929006   -0.007622858
     43        1          -0.001662031    0.000135793   -0.000668395
     44        1           0.000350202    0.000557751   -0.000866857
     45        1           0.000931204    0.001074215   -0.000336083
     46        6           0.002074033   -0.003848707    0.004821982
     47        8           0.004178244    0.002998252   -0.002620769
     48        6          -0.006438360   -0.001806691    0.000723518
     49        1           0.000368874    0.000107487   -0.000024365
     50        6           0.001874484   -0.003457230    0.003538604
     51        1          -0.001262679   -0.000268618    0.000160562
     52        1          -0.000600675   -0.000373641    0.001119167
     53        1           0.000594898   -0.000258314    0.000496906
     54        1          -0.000483979   -0.000914718    0.000460741
 -------------------------------------------------------------------
 Cartesian Forces:  Max     0.028123640 RMS     0.006834840

 GradGradGradGradGradGradGradGradGradGradGradGradGradGradGradGradGradGrad
 Berny optimization.
 FormGI is forming the generalized inverse of G from B-inverse, IUseBI=4.
 Internal  Forces:  Max     0.025067511 RMS     0.004094661
 Search for a local minimum.
 Step number   1 out of a maximum of  307
 All quantities printed in internal units (Hartrees-Bohrs-Radians)
 Mixed Optimization -- RFO/linear search
 Second derivative matrix not updated -- first step.
 ITU=  0
     Eigenvalues ---    0.01155   0.01172   0.01239   0.01297   0.01371
     Eigenvalues ---    0.01382   0.01397   0.01410   0.01452   0.01470
     Eigenvalues ---    0.01512   0.01544   0.01567   0.01588   0.01619
     Eigenvalues ---    0.01652   0.01679   0.01693   0.01709   0.01719
     Eigenvalues ---    0.01721   0.01763   0.01799   0.01845   0.01974
     Eigenvalues ---    0.02039   0.02045   0.02076   0.02088   0.02097
     Eigenvalues ---    0.02133   0.02149   0.02162   0.02181   0.02197
     Eigenvalues ---    0.02249   0.04601   0.04620   0.07665   0.07667
     Eigenvalues ---    0.10065   0.10068   0.10634   0.10636   0.15983
     Eigenvalues ---    0.15999   0.15999   0.16000   0.16000   0.16000
     Eigenvalues ---    0.16000   0.16000   0.16000   0.16000   0.16000
     Eigenvalues ---    0.16000   0.16000   0.16000   0.16000   0.16000
     Eigenvalues ---    0.16000   0.16000   0.22530   0.22583   0.23517
     Eigenvalues ---    0.23581   0.24513   0.24747   0.24865   0.24906
     Eigenvalues ---    0.24952   0.24985   0.24986   0.24988   0.24991
     Eigenvalues ---    0.24994   0.24996   0.24997   0.24998   0.24998
     Eigenvalues ---    0.25000   0.25000   0.25000   0.25000   0.25000
     Eigenvalues ---    0.25000   0.25000   0.25000   0.25000   0.25000
     Eigenvalues ---    0.28834   0.28865   0.30113   0.32075   0.32582
     Eigenvalues ---    0.32774   0.33104   0.33787   0.34032   0.34033
     Eigenvalues ---    0.34071   0.34097   0.34353   0.34466   0.34577
     Eigenvalues ---    0.34629   0.34693   0.34716   0.34904   0.35198
     Eigenvalues ---    0.35218   0.35468   0.35553   0.35582   0.35839
     Eigenvalues ---    0.35949   0.36078   0.36083   0.36245   0.36393
     Eigenvalues ---    0.36662   0.39348   0.40194   0.40208   0.40651
     Eigenvalues ---    0.40690   0.41524   0.41829   0.41955   0.42300
     Eigenvalues ---    0.42736   0.43455   0.43826   0.44092   0.44594
     Eigenvalues ---    0.44619   0.45014   0.45405   0.46251   0.47305
     Eigenvalues ---    0.47602   0.49309   0.49601   0.53040   0.53213
     Eigenvalues ---    0.93281   0.93432   0.93989   0.945851000.00000
     Eigenvalues --- 1000.000001000.000001000.000001000.000001000.00000
     Eigenvalues --- 1000.000001000.000001000.000001000.000001000.00000
     Eigenvalues --- 1000.000001000.000001000.000001000.000001000.00000
     Eigenvalues --- 1000.000001000.000001000.000001000.000001000.00000
     Eigenvalues --- 1000.000001000.000001000.000001000.000001000.00000
     Eigenvalues --- 1000.000001000.000001000.000001000.000001000.00000
     Eigenvalues --- 1000.000001000.000001000.000001000.000001000.00000
     Eigenvalues --- 1000.000001000.000001000.000001000.000001000.00000
     Eigenvalues --- 1000.000001000.000001000.000001000.000001000.00000
     Eigenvalues --- 1000.000001000.000001000.000001000.000001000.00000
     Eigenvalues --- 1000.000001000.000001000.000001000.000001000.00000
     Eigenvalues --- 1000.000001000.000001000.000001000.000001000.00000
     Eigenvalues --- 1000.000001000.000001000.000001000.000001000.00000
     Eigenvalues --- 1000.000001000.000001000.000001000.000001000.00000
     Eigenvalues --- 1000.000001000.000001000.000001000.000001000.00000
     Eigenvalues --- 1000.000001000.000001000.000001000.000001000.00000
     Eigenvalues --- 1000.000001000.000001000.000001000.000001000.00000
     Eigenvalues --- 1000.000001000.000001000.000001000.000001000.00000
     Eigenvalues --- 1000.000001000.000001000.000001000.000001000.00000
     Eigenvalues --- 1000.000001000.000001000.000001000.000001000.00000
     Eigenvalues --- 1000.000001000.000001000.000001000.000001000.00000
     Eigenvalues --- 1000.000001000.000001000.000001000.000001000.00000
     Eigenvalues --- 1000.000001000.000001000.000001000.000001000.00000
     Eigenvalues --- 1000.000001000.000001000.000001000.000001000.00000
     Eigenvalues --- 1000.000001000.000001000.000001000.000001000.00000
     Eigenvalues --- 1000.000001000.000001000.000001000.000001000.00000
     Eigenvalues --- 1000.000001000.000001000.000001000.000001000.00000
     Eigenvalues --- 1000.000001000.000001000.000001000.000001000.00000
     Eigenvalues --- 1000.000001000.000001000.000001000.000001000.00000
     Eigenvalues --- 1000.000001000.00000
 RFO step:  Lambda=-1.39878190D-02 EMin= 1.15532237D-02
 Linear search not attempted -- first point.
 Iteration  1 RMS(Cart)=  0.21829084 RMS(Int)=  0.00333614
 Iteration  2 RMS(Cart)=  0.01149518 RMS(Int)=  0.00055039
 Iteration  3 RMS(Cart)=  0.00002339 RMS(Int)=  0.00055036
 Iteration  4 RMS(Cart)=  0.00000005 RMS(Int)=  0.00055036
 Iteration  1 RMS(Cart)=  0.00003741 RMS(Int)=  0.00001452
 Iteration  2 RMS(Cart)=  0.00001850 RMS(Int)=  0.00001617
 Iteration  3 RMS(Cart)=  0.00001002 RMS(Int)=  0.00001806
 Iteration  4 RMS(Cart)=  0.00000566 RMS(Int)=  0.00001927
 Iteration  5 RMS(Cart)=  0.00000323 RMS(Int)=  0.00002000
 Iteration  6 RMS(Cart)=  0.00000183 RMS(Int)=  0.00002043
 Iteration  7 RMS(Cart)=  0.00000104 RMS(Int)=  0.00002068
 Iteration  8 RMS(Cart)=  0.00000058 RMS(Int)=  0.00002083
 Variable       Old X    -DE/DX   Delta X   Delta X   Delta X     New X
                                 (Linear)    (Quad)   (Total)
    R1        2.80935  -0.00188   0.00000  -0.00529  -0.00529   2.80406
    R2        2.64584  -0.00654   0.00000  -0.01420  -0.01418   2.63166
    R3        2.31147  -0.02064   0.00000  -0.02164  -0.02164   2.28983
    R4        2.67311  -0.00587   0.00000  -0.01209  -0.01216   2.66095
    R5        2.59267  -0.00648   0.00000  -0.01211  -0.01212   2.58055
    R6        2.66894  -0.00523   0.00000  -0.01120  -0.01122   2.65772
    R7        2.69164  -0.00984   0.00000  -0.02248  -0.02256   2.66908
    R8        2.81049  -0.00133   0.00000  -0.00381  -0.00381   2.80668
    R9        2.62173  -0.00982   0.00000  -0.01981  -0.01979   2.60194
   R10        2.65570  -0.00676   0.00000  -0.01496  -0.01495   2.64075
   R11        2.30889  -0.01940   0.00000  -0.02021  -0.02021   2.28868
   R12        2.70248  -0.00865   0.00000  -0.02069  -0.02065   2.68183
   R13        2.04786   0.00031   0.00000   0.00084   0.00084   2.04869
   R14        2.70495  -0.00721   0.00000  -0.01757  -0.01757   2.68738
   R15        2.68322  -0.00648   0.00000  -0.01489  -0.01493   2.66829
   R16        2.68655  -0.01983   0.00000  -0.04622  -0.04615   2.64040
   R17        2.81233   0.00002   0.00000  -0.00010  -0.00014   2.81219
   R18        2.76359   0.00152   0.00000   0.00399   0.00399   2.76759
   R19        2.66221  -0.00585   0.00000  -0.01289  -0.01287   2.64933
   R20        2.31391  -0.02507   0.00000  -0.02643  -0.02643   2.28747
   R21        2.79415   0.00079   0.00000   0.00228   0.00230   2.79645
   R22        2.63842  -0.00725   0.00000  -0.01516  -0.01512   2.62329
   R23        2.31456  -0.02068   0.00000  -0.02184  -0.02184   2.29272
   R24        2.62448  -0.00956   0.00000  -0.01967  -0.01966   2.60482
   R25        2.64561  -0.00144   0.00000  -0.00303  -0.00301   2.64260
   R26        2.04921  -0.00094   0.00000  -0.00255  -0.00255   2.04666
   R27        2.04741  -0.00050   0.00000  -0.00136  -0.00136   2.04605
   R28        2.77259  -0.00330   0.00000  -0.00880  -0.00880   2.76379
   R29        2.77252  -0.00329   0.00000  -0.00877  -0.00877   2.76375
   R30        2.06176  -0.00083   0.00000  -0.00230  -0.00230   2.05946
   R31        2.06551  -0.00198   0.00000  -0.00551  -0.00551   2.06000
   R32        2.05322  -0.00053   0.00000  -0.00144  -0.00144   2.05178
   R33        2.06368  -0.00141   0.00000  -0.00393  -0.00393   2.05975
   R34        2.06281  -0.00094   0.00000  -0.00262  -0.00262   2.06020
   R35        2.05355  -0.00062   0.00000  -0.00170  -0.00170   2.05185
   R36        2.61014  -0.01305   0.00000  -0.02633  -0.02583   2.58431
   R37        3.33301  -0.01519   0.00000  -0.04979  -0.04933   3.28368
   R38        2.66188   0.00060   0.00000   0.00108   0.00103   2.66291
   R39        2.03700   0.00289   0.00000   0.00767   0.00767   2.04467
   R40        3.30365  -0.00744   0.00000  -0.02262  -0.02298   3.28067
   R41        2.64421  -0.01549   0.00000  -0.03264  -0.03321   2.61100
   R42        2.56917  -0.00450   0.00000  -0.00827  -0.00827   2.56090
   R43        2.71272   0.00352   0.00000   0.00847   0.00847   2.72119
   R44        2.69142  -0.00790   0.00000  -0.01829  -0.01829   2.67313
   R45        2.63350  -0.01345   0.00000  -0.02843  -0.02843   2.60507
   R46        3.32960  -0.00851   0.00000  -0.02752  -0.02751   3.30209
   R47        2.06138  -0.00178   0.00000  -0.00494  -0.00494   2.05645
   R48        2.07210  -0.00076   0.00000  -0.00213  -0.00213   2.06997
   R49        2.07275  -0.00111   0.00000  -0.00314  -0.00314   2.06961
   R50        2.69090  -0.00312   0.00000  -0.00769  -0.00769   2.68320
   R51        2.56756  -0.00659   0.00000  -0.01207  -0.01207   2.55549
   R52        3.26360  -0.00777   0.00000  -0.02196  -0.02196   3.24164
   R53        2.58651  -0.00784   0.00000  -0.01478  -0.01479   2.57172
   R54        2.04162   0.00014   0.00000   0.00037   0.00037   2.04199
   R55        2.68981  -0.00756   0.00000  -0.01743  -0.01743   2.67237
   R56        2.04335  -0.00130   0.00000  -0.00349  -0.00349   2.03986
   R57        2.07275  -0.00110   0.00000  -0.00310  -0.00310   2.06965
   R58        2.05831  -0.00072   0.00000  -0.00199  -0.00199   2.05632
   R59        2.07167  -0.00083   0.00000  -0.00234  -0.00234   2.06933
    A1        2.03797   0.00077   0.00000   0.00294   0.00292   2.04089
    A2        2.14521  -0.00102   0.00000  -0.00386  -0.00387   2.14134
    A3        2.10001   0.00025   0.00000   0.00092   0.00092   2.10093
    A4        2.10395  -0.00073   0.00000  -0.00292  -0.00292   2.10103
    A5        2.08282   0.00194   0.00000   0.00555   0.00563   2.08846
    A6        2.09624  -0.00121   0.00000  -0.00269  -0.00278   2.09346
    A7        2.10093   0.00050   0.00000   0.00205   0.00209   2.10301
    A8        2.07104   0.00035   0.00000   0.00251   0.00243   2.07347
    A9        2.11118  -0.00085   0.00000  -0.00463  -0.00463   2.10655
   A10        2.10296  -0.00087   0.00000  -0.00273  -0.00276   2.10020
   A11        2.09911  -0.00001   0.00000   0.00030   0.00027   2.09938
   A12        2.08110   0.00088   0.00000   0.00243   0.00248   2.08358
   A13        2.03739   0.00058   0.00000   0.00207   0.00206   2.03945
   A14        2.12972  -0.00044   0.00000  -0.00163  -0.00162   2.12810
   A15        2.11607  -0.00013   0.00000  -0.00045  -0.00045   2.11562
   A16        2.15098  -0.00292   0.00000  -0.01173  -0.01175   2.13923
   A17        2.04399   0.00413   0.00000   0.02111   0.02109   2.06508
   A18        2.08722  -0.00123   0.00000  -0.00982  -0.00983   2.07740
   A19        2.11101  -0.00109   0.00000  -0.00361  -0.00351   2.10749
   A20        2.04385   0.00222   0.00000   0.00861   0.00863   2.05248
   A21        2.12832  -0.00113   0.00000  -0.00502  -0.00515   2.12317
   A22        2.08678   0.00045   0.00000  -0.00087  -0.00111   2.08568
   A23        2.04738   0.00183   0.00000   0.00579   0.00508   2.05246
   A24        2.14662  -0.00232   0.00000  -0.00824  -0.00845   2.13817
   A25        2.04892   0.00436   0.00000   0.01511   0.01514   2.06406
   A26        2.00754  -0.00307   0.00000  -0.01106  -0.01114   1.99640
   A27        2.22643  -0.00130   0.00000  -0.00440  -0.00446   2.22196
   A28        2.06022  -0.00078   0.00000  -0.00400  -0.00426   2.05596
   A29        2.17370  -0.00308   0.00000  -0.01114  -0.01102   2.16267
   A30        2.04919   0.00385   0.00000   0.01523   0.01535   2.06453
   A31        2.01621   0.00151   0.00000   0.00514   0.00492   2.02113
   A32        2.14188  -0.00189   0.00000  -0.00704  -0.00705   2.13482
   A33        2.12500   0.00038   0.00000   0.00156   0.00154   2.12653
   A34        2.10943  -0.00058   0.00000  -0.00259  -0.00274   2.10669
   A35        2.11468  -0.00089   0.00000  -0.00335  -0.00335   2.11133
   A36        2.05896   0.00147   0.00000   0.00591   0.00605   2.06501
   A37        2.11176  -0.00066   0.00000  -0.00269  -0.00274   2.10902
   A38        2.05670   0.00066   0.00000   0.00320   0.00322   2.05991
   A39        2.11471   0.00001   0.00000  -0.00053  -0.00051   2.11421
   A40        2.08567   0.00020   0.00000   0.00160   0.00157   2.08724
   A41        2.07549   0.00034   0.00000   0.00170   0.00170   2.07720
   A42        2.12199  -0.00054   0.00000  -0.00334  -0.00333   2.11866
   A43        2.20043  -0.00097   0.00000  -0.00445  -0.00461   2.19582
   A44        2.02023  -0.00005   0.00000   0.00019   0.00026   2.02049
[...]
 Alpha  occ. eigenvalues --   -0.56322  -0.56192  -0.55553  -0.55371  -0.54190
 Alpha  occ. eigenvalues --   -0.53943  -0.53750  -0.53422  -0.53167  -0.52514
 Alpha  occ. eigenvalues --   -0.51680  -0.51268  -0.51110  -0.50361  -0.50121
 Alpha  occ. eigenvalues --   -0.49746  -0.49597  -0.49307  -0.48899  -0.48432
 Alpha  occ. eigenvalues --   -0.48275  -0.47157  -0.46595  -0.45872  -0.45214
 Alpha  occ. eigenvalues --   -0.44208  -0.43671  -0.42134  -0.41420  -0.41072
 Alpha  occ. eigenvalues --   -0.40817  -0.40445  -0.39736  -0.38571  -0.37616
 Alpha  occ. eigenvalues --   -0.37502  -0.37103  -0.36849  -0.36085  -0.34985
 Alpha  occ. eigenvalues --   -0.33415  -0.31525  -0.31161  -0.25368
 Alpha virt. eigenvalues --   -0.07280  -0.00109   0.00483   0.02186   0.03035
 Alpha virt. eigenvalues --    0.05087   0.05912   0.06195   0.06630   0.06896
 Alpha virt. eigenvalues --    0.07221   0.07494   0.07576   0.07697   0.07965
 Alpha virt. eigenvalues --    0.08467   0.08673   0.08843   0.08972   0.09204
 Alpha virt. eigenvalues --    0.09253   0.09594   0.09819   0.10180   0.10441
 Alpha virt. eigenvalues --    0.10639   0.11163   0.11453   0.11594   0.11790
 Alpha virt. eigenvalues --    0.11907   0.12008   0.12147   0.12914   0.13136
 Alpha virt. eigenvalues --    0.13183   0.13589   0.13724   0.14109   0.14203
 Alpha virt. eigenvalues --    0.14761   0.14957   0.15174   0.15434   0.15461
 Alpha virt. eigenvalues --    0.15838   0.15994   0.16210   0.16586   0.17030
 Alpha virt. eigenvalues --    0.17176   0.17599   0.17877   0.18001   0.18300
 Alpha virt. eigenvalues --    0.18401   0.18781   0.19238   0.19490   0.19674
 Alpha virt. eigenvalues --    0.19929   0.20028   0.20206   0.20515   0.20666
 Alpha virt. eigenvalues --    0.20811   0.20904   0.21129   0.21250   0.21864
 Alpha virt. eigenvalues --    0.21951   0.22158   0.22585   0.22673   0.22832
 Alpha virt. eigenvalues --    0.23071   0.23581   0.23628   0.24192   0.24393
 Alpha virt. eigenvalues --    0.24487   0.24657   0.24702   0.24906   0.25145
 Alpha virt. eigenvalues --    0.25327   0.25667   0.25834   0.26046   0.26176
 Alpha virt. eigenvalues --    0.26228   0.26626   0.26773   0.26850   0.26942
 Alpha virt. eigenvalues --    0.27111   0.27538   0.27693   0.27793   0.27882
 Alpha virt. eigenvalues --    0.28331   0.28436   0.28484   0.28795   0.29025
 Alpha virt. eigenvalues --    0.29155   0.29403   0.29649   0.29882   0.29956
 Alpha virt. eigenvalues --    0.30118   0.30331   0.30717   0.30812   0.31210
 Alpha virt. eigenvalues --    0.31270   0.31481   0.31696   0.31854   0.31917
 Alpha virt. eigenvalues --    0.32281   0.32549   0.32634   0.32790   0.32944
 Alpha virt. eigenvalues --    0.33370   0.33604   0.33836   0.33846   0.34060
 Alpha virt. eigenvalues --    0.34083   0.34470   0.34747   0.34972   0.35120
 Alpha virt. eigenvalues --    0.35371   0.35465   0.35745   0.36164   0.36227
 Alpha virt. eigenvalues --    0.36689   0.36910   0.37035   0.37318   0.37398
 Alpha virt. eigenvalues --    0.37678   0.37842   0.38250   0.38402   0.38896
 Alpha virt. eigenvalues --    0.39126   0.39618   0.39735   0.39929   0.40165
 Alpha virt. eigenvalues --    0.40405   0.40803   0.41065   0.41242   0.41637
 Alpha virt. eigenvalues --    0.41998   0.42245   0.42511   0.43081   0.43156
 Alpha virt. eigenvalues --    0.43526   0.43982   0.44419   0.44711   0.45020
 Alpha virt. eigenvalues --    0.45546   0.45670   0.45986   0.46821   0.47130
 Alpha virt. eigenvalues --    0.47390   0.47623   0.48240   0.49105   0.49258
 Alpha virt. eigenvalues --    0.49495   0.49734   0.50424   0.50783   0.51364
 Alpha virt. eigenvalues --    0.51883   0.52360   0.52673   0.52935   0.53124
 Alpha virt. eigenvalues --    0.53535   0.53657   0.54181   0.54574   0.54960
 Alpha virt. eigenvalues --    0.55202   0.55767   0.56796   0.57192   0.57388
 Alpha virt. eigenvalues --    0.58152   0.58354   0.58797   0.59069   0.59711
 Alpha virt. eigenvalues --    0.60311   0.61165   0.61568   0.61755   0.62219
 Alpha virt. eigenvalues --    0.62596   0.63186   0.63722   0.64034   0.64095
 Alpha virt. eigenvalues --    0.64791   0.65033   0.65325   0.65541   0.65954
 Alpha virt. eigenvalues --    0.66086   0.66900   0.67294   0.67374   0.67904
 Alpha virt. eigenvalues --    0.68297   0.68832   0.69122   0.69324   0.69998
 Alpha virt. eigenvalues --    0.70446   0.70820   0.70991   0.71029   0.71606
 Alpha virt. eigenvalues --    0.72188   0.72540   0.72896   0.73044   0.73671
 Alpha virt. eigenvalues --    0.74077   0.74195   0.74444   0.74747   0.75156
 Alpha virt. eigenvalues --    0.75977   0.76295   0.76396   0.76713   0.77135
 Alpha virt. eigenvalues --    0.77577   0.77734   0.78033   0.78347   0.78937
 Alpha virt. eigenvalues --    0.79335   0.79868   0.80252   0.80897   0.81106
 Alpha virt. eigenvalues --    0.81162   0.81585   0.82070   0.82194   0.82971
 Alpha virt. eigenvalues --    0.83244   0.83314   0.83526   0.83822   0.84161
 Alpha virt. eigenvalues --    0.84620   0.84960   0.84988   0.85567   0.85847
 Alpha virt. eigenvalues --    0.85999   0.86380   0.87017   0.87066   0.87641
 Alpha virt. eigenvalues --    0.88138   0.88779   0.89008   0.90220   0.90513
 Alpha virt. eigenvalues --    0.90885   0.91536   0.92429   0.93448   0.94252
 Alpha virt. eigenvalues --    0.95076   0.95577   0.96142   0.96484   0.96791
 Alpha virt. eigenvalues --    0.97029   0.97511   0.98536   0.98885   0.99628
 Alpha virt. eigenvalues --    1.00377   1.00501   1.00973   1.01419   1.01732
 Alpha virt. eigenvalues --    1.01930   1.02348   1.02767   1.03533   1.03695
 Alpha virt. eigenvalues --    1.04566   1.04796   1.05160   1.05267   1.06028
 Alpha virt. eigenvalues --    1.06140   1.06952   1.07597   1.08607   1.08844
 Alpha virt. eigenvalues --    1.09291   1.09614   1.10390   1.10522   1.10716
 Alpha virt. eigenvalues --    1.11515   1.11760   1.12104   1.12991   1.13315
 Alpha virt. eigenvalues --    1.13559   1.14143   1.14274   1.14859   1.14979
 Alpha virt. eigenvalues --    1.15470   1.15497   1.16521   1.16632   1.17087
 Alpha virt. eigenvalues --    1.17785   1.18036   1.18759   1.19201   1.19687
 Alpha virt. eigenvalues --    1.20193   1.21793   1.22160   1.22371   1.22504
 Alpha virt. eigenvalues --    1.24003   1.24341   1.25273   1.25623   1.26234
 Alpha virt. eigenvalues --    1.26886   1.27260   1.28307   1.29425   1.29615
 Alpha virt. eigenvalues --    1.30331   1.30551   1.32045   1.33284   1.33831
 Alpha virt. eigenvalues --    1.34081   1.34466   1.35304   1.35487   1.35622
 Alpha virt. eigenvalues --    1.36468   1.36998   1.38259   1.38683   1.40292
 Alpha virt. eigenvalues --    1.41304   1.42108   1.42288   1.43158   1.44518
 Alpha virt. eigenvalues --    1.45137   1.45327   1.45785   1.47500   1.49081
 Alpha virt. eigenvalues --    1.49657   1.50058   1.50611   1.51142   1.51707
 Alpha virt. eigenvalues --    1.51861   1.52435   1.52717   1.52930   1.53117
 Alpha virt. eigenvalues --    1.53241   1.53690   1.54170   1.54256   1.54625
 Alpha virt. eigenvalues --    1.54984   1.55411   1.55824   1.57110   1.58533
 Alpha virt. eigenvalues --    1.59123   1.59713   1.60018   1.60300   1.61369
 Alpha virt. eigenvalues --    1.61933   1.62335   1.62841   1.63307   1.63451
 Alpha virt. eigenvalues --    1.64062   1.64176   1.64999   1.65834   1.66371
 Alpha virt. eigenvalues --    1.67916   1.68065   1.69335   1.69703   1.70725
 Alpha virt. eigenvalues --    1.71340   1.71866   1.72669   1.73023   1.73391
 Alpha virt. eigenvalues --    1.73635   1.74622   1.75052   1.76139   1.76678
 Alpha virt. eigenvalues --    1.77036   1.77502   1.78256   1.78500   1.78617
 Alpha virt. eigenvalues --    1.79259   1.79517   1.79777   1.80374   1.80544
 Alpha virt. eigenvalues --    1.82290   1.82512   1.83139   1.83662   1.84284
 Alpha virt. eigenvalues --    1.85773   1.86257   1.86808   1.87677   1.88178
 Alpha virt. eigenvalues --    1.88820   1.89948   1.90664   1.91209   1.91420
 Alpha virt. eigenvalues --    1.92478   1.93565   1.94199   1.94838   1.95168
 Alpha virt. eigenvalues --    1.95696   1.95816   1.96941   1.97104   1.97473
 Alpha virt. eigenvalues --    1.98592   1.99329   1.99910   2.00199   2.00282
 Alpha virt. eigenvalues --    2.01268   2.01413   2.02736   2.03376   2.04823
 Alpha virt. eigenvalues --    2.05095   2.05456   2.05898   2.06953   2.07502
 Alpha virt. eigenvalues --    2.08174   2.09874   2.10425   2.10784   2.11333
 Alpha virt. eigenvalues --    2.11823   2.12484   2.12938   2.13382   2.14301
 Alpha virt. eigenvalues --    2.15478   2.15713   2.16406   2.17219   2.17285
 Alpha virt. eigenvalues --    2.18034   2.18960   2.20271   2.20517   2.21509
 Alpha virt. eigenvalues --    2.21730   2.22219   2.23360   2.23921   2.24462
 Alpha virt. eigenvalues --    2.24667   2.25391   2.26344   2.27095   2.27988
 Alpha virt. eigenvalues --    2.29172   2.29371   2.29714   2.30881   2.31544
 Alpha virt. eigenvalues --    2.32148   2.34586   2.35457   2.36395   2.37836
 Alpha virt. eigenvalues --    2.40741   2.41632   2.42202   2.43702   2.45929
 Alpha virt. eigenvalues --    2.47261   2.48758   2.49287   2.51152   2.53128
 Alpha virt. eigenvalues --    2.53213   2.53625   2.54160   2.55282   2.55949
 Alpha virt. eigenvalues --    2.56654   2.56939   2.58647   2.58815   2.59670
 Alpha virt. eigenvalues --    2.60272   2.61375   2.61608   2.61925   2.62294
 Alpha virt. eigenvalues --    2.62710   2.63030   2.63483   2.65365   2.65733
 Alpha virt. eigenvalues --    2.66813   2.68159   2.68824   2.69075   2.69960
 Alpha virt. eigenvalues --    2.71820   2.73956   2.74353   2.74465   2.76139
 Alpha virt. eigenvalues --    2.76569   2.77453   2.78013   2.78190   2.78738
 Alpha virt. eigenvalues --    2.79373   2.79871   2.80731   2.81096   2.81292
 Alpha virt. eigenvalues --    2.81951   2.82433   2.84192   2.84260   2.84851
 Alpha virt. eigenvalues --    2.86389   2.87637   2.88797   2.89472   2.91147
 Alpha virt. eigenvalues --    2.92734   2.93486   2.94325   2.94355   2.94982
 Alpha virt. eigenvalues --    2.95258   2.95643   2.95939   2.96783   2.97360
 Alpha virt. eigenvalues --    2.97534   2.98791   2.98833   2.99578   3.00068
 Alpha virt. eigenvalues --    3.01715   3.01999   3.02879   3.03965   3.04720
 Alpha virt. eigenvalues --    3.05455   3.06290   3.07903   3.09772   3.11176
 Alpha virt. eigenvalues --    3.12264   3.12621   3.14250   3.15199   3.15724
 Alpha virt. eigenvalues --    3.17200   3.18080   3.18734   3.19223   3.20472
 Alpha virt. eigenvalues --    3.20928   3.24007   3.24250   3.25059   3.26503
 Alpha virt. eigenvalues --    3.27586   3.29176   3.30901   3.32853   3.33179
 Alpha virt. eigenvalues --    3.34327   3.34768   3.35618   3.36164   3.37646
 Alpha virt. eigenvalues --    3.40563   3.40790   3.43210   3.43711   3.44020
 Alpha virt. eigenvalues --    3.44626   3.44832   3.46132   3.47352   3.48503
 Alpha virt. eigenvalues --    3.49629   3.50391   3.52962   3.53907   3.54943
 Alpha virt. eigenvalues --    3.55802   3.57335   3.57666   3.59873   3.60568
 Alpha virt. eigenvalues --    3.61955   3.64788   3.66538   3.68462   3.70454
 Alpha virt. eigenvalues --    3.71275   3.72507   3.75764   3.76465   3.77431
 Alpha virt. eigenvalues --    3.80321   3.82217   3.82537   3.83472   3.87322
 Alpha virt. eigenvalues --    3.87544   3.87752   3.92566   3.93426   3.95131
 Alpha virt. eigenvalues --    3.95871   3.96201   4.00059   4.02584   4.03371
 Alpha virt. eigenvalues --    4.04236   4.05712   4.06814   4.10945   4.13527
 Alpha virt. eigenvalues --    4.14733   4.19162   4.21731   4.22049   4.25526
 Alpha virt. eigenvalues --    4.30008   4.33203   4.34961   4.37485   4.45313
 Alpha virt. eigenvalues --    4.48671   4.50221   4.60485   4.77591   4.95050
 Alpha virt. eigenvalues --    4.98218   4.98378   5.01386   5.14089   5.14696
 Alpha virt. eigenvalues --    5.15220   5.16586   5.16849   5.19947   5.22517
 Alpha virt. eigenvalues --    5.23846   5.36175   5.37903   5.40007   5.43199
 Alpha virt. eigenvalues --    5.54933   5.56349   5.87351   5.89778   5.91472
 Alpha virt. eigenvalues --    5.93096   5.93577   5.96894   8.15344   8.18676
 Alpha virt. eigenvalues --   17.43914  17.49825  17.65033  17.67920  17.74092
 Alpha virt. eigenvalues --   17.78092  23.61816  23.70570  23.86339  23.92352
 Alpha virt. eigenvalues --   23.95903  23.96816  23.98024  24.00021  24.00943
 Alpha virt. eigenvalues --   24.01822  24.02667  24.04552  24.05421  24.07118
 Alpha virt. eigenvalues --   24.08320  24.09607  24.10524  24.15096  24.17306
 Alpha virt. eigenvalues --   24.20305  24.21056  24.21707  24.26952  24.28722
 Alpha virt. eigenvalues --   24.30427  24.30946  35.69898  35.72541  50.11384
 Alpha virt. eigenvalues --   50.12645  50.16404  50.18218  50.20375  50.21783
 Alpha virt. eigenvalues --  189.40838 189.45137
          Condensed to atoms (all electrons):
 Mulliken charges:
               1
     1  C    0.426455
     2  C   -0.012328
     3  C    0.175038
     4  C    0.176950
     5  C    0.345589
     6  C   -0.542593
     7  C    0.179104
     8  C   -0.099076
     9  C    0.229524
    10  C   -0.259446
    11  C    0.333921
    12  C    0.101337
    13  C   -0.518720
    14  C   -0.728800
    15  H    0.188478
    16  H    0.189210
    17  H    0.197438
    18  N   -0.062396
    19  N   -0.093249
    20  O   -0.260392
    21  O   -0.268992
    22  O   -0.272792
    23  O   -0.165850
    24  C   -0.271490
    25  H    0.196514
    26  H    0.199401
    27  H    0.201566
    28  C   -0.282044
    29  H    0.193970
    30  H    0.193611
    31  H    0.200986
    32  C    0.402331
    33  C   -0.479111
    34  S   -0.418782
    35  C   -0.089072
    36  H    0.149218
    37  C    0.372296
    38  O   -0.110607
    39  C    0.879807
    40  C   -0.294103
    41  C    0.048546
    42  S   -0.298529
    43  H    0.182030
    44  H    0.159190
    45  H    0.164633
    46  C   -0.592221
    47  O   -0.123355
    48  C   -0.371401
    49  H    0.154519
    50  C   -0.301815
    51  H    0.184319
    52  H    0.155288
    53  H    0.178186
    54  H    0.157711
 Sum of Mulliken charges =  -0.00000
 Mulliken charges with hydrogens summed into heavy atoms:
               1
     1  C    0.426455
     2  C   -0.012328
     3  C    0.175038
     4  C    0.176950
     5  C    0.345589
     6  C   -0.345154
     7  C    0.179104
     8  C   -0.099076
     9  C    0.229524
    10  C   -0.259446
    11  C    0.333921
    12  C    0.101337
    13  C   -0.329510
    14  C   -0.540321
    18  N   -0.062396
    19  N   -0.093249
    20  O   -0.260392
    21  O   -0.268992
    22  O   -0.272792
    23  O   -0.165850
    24  C    0.325990
    28  C    0.306523
    32  C    0.402331
    33  C   -0.329893
    34  S   -0.418782
    35  C   -0.089072
    37  C    0.372296
    38  O   -0.110607
    39  C    0.879807
    40  C    0.211749
    41  C    0.048546
    42  S   -0.298529
    46  C   -0.437702
    47  O   -0.123355
    48  C   -0.187082
    50  C    0.189369
 Electronic spatial extent (au):  <R**2>=          21925.1970
 Charge=             -0.0000 electrons
 Dipole moment (field-independent basis, Debye):
    X=             -1.4164    Y=             -0.1580    Z=              0.1910  Tot=              1.4379
 Quadrupole moment (field-independent basis, Debye-Ang):
   XX=           -216.3827   YY=           -224.8296   ZZ=           -202.6664
   XY=             -6.2042   XZ=            -10.4905   YZ=             12.2836
 Traceless Quadrupole moment (field-independent basis, Debye-Ang):
   XX=             -1.7565   YY=            -10.2033   ZZ=             11.9598
   XY=             -6.2042   XZ=            -10.4905   YZ=             12.2836
 Octapole moment (field-independent basis, Debye-Ang**2):
  XXX=           -256.1921  YYY=            -17.4899  ZZZ=              1.6128  XYY=            -40.3136
  XXY=             -6.0040  XXZ=             50.4370  XZZ=            -64.2929  YZZ=             -6.8888
  YYZ=            -13.2961  XYZ=            -46.9237
 Hexadecapole moment (field-independent basis, Debye-Ang**3):
 XXXX=         -20808.0483 YYYY=          -6290.7478 ZZZZ=          -2028.0411 XXXY=              9.3218
 XXXZ=           -553.0339 YYYX=           -442.3646 YYYZ=              6.2556 ZZZX=            -54.9226
 ZZZY=            131.7066 XXYY=          -4523.8139 XXZZ=          -3662.8971 YYZZ=          -1255.3480
 XXYZ=            245.5938 YYXZ=             92.5756 ZZXY=            -44.1058
 N-N= 4.113751860687D+03 E-N=-1.376743604506D+04  KE= 2.352005760743D+03
 Unable to Open any file for archive entry.
 1\1\GINC-CX3-3-13\FOpt\RwB97XD\6-311+G(d,p)\C26H18N2O6S2\NS5018\29-Nov
 -2020\0\\# opt=modredundant wb97xd/6-311+g(d,p)\\NDI_120.pdb\\0,1\C,-2
 .4531166052,-2.8859435721,-0.5856681842\C,-2.1910507955,-1.4498347349,
 -0.3035500858\C,-3.2645663645,-0.5604636547,-0.0971183893\C,-4.5974496
 885,-1.0156314426,-0.1594699458\C,-4.8898191161,-2.4449315078,-0.45566
 02004\C,-0.9030450592,-0.9903613036,-0.2608730792\C,-2.9896787462,0.79
 3041187,0.1907902116\C,-1.6481341582,1.255176694,0.2428769875\C,-0.603
 7617616,0.3713938778,-0.0037890796\C,-1.4001607433,2.6546171197,0.7041
 842746\C,-3.8461493365,3.0921368263,0.7557033245\C,-4.0786401676,1.664
 0689938,0.4186903731\C,-5.3733547828,1.2036352033,0.3466813961\C,-5.63
 80400896,-0.1428720015,0.0544447203\H,-6.6546981861,-0.5119984268,-0.0
 006034404\H,-6.1815790196,1.9025282749,0.5239818607\H,-0.0896878878,-1
 .6802055939,-0.4514325768\N,-2.5174204918,3.479031126,0.8916692858\N,-
 3.7882561943,-3.2840522257,-0.6471708855\O,-1.564007979,-3.6878211991,
 -0.7597549298\O,-6.0223754452,-2.8640920309,-0.5250342078\O,-4.7595067
 033,3.8702033838,0.9190537707\O,-0.2988695176,3.1024884611,0.913611604
 1\C,-2.2292498315,4.8557859329,1.2929812159\H,-1.6831172061,4.85866760
 62,2.2362442546\H,-1.6112847965,5.3378162301,0.5353068264\H,-3.1753897
 34,5.3778178797,1.3987967498\C,-4.0265852112,-4.6979338284,-0.93538920
 16\H,-3.5700461178,-4.9600075003,-1.8898048219\H,-3.5788514914,-5.3140
 073573,-0.1552896873\H,-5.1001446869,-4.8564931998,-0.9721811532\C,0.8
 22005727,0.741566447,-0.0809538028\C,1.8271991398,0.2680934255,0.71054
 87506\S,1.4211965569,1.7237666963,-1.3638505567\C,3.1005229662,0.74241
 69733,0.2992134512\H,1.6527043891,-0.3708885848,1.5650179034\C,3.06489
 71909,1.5421823394,-0.8216256827\O,4.2838998474,0.4818816988,0.9038450
 606\C,4.1849496613,2.1570425213,-1.5023957968\C,4.2833922773,-0.448342
 4023,1.9658631282\C,4.1451638627,2.9484505833,-2.6295987012\S,5.833356
 8435,1.9788087998,-0.9684618781\H,5.3212250584,-0.5539297402,2.2769391
 233\H,3.6889624837,-0.0845754491,2.8113018137\H,3.9013573106,-1.421977
 5747,1.6394625685\C,5.4208460462,3.4079699849,-3.0594011013\O,2.955529
 0881,3.2166750231,-3.2193841066\C,6.4175898285,2.9558337357,-2.2491280
 95\H,5.5911609341,4.0379928542,-3.9205395404\C,2.9609909164,4.06288580
 69,-4.3491843289\H,7.4757724641,3.1488875768,-2.3391779147\H,3.5411429
 104,3.6256358283,-5.1692816506\H,1.9218482423,4.163137185,-4.657858684
 4\H,3.36232417,5.0517270543,-4.1015769463\\Version=ES64L-G16RevC.01\St
 ate=1-A\HF=-2358.77341\RMSD=5.873e-09\RMSF=5.493e-04\Dipole=0.5227739,
 0.1401823,-0.1646267\Quadrupole=-6.0491588,-2.8583637,8.9075225,3.5308
 561,-1.3564267,-12.5821108\PG=C01 [X(C26H18N2O6S2)]\\@
 The archive entry for this job was punched.


 IT IS THE GODS' CUSTOM TO BRING LOW ALL THINGS OF SURPASSING GREATNESS.
     -- HERODOTUS
 IT IS THE LOFTY PINE THAT BY THE STORM IS OFTENER TOSSED;
 TOWERS FALL WITH HEAVIER CRASH WHICH HIGHER SOAR.
     -- HORACE
 THE BIGGER THEY COME, THE HARDER THEY FALL.
     -- BOB FITZSIMONS HEAVYWEIGHT CHAMPION, 1897-1899
 Job cpu time:       1 days 18 hours 49 minutes 16.3 seconds.
 Elapsed time:       0 days  5 hours 25 minutes 46.3 seconds.
 File lengths (MBytes):  RWF=    496 Int=      0 D2E=      0 Chk=     58 Scr=      1
 Normal termination of Gaussian 16 at Sun Nov 29 21:54:46 2020.
