 Entering Gaussian System, Link 0=g16
 Input=NDI_-90.gjf
 Output=NDI_-90.log
 Initial command:
 /apps/gaussian/g16-c01-avx/g16/l1.exe "/tmp/pbs.2626208[18].pbs/Gau-739670.inp" -scrdir="/tmp/pbs.2626208[18].pbs/"
 Entering Link 1 = /apps/gaussian/g16-c01-avx/g16/l1.exe PID=    739671.
  
 Copyright (c) 1988-2019, Gaussian, Inc.  All Rights Reserved.
  
 This is part of the Gaussian(R) 16 program.  It is based on
 the Gaussian(R) 09 system (copyright 2009, Gaussian, Inc.),
 the Gaussian(R) 03 system (copyright 2003, Gaussian, Inc.),
 the Gaussian(R) 98 system (copyright 1998, Gaussian, Inc.),
 the Gaussian(R) 94 system (copyright 1995, Gaussian, Inc.),
 the Gaussian 92(TM) system (copyright 1992, Gaussian, Inc.),
 the Gaussian 90(TM) system (copyright 1990, Gaussian, Inc.),
 the Gaussian 88(TM) system (copyright 1988, Gaussian, Inc.),
 the Gaussian 86(TM) system (copyright 1986, Carnegie Mellon
 University), and the Gaussian 82(TM) system (copyright 1983,
 Carnegie Mellon University). Gaussian is a federally registered
 trademark of Gaussian, Inc.
  
 This software contains proprietary and confidential information,
 including trade secrets, belonging to Gaussian, Inc.
  
 This software is provided under written license and may be
 used, copied, transmitted, or stored only in accord with that
 written license.
  
 The following legend is applicable only to US Government
 contracts under FAR:
  
                    RESTRICTED RIGHTS LEGEND
  
 Use, reproduction and disclosure by the US Government is
 subject to restrictions as set forth in subparagraphs (a)
 and (c) of the Commercial Computer Software - Restricted
 Rights clause in FAR 52.227-19.
  
 Gaussian, Inc.
 340 Quinnipiac St., Bldg. 40, Wallingford CT 06492
  
  
 ---------------------------------------------------------------
 Warning -- This program may not be used in any manner that
 competes with the business of Gaussian, Inc. or will provide
 assistance to any competitor of Gaussian, Inc.  The licensee
 of this program is prohibited from giving any competitor of
 Gaussian, Inc. access to this program.  By using this program,
 the user acknowledges that Gaussian, Inc. is engaged in the
 business of creating and licensing software in the field of
 computational chemistry and represents and warrants to the
 licensee that it is not a competitor of Gaussian, Inc. and that
 it will not use this program in any manner prohibited above.
 ---------------------------------------------------------------
  

 Cite this work as:
 Gaussian 16, Revision C.01,
 M. J. Frisch, G. W. Trucks, H. B. Schlegel, G. E. Scuseria, 
 M. A. Robb, J. R. Cheeseman, G. Scalmani, V. Barone, 
 G. A. Petersson, H. Nakatsuji, X. Li, M. Caricato, A. V. Marenich, 
 J. Bloino, B. G. Janesko, R. Gomperts, B. Mennucci, H. P. Hratchian, 
 J. V. Ortiz, A. F. Izmaylov, J. L. Sonnenberg, D. Williams-Young, 
 F. Ding, F. Lipparini, F. Egidi, J. Goings, B. Peng, A. Petrone, 
 T. Henderson, D. Ranasinghe, V. G. Zakrzewski, J. Gao, N. Rega, 
 G. Zheng, W. Liang, M. Hada, M. Ehara, K. Toyota, R. Fukuda, 
 J. Hasegawa, M. Ishida, T. Nakajima, Y. Honda, O. Kitao, H. Nakai, 
 T. Vreven, K. Throssell, J. A. Montgomery, Jr., J. E. Peralta, 
 F. Ogliaro, M. J. Bearpark, J. J. Heyd, E. N. Brothers, K. N. Kudin, 
 V. N. Staroverov, T. A. Keith, R. Kobayashi, J. Normand, 
 K. Raghavachari, A. P. Rendell, J. C. Burant, S. S. Iyengar, 
 J. Tomasi, M. Cossi, J. M. Millam, M. Klene, C. Adamo, R. Cammi, 
 J. W. Ochterski, R. L. Martin, K. Morokuma, O. Farkas, 
 J. B. Foresman, and D. J. Fox, Gaussian, Inc., Wallingford CT, 2019.
 
 ******************************************
 Gaussian 16:  ES64L-G16RevC.01  3-Jul-2019
                29-Nov-2020 
 ******************************************
 %mem=10GB
 %nprocshared=8
 Will use up to    8 processors via shared memory.
 --------------------------------------
 # opt=modredundant wb97xd/6-311+g(d,p)
 --------------------------------------
 1/18=120,19=15,26=3,38=1/1,3;
 2/9=110,12=2,17=6,18=5,40=1/2;
 3/5=4,6=6,7=111,11=2,25=1,30=1,71=1,74=-58/1,2,3;
 4//1;
 5/5=2,38=5/2;
 6/7=2,8=2,9=2,10=2,28=1/1;
 7//1,2,3,16;
 1/18=20,19=15,26=3/3(2);
 2/9=110/2;
 99//99;
 2/9=110/2;
 3/5=4,6=6,7=111,11=2,25=1,30=1,71=1,74=-58/1,2,3;
 4/5=5,16=3,69=1/1;
 5/5=2,38=5/2;
 7//1,2,3,16;
 1/18=20,19=15,26=3/3(-5);
 2/9=110/2;
 6/7=2,8=2,9=2,10=2,19=2,28=1/1;
 99/9=1/99;
 -----------
 NDI_-90.pdb
 -----------
 Symbolic Z-matrix:
 Charge =  0 Multiplicity = 1
 C                    -2.563    -2.994    -0.409 
 C                    -2.257    -1.551    -0.224 
 C                    -3.301    -0.607    -0.083 
 C                    -4.65     -1.024    -0.115 
 C                    -4.992    -2.459    -0.304 
 C                    -0.949    -1.137    -0.215 
 C                    -2.962     0.764     0.102 
 C                    -1.595     1.188     0.123 
 C                    -0.561     0.232    -0.072 
 C                    -1.328     2.616     0.446 
 C                    -3.777     3.115     0.508 
 C                    -4.035     1.679     0.268 
 C                    -5.356     1.252     0.23 
 C                    -5.672    -0.098     0.036 
 H                    -6.699    -0.442     0.008 
 H                    -6.133     1.997     0.361 
 H                    -0.19     -1.895    -0.369 
 N                    -2.432     3.476     0.608 
 N                    -3.916    -3.353    -0.438 
 O                    -1.695    -3.847    -0.532 
 O                    -6.149    -2.85     -0.34 
 O                    -4.676     3.938     0.629 
 O                    -0.212     3.097     0.596 
 C                    -2.111     4.875     0.912 
 H                    -1.54      4.931     1.84 
 H                    -1.5       5.299     0.111 
 H                    -3.05      5.414     1.003 
 C                    -4.206    -4.779    -0.625 
 H                    -3.759    -5.126    -1.559 
 H                    -3.775    -5.355     0.196 
 H                    -5.286    -4.897    -0.649 
 C                     0.876     0.482    -0.178 
 C                     1.669     0.745    -1.278 
 S                     1.879     0.298     1.261 
 C                     3.045     0.803    -0.979 
 H                     1.265     0.898    -2.266 
 C                     3.353     0.593     0.368 
 O                     4.054     1.039    -1.859 
 C                     4.647     0.633     0.989 
 C                     3.696     1.39     -3.193 
 C                     4.955     0.4       2.328 
 S                     6.126     1.001     0.106 
 H                     4.631     1.614    -3.705 
 H                     3.194     0.558    -3.7 
 H                     3.045     2.272    -3.209 
 C                     6.341     0.515     2.636 
 O                     3.955     0.099     3.197 
 C                     7.085     0.834     1.532 
 H                     6.763     0.368     3.62 
 C                     4.305    -0.168     4.551 
 H                     8.155     0.979     1.48 
 H                     4.772     0.706     5.021 
 H                     3.371    -0.398     5.063 
 H                     4.982    -1.027     4.624 
 
 The following ModRedundant input section has been read:
 D       8       9      32      33 F                                           
 D      33      35      38      40 F                                           
 D      46      41      47      50 F                                           
 D      10      18      24      25 F                                           
 D       1      19      28      30 F                                           
 D       9       8      10      23 F                                           
 D      20       1       2       6 F                                           
 

 GradGradGradGradGradGradGradGradGradGradGradGradGradGradGradGradGradGrad
 Berny optimization.
 Initialization pass.
                           ----------------------------
                           !    Initial Parameters    !
                           ! (Angstroms and Degrees)  !
 --------------------------                            --------------------------
 ! Name  Definition              Value          Derivative Info.                !
 --------------------------------------------------------------------------------
 ! R1    R(1,2)                  1.4866         estimate D2E/DX2                !
 ! R2    R(1,19)                 1.4001         estimate D2E/DX2                !
 ! R3    R(1,20)                 1.2232         estimate D2E/DX2                !
 ! R4    R(2,3)                  1.4146         estimate D2E/DX2                !
 ! R5    R(2,6)                  1.372          estimate D2E/DX2                !
 ! R6    R(3,4)                  1.4123         estimate D2E/DX2                !
 ! R7    R(3,7)                  1.4244         estimate D2E/DX2                !
 ! R8    R(4,5)                  1.4872         estimate D2E/DX2                !
 ! R9    R(4,14)                 1.3874         estimate D2E/DX2                !
 ! R10   R(5,19)                 1.4053         estimate D2E/DX2                !
 ! R11   R(5,21)                 1.2218         estimate D2E/DX2                !
 ! R12   R(6,9)                  1.4301         estimate D2E/DX2                !
 ! R13   R(6,17)                 1.0837         estimate D2E/DX2                !
 ! R14   R(7,8)                  1.4314         estimate D2E/DX2                !
 ! R15   R(7,12)                 1.4199         estimate D2E/DX2                !
 ! R16   R(8,9)                  1.4217         estimate D2E/DX2                !
 ! R17   R(8,10)                 1.4882         estimate D2E/DX2                !
 ! R18   R(9,32)                 1.4624         estimate D2E/DX2                !
 ! R19   R(10,18)                1.4088         estimate D2E/DX2                !
 ! R20   R(10,23)                1.2245         estimate D2E/DX2                !
 ! R21   R(11,12)                1.4786         estimate D2E/DX2                !
 ! R22   R(11,18)                1.3962         estimate D2E/DX2                !
 ! R23   R(11,22)                1.2248         estimate D2E/DX2                !
 ! R24   R(12,13)                1.3888         estimate D2E/DX2                !
 ! R25   R(13,14)                1.4            estimate D2E/DX2                !
 ! R26   R(13,16)                1.0844         estimate D2E/DX2                !
 ! R27   R(14,15)                1.0834         estimate D2E/DX2                !
 ! R28   R(18,24)                1.4672         estimate D2E/DX2                !
 ! R29   R(19,28)                1.4672         estimate D2E/DX2                !
 ! R30   R(24,25)                1.091          estimate D2E/DX2                !
 ! R31   R(24,26)                1.093          estimate D2E/DX2                !
 ! R32   R(24,27)                1.0865         estimate D2E/DX2                !
 ! R33   R(28,29)                1.0921         estimate D2E/DX2                !
 ! R34   R(28,30)                1.0916         estimate D2E/DX2                !
 ! R35   R(28,31)                1.0867         estimate D2E/DX2                !
 ! R36   R(32,33)                1.3813         estimate D2E/DX2                !
 ! R37   R(32,34)                1.7637         estimate D2E/DX2                !
 ! R38   R(33,35)                1.4093         estimate D2E/DX2                !
 ! R39   R(33,36)                1.0783         estimate D2E/DX2                !
 ! R40   R(34,37)                1.7485         estimate D2E/DX2                !
 ! R41   R(35,37)                1.3976         estimate D2E/DX2                !
 ! R42   R(35,38)                1.3595         estimate D2E/DX2                !
 ! R43   R(37,39)                1.4359         estimate D2E/DX2                !
 ! R44   R(38,40)                1.4251         estimate D2E/DX2                !
 ! R45   R(39,41)                1.3936         estimate D2E/DX2                !
 ! R46   R(39,42)                1.7614         estimate D2E/DX2                !
 ! R47   R(40,43)                1.0893         estimate D2E/DX2                !
 ! R48   R(40,44)                1.096          estimate D2E/DX2                !
 ! R49   R(40,45)                1.0963         estimate D2E/DX2                !
 ! R50   R(41,46)                1.4245         estimate D2E/DX2                !
 ! R51   R(41,47)                1.3586         estimate D2E/DX2                !
 ! R52   R(42,48)                1.7266         estimate D2E/DX2                !
 ! R53   R(46,48)                1.369          estimate D2E/DX2                !
 ! R54   R(46,49)                1.0807         estimate D2E/DX2                !
 ! R55   R(47,50)                1.4238         estimate D2E/DX2                !
 ! R56   R(48,51)                1.081          estimate D2E/DX2                !
 ! R57   R(50,52)                1.0968         estimate D2E/DX2                !
 ! R58   R(50,53)                1.0897         estimate D2E/DX2                !
 ! R59   R(50,54)                1.0961         estimate D2E/DX2                !
 ! A1    A(2,1,19)             116.767          estimate D2E/DX2                !
 ! A2    A(2,1,20)             122.9113         estimate D2E/DX2                !
 ! A3    A(19,1,20)            120.3217         estimate D2E/DX2                !
 ! A4    A(1,2,3)              120.5473         estimate D2E/DX2                !
 ! A5    A(1,2,6)              119.3369         estimate D2E/DX2                !
 ! A6    A(3,2,6)              120.1056         estimate D2E/DX2                !
 ! A7    A(2,3,4)              120.3743         estimate D2E/DX2                !
 ! A8    A(2,3,7)              118.662          estimate D2E/DX2                !
 ! A9    A(4,3,7)              120.9617         estimate D2E/DX2                !
 ! A10   A(3,4,5)              120.4909         estimate D2E/DX2                !
 ! A11   A(3,4,14)             120.2702         estimate D2E/DX2                !
 ! A12   A(5,4,14)             119.2382         estimate D2E/DX2                !
 ! A13   A(4,5,19)             116.7341         estimate D2E/DX2                !
 ! A14   A(4,5,21)             122.024          estimate D2E/DX2                !
 ! A15   A(19,5,21)            121.2418         estimate D2E/DX2                !
 ! A16   A(2,6,9)              123.2421         estimate D2E/DX2                !
 ! A17   A(2,6,17)             117.1119         estimate D2E/DX2                !
 ! A18   A(9,6,17)             119.589          estimate D2E/DX2                !
 ! A19   A(3,7,8)              120.9519         estimate D2E/DX2                !
 ! A20   A(3,7,12)             117.1037         estimate D2E/DX2                !
 ! A21   A(8,7,12)             121.944          estimate D2E/DX2                !
 ! A22   A(7,8,9)              119.5639         estimate D2E/DX2                !
 ! A23   A(7,8,10)             117.3064         estimate D2E/DX2                !
 ! A24   A(9,8,10)             122.9922         estimate D2E/DX2                !
 ! A25   A(6,9,8)              117.3944         estimate D2E/DX2                !
 ! A26   A(6,9,32)             115.0236         estimate D2E/DX2                !
 ! A27   A(8,9,32)             127.5648         estimate D2E/DX2                !
 ! A28   A(8,10,18)            118.042          estimate D2E/DX2                !
 ! A29   A(8,10,23)            124.5436         estimate D2E/DX2                !
 ! A30   A(18,10,23)           117.4097         estimate D2E/DX2                !
 ! A31   A(12,11,18)           115.5202         estimate D2E/DX2                !
 ! A32   A(12,11,22)           122.7205         estimate D2E/DX2                !
 ! A33   A(18,11,22)           121.7534         estimate D2E/DX2                !
 ! A34   A(7,12,11)            120.8614         estimate D2E/DX2                !
 ! A35   A(7,12,13)            121.162          estimate D2E/DX2                !
 ! A36   A(11,12,13)           117.9699         estimate D2E/DX2                !
 ! A37   A(12,13,14)           120.9948         estimate D2E/DX2                !
 ! A38   A(12,13,16)           117.8401         estimate D2E/DX2                !
 ! A39   A(14,13,16)           121.1642         estimate D2E/DX2                !
 ! A40   A(4,14,13)            119.5003         estimate D2E/DX2                !
 ! A41   A(4,14,15)            118.9169         estimate D2E/DX2                !
 ! A42   A(13,14,15)           121.5811         estimate D2E/DX2                !
 ! A43   A(10,18,11)           126.0753         estimate D2E/DX2                !
 ! A44   A(10,18,24)           115.7508         estimate D2E/DX2                !
 ! A45   A(11,18,24)           118.1737         estimate D2E/DX2                !
 ! A46   A(1,19,5)             125.0856         estimate D2E/DX2                !
 ! A47   A(1,19,28)            116.2868         estimate D2E/DX2                !
 ! A48   A(5,19,28)            118.6276         estimate D2E/DX2                !
 ! A49   A(18,24,25)           109.8574         estimate D2E/DX2                !
 ! A50   A(18,24,26)           109.8979         estimate D2E/DX2                !
 ! A51   A(18,24,27)           107.5355         estimate D2E/DX2                !
 ! A52   A(25,24,26)           108.1108         estimate D2E/DX2                !
 ! A53   A(25,24,27)           110.8301         estimate D2E/DX2                !
 ! A54   A(26,24,27)           110.6124         estimate D2E/DX2                !
 ! A55   A(19,28,29)           109.6906         estimate D2E/DX2                !
 ! A56   A(19,28,30)           109.8136         estimate D2E/DX2                !
 ! A57   A(19,28,31)           107.7461         estimate D2E/DX2                !
 ! A58   A(29,28,30)           108.2991         estimate D2E/DX2                !
 ! A59   A(29,28,31)           110.6959         estimate D2E/DX2                !
 ! A60   A(30,28,31)           110.5924         estimate D2E/DX2                !
 ! A61   A(9,32,33)            130.8725         estimate D2E/DX2                !
 ! A62   A(9,32,34)            118.8052         estimate D2E/DX2                !
 ! A63   A(33,32,34)           110.0672         estimate D2E/DX2                !
 ! A64   A(32,33,35)           113.5412         estimate D2E/DX2                !
 ! A65   A(32,33,36)           122.7907         estimate D2E/DX2                !
 ! A66   A(35,33,36)           123.6663         estimate D2E/DX2                !
 ! A67   A(32,34,37)            92.5856         estimate D2E/DX2                !
 ! A68   A(33,35,37)           114.4222         estimate D2E/DX2                !
 ! A69   A(33,35,38)           126.4747         estimate D2E/DX2                !
 ! A70   A(37,35,38)           119.103          estimate D2E/DX2                !
 ! A71   A(34,37,35)           109.3782         estimate D2E/DX2                !
 ! A72   A(34,37,39)           122.9255         estimate D2E/DX2                !
 ! A73   A(35,37,39)           127.6794         estimate D2E/DX2                !
 ! A74   A(35,38,40)           117.5315         estimate D2E/DX2                !
 ! A75   A(37,39,41)           127.595          estimate D2E/DX2                !
 ! A76   A(37,39,42)           123.0741         estimate D2E/DX2                !
 ! A77   A(41,39,42)           109.3308         estimate D2E/DX2                !
 ! A78   A(38,40,43)           105.9623         estimate D2E/DX2                !
 ! A79   A(38,40,44)           111.1678         estimate D2E/DX2                !
 ! A80   A(38,40,45)           111.1598         estimate D2E/DX2                !
 ! A81   A(43,40,44)           109.3792         estimate D2E/DX2                !
 ! A82   A(43,40,45)           109.718          estimate D2E/DX2                !
 ! A83   A(44,40,45)           109.3887         estimate D2E/DX2                !
 ! A84   A(39,41,46)           114.1609         estimate D2E/DX2                !
 ! A85   A(39,41,47)           119.2713         estimate D2E/DX2                !
 ! A86   A(46,41,47)           126.5674         estimate D2E/DX2                !
 ! A87   A(39,42,48)            91.8419         estimate D2E/DX2                !
 ! A88   A(41,46,48)           111.9155         estimate D2E/DX2                !
 ! A89   A(41,46,49)           124.4599         estimate D2E/DX2                !
 ! A90   A(48,46,49)           123.6245         estimate D2E/DX2                !
 ! A91   A(41,47,50)           117.9628         estimate D2E/DX2                !
 ! A92   A(42,48,46)           112.7509         estimate D2E/DX2                !
 ! A93   A(42,48,51)           119.8061         estimate D2E/DX2                !
 ! A94   A(46,48,51)           127.4429         estimate D2E/DX2                !
 ! A95   A(47,50,52)           111.2704         estimate D2E/DX2                !
 ! A96   A(47,50,53)           106.0047         estimate D2E/DX2                !
 ! A97   A(47,50,54)           111.2305         estimate D2E/DX2                !
 ! A98   A(52,50,53)           109.3791         estimate D2E/DX2                !
 ! A99   A(52,50,54)           109.4491         estimate D2E/DX2                !
 ! A100  A(53,50,54)           109.4317         estimate D2E/DX2                !
 ! D1    D(19,1,2,3)             0.1578         estimate D2E/DX2                !
 ! D2    D(19,1,2,6)          -178.6792         estimate D2E/DX2                !
 ! D3    D(20,1,2,3)          -179.8231         estimate D2E/DX2                !
 ! D4    D(20,1,2,6)             1.3399         Frozen                          !
 ! D5    D(2,1,19,5)            -0.124          estimate D2E/DX2                !
 ! D6    D(2,1,19,28)          179.8267         estimate D2E/DX2                !
 ! D7    D(20,1,19,5)          179.8575         estimate D2E/DX2                !
 ! D8    D(20,1,19,28)          -0.1919         estimate D2E/DX2                !
 ! D9    D(1,2,3,4)              0.0571         estimate D2E/DX2                !
 ! D10   D(1,2,3,7)            179.5453         estimate D2E/DX2                !
 ! D11   D(6,2,3,4)            178.8851         estimate D2E/DX2                !
 ! D12   D(6,2,3,7)             -1.6266         estimate D2E/DX2                !
 ! D13   D(1,2,6,9)            178.625          estimate D2E/DX2                !
 ! D14   D(1,2,6,17)             1.3881         estimate D2E/DX2                !
 ! D15   D(3,2,6,9)             -0.2173         estimate D2E/DX2                !
 ! D16   D(3,2,6,17)          -177.4541         estimate D2E/DX2                !
 ! D17   D(2,3,4,5)             -0.3074         estimate D2E/DX2                !
 ! D18   D(2,3,4,14)           179.3968         estimate D2E/DX2                !
 ! D19   D(7,3,4,5)           -179.7837         estimate D2E/DX2                !
 ! D20   D(7,3,4,14)            -0.0795         estimate D2E/DX2                !
 ! D21   D(2,3,7,8)              1.0523         estimate D2E/DX2                !
 ! D22   D(2,3,7,12)          -178.712          estimate D2E/DX2                !
 ! D23   D(4,3,7,8)           -179.4626         estimate D2E/DX2                !
 ! D24   D(4,3,7,12)             0.7731         estimate D2E/DX2                !
 ! D25   D(3,4,5,19)             0.3343         estimate D2E/DX2                !
 ! D26   D(3,4,5,21)          -179.7799         estimate D2E/DX2                !
 ! D27   D(14,4,5,19)         -179.3729         estimate D2E/DX2                !
 ! D28   D(14,4,5,21)            0.5129         estimate D2E/DX2                !
 ! D29   D(3,4,14,13)           -0.4559         estimate D2E/DX2                !
 ! D30   D(3,4,14,15)         -179.9937         estimate D2E/DX2                !
 ! D31   D(5,4,14,13)          179.252          estimate D2E/DX2                !
 ! D32   D(5,4,14,15)           -0.2858         estimate D2E/DX2                !
 ! D33   D(4,5,19,1)            -0.1141         estimate D2E/DX2                !
 ! D34   D(4,5,19,28)          179.9364         estimate D2E/DX2                !
 ! D35   D(21,5,19,1)          179.9992         estimate D2E/DX2                !
 ! D36   D(21,5,19,28)           0.0496         estimate D2E/DX2                !
 ! D37   D(2,6,9,8)              2.5984         estimate D2E/DX2                !
 ! D38   D(2,6,9,32)          -176.0103         estimate D2E/DX2                !
 ! D39   D(17,6,9,8)           179.77           estimate D2E/DX2                !
 ! D40   D(17,6,9,32)            1.1613         estimate D2E/DX2                !
 ! D41   D(3,7,8,9)              1.3551         estimate D2E/DX2                !
 ! D42   D(3,7,8,10)          -174.5099         estimate D2E/DX2                !
 ! D43   D(12,7,8,9)          -178.8921         estimate D2E/DX2                !
 ! D44   D(12,7,8,10)            5.2428         estimate D2E/DX2                !
 ! D45   D(3,7,12,11)          178.0768         estimate D2E/DX2                !
 ! D46   D(3,7,12,13)           -0.9621         estimate D2E/DX2                !
 ! D47   D(8,7,12,11)           -1.685          estimate D2E/DX2                !
 ! D48   D(8,7,12,13)          179.2761         estimate D2E/DX2                !
 ! D49   D(7,8,9,6)             -3.0809         estimate D2E/DX2                !
 ! D50   D(7,8,9,32)           175.3285         estimate D2E/DX2                !
 ! D51   D(10,8,9,6)           172.5381         estimate D2E/DX2                !
 ! D52   D(10,8,9,32)           -9.0525         estimate D2E/DX2                !
 ! D53   D(7,8,10,18)           -4.7549         estimate D2E/DX2                !
 ! D54   D(7,8,10,23)          174.4235         estimate D2E/DX2                !
 ! D55   D(9,8,10,18)          179.5335         estimate D2E/DX2                !
 ! D56   D(9,8,10,23)           -1.2882         Frozen                          !
 ! D57   D(6,9,32,33)           88.461          estimate D2E/DX2                !
 ! D58   D(6,9,32,34)          -85.1014         estimate D2E/DX2                !
 ! D59   D(8,9,32,33)          -89.9805         Frozen                          !
 ! D60   D(8,9,32,34)           96.4571         estimate D2E/DX2                !
 ! D61   D(8,10,18,11)           0.7189         estimate D2E/DX2                !
 ! D62   D(8,10,18,24)        -179.4089         estimate D2E/DX2                !
 ! D63   D(23,10,18,11)       -178.5188         estimate D2E/DX2                !
 ! D64   D(23,10,18,24)          1.3535         estimate D2E/DX2                !
 ! D65   D(18,11,12,7)          -2.3856         estimate D2E/DX2                !
 ! D66   D(18,11,12,13)        176.6833         estimate D2E/DX2                !
 ! D67   D(22,11,12,7)         178.4862         estimate D2E/DX2                !
 ! D68   D(22,11,12,13)         -2.445          estimate D2E/DX2                !
 ! D69   D(12,11,18,10)          2.8444         estimate D2E/DX2                !
 ! D70   D(12,11,18,24)       -177.0251         estimate D2E/DX2                !
 ! D71   D(22,11,18,10)       -178.0181         estimate D2E/DX2                !
 ! D72   D(22,11,18,24)          2.1124         estimate D2E/DX2                !
 ! D73   D(7,12,13,14)           0.461          estimate D2E/DX2                !
 ! D74   D(7,12,13,16)        -179.8781         estimate D2E/DX2                !
 ! D75   D(11,12,13,14)       -178.6049         estimate D2E/DX2                !
 ! D76   D(11,12,13,16)          1.056          estimate D2E/DX2                !
 ! D77   D(12,13,14,4)           0.2708         estimate D2E/DX2                !
 ! D78   D(12,13,14,15)        179.7958         estimate D2E/DX2                !
 ! D79   D(16,13,14,4)        -179.3788         estimate D2E/DX2                !
 ! D80   D(16,13,14,15)          0.1463         estimate D2E/DX2                !
 ! D81   D(10,18,24,25)        -59.609          Frozen                          !
 ! D82   D(10,18,24,26)         59.2209         estimate D2E/DX2                !
 ! D83   D(10,18,24,27)        179.6858         estimate D2E/DX2                !
 ! D84   D(11,18,24,25)        120.2739         estimate D2E/DX2                !
 ! D85   D(11,18,24,26)       -120.8962         estimate D2E/DX2                !
 ! D86   D(11,18,24,27)         -0.4313         estimate D2E/DX2                !
 ! D87   D(1,19,28,29)         -58.1407         estimate D2E/DX2                !
 ! D88   D(1,19,28,30)          60.7668         Frozen                          !
 ! D89   D(1,19,28,31)        -178.7139         estimate D2E/DX2                !
 ! D90   D(5,19,28,29)         121.8132         estimate D2E/DX2                !
 ! D91   D(5,19,28,30)        -119.2792         estimate D2E/DX2                !
 ! D92   D(5,19,28,31)           1.2401         estimate D2E/DX2                !
 ! D93   D(9,32,33,35)        -174.198          estimate D2E/DX2                !
 ! D94   D(9,32,33,36)           6.273          estimate D2E/DX2                !
 ! D95   D(34,32,33,35)         -0.202          estimate D2E/DX2                !
 ! D96   D(34,32,33,36)       -179.731          estimate D2E/DX2                !
 ! D97   D(9,32,34,37)         175.3479         estimate D2E/DX2                !
 ! D98   D(33,32,34,37)          0.5266         estimate D2E/DX2                !
 ! D99   D(32,33,35,37)         -0.3529         estimate D2E/DX2                !
 ! D100  D(32,33,35,38)        179.7492         estimate D2E/DX2                !
 ! D101  D(36,33,35,37)        179.1713         estimate D2E/DX2                !
 ! D102  D(36,33,35,38)         -0.7265         estimate D2E/DX2                !
 ! D103  D(32,34,37,35)         -0.7085         estimate D2E/DX2                !
 ! D104  D(32,34,37,39)        177.8985         estimate D2E/DX2                !
 ! D105  D(33,35,37,34)          0.7342         estimate D2E/DX2                !
 ! D106  D(33,35,37,39)       -177.7884         estimate D2E/DX2                !
 ! D107  D(38,35,37,34)       -179.3599         estimate D2E/DX2                !
 ! D108  D(38,35,37,39)          2.1175         estimate D2E/DX2                !
 ! D109  D(33,35,38,40)          6.468          Frozen                          !
 ! D110  D(37,35,38,40)       -173.4255         estimate D2E/DX2                !
 ! D111  D(34,37,39,41)          2.9008         estimate D2E/DX2                !
 ! D112  D(34,37,39,42)       -177.1748         estimate D2E/DX2                !
 ! D113  D(35,37,39,41)       -178.7596         estimate D2E/DX2                !
 ! D114  D(35,37,39,42)          1.1648         estimate D2E/DX2                !
 ! D115  D(35,38,40,43)        175.4756         estimate D2E/DX2                !
 ! D116  D(35,38,40,44)        -65.783          estimate D2E/DX2                !
 ! D117  D(35,38,40,45)         56.3316         estimate D2E/DX2                !
 ! D118  D(37,39,41,46)        179.9761         estimate D2E/DX2                !
 ! D119  D(37,39,41,47)         -0.2136         estimate D2E/DX2                !
 ! D120  D(42,39,41,46)          0.0432         estimate D2E/DX2                !
 ! D121  D(42,39,41,47)        179.8535         estimate D2E/DX2                !
 ! D122  D(37,39,42,48)       -179.9602         estimate D2E/DX2                !
 ! D123  D(41,39,42,48)         -0.0237         estimate D2E/DX2                !
 ! D124  D(39,41,46,48)         -0.0455         estimate D2E/DX2                !
 ! D125  D(39,41,46,49)       -179.9465         estimate D2E/DX2                !
 ! D126  D(47,41,46,48)       -179.8396         estimate D2E/DX2                !
 ! D127  D(47,41,46,49)          0.2595         estimate D2E/DX2                !
 ! D128  D(39,41,47,50)        178.3952         estimate D2E/DX2                !
 ! D129  D(46,41,47,50)         -1.8202         Frozen                          !
 ! D130  D(39,42,48,46)         -0.0014         estimate D2E/DX2                !
 ! D131  D(39,42,48,51)        179.8731         estimate D2E/DX2                !
 ! D132  D(41,46,48,42)          0.026          estimate D2E/DX2                !
 ! D133  D(41,46,48,51)       -179.8369         estimate D2E/DX2                !
 ! D134  D(49,46,48,42)        179.9279         estimate D2E/DX2                !
 ! D135  D(49,46,48,51)          0.065          estimate D2E/DX2                !
 ! D136  D(41,47,50,52)         62.0354         estimate D2E/DX2                !
 ! D137  D(41,47,50,53)       -179.1424         estimate D2E/DX2                !
 ! D138  D(41,47,50,54)        -60.2787         estimate D2E/DX2                !
 --------------------------------------------------------------------------------
 Trust Radius=3.00D-01 FncErr=1.00D-07 GrdErr=1.00D-06 EigMax=2.50D+02 EigMin=1.00D-04
 Number of steps in this run=    307 maximum allowed number of steps=    324.
 GradGradGradGradGradGradGradGradGradGradGradGradGradGradGradGradGradGrad

 Stoichiometry    C26H18N2O6S2
 Framework group  C1[X(C26H18N2O6S2)]
 Deg. of freedom   156
 Full point group                 C1      NOp   1
 Largest Abelian subgroup         C1      NOp   1
 Largest concise Abelian subgroup C1      NOp   1
                         Standard orientation:                         
 ---------------------------------------------------------------------
 Center     Atomic      Atomic             Coordinates (Angstroms)
 Number     Number       Type             X           Y           Z
 ---------------------------------------------------------------------
      1          6           0        3.077783   -2.896322    0.145631
      2          6           0        2.535121   -1.512285    0.137321
      3          6           0        3.398803   -0.402313   -0.014232
      4          6           0        4.790222   -0.594934   -0.161083
      5          6           0        5.367454   -1.965564   -0.151673
      6          6           0        1.187067   -1.317818    0.302476
      7          6           0        2.834777    0.905553   -0.026362
      8          6           0        1.425899    1.101217    0.133903
      9          6           0        0.580136   -0.023362    0.336695
     10          6           0        0.907786    2.488211   -0.016458
     11          6           0        3.227587    3.383301   -0.276816
     12          6           0        3.728456    1.993797   -0.208494
     13          6           0        5.094624    1.786285   -0.347559
     14          6           0        5.633909    0.494574   -0.322093
     15          1           0        6.697687    0.321542   -0.432933
     16          1           0        5.727903    2.656238   -0.481922
     17          1           0        0.576113   -2.199508    0.456483
     18          7           0        1.840772    3.527106   -0.203258
     19          7           0        4.463901   -3.031019    0.001181
     20          8           0        2.370803   -3.886642    0.270558
     21          8           0        6.566933   -2.164263   -0.272478
     22          8           0        3.969814    4.349017   -0.405900
     23          8           0       -0.278467    2.791454   -0.003693
     24          6           0        1.276310    4.875220   -0.332217
     25          1           0        0.599647    4.913448   -1.187218
     26          1           0        0.704772    5.126597    0.564918
     27          1           0        2.104748    5.565769   -0.463957
     28          6           0        4.988491   -4.401116    0.014789
     29          1           0        4.711358   -4.891960    0.950119
     30          1           0        4.558384   -4.970223   -0.811470
     31          1           0        6.069222   -4.342977   -0.082882
     32          6           0       -0.856061   -0.020628    0.612445
     33          6           0       -1.546854    0.018196    1.807985
     34         16           0       -1.979258   -0.246806   -0.728397
     35          6           0       -2.940811   -0.124599    1.657534
     36          1           0       -1.059108    0.153286    2.760153
     37          6           0       -3.367295   -0.270561    0.334590
     38          8           0       -3.864987   -0.129460    2.654555
     39          6           0       -4.715403   -0.391209   -0.144707
     40          6           0       -3.412527    0.164354    3.973599
     41          6           0       -5.137437   -0.560442   -1.462023
     42         16           0       -6.120681   -0.343185    0.916161
     43          1           0       -4.304963    0.190015    4.597653
     44          1           0       -2.733664   -0.613467    4.341591
     45          1           0       -2.906808    1.136370    4.011182
     46          6           0       -6.550978   -0.648086   -1.614689
     47          8           0       -4.210867   -0.621859   -2.453717
     48          6           0       -7.201792   -0.546542   -0.414588
     49          1           0       -7.056843   -0.780541   -2.560472
     50          6           0       -4.670656   -0.830137   -3.785002
     51          1           0       -8.268020   -0.582752   -0.240016
     52          1           0       -5.317304   -0.008357   -4.115741
     53          1           0       -3.778282   -0.861860   -4.409552
     54          1           0       -5.212028   -1.779095   -3.874075
 ---------------------------------------------------------------------
 Rotational constants (GHZ):           0.1585003           0.0543896           0.0472564
 Standard basis: 6-311+G(d,p) (5D, 7F)
 There are   952 symmetry adapted cartesian basis functions of A   symmetry.
 There are   916 symmetry adapted basis functions of A   symmetry.
   916 basis functions,  1468 primitive gaussians,   952 cartesian basis functions
   134 alpha electrons      134 beta electrons
       nuclear repulsion energy      4076.8633767250 Hartrees.
 NAtoms=   54 NActive=   54 NUniq=   54 SFac= 1.00D+00 NAtFMM=   60 NAOKFM=F Big=F
 Integral buffers will be    131072 words long.
 Raffenetti 2 integral format.
 Two-electron integral symmetry is turned on.
 Nuclear repulsion after empirical dispersion term =     4076.8228535765 Hartrees.
 One-electron integrals computed using PRISM.
 NBasis=   916 RedAO= T EigKep=  1.48D-06  NBF=   916
 NBsUse=   901 1.00D-06 EigRej=  9.77D-07 NBFU=   901
 ExpMin= 4.05D-02 ExpMax= 9.34D+04 ExpMxC= 3.17D+03 IAcc=3 IRadAn=         5 AccDes= 0.00D+00
 Harris functional with IExCor= 4639 and IRadAn=       5 diagonalized for initial guess.
 HarFok:  IExCor= 4639 AccDes= 0.00D+00 IRadAn=         5 IDoV= 1 UseB2=F ITyADJ=14
 ICtDFT=  3500011 ScaDFX=  1.000000  1.000000  1.000000  1.000000
 FoFCou: FMM=F IPFlag=           0 FMFlag=      100000 FMFlg1=           0
         NFxFlg=           0 DoJE=T BraDBF=F KetDBF=T FulRan=T
         wScrn=  0.000000 ICntrl=       500 IOpCl=  0 I1Cent=   200000004 NGrid=           0
         NMat0=    1 NMatS0=      1 NMatT0=    0 NMatD0=    1 NMtDS0=    0 NMtDT0=    0
 Petite list used in FoFCou.
 Requested convergence on RMS density matrix=1.00D-08 within 128 cycles.
 Requested convergence on MAX density matrix=1.00D-06.
 Requested convergence on             energy=1.00D-06.
 No special actions if energy rises.
 SCF Done:  E(RwB97XD) =  -2358.76465152     A.U. after   19 cycles
            NFock= 19  Conv=0.33D-08     -V/T= 2.0032

 **********************************************************************

            Population analysis using the SCF Density.

 **********************************************************************

 Orbital symmetries:
       Occupied  (A) (A) (A) (A) (A) (A) (A) (A) (A) (A) (A) (A)
                 (A) (A) (A) (A) (A) (A) (A) (A) (A) (A) (A) (A)
                 (A) (A) (A) (A) (A) (A) (A) (A) (A) (A) (A) (A)
                 (A) (A) (A) (A) (A) (A) (A) (A) (A) (A) (A) (A)
                 (A) (A) (A) (A) (A) (A) (A) (A) (A) (A) (A) (A)
                 (A) (A) (A) (A) (A) (A) (A) (A) (A) (A) (A) (A)
                 (A) (A) (A) (A) (A) (A) (A) (A) (A) (A) (A) (A)
                 (A) (A) (A) (A) (A) (A) (A) (A) (A) (A) (A) (A)
                 (A) (A) (A) (A) (A) (A) (A) (A) (A) (A) (A) (A)
                 (A) (A) (A) (A) (A) (A) (A) (A) (A) (A) (A) (A)
                 (A) (A) (A) (A) (A) (A) (A) (A) (A) (A) (A) (A)
                 (A) (A)
       Virtual   (A) (A) (A) (A) (A) (A) (A) (A) (A) (A) (A) (A)
                 (A) (A) (A) (A) (A) (A) (A) (A) (A) (A) (A) (A)
                 (A) (A) (A) (A) (A) (A) (A) (A) (A) (A) (A) (A)
                 (A) (A) (A) (A) (A) (A) (A) (A) (A) (A) (A) (A)
                 (A) (A) (A) (A) (A) (A) (A) (A) (A) (A) (A) (A)
                 (A) (A) (A) (A) (A) (A) (A) (A) (A) (A) (A) (A)
                 (A) (A) (A) (A) (A) (A) (A) (A) (A) (A) (A) (A)
                 (A) (A) (A) (A) (A) (A) (A) (A) (A) (A) (A) (A)
                 (A) (A) (A) (A) (A) (A) (A) (A) (A) (A) (A) (A)
                 (A) (A) (A) (A) (A) (A) (A) (A) (A) (A) (A) (A)
                 (A) (A) (A) (A) (A) (A) (A) (A) (A) (A) (A) (A)
                 (A) (A) (A) (A) (A) (A) (A) (A) (A) (A) (A) (A)
                 (A) (A) (A) (A) (A) (A) (A) (A) (A) (A) (A) (A)
                 (A) (A) (A) (A) (A) (A) (A) (A) (A) (A) (A) (A)
                 (A) (A) (A) (A) (A) (A) (A) (A) (A) (A) (A) (A)
                 (A) (A) (A) (A) (A) (A) (A) (A) (A) (A) (A) (A)
                 (A) (A) (A) (A) (A) (A) (A) (A) (A) (A) (A) (A)
                 (A) (A) (A) (A) (A) (A) (A) (A) (A) (A) (A) (A)
                 (A) (A) (A) (A) (A) (A) (A) (A) (A) (A) (A) (A)
                 (A) (A) (A) (A) (A) (A) (A) (A) (A) (A) (A) (A)
                 (A) (A) (A) (A) (A) (A) (A) (A) (A) (A) (A) (A)
                 (A) (A) (A) (A) (A) (A) (A) (A) (A) (A) (A) (A)
                 (A) (A) (A) (A) (A) (A) (A) (A) (A) (A) (A) (A)
                 (A) (A) (A) (A) (A) (A) (A) (A) (A) (A) (A) (A)
                 (A) (A) (A) (A) (A) (A) (A) (A) (A) (A) (A) (A)
                 (A) (A) (A) (A) (A) (A) (A) (A) (A) (A) (A) (A)
                 (A) (A) (A) (A) (A) (A) (A) (A) (A) (A) (A) (A)
                 (A) (A) (A) (A) (A) (A) (A) (A) (A) (A) (A) (A)
                 (A) (A) (A) (A) (A) (A) (A) (A) (A) (A) (A) (A)
                 (A) (A) (A) (A) (A) (A) (A) (A) (A) (A) (A) (A)
                 (A) (A) (A) (A) (A) (A) (A) (A) (A) (A) (A) (A)
                 (A) (A) (A) (A) (A) (A) (A) (A) (A) (A) (A) (A)
                 (A) (A) (A) (A) (A) (A) (A) (A) (A) (A) (A) (A)
                 (A) (A) (A) (A) (A) (A) (A) (A) (A) (A) (A) (A)
                 (A) (A) (A) (A) (A) (A) (A) (A) (A) (A) (A) (A)
                 (A) (A) (A) (A) (A) (A) (A) (A) (A) (A) (A) (A)
                 (A) (A) (A) (A) (A) (A) (A) (A) (A) (A) (A) (A)
                 (A) (A) (A) (A) (A) (A) (A) (A) (A) (A) (A) (A)
                 (A) (A) (A) (A) (A) (A) (A) (A) (A) (A) (A) (A)
                 (A) (A) (A) (A) (A) (A) (A) (A) (A) (A) (A) (A)
                 (A) (A) (A) (A) (A) (A) (A) (A) (A) (A) (A) (A)
                 (A) (A) (A) (A) (A) (A) (A) (A) (A) (A) (A) (A)
                 (A) (A) (A) (A) (A) (A) (A) (A) (A) (A) (A) (A)
                 (A) (A) (A) (A) (A) (A) (A) (A) (A) (A) (A) (A)
                 (A) (A) (A) (A) (A) (A) (A) (A) (A) (A) (A) (A)
                 (A) (A) (A) (A) (A) (A) (A) (A) (A) (A) (A) (A)
                 (A) (A) (A) (A) (A) (A) (A) (A) (A) (A) (A) (A)
                 (A) (A) (A) (A) (A) (A) (A) (A) (A) (A) (A) (A)
                 (A) (A) (A) (A) (A) (A) (A) (A) (A) (A) (A) (A)
                 (A) (A) (A) (A) (A) (A) (A) (A) (A) (A) (A) (A)
                 (A) (A) (A) (A) (A) (A) (A) (A) (A) (A) (A) (A)
                 (A) (A) (A) (A) (A) (A) (A) (A) (A) (A) (A) (A)
                 (A) (A) (A) (A) (A) (A) (A) (A) (A) (A) (A) (A)
                 (A) (A) (A) (A) (A) (A) (A) (A) (A) (A) (A) (A)
                 (A) (A) (A) (A) (A) (A) (A) (A) (A) (A) (A) (A)
                 (A) (A) (A) (A) (A) (A) (A) (A) (A) (A) (A) (A)
                 (A) (A) (A) (A) (A) (A) (A) (A) (A) (A) (A) (A)
                 (A) (A) (A) (A) (A) (A) (A) (A) (A) (A) (A) (A)
                 (A) (A) (A) (A) (A) (A) (A) (A) (A) (A) (A) (A)
                 (A) (A) (A) (A) (A) (A) (A) (A) (A) (A) (A) (A)
                 (A) (A) (A) (A) (A) (A) (A) (A) (A) (A) (A) (A)
                 (A) (A) (A) (A) (A) (A) (A) (A) (A) (A) (A) (A)
                 (A) (A) (A) (A) (A) (A) (A) (A) (A) (A) (A) (A)
                 (A) (A) (A) (A) (A) (A) (A) (A) (A) (A) (A)
 The electronic state is 1-A.
 Alpha  occ. eigenvalues --  -89.04561 -89.04269 -19.28636 -19.28628 -19.25443
 Alpha  occ. eigenvalues --  -19.25338 -19.24951 -19.24861 -14.51068 -14.50604
 Alpha  occ. eigenvalues --  -10.43421 -10.43150 -10.43012 -10.42850 -10.36126
 Alpha  occ. eigenvalues --  -10.35644 -10.35327 -10.35087 -10.35081 -10.34982
 Alpha  occ. eigenvalues --  -10.34580 -10.34488 -10.34412 -10.34398 -10.34382
 Alpha  occ. eigenvalues --  -10.33544 -10.33401 -10.33392 -10.33323 -10.32523
 Alpha  occ. eigenvalues --  -10.32423 -10.32150 -10.32068 -10.31486 -10.29979
 Alpha  occ. eigenvalues --  -10.29401  -8.08482  -8.08223  -6.03347  -6.03072
 Alpha  occ. eigenvalues --   -6.02949  -6.02681  -6.02544  -6.02309  -1.19155
 Alpha  occ. eigenvalues --   -1.18736  -1.17863  -1.17782  -1.17185  -1.16667
 Alpha  occ. eigenvalues --   -1.06718  -1.06140  -1.03211  -0.99686  -0.98195
 Alpha  occ. eigenvalues --   -0.96794  -0.94978  -0.90577  -0.89010  -0.86999
 Alpha  occ. eigenvalues --   -0.85497  -0.85325  -0.84166  -0.82592  -0.82233
 Alpha  occ. eigenvalues --   -0.81551  -0.79360  -0.78185  -0.76935  -0.75790
 Alpha  occ. eigenvalues --   -0.75235  -0.74308  -0.70126  -0.68681  -0.67864
 Alpha  occ. eigenvalues --   -0.66891  -0.65613  -0.64580  -0.64401  -0.62986
 Alpha  occ. eigenvalues --   -0.62762  -0.60927  -0.59696  -0.59049  -0.59032
 Alpha  occ. eigenvalues --   -0.57810  -0.57760  -0.57425  -0.56832  -0.56513
 Alpha  occ. eigenvalues --   -0.56346  -0.56096  -0.55527  -0.55245  -0.54167
 Alpha  occ. eigenvalues --   -0.53905  -0.53496  -0.53379  -0.53053  -0.52517
 Alpha  occ. eigenvalues --   -0.51506  -0.51251  -0.50913  -0.50333  -0.50010
 Alpha  occ. eigenvalues --   -0.49697  -0.49496  -0.49305  -0.48946  -0.48360
 Alpha  occ. eigenvalues --   -0.48110  -0.46756  -0.46675  -0.45937  -0.45116
 Alpha  occ. eigenvalues --   -0.43849  -0.43702  -0.41934  -0.41259  -0.41027
 Alpha  occ. eigenvalues --   -0.40820  -0.40381  -0.39809  -0.38750  -0.37568
 Alpha  occ. eigenvalues --   -0.37533  -0.36969  -0.36848  -0.35969  -0.35187
 Alpha  occ. eigenvalues --   -0.33471  -0.31583  -0.31207  -0.25113
 Alpha virt. eigenvalues --   -0.07899  -0.00509   0.00279   0.01591   0.02054
 Alpha virt. eigenvalues --    0.04978   0.05936   0.06172   0.06590   0.06803
 Alpha virt. eigenvalues --    0.07189   0.07377   0.07565   0.07665   0.07878
 Alpha virt. eigenvalues --    0.07951   0.08339   0.08772   0.08967   0.09131
 Alpha virt. eigenvalues --    0.09387   0.09467   0.09737   0.10018   0.10267
 Alpha virt. eigenvalues --    0.10594   0.11121   0.11222   0.11514   0.11680
 Alpha virt. eigenvalues --    0.11923   0.12066   0.12168   0.12543   0.12910
 Alpha virt. eigenvalues --    0.13134   0.13461   0.13656   0.13976   0.14316
 Alpha virt. eigenvalues --    0.14529   0.14747   0.15071   0.15354   0.15464
 Alpha virt. eigenvalues --    0.15665   0.15798   0.16265   0.16605   0.16830
 Alpha virt. eigenvalues --    0.17007   0.17344   0.17578   0.17881   0.18376
 Alpha virt. eigenvalues --    0.18423   0.18852   0.18895   0.19120   0.19392
 Alpha virt. eigenvalues --    0.19771   0.19888   0.20062   0.20393   0.20594
 Alpha virt. eigenvalues --    0.20696   0.20796   0.21119   0.21245   0.21602
 Alpha virt. eigenvalues --    0.21892   0.21949   0.22291   0.22367   0.22568
 Alpha virt. eigenvalues --    0.22861   0.23427   0.23492   0.23724   0.24039
 Alpha virt. eigenvalues --    0.24293   0.24486   0.24603   0.24793   0.24858
 Alpha virt. eigenvalues --    0.25149   0.25498   0.25717   0.25860   0.26150
 Alpha virt. eigenvalues --    0.26229   0.26353   0.26477   0.26596   0.26735
 Alpha virt. eigenvalues --    0.26899   0.27088   0.27446   0.27636   0.27857
 Alpha virt. eigenvalues --    0.27995   0.28140   0.28469   0.28593   0.28841
 Alpha virt. eigenvalues --    0.28885   0.29218   0.29381   0.29590   0.29744
 Alpha virt. eigenvalues --    0.29993   0.30411   0.30615   0.30708   0.30873
 Alpha virt. eigenvalues --    0.30968   0.31055   0.31353   0.31556   0.31809
 Alpha virt. eigenvalues --    0.31877   0.32146   0.32213   0.32506   0.32831
 Alpha virt. eigenvalues --    0.32988   0.33394   0.33455   0.33630   0.33934
 Alpha virt. eigenvalues --    0.34136   0.34439   0.34539   0.34723   0.34918
 Alpha virt. eigenvalues --    0.35126   0.35233   0.35600   0.35835   0.36002
 Alpha virt. eigenvalues --    0.36344   0.36445   0.36827   0.37296   0.37328
 Alpha virt. eigenvalues --    0.37465   0.37703   0.37970   0.38375   0.38647
 Alpha virt. eigenvalues --    0.38821   0.39087   0.39394   0.39602   0.39806
 Alpha virt. eigenvalues --    0.40195   0.40438   0.40831   0.41197   0.41361
 Alpha virt. eigenvalues --    0.41508   0.41674   0.42223   0.42679   0.42885
 Alpha virt. eigenvalues --    0.42985   0.43605   0.44093   0.44557   0.44879
 Alpha virt. eigenvalues --    0.45310   0.45620   0.45710   0.46170   0.46462
 Alpha virt. eigenvalues --    0.47001   0.47604   0.48465   0.48617   0.49052
 Alpha virt. eigenvalues --    0.49421   0.49621   0.49809   0.50591   0.51046
 Alpha virt. eigenvalues --    0.51847   0.52111   0.52626   0.52843   0.52950
 Alpha virt. eigenvalues --    0.52983   0.53573   0.53650   0.54212   0.54494
 Alpha virt. eigenvalues --    0.55299   0.55614   0.56031   0.57129   0.57289
 Alpha virt. eigenvalues --    0.57456   0.57908   0.58082   0.58415   0.59522
 Alpha virt. eigenvalues --    0.59863   0.60569   0.61236   0.61520   0.62156
 Alpha virt. eigenvalues --    0.62378   0.62908   0.63334   0.63678   0.64160
 Alpha virt. eigenvalues --    0.64418   0.64679   0.64970   0.65068   0.65613
 Alpha virt. eigenvalues --    0.66235   0.66555   0.66983   0.67221   0.67611
 Alpha virt. eigenvalues --    0.67950   0.68548   0.68916   0.69123   0.69717
 Alpha virt. eigenvalues --    0.70111   0.70337   0.70759   0.71168   0.71654
 Alpha virt. eigenvalues --    0.71935   0.72100   0.72221   0.72736   0.73294
 Alpha virt. eigenvalues --    0.73592   0.73815   0.74029   0.74208   0.74981
 Alpha virt. eigenvalues --    0.75317   0.75943   0.76295   0.76374   0.76865
 Alpha virt. eigenvalues --    0.76941   0.77893   0.78188   0.78320   0.78717
 Alpha virt. eigenvalues --    0.79233   0.79461   0.79821   0.80321   0.80608
 Alpha virt. eigenvalues --    0.81292   0.81805   0.81893   0.82314   0.82444
 Alpha virt. eigenvalues --    0.82965   0.83296   0.83451   0.83664   0.83811
 Alpha virt. eigenvalues --    0.83911   0.84344   0.84943   0.85035   0.85507
 Alpha virt. eigenvalues --    0.85923   0.86372   0.86436   0.86743   0.87469
 Alpha virt. eigenvalues --    0.87988   0.88240   0.88638   0.89578   0.90921
 Alpha virt. eigenvalues --    0.91245   0.91749   0.92801   0.93290   0.93985
 Alpha virt. eigenvalues --    0.94421   0.95085   0.95699   0.95845   0.96474
 Alpha virt. eigenvalues --    0.96654   0.97128   0.97916   0.98492   0.99284
 Alpha virt. eigenvalues --    0.99577   1.00053   1.00627   1.00695   1.01429
 Alpha virt. eigenvalues --    1.01867   1.02305   1.02493   1.02857   1.03423
 Alpha virt. eigenvalues --    1.03453   1.04188   1.04684   1.05061   1.05611
 Alpha virt. eigenvalues --    1.06157   1.06829   1.07701   1.08519   1.08857
 Alpha virt. eigenvalues --    1.09284   1.09425   1.09919   1.10107   1.10762
 Alpha virt. eigenvalues --    1.11754   1.12036   1.12105   1.12320   1.13076
 Alpha virt. eigenvalues --    1.13404   1.13579   1.13974   1.13997   1.14548
 Alpha virt. eigenvalues --    1.15080   1.15865   1.16102   1.16444   1.16529
 Alpha virt. eigenvalues --    1.17300   1.17895   1.18696   1.19054   1.19548
 Alpha virt. eigenvalues --    1.19752   1.20276   1.21567   1.22449   1.22501
 Alpha virt. eigenvalues --    1.23678   1.24274   1.25279   1.26026   1.26295
 Alpha virt. eigenvalues --    1.26750   1.26984   1.27713   1.28675   1.29611
 Alpha virt. eigenvalues --    1.30373   1.30854   1.32663   1.33763   1.33958
 Alpha virt. eigenvalues --    1.34283   1.34323   1.34671   1.35100   1.35901
 Alpha virt. eigenvalues --    1.36161   1.36963   1.37919   1.38625   1.39972
 Alpha virt. eigenvalues --    1.40875   1.41441   1.42156   1.42449   1.43758
 Alpha virt. eigenvalues --    1.44439   1.44977   1.45537   1.46079   1.47801
 Alpha virt. eigenvalues --    1.48983   1.49128   1.49990   1.50766   1.51332
 Alpha virt. eigenvalues --    1.51504   1.51591   1.51977   1.52565   1.52826
 Alpha virt. eigenvalues --    1.53135   1.53199   1.53232   1.53992   1.54280
 Alpha virt. eigenvalues --    1.55011   1.55136   1.55383   1.56488   1.58028
 Alpha virt. eigenvalues --    1.58484   1.58946   1.59635   1.60296   1.60619
 Alpha virt. eigenvalues --    1.61311   1.62121   1.62455   1.62640   1.63260
 Alpha virt. eigenvalues --    1.63749   1.63859   1.64529   1.65132   1.66424
 Alpha virt. eigenvalues --    1.67302   1.67725   1.68340   1.69373   1.69987
 Alpha virt. eigenvalues --    1.70657   1.71190   1.71692   1.72369   1.73079
 Alpha virt. eigenvalues --    1.73402   1.74190   1.74747   1.75346   1.75740
 Alpha virt. eigenvalues --    1.76061   1.76923   1.77789   1.77951   1.78321
 Alpha virt. eigenvalues --    1.78896   1.79154   1.79249   1.79382   1.80389
 Alpha virt. eigenvalues --    1.81607   1.82383   1.82513   1.83287   1.83832
 Alpha virt. eigenvalues --    1.85248   1.85503   1.86225   1.87033   1.87912
 Alpha virt. eigenvalues --    1.87928   1.89358   1.89659   1.90298   1.91092
 Alpha virt. eigenvalues --    1.91691   1.93407   1.93585   1.94217   1.94702
 Alpha virt. eigenvalues --    1.94877   1.95473   1.96162   1.96596   1.97756
 Alpha virt. eigenvalues --    1.98184   1.98413   1.98797   1.99087   1.99879
 Alpha virt. eigenvalues --    2.00589   2.00986   2.02521   2.03084   2.03804
 Alpha virt. eigenvalues --    2.04009   2.04927   2.05581   2.06281   2.07620
 Alpha virt. eigenvalues --    2.08135   2.09277   2.09680   2.10404   2.10701
 Alpha virt. eigenvalues --    2.11416   2.12377   2.12698   2.13222   2.14081
 Alpha virt. eigenvalues --    2.14661   2.14925   2.15711   2.16487   2.16875
 Alpha virt. eigenvalues --    2.17150   2.18261   2.19724   2.20213   2.20681
 Alpha virt. eigenvalues --    2.21086   2.21820   2.22746   2.23511   2.24265
 Alpha virt. eigenvalues --    2.24530   2.24951   2.25844   2.26467   2.27055
 Alpha virt. eigenvalues --    2.27939   2.28866   2.29140   2.30469   2.30942
 Alpha virt. eigenvalues --    2.31737   2.33923   2.34957   2.35827   2.36372
 Alpha virt. eigenvalues --    2.40104   2.40604   2.41221   2.42874   2.44326
 Alpha virt. eigenvalues --    2.46119   2.48070   2.48351   2.50841   2.52514
 Alpha virt. eigenvalues --    2.52688   2.53140   2.53788   2.54450   2.55058
 Alpha virt. eigenvalues --    2.55893   2.56717   2.57306   2.58398   2.58969
 Alpha virt. eigenvalues --    2.60021   2.60547   2.61430   2.61707   2.61765
 Alpha virt. eigenvalues --    2.62245   2.62583   2.63182   2.64562   2.65161
 Alpha virt. eigenvalues --    2.66602   2.67213   2.68021   2.68493   2.69474
 Alpha virt. eigenvalues --    2.70246   2.72884   2.73323   2.73462   2.73984
 Alpha virt. eigenvalues --    2.75806   2.76505   2.77402   2.77897   2.78088
 Alpha virt. eigenvalues --    2.78602   2.79076   2.79606   2.80413   2.80673
 Alpha virt. eigenvalues --    2.81407   2.82175   2.83499   2.83890   2.84434
 Alpha virt. eigenvalues --    2.85475   2.87147   2.88475   2.89732   2.90235
 Alpha virt. eigenvalues --    2.91718   2.92122   2.92851   2.93044   2.93973
 Alpha virt. eigenvalues --    2.94318   2.94598   2.95082   2.95155   2.96347
 Alpha virt. eigenvalues --    2.97239   2.97830   2.98077   2.98371   2.99488
 Alpha virt. eigenvalues --    3.00791   3.01228   3.02143   3.03028   3.04178
 Alpha virt. eigenvalues --    3.05051   3.05796   3.07530   3.08602   3.09035
 Alpha virt. eigenvalues --    3.10742   3.11442   3.13476   3.14210   3.14747
 Alpha virt. eigenvalues --    3.15692   3.16615   3.18141   3.18204   3.20145
 Alpha virt. eigenvalues --    3.20695   3.22862   3.23347   3.24222   3.25964
 Alpha virt. eigenvalues --    3.26536   3.27475   3.29125   3.30077   3.32197
 Alpha virt. eigenvalues --    3.33485   3.33533   3.33834   3.34497   3.36285
 Alpha virt. eigenvalues --    3.38191   3.39299   3.41000   3.42413   3.42500
 Alpha virt. eigenvalues --    3.43026   3.43207   3.44030   3.45174   3.46097
 Alpha virt. eigenvalues --    3.48099   3.48772   3.51020   3.51485   3.53025
 Alpha virt. eigenvalues --    3.53627   3.54595   3.56458   3.57731   3.58928
 Alpha virt. eigenvalues --    3.59815   3.63328   3.66381   3.66703   3.68462
 Alpha virt. eigenvalues --    3.69365   3.70985   3.74044   3.75053   3.75950
 Alpha virt. eigenvalues --    3.78340   3.80084   3.81774   3.82494   3.86239
 Alpha virt. eigenvalues --    3.86490   3.86685   3.91239   3.92403   3.94553
 Alpha virt. eigenvalues --    3.94793   3.95714   3.99308   4.01659   4.02333
 Alpha virt. eigenvalues --    4.03552   4.04473   4.06629   4.10573   4.13313
 Alpha virt. eigenvalues --    4.14254   4.18398   4.20936   4.21717   4.24395
 Alpha virt. eigenvalues --    4.28561   4.33285   4.34554   4.37284   4.44448
 Alpha virt. eigenvalues --    4.47500   4.49179   4.59944   4.76369   4.93159
 Alpha virt. eigenvalues --    4.94973   4.97063   5.00152   5.13803   5.14545
 Alpha virt. eigenvalues --    5.14900   5.15974   5.16447   5.18666   5.21142
 Alpha virt. eigenvalues --    5.22720   5.35551   5.37256   5.39308   5.41444
 Alpha virt. eigenvalues --    5.53790   5.55342   5.85909   5.88205   5.90496
 Alpha virt. eigenvalues --    5.91764   5.92289   5.95954   8.13869   8.17275
 Alpha virt. eigenvalues --   17.43805  17.48768  17.64273  17.67443  17.70700
 Alpha virt. eigenvalues --   17.77912  23.61786  23.70099  23.86001  23.91863
 Alpha virt. eigenvalues --   23.94523  23.95622  23.96545  23.98695  23.98976
 Alpha virt. eigenvalues --   24.00091  24.03005  24.03932  24.04801  24.05370
 Alpha virt. eigenvalues --   24.07466  24.07780  24.08702  24.10291  24.12230
 Alpha virt. eigenvalues --   24.16079  24.16672  24.16933  24.25012  24.26032
 Alpha virt. eigenvalues --   24.26552  24.28256  35.68773  35.71674  50.10935
 Alpha virt. eigenvalues --   50.11948  50.15242  50.16943  50.19020  50.20505
 Alpha virt. eigenvalues --  189.39233 189.43776
          Condensed to atoms (all electrons):
 Mulliken charges:
               1
     1  C    0.426508
     2  C   -0.027798
     3  C    0.149642
     4  C    0.243196
     5  C    0.280376
     6  C   -0.786744
     7  C    0.164814
     8  C    0.042826
     9  C    0.501187
    10  C   -0.348671
    11  C    0.223476
    12  C    0.231398
    13  C   -0.593673
    14  C   -0.734426
    15  H    0.191643
    16  H    0.193132
    17  H    0.205433
    18  N   -0.099134
    19  N   -0.091090
    20  O   -0.261741
    21  O   -0.269351
    22  O   -0.274418
    23  O   -0.141991
    24  C   -0.289779
    25  H    0.196861
    26  H    0.193349
    27  H    0.200753
    28  C   -0.278223
    29  H    0.193701
    30  H    0.194941
    31  H    0.200106
    32  C    0.113128
    33  C   -0.247955
    34  S   -0.112380
    35  C    0.054383
    36  H    0.141211
    37  C    0.098524
    38  O   -0.117885
    39  C    0.770063
    40  C   -0.295384
    41  C    0.085692
    42  S   -0.318944
    43  H    0.183168
    44  H    0.158693
    45  H    0.170059
    46  C   -0.529630
    47  O   -0.132274
    48  C   -0.395946
    49  H    0.154752
    50  C   -0.297341
    51  H    0.185662
    52  H    0.158383
    53  H    0.179601
    54  H    0.158115
 Sum of Mulliken charges =  -0.00000
 Mulliken charges with hydrogens summed into heavy atoms:
               1
     1  C    0.426508
     2  C   -0.027798
     3  C    0.149642
     4  C    0.243196
     5  C    0.280376
     6  C   -0.581311
     7  C    0.164814
     8  C    0.042826
     9  C    0.501187
    10  C   -0.348671
    11  C    0.223476
    12  C    0.231398
    13  C   -0.400542
    14  C   -0.542783
    18  N   -0.099134
    19  N   -0.091090
    20  O   -0.261741
    21  O   -0.269351
    22  O   -0.274418
    23  O   -0.141991
    24  C    0.301185
    28  C    0.310525
    32  C    0.113128
    33  C   -0.106744
    34  S   -0.112380
    35  C    0.054383
    37  C    0.098524
    38  O   -0.117885
    39  C    0.770063
    40  C    0.216536
    41  C    0.085692
    42  S   -0.318944
    46  C   -0.374878
    47  O   -0.132274
    48  C   -0.210284
    50  C    0.198758
 Electronic spatial extent (au):  <R**2>=          22376.6438
 Charge=             -0.0000 electrons
 Dipole moment (field-independent basis, Debye):
    X=             -1.2127    Y=             -0.1283    Z=              0.0631  Tot=              1.2211
 Quadrupole moment (field-independent basis, Debye-Ang):
   XX=           -217.4907   YY=           -232.5671   ZZ=           -194.1855
   XY=             -1.8813   XZ=              9.0702   YZ=              4.7555
 Traceless Quadrupole moment (field-independent basis, Debye-Ang):
   XX=             -2.7429   YY=            -17.8193   ZZ=             20.5622
   XY=             -1.8813   XZ=              9.0702   YZ=              4.7555
 Octapole moment (field-independent basis, Debye-Ang**2):
  XXX=           -274.4534  YYY=             -8.8703  ZZZ=              5.6215  XYY=            -13.5059
  XXY=            -35.5729  XXZ=            -56.7098  XZZ=            -97.1175  YZZ=             -6.4902
  YYZ=             -4.5115  XYZ=            -18.9925
 Hexadecapole moment (field-independent basis, Debye-Ang**3):
 XXXX=         -21119.8719 YYYY=          -6023.6675 ZZZZ=          -2126.1918 XXXY=            294.9062
 XXXZ=            445.1088 YYYX=           -514.9199 YYYZ=             36.3867 ZZZX=             57.0594
 ZZZY=             60.6947 XXYY=          -4871.1912 XXZZ=          -3618.3766 YYZZ=          -1397.7807
 XXYZ=             82.1241 YYXZ=             35.8684 ZZXY=              7.0166
 N-N= 4.076822853577D+03 E-N=-1.369275445300D+04  KE= 2.351128430901D+03
 Calling FoFJK, ICntrl=      2127 FMM=F ISym2X=0 I1Cent= 0 IOpClX= 0 NMat=1 NMatS=1 NMatT=0.
 ***** Axes restored to original set *****
 -------------------------------------------------------------------
 Center     Atomic                   Forces (Hartrees/Bohr)
 Number     Number              X              Y              Z
 -------------------------------------------------------------------
      1        6           0.007354496   -0.014757176   -0.001636491
      2        6          -0.000000121    0.005414207    0.000458884
      3        6           0.005726286    0.002386542    0.000072134
      4        6          -0.005254676    0.007688308    0.001447949
      5        6          -0.011399834   -0.010032345   -0.001158585
      6        6          -0.000642675    0.004888357   -0.003455861
      7        6          -0.002964328   -0.004620861    0.000768594
      8        6           0.008754961   -0.018007243   -0.000087684
      9        6          -0.032084197    0.000874890   -0.002543600
     10        6           0.020611063    0.019403853    0.003013152
     11        6          -0.005678705    0.016511506    0.002481050
     12        6          -0.006371437   -0.006428258   -0.000870596
     13        6           0.008600964    0.003270069    0.000209986
     14        6           0.008655341   -0.006697038   -0.001112774
     15        1           0.000313299    0.000520326    0.000025250
     16        1           0.000440500   -0.000896337   -0.000182506
     17        1           0.002477327    0.001717583    0.001487984
     18        7          -0.002331241   -0.002241250   -0.001234344
     19        7           0.000024928    0.002501038    0.000187229
     20        8          -0.014853300    0.015445980    0.002045466
     21        8           0.018282927    0.006638648    0.000591148
     22        8           0.014967716   -0.015242075   -0.002170962
     23        8          -0.019408547   -0.016276460   -0.005418159
     24        6           0.001034275   -0.001416357   -0.001469807
     25        1          -0.000901530   -0.000458852   -0.000415044
     26        1          -0.001496287   -0.001016608    0.001051967
     27        1           0.000785874    0.000063059    0.000081600
     28        6           0.001135322    0.001743257   -0.000117174
     29        1          -0.000837671    0.000864642    0.000937519
     30        1          -0.000600589    0.000886460   -0.000351448
     31        1           0.000674802   -0.000309457   -0.000028469
     32        6           0.032909051    0.008840824    0.008755178
     33        6          -0.018990417   -0.003004399    0.009052555
     34       16          -0.005641132    0.001995645   -0.013953418
     35        6           0.012239626   -0.000848029    0.017656439
     36        1          -0.001971756   -0.000366323   -0.001755280
     37        6          -0.014335869    0.002153136   -0.016900523
     38        8          -0.005557239    0.001652534   -0.005161424
     39        6           0.015566568   -0.001367534    0.011359581
     40        6           0.000734713   -0.001580074    0.006240124
     41        6          -0.003478878    0.001769463   -0.009943998
     42       16          -0.003806052   -0.002724991    0.010315145
     43        1          -0.000614857   -0.000095471    0.000488385
     44        1           0.000506970   -0.000094367    0.000596064
     45        1           0.001156052   -0.000259877    0.000472663
     46        6           0.000550993    0.001364490   -0.006493013
     47        8           0.004125981   -0.000683401    0.003986307
     48        6          -0.006616123   -0.000905025    0.000744509
     49        1           0.000301194    0.000103762   -0.000183098
     50        6          -0.000300688    0.001530825   -0.005387213
     51        1          -0.001156276   -0.000109025    0.000016414
     52        1          -0.000702020   -0.000397336   -0.001027880
     53        1           0.000657862    0.000268376   -0.000762305
     54        1          -0.000592646    0.000338390   -0.000721620
 -------------------------------------------------------------------
 Cartesian Forces:  Max     0.032909051 RMS     0.007604467

 GradGradGradGradGradGradGradGradGradGradGradGradGradGradGradGradGradGrad
 Berny optimization.
 FormGI is forming the generalized inverse of G from B-inverse, IUseBI=4.
 Internal  Forces:  Max     0.029859376 RMS     0.004648207
 Search for a local minimum.
 Step number   1 out of a maximum of  307
 All quantities printed in internal units (Hartrees-Bohrs-Radians)
 Mixed Optimization -- RFO/linear search
 Second derivative matrix not updated -- first step.
 ITU=  0
     Eigenvalues ---    0.01155   0.01172   0.01239   0.01297   0.01360
     Eigenvalues ---    0.01377   0.01397   0.01410   0.01453   0.01471
     Eigenvalues ---    0.01513   0.01544   0.01567   0.01590   0.01614
     Eigenvalues ---    0.01652   0.01679   0.01692   0.01715   0.01719
     Eigenvalues ---    0.01721   0.01763   0.01799   0.01845   0.01971
     Eigenvalues ---    0.02039   0.02049   0.02073   0.02089   0.02096
     Eigenvalues ---    0.02133   0.02149   0.02162   0.02178   0.02197
     Eigenvalues ---    0.02246   0.04601   0.04620   0.07665   0.07667
     Eigenvalues ---    0.10060   0.10076   0.10635   0.10636   0.15983
     Eigenvalues ---    0.15999   0.15999   0.16000   0.16000   0.16000
     Eigenvalues ---    0.16000   0.16000   0.16000   0.16000   0.16000
     Eigenvalues ---    0.16000   0.16000   0.16000   0.16000   0.16000
     Eigenvalues ---    0.16000   0.16000   0.22530   0.22583   0.23517
     Eigenvalues ---    0.23582   0.24513   0.24747   0.24865   0.24906
     Eigenvalues ---    0.24952   0.24985   0.24986   0.24988   0.24991
     Eigenvalues ---    0.24994   0.24996   0.24997   0.24998   0.24998
     Eigenvalues ---    0.25000   0.25000   0.25000   0.25000   0.25000
     Eigenvalues ---    0.25000   0.25000   0.25000   0.25000   0.25000
     Eigenvalues ---    0.28840   0.28911   0.30090   0.32118   0.32582
     Eigenvalues ---    0.32774   0.33104   0.33787   0.34044   0.34089
     Eigenvalues ---    0.34112   0.34125   0.34353   0.34466   0.34577
     Eigenvalues ---    0.34629   0.34693   0.34850   0.34895   0.35198
     Eigenvalues ---    0.35218   0.35468   0.35553   0.35582   0.35870
     Eigenvalues ---    0.35908   0.36078   0.36083   0.36198   0.36393
     Eigenvalues ---    0.36662   0.39348   0.40160   0.40194   0.40623
     Eigenvalues ---    0.40651   0.41524   0.41701   0.41898   0.42300
     Eigenvalues ---    0.42662   0.43455   0.44010   0.44092   0.44594
     Eigenvalues ---    0.44617   0.45014   0.45405   0.46251   0.47305
     Eigenvalues ---    0.47625   0.49309   0.49558   0.53053   0.53234
     Eigenvalues ---    0.93281   0.93432   0.93989   0.945851000.00000
     Eigenvalues --- 1000.000001000.000001000.000001000.000001000.00000
     Eigenvalues --- 1000.000001000.000001000.000001000.000001000.00000
     Eigenvalues --- 1000.000001000.000001000.000001000.000001000.00000
     Eigenvalues --- 1000.000001000.000001000.000001000.000001000.00000
     Eigenvalues --- 1000.000001000.000001000.000001000.000001000.00000
     Eigenvalues --- 1000.000001000.000001000.000001000.000001000.00000
     Eigenvalues --- 1000.000001000.000001000.000001000.000001000.00000
     Eigenvalues --- 1000.000001000.000001000.000001000.000001000.00000
     Eigenvalues --- 1000.000001000.000001000.000001000.000001000.00000
     Eigenvalues --- 1000.000001000.000001000.000001000.000001000.00000
     Eigenvalues --- 1000.000001000.000001000.000001000.000001000.00000
     Eigenvalues --- 1000.000001000.000001000.000001000.000001000.00000
     Eigenvalues --- 1000.000001000.000001000.000001000.000001000.00000
     Eigenvalues --- 1000.000001000.000001000.000001000.000001000.00000
     Eigenvalues --- 1000.000001000.000001000.000001000.000001000.00000
     Eigenvalues --- 1000.000001000.000001000.000001000.000001000.00000
     Eigenvalues --- 1000.000001000.000001000.000001000.000001000.00000
     Eigenvalues --- 1000.000001000.000001000.000001000.000001000.00000
     Eigenvalues --- 1000.000001000.000001000.000001000.000001000.00000
     Eigenvalues --- 1000.000001000.000001000.000001000.000001000.00000
     Eigenvalues --- 1000.000001000.000001000.000001000.000001000.00000
     Eigenvalues --- 1000.000001000.000001000.000001000.000001000.00000
     Eigenvalues --- 1000.000001000.000001000.000001000.000001000.00000
     Eigenvalues --- 1000.000001000.000001000.000001000.000001000.00000
     Eigenvalues --- 1000.000001000.000001000.000001000.000001000.00000
     Eigenvalues --- 1000.000001000.000001000.000001000.000001000.00000
     Eigenvalues --- 1000.000001000.000001000.000001000.000001000.00000
     Eigenvalues --- 1000.000001000.000001000.000001000.000001000.00000
     Eigenvalues --- 1000.000001000.000001000.000001000.000001000.00000
     Eigenvalues --- 1000.000001000.00000
 RFO step:  Lambda=-1.50432490D-02 EMin= 1.15532237D-02
 Linear search not attempted -- first point.
 Iteration  1 RMS(Cart)=  0.11345711 RMS(Int)=  0.00127996
 Iteration  2 RMS(Cart)=  0.00313708 RMS(Int)=  0.00015140
 Iteration  3 RMS(Cart)=  0.00000328 RMS(Int)=  0.00015139
 Iteration  4 RMS(Cart)=  0.00000000 RMS(Int)=  0.00015139
 Iteration  1 RMS(Cart)=  0.00002666 RMS(Int)=  0.00001002
 Iteration  2 RMS(Cart)=  0.00001482 RMS(Int)=  0.00001114
 Iteration  3 RMS(Cart)=  0.00000819 RMS(Int)=  0.00001272
 Iteration  4 RMS(Cart)=  0.00000450 RMS(Int)=  0.00001389
 Iteration  5 RMS(Cart)=  0.00000246 RMS(Int)=  0.00001466
 Iteration  6 RMS(Cart)=  0.00000134 RMS(Int)=  0.00001516
 Iteration  7 RMS(Cart)=  0.00000073 RMS(Int)=  0.00001547
 Variable       Old X    -DE/DX   Delta X   Delta X   Delta X     New X
                                 (Linear)    (Quad)   (Total)
    R1        2.80935  -0.00171   0.00000  -0.00463  -0.00463   2.80472
    R2        2.64584  -0.00567   0.00000  -0.01228  -0.01227   2.63357
    R3        2.31147  -0.02152   0.00000  -0.02253  -0.02253   2.28894
    R4        2.67311  -0.00574   0.00000  -0.01064  -0.01075   2.66236
    R5        2.59267  -0.00280   0.00000  -0.00399  -0.00400   2.58867
    R6        2.66894  -0.00523   0.00000  -0.01117  -0.01119   2.65775
    R7        2.69164  -0.01101   0.00000  -0.02559  -0.02565   2.66599
    R8        2.81049  -0.00124   0.00000  -0.00371  -0.00371   2.80678
    R9        2.62173  -0.00955   0.00000  -0.01896  -0.01899   2.60274
   R10        2.65570  -0.00665   0.00000  -0.01478  -0.01477   2.64093
   R11        2.30889  -0.01945   0.00000  -0.02025  -0.02025   2.28864
   R12        2.70248  -0.01036   0.00000  -0.02442  -0.02435   2.67813
   R13        2.04786   0.00032   0.00000   0.00087   0.00087   2.04873
   R14        2.70495  -0.01138   0.00000  -0.02940  -0.02934   2.67561
   R15        2.68322  -0.00756   0.00000  -0.01790  -0.01788   2.66533
   R16        2.68655  -0.02986   0.00000  -0.07011  -0.07003   2.61652
   R17        2.81233  -0.00317   0.00000  -0.00963  -0.00957   2.80276
   R18        2.76359   0.00566   0.00000   0.01483   0.01483   2.77842
   R19        2.66221  -0.00579   0.00000  -0.01239  -0.01239   2.64982
   R20        2.31391  -0.02475   0.00000  -0.02607  -0.02607   2.28784
   R21        2.79415   0.00300   0.00000   0.00889   0.00885   2.80300
   R22        2.63842  -0.00478   0.00000  -0.00934  -0.00939   2.62903
   R23        2.31456  -0.02144   0.00000  -0.02262  -0.02262   2.29194
   R24        2.62448  -0.01006   0.00000  -0.02066  -0.02065   2.60384
   R25        2.64561   0.00054   0.00000   0.00144   0.00143   2.64704
   R26        2.04921  -0.00095   0.00000  -0.00258  -0.00258   2.04663
   R27        2.04741  -0.00046   0.00000  -0.00125  -0.00125   2.04616
   R28        2.77259  -0.00298   0.00000  -0.00793  -0.00793   2.76467
   R29        2.77252  -0.00323   0.00000  -0.00858  -0.00858   2.76394
   R30        2.06176  -0.00085   0.00000  -0.00234  -0.00234   2.05942
   R31        2.06551  -0.00200   0.00000  -0.00557  -0.00557   2.05995
   R32        2.05322  -0.00064   0.00000  -0.00175  -0.00175   2.05148
   R33        2.06368  -0.00142   0.00000  -0.00393  -0.00393   2.05974
   R34        2.06281  -0.00097   0.00000  -0.00268  -0.00268   2.06013
   R35        2.05355  -0.00064   0.00000  -0.00173  -0.00173   2.05182
   R36        2.61030  -0.01919   0.00000  -0.03841  -0.03836   2.57193
   R37        3.33288  -0.01614   0.00000  -0.05256  -0.05249   3.28039
   R38        2.66320   0.00426   0.00000   0.00908   0.00905   2.67225
   R39        2.03773   0.00230   0.00000   0.00609   0.00609   2.04381
   R40        3.30413  -0.00507   0.00000  -0.01523  -0.01525   3.28888
   R41        2.64114  -0.01745   0.00000  -0.03659  -0.03666   2.60448
   R42        2.56904  -0.00457   0.00000  -0.00838  -0.00838   2.56066
   R43        2.71337   0.00490   0.00000   0.01176   0.01176   2.72513
   R44        2.69306  -0.00825   0.00000  -0.01908  -0.01908   2.67397
   R45        2.63349  -0.01420   0.00000  -0.02998  -0.02998   2.60351
   R46        3.32858  -0.00870   0.00000  -0.02803  -0.02802   3.30056
   R47        2.05845  -0.00078   0.00000  -0.00213  -0.00213   2.05632
   R48        2.07119  -0.00044   0.00000  -0.00122  -0.00122   2.06997
   R49        2.07180  -0.00090   0.00000  -0.00253  -0.00253   2.06926
   R50        2.69184  -0.00314   0.00000  -0.00776  -0.00776   2.68408
   R51        2.56736  -0.00509   0.00000  -0.00929  -0.00929   2.55807
   R52        3.26275  -0.00726   0.00000  -0.02031  -0.02031   3.24243
   R53        2.58700  -0.00831   0.00000  -0.01563  -0.01563   2.57137
   R54        2.04226  -0.00006   0.00000  -0.00017  -0.00017   2.04209
   R55        2.69052  -0.00807   0.00000  -0.01859  -0.01859   2.67193
   R56        2.04285  -0.00116   0.00000  -0.00310  -0.00310   2.03975
   R57        2.07256  -0.00106   0.00000  -0.00297  -0.00297   2.06959
   R58        2.05919  -0.00098   0.00000  -0.00269  -0.00269   2.05650
   R59        2.07142  -0.00068   0.00000  -0.00191  -0.00191   2.06951
    A1        2.03797   0.00074   0.00000   0.00344   0.00343   2.04140
    A2        2.14521  -0.00105   0.00000  -0.00431  -0.00431   2.14090
    A3        2.10001   0.00032   0.00000   0.00087   0.00087   2.10088
    A4        2.10395  -0.00163   0.00000  -0.00720  -0.00719   2.09676
    A5        2.08282   0.00341   0.00000   0.00895   0.00900   2.09182
    A6        2.09624  -0.00177   0.00000  -0.00164  -0.00172   2.09452
    A7        2.10093   0.00175   0.00000   0.00699   0.00702   2.10795
    A8        2.07104   0.00029   0.00000   0.00361   0.00351   2.07456
    A9        2.11118  -0.00204   0.00000  -0.01055  -0.01051   2.10067
   A10        2.10296  -0.00138   0.00000  -0.00474  -0.00475   2.09822
   A11        2.09911  -0.00057   0.00000  -0.00145  -0.00151   2.09760
   A12        2.08110   0.00195   0.00000   0.00621   0.00627   2.08736
   A13        2.03739   0.00037   0.00000   0.00123   0.00121   2.03861
   A14        2.12972  -0.00069   0.00000  -0.00251  -0.00250   2.12722
   A15        2.11607   0.00032   0.00000   0.00128   0.00129   2.11736
   A16        2.15098  -0.00591   0.00000  -0.02169  -0.02184   2.12914
   A17        2.04399   0.00611   0.00000   0.02965   0.02939   2.07337
   A18        2.08722  -0.00015   0.00000  -0.00631  -0.00658   2.08064
   A19        2.11101  -0.00279   0.00000  -0.01113  -0.01117   2.09984
   A20        2.04385   0.00516   0.00000   0.02066   0.02063   2.06447
   A21        2.12832  -0.00237   0.00000  -0.00947  -0.00949   2.11883
   A22        2.08678   0.00408   0.00000   0.01184   0.01177   2.09856
   A23        2.04738   0.00651   0.00000   0.02543   0.02527   2.07265
   A24        2.14662  -0.01053   0.00000  -0.03488  -0.03524   2.11138
   A25        2.04892   0.00616   0.00000   0.02025   0.02036   2.06928
   A26        2.00754   0.00918   0.00000   0.03639   0.03621   2.04376
   A27        2.22643  -0.01532   0.00000  -0.05610  -0.05628   2.17015
   A28        2.06022  -0.00236   0.00000  -0.00982  -0.00979   2.05043
   A29        2.17370  -0.00760   0.00000  -0.02812  -0.02818   2.14552
   A30        2.04919   0.00996   0.00000   0.03811   0.03805   2.08724
   A31        2.01621   0.00223   0.00000   0.01008   0.00993   2.02614
   A32        2.14188  -0.00242   0.00000  -0.00987  -0.00985   2.13202
   A33        2.12500   0.00020   0.00000   0.00001   0.00003   2.12503
   A34        2.10943  -0.00154   0.00000  -0.00548  -0.00557   2.10386
   A35        2.11468  -0.00238   0.00000  -0.00978  -0.00976   2.10492
   A36        2.05896   0.00392   0.00000   0.01540   0.01542   2.07439
   A37        2.11176  -0.00111   0.00000  -0.00429  -0.00432   2.10743
   A38        2.05670   0.00091   0.00000   0.00418   0.00419   2.06089
   A39        2.11471   0.00020   0.00000   0.00014   0.00015   2.11486
   A40        2.08567   0.00094   0.00000   0.00566   0.00559   2.09126
   A41        2.07549  -0.00007   0.00000  -0.00051  -0.00049   2.07501
   A42        2.12199  -0.00087   0.00000  -0.00509  -0.00507   2.11692
   A43        2.20043  -0.00239   0.00000  -0.00793  -0.00798   2.19245
   A44        2.02023   0.00044   0.00000   0.00112   0.00114   2.02137
   A45        2.06252   0.00195   0.00000   0.00681   0.00684   2.06936
   A46        2.18316   0.00015   0.00000   0.00028   0.00027   2.18343
[...]
 Alpha  occ. eigenvalues --   -0.62861  -0.60963  -0.59986  -0.59393  -0.59124
 Alpha  occ. eigenvalues --   -0.57918  -0.57799  -0.57484  -0.56957  -0.56620
 Alpha  occ. eigenvalues --   -0.56403  -0.56142  -0.55667  -0.55400  -0.54224
 Alpha  occ. eigenvalues --   -0.54015  -0.53731  -0.53494  -0.53074  -0.52455
 Alpha  occ. eigenvalues --   -0.51739  -0.51355  -0.51263  -0.50444  -0.50062
 Alpha  occ. eigenvalues --   -0.49685  -0.49541  -0.49152  -0.48956  -0.48475
 Alpha  occ. eigenvalues --   -0.48441  -0.46890  -0.46768  -0.45901  -0.44948
 Alpha  occ. eigenvalues --   -0.44122  -0.43496  -0.41982  -0.41196  -0.41023
 Alpha  occ. eigenvalues --   -0.40740  -0.40560  -0.39833  -0.38699  -0.37631
 Alpha  occ. eigenvalues --   -0.37593  -0.37198  -0.36988  -0.36002  -0.34913
 Alpha  occ. eigenvalues --   -0.33602  -0.31375  -0.31080  -0.25269
 Alpha virt. eigenvalues --   -0.07330  -0.00057   0.00662   0.02403   0.02424
 Alpha virt. eigenvalues --    0.04956   0.06009   0.06220   0.06614   0.06890
 Alpha virt. eigenvalues --    0.07372   0.07408   0.07580   0.07718   0.08035
 Alpha virt. eigenvalues --    0.08223   0.08594   0.08919   0.09009   0.09160
 Alpha virt. eigenvalues --    0.09496   0.09554   0.09863   0.10043   0.10368
 Alpha virt. eigenvalues --    0.10640   0.11251   0.11348   0.11576   0.11676
 Alpha virt. eigenvalues --    0.11977   0.12103   0.12316   0.12657   0.12957
 Alpha virt. eigenvalues --    0.13208   0.13673   0.13860   0.14084   0.14363
 Alpha virt. eigenvalues --    0.14533   0.14852   0.15280   0.15416   0.15537
 Alpha virt. eigenvalues --    0.15729   0.15957   0.16457   0.16724   0.16908
 Alpha virt. eigenvalues --    0.17145   0.17486   0.17682   0.18171   0.18498
 Alpha virt. eigenvalues --    0.18559   0.18940   0.19091   0.19318   0.19542
 Alpha virt. eigenvalues --    0.19900   0.20005   0.20244   0.20445   0.20623
 Alpha virt. eigenvalues --    0.20762   0.21024   0.21235   0.21362   0.21784
 Alpha virt. eigenvalues --    0.21967   0.22151   0.22429   0.22482   0.22792
 Alpha virt. eigenvalues --    0.23053   0.23576   0.23673   0.23867   0.24236
 Alpha virt. eigenvalues --    0.24493   0.24630   0.24748   0.24884   0.25112
 Alpha virt. eigenvalues --    0.25316   0.25595   0.25899   0.26018   0.26273
 Alpha virt. eigenvalues --    0.26364   0.26543   0.26617   0.26709   0.26927
 Alpha virt. eigenvalues --    0.27158   0.27332   0.27714   0.27817   0.28132
 Alpha virt. eigenvalues --    0.28248   0.28340   0.28542   0.28814   0.28884
 Alpha virt. eigenvalues --    0.29098   0.29502   0.29535   0.29670   0.30046
 Alpha virt. eigenvalues --    0.30263   0.30590   0.30797   0.30886   0.31104
 Alpha virt. eigenvalues --    0.31175   0.31284   0.31518   0.31733   0.32056
 Alpha virt. eigenvalues --    0.32181   0.32294   0.32366   0.32708   0.33093
 Alpha virt. eigenvalues --    0.33279   0.33502   0.33526   0.33860   0.34202
 Alpha virt. eigenvalues --    0.34288   0.34417   0.34746   0.34888   0.35120
 Alpha virt. eigenvalues --    0.35322   0.35585   0.35792   0.36098   0.36409
 Alpha virt. eigenvalues --    0.36556   0.36765   0.37078   0.37354   0.37558
 Alpha virt. eigenvalues --    0.37929   0.38093   0.38190   0.38462   0.39019
 Alpha virt. eigenvalues --    0.39146   0.39253   0.39813   0.39948   0.40010
 Alpha virt. eigenvalues --    0.40180   0.40497   0.41066   0.41248   0.41568
 Alpha virt. eigenvalues --    0.41790   0.42100   0.42531   0.42985   0.43241
 Alpha virt. eigenvalues --    0.43452   0.43892   0.44295   0.44940   0.45103
 Alpha virt. eigenvalues --    0.45455   0.45801   0.46256   0.46355   0.46702
 Alpha virt. eigenvalues --    0.47191   0.47973   0.48748   0.48990   0.49414
 Alpha virt. eigenvalues --    0.49766   0.50189   0.50616   0.50683   0.51368
 Alpha virt. eigenvalues --    0.52263   0.52629   0.52850   0.53073   0.53221
 Alpha virt. eigenvalues --    0.53305   0.53605   0.53743   0.54622   0.54813
 Alpha virt. eigenvalues --    0.55493   0.56022   0.56780   0.57608   0.57703
 Alpha virt. eigenvalues --    0.58441   0.58725   0.58869   0.59216   0.60375
 Alpha virt. eigenvalues --    0.60574   0.61144   0.61572   0.62062   0.62589
 Alpha virt. eigenvalues --    0.62904   0.63270   0.63807   0.64032   0.64473
 Alpha virt. eigenvalues --    0.64870   0.64962   0.65436   0.65915   0.66272
 Alpha virt. eigenvalues --    0.66912   0.67087   0.67223   0.67389   0.67873
 Alpha virt. eigenvalues --    0.68413   0.68984   0.69095   0.69381   0.70089
 Alpha virt. eigenvalues --    0.70418   0.70777   0.71246   0.71610   0.71880
 Alpha virt. eigenvalues --    0.72265   0.72474   0.72775   0.73292   0.73741
 Alpha virt. eigenvalues --    0.73994   0.74102   0.74364   0.74647   0.75477
 Alpha virt. eigenvalues --    0.75743   0.76269   0.76584   0.76688   0.77037
 Alpha virt. eigenvalues --    0.77527   0.78093   0.78452   0.78808   0.79262
 Alpha virt. eigenvalues --    0.79630   0.80009   0.80124   0.80739   0.81151
 Alpha virt. eigenvalues --    0.82099   0.82213   0.82557   0.82927   0.82982
 Alpha virt. eigenvalues --    0.83187   0.83540   0.83880   0.84017   0.84140
 Alpha virt. eigenvalues --    0.84763   0.84973   0.85202   0.85367   0.85895
 Alpha virt. eigenvalues --    0.85939   0.86710   0.86876   0.87000   0.87733
 Alpha virt. eigenvalues --    0.88378   0.88441   0.88961   0.89817   0.91404
 Alpha virt. eigenvalues --    0.91604   0.91924   0.93037   0.93704   0.94761
 Alpha virt. eigenvalues --    0.95146   0.95618   0.95941   0.96185   0.96902
 Alpha virt. eigenvalues --    0.97330   0.97786   0.98498   0.98979   0.99464
 Alpha virt. eigenvalues --    1.00242   1.00540   1.01510   1.01556   1.01753
 Alpha virt. eigenvalues --    1.02104   1.02623   1.02981   1.03236   1.03859
 Alpha virt. eigenvalues --    1.04084   1.04493   1.05190   1.05895   1.06509
 Alpha virt. eigenvalues --    1.07112   1.07723   1.08305   1.08608   1.08859
 Alpha virt. eigenvalues --    1.09113   1.09398   1.10080   1.10441   1.11141
 Alpha virt. eigenvalues --    1.11787   1.12221   1.12498   1.12996   1.13430
 Alpha virt. eigenvalues --    1.13550   1.14037   1.14366   1.14853   1.15181
 Alpha virt. eigenvalues --    1.15684   1.15984   1.16406   1.16716   1.16969
 Alpha virt. eigenvalues --    1.17306   1.18441   1.19199   1.19730   1.20130
 Alpha virt. eigenvalues --    1.20344   1.21366   1.22023   1.22733   1.23484
 Alpha virt. eigenvalues --    1.24041   1.24470   1.25444   1.26126   1.26485
 Alpha virt. eigenvalues --    1.26999   1.27667   1.27905   1.28609   1.29650
 Alpha virt. eigenvalues --    1.30200   1.31249   1.33225   1.33715   1.34256
 Alpha virt. eigenvalues --    1.34489   1.35166   1.35390   1.35575   1.36118
 Alpha virt. eigenvalues --    1.36831   1.37057   1.38344   1.38839   1.40742
 Alpha virt. eigenvalues --    1.41599   1.42561   1.42835   1.42962   1.44381
 Alpha virt. eigenvalues --    1.45343   1.45524   1.46186   1.46819   1.48767
 Alpha virt. eigenvalues --    1.49681   1.50237   1.50334   1.51519   1.51823
 Alpha virt. eigenvalues --    1.51914   1.52136   1.52592   1.52774   1.53258
 Alpha virt. eigenvalues --    1.53334   1.53939   1.54093   1.54406   1.54724
 Alpha virt. eigenvalues --    1.55078   1.55552   1.55780   1.57207   1.58761
 Alpha virt. eigenvalues --    1.58778   1.59347   1.59990   1.61099   1.61772
 Alpha virt. eigenvalues --    1.61946   1.62806   1.63189   1.63424   1.63631
 Alpha virt. eigenvalues --    1.63874   1.64295   1.64828   1.65607   1.67092
 Alpha virt. eigenvalues --    1.67959   1.68559   1.69041   1.69902   1.70691
 Alpha virt. eigenvalues --    1.71089   1.72026   1.72647   1.73314   1.74001
 Alpha virt. eigenvalues --    1.74422   1.74567   1.75207   1.76316   1.76487
 Alpha virt. eigenvalues --    1.76660   1.77455   1.78220   1.78540   1.78855
 Alpha virt. eigenvalues --    1.79040   1.79277   1.79816   1.80347   1.81208
 Alpha virt. eigenvalues --    1.82169   1.82501   1.83260   1.84125   1.84424
 Alpha virt. eigenvalues --    1.85782   1.86111   1.87422   1.87701   1.88396
 Alpha virt. eigenvalues --    1.89128   1.90371   1.90944   1.91458   1.91713
 Alpha virt. eigenvalues --    1.93016   1.94130   1.94452   1.94628   1.95470
 Alpha virt. eigenvalues --    1.95713   1.96151   1.96846   1.97600   1.98396
 Alpha virt. eigenvalues --    1.98901   1.99371   1.99529   1.99989   2.00510
 Alpha virt. eigenvalues --    2.01347   2.01991   2.03022   2.03967   2.04616
 Alpha virt. eigenvalues --    2.04739   2.05560   2.06173   2.07254   2.08446
 Alpha virt. eigenvalues --    2.08662   2.09793   2.10509   2.11309   2.11568
 Alpha virt. eigenvalues --    2.11876   2.12835   2.13334   2.13801   2.14804
 Alpha virt. eigenvalues --    2.15202   2.15794   2.16300   2.17056   2.17693
 Alpha virt. eigenvalues --    2.18508   2.19566   2.20581   2.20859   2.21637
 Alpha virt. eigenvalues --    2.21851   2.22781   2.23508   2.24294   2.25234
 Alpha virt. eigenvalues --    2.25419   2.25526   2.26545   2.28024   2.28378
 Alpha virt. eigenvalues --    2.28675   2.29429   2.29911   2.31029   2.31600
 Alpha virt. eigenvalues --    2.32357   2.34183   2.35436   2.36475   2.37111
 Alpha virt. eigenvalues --    2.40839   2.41109   2.42553   2.43651   2.45712
 Alpha virt. eigenvalues --    2.46842   2.49042   2.49328   2.51488   2.52970
 Alpha virt. eigenvalues --    2.53356   2.53667   2.54492   2.55214   2.55938
 Alpha virt. eigenvalues --    2.56595   2.57059   2.58563   2.58843   2.60034
 Alpha virt. eigenvalues --    2.60625   2.61473   2.61666   2.62282   2.62467
 Alpha virt. eigenvalues --    2.62687   2.62949   2.63360   2.65517   2.65757
 Alpha virt. eigenvalues --    2.67528   2.68149   2.68771   2.69208   2.69622
 Alpha virt. eigenvalues --    2.71209   2.73793   2.74067   2.74502   2.74923
 Alpha virt. eigenvalues --    2.76595   2.77533   2.78228   2.78830   2.78953
 Alpha virt. eigenvalues --    2.79394   2.79810   2.80621   2.81265   2.81716
 Alpha virt. eigenvalues --    2.82188   2.82581   2.84228   2.84381   2.85096
 Alpha virt. eigenvalues --    2.85818   2.87421   2.89058   2.90754   2.91343
 Alpha virt. eigenvalues --    2.92279   2.93191   2.94322   2.94393   2.94913
 Alpha virt. eigenvalues --    2.95326   2.95865   2.95933   2.96574   2.97228
 Alpha virt. eigenvalues --    2.97882   2.98331   2.98731   2.99049   3.00051
 Alpha virt. eigenvalues --    3.01551   3.01995   3.02829   3.03512   3.04942
 Alpha virt. eigenvalues --    3.05616   3.07316   3.08179   3.10372   3.10817
 Alpha virt. eigenvalues --    3.12137   3.12361   3.14394   3.15224   3.15843
 Alpha virt. eigenvalues --    3.16858   3.17826   3.18598   3.19306   3.21075
 Alpha virt. eigenvalues --    3.21440   3.24258   3.24442   3.25012   3.26777
 Alpha virt. eigenvalues --    3.27825   3.29041   3.31753   3.32519   3.33061
 Alpha virt. eigenvalues --    3.34642   3.35172   3.35792   3.36507   3.37683
 Alpha virt. eigenvalues --    3.40599   3.41190   3.43084   3.43873   3.43942
 Alpha virt. eigenvalues --    3.44501   3.44728   3.45722   3.47530   3.48193
 Alpha virt. eigenvalues --    3.50163   3.50364   3.53015   3.54017   3.55759
 Alpha virt. eigenvalues --    3.56081   3.57568   3.58175   3.59734   3.61001
 Alpha virt. eigenvalues --    3.62187   3.65100   3.67293   3.68386   3.70401
 Alpha virt. eigenvalues --    3.71172   3.72342   3.75892   3.76446   3.77533
 Alpha virt. eigenvalues --    3.80060   3.82476   3.83141   3.83493   3.87440
 Alpha virt. eigenvalues --    3.87673   3.88323   3.92724   3.93479   3.95115
 Alpha virt. eigenvalues --    3.96090   3.96367   4.00106   4.03070   4.03742
 Alpha virt. eigenvalues --    4.04165   4.04917   4.07322   4.11152   4.13939
 Alpha virt. eigenvalues --    4.14986   4.19425   4.21918   4.22124   4.25800
 Alpha virt. eigenvalues --    4.29637   4.33844   4.34944   4.38061   4.45349
 Alpha virt. eigenvalues --    4.48260   4.50461   4.61015   4.77721   4.94999
 Alpha virt. eigenvalues --    4.98319   4.98447   5.01509   5.14104   5.14819
 Alpha virt. eigenvalues --    5.15466   5.16245   5.16645   5.18903   5.22659
 Alpha virt. eigenvalues --    5.24411   5.36221   5.37944   5.40258   5.44064
 Alpha virt. eigenvalues --    5.55032   5.56644   5.87390   5.90047   5.91963
 Alpha virt. eigenvalues --    5.93202   5.93710   5.98355   8.15504   8.19578
 Alpha virt. eigenvalues --   17.44063  17.49277  17.65362  17.68239  17.72530
 Alpha virt. eigenvalues --   17.78265  23.62061  23.71033  23.86748  23.92368
 Alpha virt. eigenvalues --   23.96144  23.96746  23.97911  24.00089  24.01087
 Alpha virt. eigenvalues --   24.01910  24.02885  24.04819  24.05591  24.07156
 Alpha virt. eigenvalues --   24.08261  24.09581  24.10540  24.15048  24.17421
 Alpha virt. eigenvalues --   24.20706  24.21069  24.22381  24.27357  24.28638
 Alpha virt. eigenvalues --   24.30833  24.32822  35.69980  35.73133  50.11646
 Alpha virt. eigenvalues --   50.12775  50.16438  50.18390  50.20457  50.22043
 Alpha virt. eigenvalues --  189.41004 189.46274
          Condensed to atoms (all electrons):
 Mulliken charges:
               1
     1  C    0.467125
     2  C    0.077974
     3  C    0.209646
     4  C    0.179497
     5  C    0.357567
     6  C   -0.731742
     7  C    0.148497
     8  C   -0.017484
     9  C    0.431781
    10  C   -0.324333
    11  C    0.260241
    12  C    0.206557
    13  C   -0.598041
    14  C   -0.729209
    15  H    0.188884
    16  H    0.189629
    17  H    0.197980
    18  N   -0.111676
    19  N   -0.098071
    20  O   -0.256090
    21  O   -0.267464
    22  O   -0.267143
    23  O   -0.093210
    24  C   -0.303590
    25  H    0.198166
    26  H    0.193977
    27  H    0.202076
    28  C   -0.285329
    29  H    0.193406
    30  H    0.195009
    31  H    0.200273
    32  C    0.220004
    33  C   -0.506856
    34  S   -0.097086
    35  C   -0.096547
    36  H    0.141396
    37  C    0.180664
    38  O   -0.121080
    39  C    0.843525
    40  C   -0.292670
    41  C    0.074872
    42  S   -0.306275
    43  H    0.181233
    44  H    0.154656
    45  H    0.168748
    46  C   -0.561694
    47  O   -0.127308
    48  C   -0.398507
    49  H    0.153861
    50  C   -0.299297
    51  H    0.183501
    52  H    0.156142
    53  H    0.177792
    54  H    0.156023
 Sum of Mulliken charges =  -0.00000
 Mulliken charges with hydrogens summed into heavy atoms:
               1
     1  C    0.467125
     2  C    0.077974
     3  C    0.209646
     4  C    0.179497
     5  C    0.357567
     6  C   -0.533762
     7  C    0.148497
     8  C   -0.017484
     9  C    0.431781
    10  C   -0.324333
    11  C    0.260241
    12  C    0.206557
    13  C   -0.408412
    14  C   -0.540325
    18  N   -0.111676
    19  N   -0.098071
    20  O   -0.256090
    21  O   -0.267464
    22  O   -0.267143
    23  O   -0.093210
    24  C    0.290629
    28  C    0.303359
    32  C    0.220004
    33  C   -0.365460
    34  S   -0.097086
    35  C   -0.096547
    37  C    0.180664
    38  O   -0.121080
    39  C    0.843525
    40  C    0.211967
    41  C    0.074872
    42  S   -0.306275
    46  C   -0.407833
    47  O   -0.127308
    48  C   -0.215006
    50  C    0.190660
 Electronic spatial extent (au):  <R**2>=          22036.2644
 Charge=             -0.0000 electrons
 Dipole moment (field-independent basis, Debye):
    X=             -0.8887    Y=              0.1576    Z=              0.0450  Tot=              0.9037
 Quadrupole moment (field-independent basis, Debye-Ang):
   XX=           -218.2639   YY=           -230.2952   ZZ=           -196.0117
   XY=             -1.5727   XZ=              9.6866   YZ=              6.9729
 Traceless Quadrupole moment (field-independent basis, Debye-Ang):
   XX=             -3.4070   YY=            -15.4382   ZZ=             18.8452
   XY=             -1.5727   XZ=              9.6866   YZ=              6.9729
 Octapole moment (field-independent basis, Debye-Ang**2):
  XXX=           -251.6053  YYY=             -4.9228  ZZZ=              6.8234  XYY=            -14.0699
  XXY=            -37.5303  XXZ=            -48.4882  XZZ=            -87.6815  YZZ=             -6.7604
  YYZ=             -2.4356  XYZ=            -21.9016
 Hexadecapole moment (field-independent basis, Debye-Ang**3):
 XXXX=         -20956.2727 YYYY=          -5913.6249 ZZZZ=          -2137.2983 XXXY=            283.9205
 XXXZ=            438.3544 YYYX=           -500.5887 YYYZ=             78.8749 ZZZX=             58.6498
 ZZZY=             85.1416 XXYY=          -4685.1304 XXZZ=          -3604.7074 YYZZ=          -1365.5830
 XXYZ=             98.6198 YYXZ=             62.8715 ZZXY=              6.8001
 N-N= 4.107936609369D+03 E-N=-1.375581981629D+04  KE= 2.352001478246D+03
 Unable to Open any file for archive entry.
 1\1\GINC-CX3-2-13\FOpt\RwB97XD\6-311+G(d,p)\C26H18N2O6S2\NS5018\29-Nov
 -2020\0\\# opt=modredundant wb97xd/6-311+g(d,p)\\NDI_-90.pdb\\0,1\C,-2
 .6252809162,-3.0462738038,-0.4663670337\C,-2.2702198718,-1.6172108637,
 -0.2594138135\C,-3.2817571623,-0.6576466836,-0.0577000525\C,-4.6405706
 819,-1.0361681123,-0.0498921621\C,-5.0254545221,-2.4592580266,-0.25859
 50718\C,-0.9560839356,-1.2332769263,-0.2773105899\C,-2.9219899863,0.69
 31415814,0.1336647509\C,-1.5550549123,1.0753590711,0.1216251374\C,-0.5
 73385977,0.1173711206,-0.0908424395\C,-1.2139535715,2.5162686815,0.332
 0575088\C,-3.6281852718,3.0769985,0.5336649093\C,-3.9512244126,1.64085
 88548,0.3316971287\C,-5.2708259076,1.2524712095,0.3384828332\C,-5.6207
 852176,-0.0930827102,0.1466583451\H,-6.658005138,-0.4047232679,0.14891
 28404\H,-6.0319075394,2.0073718047,0.493226366\H,-0.1880251715,-1.9804
 653704,-0.4380897471\N,-2.2776621867,3.4094552641,0.5162902153\N,-3.98
 28148979,-3.3674970526,-0.4600436303\O,-1.7911908854,-3.90674255,-0.62
 99840819\O,-6.1817731085,-2.8144646615,-0.2559011343\O,-4.4898720534,3
 .9103278881,0.7034275424\O,-0.0833480861,2.9378418498,0.3546658013\C,-
 1.9018986598,4.8085020677,0.7199098955\H,-1.2697970602,4.8955745461,1.
 6036347027\H,-1.3414799546,5.1687961264,-0.1427541543\H,-2.813842191,5
 .3839319746,0.8471138604\C,-4.3120178734,-4.7774555565,-0.6667810003\H
 ,-3.907565061,-5.1121607449,-1.6219341949\H,-3.8705910872,-5.379868442
 1,0.127483048\H,-5.3934602472,-4.8743287076,-0.657676336\C,0.87843776,
 0.4014946778,-0.1393028723\C,1.6171551322,0.7267611924,-1.2347100472\S
 ,1.8494837275,0.2313348859,1.2728583932\C,2.9968296885,0.8698157081,-0
 .9226325239\H,1.1851900526,0.8798903749,-2.2134476743\C,3.3013347593,0
 .6362599697,0.3985054985\O,3.9817563094,1.1930150486,-1.7943953396\C,4
 .6026497271,0.7006698851,1.0313585375\C,3.601661673,1.5467378026,-3.10
 70663041\C,4.9037090331,0.4464533487,2.3511472981\S,6.0526305685,1.141
 3452157,0.1732416988\H,4.5197161753,1.8169770931,-3.6260100755\H,3.130
 4055433,0.7038326367,-3.6249248143\H,2.9198338,2.4041913161,-3.1037403
 501\C,6.2808278081,0.6035838509,2.6715952359\O,3.9164214142,0.08720196
 98,3.2075641624\C,7.0111286033,0.9767340212,1.5845461807\H,6.707204619
 9,0.4483529689,3.6522302785\C,4.2788198652,-0.1964780594,4.5417211334\
 H,8.0732321999,1.1635807863,1.5388869766\H,4.713400661,0.6826037796,5.
 0303866077\H,3.3587624066,-0.4735409552,5.0535537661\H,4.9864320201,-1
 .0314645779,4.5914047913\\Version=ES64L-G16RevC.01\State=1-A\HF=-2358.
 7733325\RMSD=7.622e-09\RMSF=1.599e-04\Dipole=0.3315624,0.1253621,0.027
 6193\Quadrupole=-4.8432067,-10.14126,14.9844667,2.7282645,6.1552412,-5
 .1568039\PG=C01 [X(C26H18N2O6S2)]\\@
 The archive entry for this job was punched.


 WHAT THE SLIME CONTAINS, THE GLOWING REVEALS
 BY THE FLAME'S BRIGHT HUE WHEN YOU IGNITE IT.
   --  LEONARD THURNEYSSER, 1531-1596
 DESCRIBING HIS FLAME PHOTOLYSIS ANALYTIC METHOD
 Job cpu time:       1 days 22 hours 37 minutes 40.0 seconds.
 Elapsed time:       0 days  5 hours 53 minutes 54.1 seconds.
 File lengths (MBytes):  RWF=    496 Int=      0 D2E=      0 Chk=     61 Scr=      1
 Normal termination of Gaussian 16 at Sun Nov 29 21:21:45 2020.
