 Entering Gaussian System, Link 0=g16
 Input=NDI_-40.gjf
 Output=NDI_-40.log
 Initial command:
 /apps/gaussian/g16-c01-avx/g16/l1.exe "/tmp/pbs.2626208[28].pbs/Gau-2314526.inp" -scrdir="/tmp/pbs.2626208[28].pbs/"
 Entering Link 1 = /apps/gaussian/g16-c01-avx/g16/l1.exe PID=   2314527.
  
 Copyright (c) 1988-2019, Gaussian, Inc.  All Rights Reserved.
  
 This is part of the Gaussian(R) 16 program.  It is based on
 the Gaussian(R) 09 system (copyright 2009, Gaussian, Inc.),
 the Gaussian(R) 03 system (copyright 2003, Gaussian, Inc.),
 the Gaussian(R) 98 system (copyright 1998, Gaussian, Inc.),
 the Gaussian(R) 94 system (copyright 1995, Gaussian, Inc.),
 the Gaussian 92(TM) system (copyright 1992, Gaussian, Inc.),
 the Gaussian 90(TM) system (copyright 1990, Gaussian, Inc.),
 the Gaussian 88(TM) system (copyright 1988, Gaussian, Inc.),
 the Gaussian 86(TM) system (copyright 1986, Carnegie Mellon
 University), and the Gaussian 82(TM) system (copyright 1983,
 Carnegie Mellon University). Gaussian is a federally registered
 trademark of Gaussian, Inc.
  
 This software contains proprietary and confidential information,
 including trade secrets, belonging to Gaussian, Inc.
  
 This software is provided under written license and may be
 used, copied, transmitted, or stored only in accord with that
 written license.
  
 The following legend is applicable only to US Government
 contracts under FAR:
  
                    RESTRICTED RIGHTS LEGEND
  
 Use, reproduction and disclosure by the US Government is
 subject to restrictions as set forth in subparagraphs (a)
 and (c) of the Commercial Computer Software - Restricted
 Rights clause in FAR 52.227-19.
  
 Gaussian, Inc.
 340 Quinnipiac St., Bldg. 40, Wallingford CT 06492
  
  
 ---------------------------------------------------------------
 Warning -- This program may not be used in any manner that
 competes with the business of Gaussian, Inc. or will provide
 assistance to any competitor of Gaussian, Inc.  The licensee
 of this program is prohibited from giving any competitor of
 Gaussian, Inc. access to this program.  By using this program,
 the user acknowledges that Gaussian, Inc. is engaged in the
 business of creating and licensing software in the field of
 computational chemistry and represents and warrants to the
 licensee that it is not a competitor of Gaussian, Inc. and that
 it will not use this program in any manner prohibited above.
 ---------------------------------------------------------------
  

 Cite this work as:
 Gaussian 16, Revision C.01,
 M. J. Frisch, G. W. Trucks, H. B. Schlegel, G. E. Scuseria, 
 M. A. Robb, J. R. Cheeseman, G. Scalmani, V. Barone, 
 G. A. Petersson, H. Nakatsuji, X. Li, M. Caricato, A. V. Marenich, 
 J. Bloino, B. G. Janesko, R. Gomperts, B. Mennucci, H. P. Hratchian, 
 J. V. Ortiz, A. F. Izmaylov, J. L. Sonnenberg, D. Williams-Young, 
 F. Ding, F. Lipparini, F. Egidi, J. Goings, B. Peng, A. Petrone, 
 T. Henderson, D. Ranasinghe, V. G. Zakrzewski, J. Gao, N. Rega, 
 G. Zheng, W. Liang, M. Hada, M. Ehara, K. Toyota, R. Fukuda, 
 J. Hasegawa, M. Ishida, T. Nakajima, Y. Honda, O. Kitao, H. Nakai, 
 T. Vreven, K. Throssell, J. A. Montgomery, Jr., J. E. Peralta, 
 F. Ogliaro, M. J. Bearpark, J. J. Heyd, E. N. Brothers, K. N. Kudin, 
 V. N. Staroverov, T. A. Keith, R. Kobayashi, J. Normand, 
 K. Raghavachari, A. P. Rendell, J. C. Burant, S. S. Iyengar, 
 J. Tomasi, M. Cossi, J. M. Millam, M. Klene, C. Adamo, R. Cammi, 
 J. W. Ochterski, R. L. Martin, K. Morokuma, O. Farkas, 
 J. B. Foresman, and D. J. Fox, Gaussian, Inc., Wallingford CT, 2019.
 
 ******************************************
 Gaussian 16:  ES64L-G16RevC.01  3-Jul-2019
                29-Nov-2020 
 ******************************************
 %mem=10GB
 %nprocshared=8
 Will use up to    8 processors via shared memory.
 --------------------------------------
 # opt=modredundant wb97xd/6-311+g(d,p)
 --------------------------------------
 1/18=120,19=15,26=3,38=1/1,3;
 2/9=110,12=2,17=6,18=5,40=1/2;
 3/5=4,6=6,7=111,11=2,25=1,30=1,71=1,74=-58/1,2,3;
 4//1;
 5/5=2,38=5/2;
 6/7=2,8=2,9=2,10=2,28=1/1;
 7//1,2,3,16;
 1/18=20,19=15,26=3/3(2);
 2/9=110/2;
 99//99;
 2/9=110/2;
 3/5=4,6=6,7=111,11=2,25=1,30=1,71=1,74=-58/1,2,3;
 4/5=5,16=3,69=1/1;
 5/5=2,38=5/2;
 7//1,2,3,16;
 1/18=20,19=15,26=3/3(-5);
 2/9=110/2;
 6/7=2,8=2,9=2,10=2,19=2,28=1/1;
 99/9=1/99;
 -----------
 NDI_-40.pdb
 -----------
 Symbolic Z-matrix:
 Charge =  0 Multiplicity = 1
 C                    -2.563    -2.994    -0.409 
 C                    -2.257    -1.551    -0.224 
 C                    -3.301    -0.607    -0.083 
 C                    -4.65     -1.024    -0.115 
 C                    -4.992    -2.459    -0.304 
 C                    -0.949    -1.137    -0.215 
 C                    -2.962     0.764     0.102 
 C                    -1.595     1.188     0.123 
 C                    -0.561     0.232    -0.072 
 C                    -1.328     2.616     0.446 
 C                    -3.777     3.115     0.508 
 C                    -4.035     1.679     0.268 
 C                    -5.356     1.252     0.23 
 C                    -5.672    -0.098     0.036 
 H                    -6.699    -0.442     0.008 
 H                    -6.133     1.997     0.361 
 H                    -0.19     -1.895    -0.369 
 N                    -2.432     3.476     0.608 
 N                    -3.916    -3.353    -0.438 
 O                    -1.695    -3.847    -0.532 
 O                    -6.149    -2.85     -0.34 
 O                    -4.676     3.938     0.629 
 O                    -0.212     3.097     0.596 
 C                    -2.111     4.875     0.912 
 H                    -1.54      4.931     1.84 
 H                    -1.5       5.299     0.111 
 H                    -3.05      5.414     1.003 
 C                    -4.206    -4.779    -0.625 
 H                    -3.759    -5.126    -1.559 
 H                    -3.775    -5.355     0.196 
 H                    -5.286    -4.897    -0.649 
 C                     0.876     0.482    -0.178 
 C                     1.574     1.49     -0.815 
 S                     1.997    -0.723     0.455 
 C                     2.97      1.308    -0.793 
 H                     1.088     2.336    -1.274 
 C                     3.393     0.152    -0.13 
 O                     3.902     2.133    -1.342 
 C                     4.741    -0.286     0.097 
 C                     3.448     3.37     -1.883 
 C                     5.16     -1.451     0.738 
 S                     6.151     0.63     -0.428 
 H                     4.344     3.909    -2.192 
 H                     2.802     3.209    -2.755 
 H                     2.905     3.956    -1.132 
 C                     6.574    -1.603     0.806 
 O                     4.229    -2.31      1.23 
 C                     7.229    -0.555     0.217 
 H                     7.078    -2.442     1.265 
 C                     4.686    -3.508     1.848 
 H                     8.298    -0.416     0.124 
 H                     5.299    -3.29      2.732 
 H                     3.792    -4.05      2.152 
 H                     5.264    -4.122     1.146 
 
 The following ModRedundant input section has been read:
 D       8       9      32      33 F                                           
 D      33      35      38      40 F                                           
 D      46      41      47      50 F                                           
 D      10      18      24      25 F                                           
 D       1      19      28      30 F                                           
 D       9       8      10      23 F                                           
 D      20       1       2       6 F                                           
 

 GradGradGradGradGradGradGradGradGradGradGradGradGradGradGradGradGradGrad
 Berny optimization.
 Initialization pass.
                           ----------------------------
                           !    Initial Parameters    !
                           ! (Angstroms and Degrees)  !
 --------------------------                            --------------------------
 ! Name  Definition              Value          Derivative Info.                !
 --------------------------------------------------------------------------------
 ! R1    R(1,2)                  1.4866         estimate D2E/DX2                !
 ! R2    R(1,19)                 1.4001         estimate D2E/DX2                !
 ! R3    R(1,20)                 1.2232         estimate D2E/DX2                !
 ! R4    R(2,3)                  1.4146         estimate D2E/DX2                !
 ! R5    R(2,6)                  1.372          estimate D2E/DX2                !
 ! R6    R(3,4)                  1.4123         estimate D2E/DX2                !
 ! R7    R(3,7)                  1.4244         estimate D2E/DX2                !
 ! R8    R(4,5)                  1.4872         estimate D2E/DX2                !
 ! R9    R(4,14)                 1.3874         estimate D2E/DX2                !
 ! R10   R(5,19)                 1.4053         estimate D2E/DX2                !
 ! R11   R(5,21)                 1.2218         estimate D2E/DX2                !
 ! R12   R(6,9)                  1.4301         estimate D2E/DX2                !
 ! R13   R(6,17)                 1.0837         estimate D2E/DX2                !
 ! R14   R(7,8)                  1.4314         estimate D2E/DX2                !
 ! R15   R(7,12)                 1.4199         estimate D2E/DX2                !
 ! R16   R(8,9)                  1.4217         estimate D2E/DX2                !
 ! R17   R(8,10)                 1.4882         estimate D2E/DX2                !
 ! R18   R(9,32)                 1.4624         estimate D2E/DX2                !
 ! R19   R(10,18)                1.4088         estimate D2E/DX2                !
 ! R20   R(10,23)                1.2245         estimate D2E/DX2                !
 ! R21   R(11,12)                1.4786         estimate D2E/DX2                !
 ! R22   R(11,18)                1.3962         estimate D2E/DX2                !
 ! R23   R(11,22)                1.2248         estimate D2E/DX2                !
 ! R24   R(12,13)                1.3888         estimate D2E/DX2                !
 ! R25   R(13,14)                1.4            estimate D2E/DX2                !
 ! R26   R(13,16)                1.0844         estimate D2E/DX2                !
 ! R27   R(14,15)                1.0834         estimate D2E/DX2                !
 ! R28   R(18,24)                1.4672         estimate D2E/DX2                !
 ! R29   R(19,28)                1.4672         estimate D2E/DX2                !
 ! R30   R(24,25)                1.091          estimate D2E/DX2                !
 ! R31   R(24,26)                1.093          estimate D2E/DX2                !
 ! R32   R(24,27)                1.0865         estimate D2E/DX2                !
 ! R33   R(28,29)                1.0921         estimate D2E/DX2                !
 ! R34   R(28,30)                1.0916         estimate D2E/DX2                !
 ! R35   R(28,31)                1.0867         estimate D2E/DX2                !
 ! R36   R(32,33)                1.3817         estimate D2E/DX2                !
 ! R37   R(32,34)                1.7633         estimate D2E/DX2                !
 ! R38   R(33,35)                1.408          estimate D2E/DX2                !
 ! R39   R(33,36)                1.0782         estimate D2E/DX2                !
 ! R40   R(34,37)                1.7483         estimate D2E/DX2                !
 ! R41   R(35,37)                1.3982         estimate D2E/DX2                !
 ! R42   R(35,38)                1.3604         estimate D2E/DX2                !
 ! R43   R(37,39)                1.4354         estimate D2E/DX2                !
 ! R44   R(38,40)                1.4244         estimate D2E/DX2                !
 ! R45   R(39,41)                1.3942         estimate D2E/DX2                !
 ! R46   R(39,42)                1.7615         estimate D2E/DX2                !
 ! R47   R(40,43)                1.0903         estimate D2E/DX2                !
 ! R48   R(40,44)                1.0971         estimate D2E/DX2                !
 ! R49   R(40,45)                1.0965         estimate D2E/DX2                !
 ! R50   R(41,46)                1.4238         estimate D2E/DX2                !
 ! R51   R(41,47)                1.3589         estimate D2E/DX2                !
 ! R52   R(42,48)                1.7269         estimate D2E/DX2                !
 ! R53   R(46,48)                1.369          estimate D2E/DX2                !
 ! R54   R(46,49)                1.081          estimate D2E/DX2                !
 ! R55   R(47,50)                1.4234         estimate D2E/DX2                !
 ! R56   R(48,51)                1.082          estimate D2E/DX2                !
 ! R57   R(50,52)                1.0976         estimate D2E/DX2                !
 ! R58   R(50,53)                1.0888         estimate D2E/DX2                !
 ! R59   R(50,54)                1.0972         estimate D2E/DX2                !
 ! A1    A(2,1,19)             116.767          estimate D2E/DX2                !
 ! A2    A(2,1,20)             122.9113         estimate D2E/DX2                !
 ! A3    A(19,1,20)            120.3217         estimate D2E/DX2                !
 ! A4    A(1,2,3)              120.5473         estimate D2E/DX2                !
 ! A5    A(1,2,6)              119.3369         estimate D2E/DX2                !
 ! A6    A(3,2,6)              120.1056         estimate D2E/DX2                !
 ! A7    A(2,3,4)              120.3743         estimate D2E/DX2                !
 ! A8    A(2,3,7)              118.662          estimate D2E/DX2                !
 ! A9    A(4,3,7)              120.9617         estimate D2E/DX2                !
 ! A10   A(3,4,5)              120.4909         estimate D2E/DX2                !
 ! A11   A(3,4,14)             120.2702         estimate D2E/DX2                !
 ! A12   A(5,4,14)             119.2382         estimate D2E/DX2                !
 ! A13   A(4,5,19)             116.7341         estimate D2E/DX2                !
 ! A14   A(4,5,21)             122.024          estimate D2E/DX2                !
 ! A15   A(19,5,21)            121.2418         estimate D2E/DX2                !
 ! A16   A(2,6,9)              123.2421         estimate D2E/DX2                !
 ! A17   A(2,6,17)             117.1119         estimate D2E/DX2                !
 ! A18   A(9,6,17)             119.589          estimate D2E/DX2                !
 ! A19   A(3,7,8)              120.9519         estimate D2E/DX2                !
 ! A20   A(3,7,12)             117.1037         estimate D2E/DX2                !
 ! A21   A(8,7,12)             121.944          estimate D2E/DX2                !
 ! A22   A(7,8,9)              119.5639         estimate D2E/DX2                !
 ! A23   A(7,8,10)             117.3064         estimate D2E/DX2                !
 ! A24   A(9,8,10)             122.9922         estimate D2E/DX2                !
 ! A25   A(6,9,8)              117.3944         estimate D2E/DX2                !
 ! A26   A(6,9,32)             115.0236         estimate D2E/DX2                !
 ! A27   A(8,9,32)             127.5648         estimate D2E/DX2                !
 ! A28   A(8,10,18)            118.042          estimate D2E/DX2                !
 ! A29   A(8,10,23)            124.5436         estimate D2E/DX2                !
 ! A30   A(18,10,23)           117.4097         estimate D2E/DX2                !
 ! A31   A(12,11,18)           115.5202         estimate D2E/DX2                !
 ! A32   A(12,11,22)           122.7205         estimate D2E/DX2                !
 ! A33   A(18,11,22)           121.7534         estimate D2E/DX2                !
 ! A34   A(7,12,11)            120.8614         estimate D2E/DX2                !
 ! A35   A(7,12,13)            121.162          estimate D2E/DX2                !
 ! A36   A(11,12,13)           117.9699         estimate D2E/DX2                !
 ! A37   A(12,13,14)           120.9948         estimate D2E/DX2                !
 ! A38   A(12,13,16)           117.8401         estimate D2E/DX2                !
 ! A39   A(14,13,16)           121.1642         estimate D2E/DX2                !
 ! A40   A(4,14,13)            119.5003         estimate D2E/DX2                !
 ! A41   A(4,14,15)            118.9169         estimate D2E/DX2                !
 ! A42   A(13,14,15)           121.5811         estimate D2E/DX2                !
 ! A43   A(10,18,11)           126.0753         estimate D2E/DX2                !
 ! A44   A(10,18,24)           115.7508         estimate D2E/DX2                !
 ! A45   A(11,18,24)           118.1737         estimate D2E/DX2                !
 ! A46   A(1,19,5)             125.0856         estimate D2E/DX2                !
 ! A47   A(1,19,28)            116.2868         estimate D2E/DX2                !
 ! A48   A(5,19,28)            118.6276         estimate D2E/DX2                !
 ! A49   A(18,24,25)           109.8574         estimate D2E/DX2                !
 ! A50   A(18,24,26)           109.8979         estimate D2E/DX2                !
 ! A51   A(18,24,27)           107.5355         estimate D2E/DX2                !
 ! A52   A(25,24,26)           108.1108         estimate D2E/DX2                !
 ! A53   A(25,24,27)           110.8301         estimate D2E/DX2                !
 ! A54   A(26,24,27)           110.6124         estimate D2E/DX2                !
 ! A55   A(19,28,29)           109.6906         estimate D2E/DX2                !
 ! A56   A(19,28,30)           109.8136         estimate D2E/DX2                !
 ! A57   A(19,28,31)           107.7461         estimate D2E/DX2                !
 ! A58   A(29,28,30)           108.2991         estimate D2E/DX2                !
 ! A59   A(29,28,31)           110.6959         estimate D2E/DX2                !
 ! A60   A(30,28,31)           110.5924         estimate D2E/DX2                !
 ! A61   A(9,32,33)            130.8839         estimate D2E/DX2                !
 ! A62   A(9,32,34)            118.8051         estimate D2E/DX2                !
 ! A63   A(33,32,34)           110.053          estimate D2E/DX2                !
 ! A64   A(32,33,35)           113.5391         estimate D2E/DX2                !
 ! A65   A(32,33,36)           122.7496         estimate D2E/DX2                !
 ! A66   A(35,33,36)           123.7088         estimate D2E/DX2                !
 ! A67   A(32,34,37)            92.6072         estimate D2E/DX2                !
 ! A68   A(33,35,37)           114.4721         estimate D2E/DX2                !
 ! A69   A(33,35,38)           126.4821         estimate D2E/DX2                !
 ! A70   A(37,35,38)           119.0458         estimate D2E/DX2                !
 ! A71   A(34,37,35)           109.323          estimate D2E/DX2                !
 ! A72   A(34,37,39)           122.9708         estimate D2E/DX2                !
 ! A73   A(35,37,39)           127.69           estimate D2E/DX2                !
 ! A74   A(35,38,40)           117.4883         estimate D2E/DX2                !
 ! A75   A(37,39,41)           127.5839         estimate D2E/DX2                !
 ! A76   A(37,39,42)           123.0862         estimate D2E/DX2                !
 ! A77   A(41,39,42)           109.3299         estimate D2E/DX2                !
 ! A78   A(38,40,43)           105.9632         estimate D2E/DX2                !
 ! A79   A(38,40,44)           111.2299         estimate D2E/DX2                !
 ! A80   A(38,40,45)           111.2125         estimate D2E/DX2                !
 ! A81   A(43,40,44)           109.3399         estimate D2E/DX2                !
 ! A82   A(43,40,45)           109.6863         estimate D2E/DX2                !
 ! A83   A(44,40,45)           109.3431         estimate D2E/DX2                !
 ! A84   A(39,41,46)           114.1827         estimate D2E/DX2                !
 ! A85   A(39,41,47)           119.2601         estimate D2E/DX2                !
 ! A86   A(46,41,47)           126.5567         estimate D2E/DX2                !
 ! A87   A(39,42,48)            91.8065         estimate D2E/DX2                !
 ! A88   A(41,46,48)           111.8936         estimate D2E/DX2                !
 ! A89   A(41,46,49)           124.4829         estimate D2E/DX2                !
 ! A90   A(48,46,49)           123.6235         estimate D2E/DX2                !
 ! A91   A(41,47,50)           117.9862         estimate D2E/DX2                !
 ! A92   A(42,48,46)           112.7872         estimate D2E/DX2                !
 ! A93   A(42,48,51)           119.7667         estimate D2E/DX2                !
 ! A94   A(46,48,51)           127.4458         estimate D2E/DX2                !
 ! A95   A(47,50,52)           111.2126         estimate D2E/DX2                !
 ! A96   A(47,50,53)           106.0565         estimate D2E/DX2                !
 ! A97   A(47,50,54)           111.244          estimate D2E/DX2                !
 ! A98   A(52,50,53)           109.4252         estimate D2E/DX2                !
 ! A99   A(52,50,54)           109.404          estimate D2E/DX2                !
 ! A100  A(53,50,54)           109.4278         estimate D2E/DX2                !
 ! D1    D(19,1,2,3)             0.1578         estimate D2E/DX2                !
 ! D2    D(19,1,2,6)          -178.6792         estimate D2E/DX2                !
 ! D3    D(20,1,2,3)          -179.8231         estimate D2E/DX2                !
 ! D4    D(20,1,2,6)             1.3399         Frozen                          !
 ! D5    D(2,1,19,5)            -0.124          estimate D2E/DX2                !
 ! D6    D(2,1,19,28)          179.8267         estimate D2E/DX2                !
 ! D7    D(20,1,19,5)          179.8575         estimate D2E/DX2                !
 ! D8    D(20,1,19,28)          -0.1919         estimate D2E/DX2                !
 ! D9    D(1,2,3,4)              0.0571         estimate D2E/DX2                !
 ! D10   D(1,2,3,7)            179.5453         estimate D2E/DX2                !
 ! D11   D(6,2,3,4)            178.8851         estimate D2E/DX2                !
 ! D12   D(6,2,3,7)             -1.6266         estimate D2E/DX2                !
 ! D13   D(1,2,6,9)            178.625          estimate D2E/DX2                !
 ! D14   D(1,2,6,17)             1.3881         estimate D2E/DX2                !
 ! D15   D(3,2,6,9)             -0.2173         estimate D2E/DX2                !
 ! D16   D(3,2,6,17)          -177.4541         estimate D2E/DX2                !
 ! D17   D(2,3,4,5)             -0.3074         estimate D2E/DX2                !
 ! D18   D(2,3,4,14)           179.3968         estimate D2E/DX2                !
 ! D19   D(7,3,4,5)           -179.7837         estimate D2E/DX2                !
 ! D20   D(7,3,4,14)            -0.0795         estimate D2E/DX2                !
 ! D21   D(2,3,7,8)              1.0523         estimate D2E/DX2                !
 ! D22   D(2,3,7,12)          -178.712          estimate D2E/DX2                !
 ! D23   D(4,3,7,8)           -179.4626         estimate D2E/DX2                !
 ! D24   D(4,3,7,12)             0.7731         estimate D2E/DX2                !
 ! D25   D(3,4,5,19)             0.3343         estimate D2E/DX2                !
 ! D26   D(3,4,5,21)          -179.7799         estimate D2E/DX2                !
 ! D27   D(14,4,5,19)         -179.3729         estimate D2E/DX2                !
 ! D28   D(14,4,5,21)            0.5129         estimate D2E/DX2                !
 ! D29   D(3,4,14,13)           -0.4559         estimate D2E/DX2                !
 ! D30   D(3,4,14,15)         -179.9937         estimate D2E/DX2                !
 ! D31   D(5,4,14,13)          179.252          estimate D2E/DX2                !
 ! D32   D(5,4,14,15)           -0.2858         estimate D2E/DX2                !
 ! D33   D(4,5,19,1)            -0.1141         estimate D2E/DX2                !
 ! D34   D(4,5,19,28)          179.9364         estimate D2E/DX2                !
 ! D35   D(21,5,19,1)          179.9992         estimate D2E/DX2                !
 ! D36   D(21,5,19,28)           0.0496         estimate D2E/DX2                !
 ! D37   D(2,6,9,8)              2.5984         estimate D2E/DX2                !
 ! D38   D(2,6,9,32)          -176.0103         estimate D2E/DX2                !
 ! D39   D(17,6,9,8)           179.77           estimate D2E/DX2                !
 ! D40   D(17,6,9,32)            1.1613         estimate D2E/DX2                !
 ! D41   D(3,7,8,9)              1.3551         estimate D2E/DX2                !
 ! D42   D(3,7,8,10)          -174.5099         estimate D2E/DX2                !
 ! D43   D(12,7,8,9)          -178.8921         estimate D2E/DX2                !
 ! D44   D(12,7,8,10)            5.2428         estimate D2E/DX2                !
 ! D45   D(3,7,12,11)          178.0768         estimate D2E/DX2                !
 ! D46   D(3,7,12,13)           -0.9621         estimate D2E/DX2                !
 ! D47   D(8,7,12,11)           -1.685          estimate D2E/DX2                !
 ! D48   D(8,7,12,13)          179.2761         estimate D2E/DX2                !
 ! D49   D(7,8,9,6)             -3.0809         estimate D2E/DX2                !
 ! D50   D(7,8,9,32)           175.3285         estimate D2E/DX2                !
 ! D51   D(10,8,9,6)           172.5381         estimate D2E/DX2                !
 ! D52   D(10,8,9,32)           -9.0525         estimate D2E/DX2                !
 ! D53   D(7,8,10,18)           -4.7549         estimate D2E/DX2                !
 ! D54   D(7,8,10,23)          174.4235         estimate D2E/DX2                !
 ! D55   D(9,8,10,18)          179.5335         estimate D2E/DX2                !
 ! D56   D(9,8,10,23)           -1.2882         Frozen                          !
 ! D57   D(6,9,32,33)          138.4239         estimate D2E/DX2                !
 ! D58   D(6,9,32,34)          -35.1016         estimate D2E/DX2                !
 ! D59   D(8,9,32,33)          -40.0176         Frozen                          !
 ! D60   D(8,9,32,34)          146.4569         estimate D2E/DX2                !
 ! D61   D(8,10,18,11)           0.7189         estimate D2E/DX2                !
 ! D62   D(8,10,18,24)        -179.4089         estimate D2E/DX2                !
 ! D63   D(23,10,18,11)       -178.5188         estimate D2E/DX2                !
 ! D64   D(23,10,18,24)          1.3535         estimate D2E/DX2                !
 ! D65   D(18,11,12,7)          -2.3856         estimate D2E/DX2                !
 ! D66   D(18,11,12,13)        176.6833         estimate D2E/DX2                !
 ! D67   D(22,11,12,7)         178.4862         estimate D2E/DX2                !
 ! D68   D(22,11,12,13)         -2.445          estimate D2E/DX2                !
 ! D69   D(12,11,18,10)          2.8444         estimate D2E/DX2                !
 ! D70   D(12,11,18,24)       -177.0251         estimate D2E/DX2                !
 ! D71   D(22,11,18,10)       -178.0181         estimate D2E/DX2                !
 ! D72   D(22,11,18,24)          2.1124         estimate D2E/DX2                !
 ! D73   D(7,12,13,14)           0.461          estimate D2E/DX2                !
 ! D74   D(7,12,13,16)        -179.8781         estimate D2E/DX2                !
 ! D75   D(11,12,13,14)       -178.6049         estimate D2E/DX2                !
 ! D76   D(11,12,13,16)          1.056          estimate D2E/DX2                !
 ! D77   D(12,13,14,4)           0.2708         estimate D2E/DX2                !
 ! D78   D(12,13,14,15)        179.7958         estimate D2E/DX2                !
 ! D79   D(16,13,14,4)        -179.3788         estimate D2E/DX2                !
 ! D80   D(16,13,14,15)          0.1463         estimate D2E/DX2                !
 ! D81   D(10,18,24,25)        -59.609          Frozen                          !
 ! D82   D(10,18,24,26)         59.2209         estimate D2E/DX2                !
 ! D83   D(10,18,24,27)        179.6858         estimate D2E/DX2                !
 ! D84   D(11,18,24,25)        120.2739         estimate D2E/DX2                !
 ! D85   D(11,18,24,26)       -120.8962         estimate D2E/DX2                !
 ! D86   D(11,18,24,27)         -0.4313         estimate D2E/DX2                !
 ! D87   D(1,19,28,29)         -58.1407         estimate D2E/DX2                !
 ! D88   D(1,19,28,30)          60.7668         Frozen                          !
 ! D89   D(1,19,28,31)        -178.7139         estimate D2E/DX2                !
 ! D90   D(5,19,28,29)         121.8132         estimate D2E/DX2                !
 ! D91   D(5,19,28,30)        -119.2792         estimate D2E/DX2                !
 ! D92   D(5,19,28,31)           1.2401         estimate D2E/DX2                !
 ! D93   D(9,32,33,35)        -174.2298         estimate D2E/DX2                !
 ! D94   D(9,32,33,36)           6.3205         estimate D2E/DX2                !
 ! D95   D(34,32,33,35)         -0.2676         estimate D2E/DX2                !
 ! D96   D(34,32,33,36)       -179.7174         estimate D2E/DX2                !
 ! D97   D(9,32,34,37)         175.3544         estimate D2E/DX2                !
 ! D98   D(33,32,34,37)          0.5614         estimate D2E/DX2                !
 ! D99   D(32,33,35,37)         -0.2805         estimate D2E/DX2                !
 ! D100  D(32,33,35,38)        179.7476         estimate D2E/DX2                !
 ! D101  D(36,33,35,37)        179.1632         estimate D2E/DX2                !
 ! D102  D(36,33,35,38)         -0.8087         estimate D2E/DX2                !
 ! D103  D(32,34,37,35)         -0.7035         estimate D2E/DX2                !
 ! D104  D(32,34,37,39)        177.9318         estimate D2E/DX2                !
 ! D105  D(33,35,37,34)          0.6907         estimate D2E/DX2                !
 ! D106  D(33,35,37,39)       -177.8624         estimate D2E/DX2                !
 ! D107  D(38,35,37,34)       -179.3351         estimate D2E/DX2                !
 ! D108  D(38,35,37,39)          2.1118         estimate D2E/DX2                !
 ! D109  D(33,35,38,40)          6.534          Frozen                          !
 ! D110  D(37,35,38,40)       -173.4368         estimate D2E/DX2                !
 ! D111  D(34,37,39,41)          2.852          estimate D2E/DX2                !
 ! D112  D(34,37,39,42)       -177.1668         estimate D2E/DX2                !
 ! D113  D(35,37,39,41)       -178.7755         estimate D2E/DX2                !
 ! D114  D(35,37,39,42)          1.2057         estimate D2E/DX2                !
 ! D115  D(35,38,40,43)        175.4575         estimate D2E/DX2                !
 ! D116  D(35,38,40,44)        -65.8142         estimate D2E/DX2                !
 ! D117  D(35,38,40,45)         56.3225         estimate D2E/DX2                !
 ! D118  D(37,39,41,46)       -179.9866         estimate D2E/DX2                !
 ! D119  D(37,39,41,47)         -0.2025         estimate D2E/DX2                !
 ! D120  D(42,39,41,46)          0.0301         estimate D2E/DX2                !
 ! D121  D(42,39,41,47)        179.8143         estimate D2E/DX2                !
 ! D122  D(37,39,42,48)        179.9907         estimate D2E/DX2                !
 ! D123  D(41,39,42,48)         -0.0251         estimate D2E/DX2                !
 ! D124  D(39,41,46,48)         -0.02           estimate D2E/DX2                !
 ! D125  D(39,41,46,49)       -179.9829         estimate D2E/DX2                !
 ! D126  D(47,41,46,48)       -179.7856         estimate D2E/DX2                !
 ! D127  D(47,41,46,49)          0.2515         estimate D2E/DX2                !
 ! D128  D(39,41,47,50)        178.3764         estimate D2E/DX2                !
 ! D129  D(46,41,47,50)         -1.8687         Frozen                          !
 ! D130  D(39,42,48,46)          0.0147         estimate D2E/DX2                !
 ! D131  D(39,42,48,51)        179.8259         estimate D2E/DX2                !
 ! D132  D(41,46,48,42)         -0.0002         estimate D2E/DX2                !
 ! D133  D(41,46,48,51)       -179.7938         estimate D2E/DX2                !
 ! D134  D(49,46,48,42)        179.963          estimate D2E/DX2                !
 ! D135  D(49,46,48,51)          0.1695         estimate D2E/DX2                !
 ! D136  D(41,47,50,52)         62.0092         estimate D2E/DX2                !
 ! D137  D(41,47,50,53)       -179.1134         estimate D2E/DX2                !
 ! D138  D(41,47,50,54)        -60.2157         estimate D2E/DX2                !
 --------------------------------------------------------------------------------
 Trust Radius=3.00D-01 FncErr=1.00D-07 GrdErr=1.00D-06 EigMax=2.50D+02 EigMin=1.00D-04
 Number of steps in this run=    307 maximum allowed number of steps=    324.
 GradGradGradGradGradGradGradGradGradGradGradGradGradGradGradGradGradGrad

 Stoichiometry    C26H18N2O6S2
 Framework group  C1[X(C26H18N2O6S2)]
 Deg. of freedom   156
 Full point group                 C1      NOp   1
 Largest Abelian subgroup         C1      NOp   1
 Largest concise Abelian subgroup C1      NOp   1
                         Standard orientation:                         
 ---------------------------------------------------------------------
 Center     Atomic      Atomic             Coordinates (Angstroms)
 Number     Number       Type             X           Y           Z
 ---------------------------------------------------------------------
      1          6           0        2.583379   -2.984229    0.449323
      2          6           0        2.267910   -1.545266    0.249389
      3          6           0        3.305450   -0.597656    0.086598
      4          6           0        4.656904   -1.007172    0.110733
      5          6           0        5.008365   -2.437898    0.314219
      6          6           0        0.957691   -1.138248    0.247892
      7          6           0        2.957368    0.769142   -0.112123
      8          6           0        1.587983    1.185701   -0.125173
      9          6           0        0.561026    0.226817    0.091665
     10          6           0        1.310268    2.608149   -0.463280
     11          6           0        3.755859    3.119124   -0.555135
     12          6           0        4.023820    1.687595   -0.299831
     13          6           0        5.347387    1.268008   -0.269302
     14          6           0        5.672444   -0.077800   -0.061621
     15          1           0        6.701489   -0.416054   -0.039279
     16          1           0        6.119102    2.015366   -0.417044
     17          1           0        0.204265   -1.898225    0.418619
     18          7           0        2.408051    3.471818   -0.646606
     19          7           0        3.938494   -3.335767    0.469700
     20          8           0        1.721170   -3.840152    0.591286
     21          8           0        6.167731   -2.822369    0.343887
     22          8           0        4.649245    3.945237   -0.695026
     23          8           0        0.190325    3.081406   -0.608447
     24          6           0        2.076676    4.865224   -0.964833
     25          1           0        1.496504    4.906669   -1.887895
     26          1           0        1.471136    5.295978   -0.163291
     27          1           0        3.011866    5.407946   -1.071588
     28          6           0        4.237892   -4.757791    0.671577
     29          1           0        3.801738   -5.095452    1.614089
     30          1           0        3.802115   -5.346224   -0.138005
     31          1           0        5.318687   -4.869839    0.686601
     32          6           0       -0.876206    0.470609    0.208436
     33          6           0       -1.573436    1.482811    0.839589
     34         16           0       -1.996775   -0.748028   -0.398693
     35          6           0       -2.968590    1.293261    0.833343
     36          1           0       -1.087580    2.336994    1.283333
     37          6           0       -3.391751    0.126892    0.188864
     38          8           0       -3.899673    2.120160    1.381041
     39          6           0       -4.739508   -0.320939   -0.019643
     40          6           0       -3.447117    3.366162    1.902229
     41          6           0       -5.158410   -1.496012   -0.642051
     42         16           0       -6.149279    0.594155    0.507548
     43          1           0       -4.342978    3.904284    2.213159
     44          1           0       -2.791926    3.219421    2.769877
     45          1           0       -2.914490    3.945584    1.138800
     46          6           0       -6.572165   -1.656232   -0.694490
     47          8           0       -4.227599   -2.356203   -1.132324
     48          6           0       -7.227072   -0.604408   -0.112243
     49          1           0       -7.076057   -2.503510   -1.138147
     50          6           0       -4.684101   -3.564184   -1.730959
     51          1           0       -8.295858   -0.469846   -0.010649
     52          1           0       -5.306715   -3.360426   -2.611631
     53          1           0       -3.790177   -4.105254   -2.036833
     54          1           0       -5.252047   -4.172397   -1.015837
 ---------------------------------------------------------------------
 Rotational constants (GHZ):           0.1535524           0.0587312           0.0445036
 Standard basis: 6-311+G(d,p) (5D, 7F)
 There are   952 symmetry adapted cartesian basis functions of A   symmetry.
 There are   916 symmetry adapted basis functions of A   symmetry.
   916 basis functions,  1468 primitive gaussians,   952 cartesian basis functions
   134 alpha electrons      134 beta electrons
       nuclear repulsion energy      4082.4937826254 Hartrees.
 NAtoms=   54 NActive=   54 NUniq=   54 SFac= 1.00D+00 NAtFMM=   60 NAOKFM=F Big=F
 Integral buffers will be    131072 words long.
 Raffenetti 2 integral format.
 Two-electron integral symmetry is turned on.
 Nuclear repulsion after empirical dispersion term =     4082.4530553156 Hartrees.
 One-electron integrals computed using PRISM.
 NBasis=   916 RedAO= T EigKep=  1.63D-06  NBF=   916
 NBsUse=   901 1.00D-06 EigRej=  9.23D-07 NBFU=   901
 ExpMin= 4.05D-02 ExpMax= 9.34D+04 ExpMxC= 3.17D+03 IAcc=3 IRadAn=         5 AccDes= 0.00D+00
 Harris functional with IExCor= 4639 and IRadAn=       5 diagonalized for initial guess.
 HarFok:  IExCor= 4639 AccDes= 0.00D+00 IRadAn=         5 IDoV= 1 UseB2=F ITyADJ=14
 ICtDFT=  3500011 ScaDFX=  1.000000  1.000000  1.000000  1.000000
 FoFCou: FMM=F IPFlag=           0 FMFlag=      100000 FMFlg1=           0
         NFxFlg=           0 DoJE=T BraDBF=F KetDBF=T FulRan=T
         wScrn=  0.000000 ICntrl=       500 IOpCl=  0 I1Cent=   200000004 NGrid=           0
         NMat0=    1 NMatS0=      1 NMatT0=    0 NMatD0=    1 NMtDS0=    0 NMtDT0=    0
 Petite list used in FoFCou.
 Requested convergence on RMS density matrix=1.00D-08 within 128 cycles.
 Requested convergence on MAX density matrix=1.00D-06.
 Requested convergence on             energy=1.00D-06.
 No special actions if energy rises.
 SCF Done:  E(RwB97XD) =  -2358.76992070     A.U. after   19 cycles
            NFock= 19  Conv=0.60D-08     -V/T= 2.0032

 **********************************************************************

            Population analysis using the SCF Density.

 **********************************************************************

 Orbital symmetries:
       Occupied  (A) (A) (A) (A) (A) (A) (A) (A) (A) (A) (A) (A)
                 (A) (A) (A) (A) (A) (A) (A) (A) (A) (A) (A) (A)
                 (A) (A) (A) (A) (A) (A) (A) (A) (A) (A) (A) (A)
                 (A) (A) (A) (A) (A) (A) (A) (A) (A) (A) (A) (A)
                 (A) (A) (A) (A) (A) (A) (A) (A) (A) (A) (A) (A)
                 (A) (A) (A) (A) (A) (A) (A) (A) (A) (A) (A) (A)
                 (A) (A) (A) (A) (A) (A) (A) (A) (A) (A) (A) (A)
                 (A) (A) (A) (A) (A) (A) (A) (A) (A) (A) (A) (A)
                 (A) (A) (A) (A) (A) (A) (A) (A) (A) (A) (A) (A)
                 (A) (A) (A) (A) (A) (A) (A) (A) (A) (A) (A) (A)
                 (A) (A) (A) (A) (A) (A) (A) (A) (A) (A) (A) (A)
                 (A) (A)
       Virtual   (A) (A) (A) (A) (A) (A) (A) (A) (A) (A) (A) (A)
                 (A) (A) (A) (A) (A) (A) (A) (A) (A) (A) (A) (A)
                 (A) (A) (A) (A) (A) (A) (A) (A) (A) (A) (A) (A)
                 (A) (A) (A) (A) (A) (A) (A) (A) (A) (A) (A) (A)
                 (A) (A) (A) (A) (A) (A) (A) (A) (A) (A) (A) (A)
                 (A) (A) (A) (A) (A) (A) (A) (A) (A) (A) (A) (A)
                 (A) (A) (A) (A) (A) (A) (A) (A) (A) (A) (A) (A)
                 (A) (A) (A) (A) (A) (A) (A) (A) (A) (A) (A) (A)
                 (A) (A) (A) (A) (A) (A) (A) (A) (A) (A) (A) (A)
                 (A) (A) (A) (A) (A) (A) (A) (A) (A) (A) (A) (A)
                 (A) (A) (A) (A) (A) (A) (A) (A) (A) (A) (A) (A)
                 (A) (A) (A) (A) (A) (A) (A) (A) (A) (A) (A) (A)
                 (A) (A) (A) (A) (A) (A) (A) (A) (A) (A) (A) (A)
                 (A) (A) (A) (A) (A) (A) (A) (A) (A) (A) (A) (A)
                 (A) (A) (A) (A) (A) (A) (A) (A) (A) (A) (A) (A)
                 (A) (A) (A) (A) (A) (A) (A) (A) (A) (A) (A) (A)
                 (A) (A) (A) (A) (A) (A) (A) (A) (A) (A) (A) (A)
                 (A) (A) (A) (A) (A) (A) (A) (A) (A) (A) (A) (A)
                 (A) (A) (A) (A) (A) (A) (A) (A) (A) (A) (A) (A)
                 (A) (A) (A) (A) (A) (A) (A) (A) (A) (A) (A) (A)
                 (A) (A) (A) (A) (A) (A) (A) (A) (A) (A) (A) (A)
                 (A) (A) (A) (A) (A) (A) (A) (A) (A) (A) (A) (A)
                 (A) (A) (A) (A) (A) (A) (A) (A) (A) (A) (A) (A)
                 (A) (A) (A) (A) (A) (A) (A) (A) (A) (A) (A) (A)
                 (A) (A) (A) (A) (A) (A) (A) (A) (A) (A) (A) (A)
                 (A) (A) (A) (A) (A) (A) (A) (A) (A) (A) (A) (A)
                 (A) (A) (A) (A) (A) (A) (A) (A) (A) (A) (A) (A)
                 (A) (A) (A) (A) (A) (A) (A) (A) (A) (A) (A) (A)
                 (A) (A) (A) (A) (A) (A) (A) (A) (A) (A) (A) (A)
                 (A) (A) (A) (A) (A) (A) (A) (A) (A) (A) (A) (A)
                 (A) (A) (A) (A) (A) (A) (A) (A) (A) (A) (A) (A)
                 (A) (A) (A) (A) (A) (A) (A) (A) (A) (A) (A) (A)
                 (A) (A) (A) (A) (A) (A) (A) (A) (A) (A) (A) (A)
                 (A) (A) (A) (A) (A) (A) (A) (A) (A) (A) (A) (A)
                 (A) (A) (A) (A) (A) (A) (A) (A) (A) (A) (A) (A)
                 (A) (A) (A) (A) (A) (A) (A) (A) (A) (A) (A) (A)
                 (A) (A) (A) (A) (A) (A) (A) (A) (A) (A) (A) (A)
                 (A) (A) (A) (A) (A) (A) (A) (A) (A) (A) (A) (A)
                 (A) (A) (A) (A) (A) (A) (A) (A) (A) (A) (A) (A)
                 (A) (A) (A) (A) (A) (A) (A) (A) (A) (A) (A) (A)
                 (A) (A) (A) (A) (A) (A) (A) (A) (A) (A) (A) (A)
                 (A) (A) (A) (A) (A) (A) (A) (A) (A) (A) (A) (A)
                 (A) (A) (A) (A) (A) (A) (A) (A) (A) (A) (A) (A)
                 (A) (A) (A) (A) (A) (A) (A) (A) (A) (A) (A) (A)
                 (A) (A) (A) (A) (A) (A) (A) (A) (A) (A) (A) (A)
                 (A) (A) (A) (A) (A) (A) (A) (A) (A) (A) (A) (A)
                 (A) (A) (A) (A) (A) (A) (A) (A) (A) (A) (A) (A)
                 (A) (A) (A) (A) (A) (A) (A) (A) (A) (A) (A) (A)
                 (A) (A) (A) (A) (A) (A) (A) (A) (A) (A) (A) (A)
                 (A) (A) (A) (A) (A) (A) (A) (A) (A) (A) (A) (A)
                 (A) (A) (A) (A) (A) (A) (A) (A) (A) (A) (A) (A)
                 (A) (A) (A) (A) (A) (A) (A) (A) (A) (A) (A) (A)
                 (A) (A) (A) (A) (A) (A) (A) (A) (A) (A) (A) (A)
                 (A) (A) (A) (A) (A) (A) (A) (A) (A) (A) (A) (A)
                 (A) (A) (A) (A) (A) (A) (A) (A) (A) (A) (A) (A)
                 (A) (A) (A) (A) (A) (A) (A) (A) (A) (A) (A) (A)
                 (A) (A) (A) (A) (A) (A) (A) (A) (A) (A) (A) (A)
                 (A) (A) (A) (A) (A) (A) (A) (A) (A) (A) (A) (A)
                 (A) (A) (A) (A) (A) (A) (A) (A) (A) (A) (A) (A)
                 (A) (A) (A) (A) (A) (A) (A) (A) (A) (A) (A) (A)
                 (A) (A) (A) (A) (A) (A) (A) (A) (A) (A) (A) (A)
                 (A) (A) (A) (A) (A) (A) (A) (A) (A) (A) (A) (A)
                 (A) (A) (A) (A) (A) (A) (A) (A) (A) (A) (A) (A)
                 (A) (A) (A) (A) (A) (A) (A) (A) (A) (A) (A)
 The electronic state is 1-A.
 Alpha  occ. eigenvalues --  -89.05202 -89.04994 -19.29360 -19.29003 -19.25089
 Alpha  occ. eigenvalues --  -19.25046 -19.24477 -19.24432 -14.50747 -14.50296
 Alpha  occ. eigenvalues --  -10.43042 -10.42845 -10.42716 -10.42391 -10.36018
 Alpha  occ. eigenvalues --  -10.35957 -10.35699 -10.34849 -10.34785 -10.34577
 Alpha  occ. eigenvalues --  -10.34491 -10.34269 -10.34044 -10.34011 -10.33784
 Alpha  occ. eigenvalues --  -10.33669 -10.33474 -10.33016 -10.32913 -10.32843
 Alpha  occ. eigenvalues --  -10.32781 -10.32340 -10.32283 -10.31972 -10.30269
 Alpha  occ. eigenvalues --  -10.30106  -8.09155  -8.08945  -6.04012  -6.03795
 Alpha  occ. eigenvalues --   -6.03619  -6.03402  -6.03223  -6.03030  -1.18827
 Alpha  occ. eigenvalues --   -1.18523  -1.18440  -1.18178  -1.16862  -1.16369
 Alpha  occ. eigenvalues --   -1.06381  -1.05817  -1.02722  -1.00217  -0.98617
 Alpha  occ. eigenvalues --   -0.96741  -0.94469  -0.90452  -0.88525  -0.87406
 Alpha  occ. eigenvalues --   -0.85872  -0.85047  -0.84735  -0.82718  -0.82095
 Alpha  occ. eigenvalues --   -0.81583  -0.79656  -0.78288  -0.76665  -0.75398
 Alpha  occ. eigenvalues --   -0.75078  -0.74062  -0.70301  -0.68873  -0.67856
 Alpha  occ. eigenvalues --   -0.66560  -0.65699  -0.65069  -0.64391  -0.63516
 Alpha  occ. eigenvalues --   -0.62315  -0.60623  -0.59387  -0.58852  -0.58669
 Alpha  occ. eigenvalues --   -0.58210  -0.57518  -0.57240  -0.57139  -0.56789
 Alpha  occ. eigenvalues --   -0.56592  -0.55673  -0.55271  -0.54942  -0.54359
 Alpha  occ. eigenvalues --   -0.53756  -0.53558  -0.53125  -0.53086  -0.52004
 Alpha  occ. eigenvalues --   -0.51321  -0.51071  -0.50643  -0.50581  -0.50179
 Alpha  occ. eigenvalues --   -0.49972  -0.49514  -0.49444  -0.48755  -0.48085
 Alpha  occ. eigenvalues --   -0.47884  -0.47496  -0.46746  -0.45815  -0.45454
 Alpha  occ. eigenvalues --   -0.44279  -0.44103  -0.42399  -0.41798  -0.41441
 Alpha  occ. eigenvalues --   -0.41263  -0.40006  -0.39538  -0.38575  -0.37762
 Alpha  occ. eigenvalues --   -0.37229  -0.37041  -0.36661  -0.36233  -0.34593
 Alpha  occ. eigenvalues --   -0.33076  -0.31875  -0.31751  -0.25504
 Alpha virt. eigenvalues --   -0.07645  -0.01182   0.00181   0.02145   0.03110
 Alpha virt. eigenvalues --    0.05246   0.05695   0.06083   0.06711   0.06846
 Alpha virt. eigenvalues --    0.07128   0.07427   0.07687   0.07892   0.07950
 Alpha virt. eigenvalues --    0.08243   0.08580   0.08694   0.09046   0.09234
 Alpha virt. eigenvalues --    0.09297   0.09671   0.09897   0.10097   0.10373
 Alpha virt. eigenvalues --    0.10584   0.10874   0.11388   0.11484   0.11806
 Alpha virt. eigenvalues --    0.11936   0.12109   0.12273   0.12621   0.12863
 Alpha virt. eigenvalues --    0.13087   0.13377   0.13636   0.13788   0.14373
 Alpha virt. eigenvalues --    0.14812   0.14954   0.15086   0.15194   0.15519
 Alpha virt. eigenvalues --    0.15880   0.16021   0.16277   0.16692   0.16912
 Alpha virt. eigenvalues --    0.17090   0.17410   0.17672   0.17906   0.18023
 Alpha virt. eigenvalues --    0.18344   0.18876   0.19050   0.19449   0.19672
 Alpha virt. eigenvalues --    0.19914   0.19928   0.20140   0.20431   0.20652
 Alpha virt. eigenvalues --    0.20820   0.20995   0.21197   0.21463   0.21586
 Alpha virt. eigenvalues --    0.21914   0.22081   0.22367   0.22547   0.22710
 Alpha virt. eigenvalues --    0.23019   0.23287   0.23538   0.23797   0.24143
 Alpha virt. eigenvalues --    0.24410   0.24430   0.24733   0.24859   0.25047
 Alpha virt. eigenvalues --    0.25153   0.25468   0.25785   0.25924   0.26025
 Alpha virt. eigenvalues --    0.26080   0.26325   0.26507   0.26635   0.26913
 Alpha virt. eigenvalues --    0.27023   0.27213   0.27312   0.27571   0.27957
 Alpha virt. eigenvalues --    0.28026   0.28469   0.28597   0.28857   0.28915
 Alpha virt. eigenvalues --    0.29273   0.29569   0.29711   0.29758   0.29985
 Alpha virt. eigenvalues --    0.30092   0.30579   0.30596   0.30758   0.30884
 Alpha virt. eigenvalues --    0.31102   0.31488   0.31729   0.31791   0.31981
 Alpha virt. eigenvalues --    0.32156   0.32320   0.32593   0.32881   0.32923
 Alpha virt. eigenvalues --    0.33197   0.33387   0.33559   0.33695   0.34009
 Alpha virt. eigenvalues --    0.34335   0.34492   0.34607   0.34942   0.35179
 Alpha virt. eigenvalues --    0.35307   0.35538   0.35907   0.36149   0.36309
 Alpha virt. eigenvalues --    0.36473   0.36724   0.36919   0.37213   0.37656
 Alpha virt. eigenvalues --    0.37706   0.38197   0.38357   0.38572   0.39118
 Alpha virt. eigenvalues --    0.39245   0.39454   0.39739   0.39926   0.40275
 Alpha virt. eigenvalues --    0.40497   0.40899   0.41146   0.41415   0.41573
 Alpha virt. eigenvalues --    0.41796   0.42417   0.42615   0.42898   0.42997
 Alpha virt. eigenvalues --    0.43629   0.43781   0.44196   0.44436   0.45254
 Alpha virt. eigenvalues --    0.45513   0.45750   0.45939   0.46340   0.46628
 Alpha virt. eigenvalues --    0.46992   0.47667   0.48115   0.48312   0.48937
 Alpha virt. eigenvalues --    0.49437   0.49618   0.49976   0.50497   0.50885
 Alpha virt. eigenvalues --    0.51404   0.51758   0.52370   0.52794   0.52933
 Alpha virt. eigenvalues --    0.53181   0.53330   0.53862   0.54214   0.54653
 Alpha virt. eigenvalues --    0.54856   0.55285   0.55883   0.56842   0.57453
 Alpha virt. eigenvalues --    0.57606   0.57902   0.58124   0.58617   0.59084
 Alpha virt. eigenvalues --    0.59705   0.60518   0.60872   0.61439   0.61750
 Alpha virt. eigenvalues --    0.62376   0.62989   0.63301   0.63499   0.64023
 Alpha virt. eigenvalues --    0.64174   0.64499   0.64722   0.64875   0.65383
 Alpha virt. eigenvalues --    0.66129   0.66413   0.66767   0.67218   0.67512
 Alpha virt. eigenvalues --    0.67813   0.68071   0.69010   0.69083   0.69329
 Alpha virt. eigenvalues --    0.69691   0.69999   0.70125   0.70844   0.71493
 Alpha virt. eigenvalues --    0.71792   0.72162   0.72364   0.72920   0.73130
 Alpha virt. eigenvalues --    0.73411   0.73650   0.73741   0.73997   0.74402
 Alpha virt. eigenvalues --    0.75061   0.75349   0.75659   0.75950   0.76961
 Alpha virt. eigenvalues --    0.77127   0.77463   0.78029   0.78098   0.78389
 Alpha virt. eigenvalues --    0.79376   0.79613   0.79858   0.80247   0.80754
 Alpha virt. eigenvalues --    0.80979   0.81133   0.81654   0.81967   0.82195
 Alpha virt. eigenvalues --    0.82916   0.83092   0.83160   0.83844   0.83994
 Alpha virt. eigenvalues --    0.84350   0.84797   0.85039   0.85443   0.85807
 Alpha virt. eigenvalues --    0.86002   0.86475   0.86888   0.87161   0.87940
 Alpha virt. eigenvalues --    0.88084   0.88916   0.89220   0.89390   0.90268
 Alpha virt. eigenvalues --    0.91176   0.91464   0.92119   0.92726   0.94502
 Alpha virt. eigenvalues --    0.94592   0.94841   0.95680   0.96367   0.96714
 Alpha virt. eigenvalues --    0.97121   0.97741   0.97922   0.98645   0.99525
 Alpha virt. eigenvalues --    0.99830   1.00438   1.00682   1.00946   1.01339
 Alpha virt. eigenvalues --    1.02007   1.02401   1.02812   1.02986   1.03700
 Alpha virt. eigenvalues --    1.03971   1.04341   1.04591   1.04876   1.05390
 Alpha virt. eigenvalues --    1.05621   1.06478   1.06627   1.07701   1.08679
 Alpha virt. eigenvalues --    1.09129   1.09300   1.09690   1.09952   1.10351
 Alpha virt. eigenvalues --    1.11320   1.12057   1.12098   1.12421   1.12763
 Alpha virt. eigenvalues --    1.13026   1.13212   1.14104   1.14236   1.14951
 Alpha virt. eigenvalues --    1.14998   1.15516   1.15816   1.15964   1.16752
 Alpha virt. eigenvalues --    1.16979   1.17804   1.17980   1.18304   1.18801
 Alpha virt. eigenvalues --    1.19590   1.20128   1.21069   1.22007   1.23471
 Alpha virt. eigenvalues --    1.23886   1.24044   1.24995   1.25733   1.26373
 Alpha virt. eigenvalues --    1.26596   1.27277   1.28033   1.29200   1.29742
 Alpha virt. eigenvalues --    1.30550   1.31021   1.32150   1.32534   1.33057
 Alpha virt. eigenvalues --    1.34070   1.34243   1.34697   1.34840   1.35579
 Alpha virt. eigenvalues --    1.36729   1.37741   1.38526   1.39306   1.39851
 Alpha virt. eigenvalues --    1.40560   1.41393   1.42388   1.43504   1.43683
 Alpha virt. eigenvalues --    1.43896   1.44805   1.46140   1.46389   1.47749
 Alpha virt. eigenvalues --    1.48550   1.49255   1.50210   1.50588   1.51134
 Alpha virt. eigenvalues --    1.51162   1.51514   1.52209   1.52492   1.52853
 Alpha virt. eigenvalues --    1.53080   1.53366   1.53794   1.54254   1.54495
 Alpha virt. eigenvalues --    1.54523   1.54900   1.55817   1.56566   1.57424
 Alpha virt. eigenvalues --    1.58378   1.59147   1.59623   1.60133   1.60892
 Alpha virt. eigenvalues --    1.61877   1.62198   1.62443   1.63164   1.63474
 Alpha virt. eigenvalues --    1.63639   1.63872   1.64131   1.64837   1.65319
 Alpha virt. eigenvalues --    1.65767   1.66785   1.68018   1.69570   1.69710
 Alpha virt. eigenvalues --    1.71060   1.71323   1.71661   1.72235   1.72749
 Alpha virt. eigenvalues --    1.74455   1.74886   1.75321   1.75510   1.76083
 Alpha virt. eigenvalues --    1.76331   1.77567   1.77724   1.78070   1.78161
 Alpha virt. eigenvalues --    1.78804   1.79463   1.79567   1.79798   1.80596
 Alpha virt. eigenvalues --    1.80816   1.82148   1.82722   1.83339   1.84086
 Alpha virt. eigenvalues --    1.84550   1.85499   1.85908   1.86723   1.87293
 Alpha virt. eigenvalues --    1.87765   1.88220   1.88555   1.89352   1.90394
 Alpha virt. eigenvalues --    1.92221   1.92759   1.93420   1.93923   1.94858
 Alpha virt. eigenvalues --    1.95098   1.95300   1.95717   1.96149   1.96904
 Alpha virt. eigenvalues --    1.98309   1.98508   1.98551   1.99583   2.00231
 Alpha virt. eigenvalues --    2.00678   2.00803   2.02314   2.03255   2.03721
 Alpha virt. eigenvalues --    2.04432   2.05402   2.06140   2.06721   2.07113
 Alpha virt. eigenvalues --    2.08117   2.08862   2.09928   2.10444   2.10526
 Alpha virt. eigenvalues --    2.11699   2.12094   2.12759   2.13104   2.13384
 Alpha virt. eigenvalues --    2.14825   2.15073   2.15602   2.16023   2.16208
 Alpha virt. eigenvalues --    2.17204   2.17993   2.18711   2.20553   2.20614
 Alpha virt. eigenvalues --    2.20920   2.22261   2.22774   2.23712   2.24175
 Alpha virt. eigenvalues --    2.24403   2.25134   2.26203   2.27077   2.27568
 Alpha virt. eigenvalues --    2.27945   2.28416   2.29216   2.30577   2.31574
 Alpha virt. eigenvalues --    2.32919   2.34381   2.34621   2.35301   2.36839
 Alpha virt. eigenvalues --    2.39809   2.40967   2.41592   2.43906   2.45408
 Alpha virt. eigenvalues --    2.46501   2.47802   2.48088   2.50756   2.51978
 Alpha virt. eigenvalues --    2.52520   2.52744   2.53277   2.53846   2.55173
 Alpha virt. eigenvalues --    2.55896   2.56168   2.57561   2.58375   2.58742
 Alpha virt. eigenvalues --    2.59148   2.60768   2.61464   2.61806   2.62047
 Alpha virt. eigenvalues --    2.62187   2.62881   2.62930   2.64129   2.64640
 Alpha virt. eigenvalues --    2.65868   2.66941   2.68194   2.68739   2.69645
 Alpha virt. eigenvalues --    2.71989   2.72570   2.73438   2.73971   2.75974
 Alpha virt. eigenvalues --    2.76331   2.76629   2.77125   2.77882   2.78656
 Alpha virt. eigenvalues --    2.79185   2.79414   2.79736   2.80620   2.81158
 Alpha virt. eigenvalues --    2.81593   2.82295   2.82744   2.83560   2.85171
 Alpha virt. eigenvalues --    2.86062   2.86928   2.87344   2.88582   2.90458
 Alpha virt. eigenvalues --    2.91389   2.92416   2.92810   2.93471   2.93623
 Alpha virt. eigenvalues --    2.93889   2.94552   2.95303   2.95747   2.96462
 Alpha virt. eigenvalues --    2.97006   2.98118   2.98794   2.99224   2.99708
 Alpha virt. eigenvalues --    3.00662   3.01583   3.01731   3.03459   3.04241
 Alpha virt. eigenvalues --    3.04434   3.05083   3.07230   3.07724   3.08969
 Alpha virt. eigenvalues --    3.09999   3.12258   3.12763   3.14021   3.14708
 Alpha virt. eigenvalues --    3.16475   3.16982   3.18051   3.18585   3.20493
 Alpha virt. eigenvalues --    3.21353   3.23075   3.23696   3.24627   3.24805
 Alpha virt. eigenvalues --    3.26861   3.27490   3.29192   3.30080   3.31479
 Alpha virt. eigenvalues --    3.32767   3.33209   3.33538   3.34562   3.36023
 Alpha virt. eigenvalues --    3.38090   3.38196   3.41172   3.41721   3.42842
 Alpha virt. eigenvalues --    3.43351   3.43628   3.44498   3.45443   3.46958
 Alpha virt. eigenvalues --    3.48118   3.49117   3.50830   3.51882   3.52818
 Alpha virt. eigenvalues --    3.53838   3.55207   3.55687   3.58164   3.58611
 Alpha virt. eigenvalues --    3.60323   3.63356   3.65421   3.67004   3.68825
 Alpha virt. eigenvalues --    3.69776   3.71415   3.74314   3.75424   3.76148
 Alpha virt. eigenvalues --    3.79036   3.79801   3.82010   3.82623   3.85486
 Alpha virt. eigenvalues --    3.85857   3.86405   3.90714   3.92301   3.94321
 Alpha virt. eigenvalues --    3.94946   3.95966   3.99418   4.00930   4.02363
 Alpha virt. eigenvalues --    4.03784   4.04986   4.06278   4.10814   4.12742
 Alpha virt. eigenvalues --    4.14081   4.18159   4.20270   4.22143   4.23769
 Alpha virt. eigenvalues --    4.29188   4.33231   4.34867   4.37238   4.44972
 Alpha virt. eigenvalues --    4.49541   4.49798   4.61738   4.78968   4.93761
 Alpha virt. eigenvalues --    4.95158   4.97509   5.00551   5.12976   5.14488
 Alpha virt. eigenvalues --    5.14988   5.16549   5.16770   5.20138   5.21573
 Alpha virt. eigenvalues --    5.23311   5.35969   5.37685   5.39742   5.40960
 Alpha virt. eigenvalues --    5.53389   5.54729   5.86250   5.87623   5.90636
 Alpha virt. eigenvalues --    5.91205   5.92662   5.95193   8.13188   8.15023
 Alpha virt. eigenvalues --   17.43106  17.46423  17.63303  17.66253  17.71112
 Alpha virt. eigenvalues --   17.76350  23.61613  23.69542  23.84772  23.91632
 Alpha virt. eigenvalues --   23.94706  23.95370  23.96439  23.99226  23.99309
 Alpha virt. eigenvalues --   24.00666  24.01896  24.03474  24.04374  24.05682
 Alpha virt. eigenvalues --   24.07733  24.08073  24.09021  24.10727  24.13058
 Alpha virt. eigenvalues --   24.14684  24.15665  24.17630  24.25067  24.25822
 Alpha virt. eigenvalues --   24.26647  24.27470  35.69168  35.71991  50.10126
 Alpha virt. eigenvalues --   50.11680  50.15621  50.17456  50.19366  50.20980
 Alpha virt. eigenvalues --  189.38545 189.40964
          Condensed to atoms (all electrons):
 Mulliken charges:
               1
     1  C    0.302922
     2  C   -0.075319
     3  C    0.126851
     4  C    0.195062
     5  C    0.308335
     6  C   -0.433192
     7  C    0.190299
     8  C    0.339251
     9  C    0.428725
    10  C   -0.343877
    11  C    0.250774
    12  C    0.157986
    13  C   -0.561283
    14  C   -0.672880
    15  H    0.189193
    16  H    0.191018
    17  H    0.207259
    18  N   -0.071994
    19  N   -0.084630
    20  O   -0.268170
    21  O   -0.268779
    22  O   -0.277048
    23  O   -0.219936
    24  C   -0.279779
    25  H    0.196316
    26  H    0.188833
    27  H    0.201391
    28  C   -0.277884
    29  H    0.192871
    30  H    0.193784
    31  H    0.200782
    32  C    0.064627
    33  C   -0.496451
    34  S   -0.669144
    35  C   -0.107928
    36  H    0.165613
    37  C    0.681079
    38  O   -0.115333
    39  C    0.866107
    40  C   -0.311521
    41  C   -0.021941
    42  S   -0.303721
    43  H    0.182429
    44  H    0.159061
    45  H    0.178710
    46  C   -0.590838
    47  O   -0.114351
    48  C   -0.338034
    49  H    0.157802
    50  C   -0.306565
    51  H    0.189329
    52  H    0.158530
    53  H    0.184777
    54  H    0.160882
 Sum of Mulliken charges =  -0.00000
 Mulliken charges with hydrogens summed into heavy atoms:
               1
     1  C    0.302922
     2  C   -0.075319
     3  C    0.126851
     4  C    0.195062
     5  C    0.308335
     6  C   -0.225932
     7  C    0.190299
     8  C    0.339251
     9  C    0.428725
    10  C   -0.343877
    11  C    0.250774
    12  C    0.157986
    13  C   -0.370265
    14  C   -0.483687
    18  N   -0.071994
    19  N   -0.084630
    20  O   -0.268170
    21  O   -0.268779
    22  O   -0.277048
    23  O   -0.219936
    24  C    0.306761
    28  C    0.309552
    32  C    0.064627
    33  C   -0.330838
    34  S   -0.669144
    35  C   -0.107928
    37  C    0.681079
    38  O   -0.115333
    39  C    0.866107
    40  C    0.208679
    41  C   -0.021941
    42  S   -0.303721
    46  C   -0.433036
    47  O   -0.114351
    48  C   -0.148705
    50  C    0.197624
 Electronic spatial extent (au):  <R**2>=          22447.0439
 Charge=             -0.0000 electrons
 Dipole moment (field-independent basis, Debye):
    X=             -3.3490    Y=             -0.5123    Z=              0.1616  Tot=              3.3918
 Quadrupole moment (field-independent basis, Debye-Ang):
   XX=           -215.1636   YY=           -209.8031   ZZ=           -217.0468
   XY=              4.3457   XZ=              4.2840   YZ=             13.8545
 Traceless Quadrupole moment (field-independent basis, Debye-Ang):
   XX=             -1.1591   YY=              4.2014   ZZ=             -3.0423
   XY=              4.3457   XZ=              4.2840   YZ=             13.8545
 Octapole moment (field-independent basis, Debye-Ang**2):
  XXX=           -345.5503  YYY=            -19.1238  ZZZ=             -1.2206  XYY=           -117.3912
  XXY=            -80.7507  XXZ=            -28.6365  XZZ=             -6.6155  YZZ=              0.4634
  YYZ=             -0.8099  XYZ=            -47.1203
 Hexadecapole moment (field-independent basis, Debye-Ang**3):
 XXXX=         -20642.6416 YYYY=          -7420.5174 ZZZZ=           -924.9023 XXXY=            562.8355
 XXXZ=            167.6756 YYYX=           -279.5133 YYYZ=            153.8116 ZZZX=             12.4630
 ZZZY=             29.5155 XXYY=          -4896.1547 XXZZ=          -3764.5091 YYZZ=          -1353.5501
 XXYZ=            288.2732 YYXZ=             86.7124 ZZXY=            -15.7093
 N-N= 4.082453055316D+03 E-N=-1.370395798898D+04  KE= 2.351160649898D+03
 Calling FoFJK, ICntrl=      2127 FMM=F ISym2X=0 I1Cent= 0 IOpClX= 0 NMat=1 NMatS=1 NMatT=0.
 ***** Axes restored to original set *****
 -------------------------------------------------------------------
 Center     Atomic                   Forces (Hartrees/Bohr)
 Number     Number              X              Y              Z
 -------------------------------------------------------------------
      1        6           0.007106900   -0.014248308   -0.001896910
      2        6           0.005382461    0.005618205    0.000924527
      3        6           0.001397178    0.003347378    0.000270374
      4        6          -0.002468224    0.007732602    0.001258934
      5        6          -0.011513763   -0.009100354   -0.001022556
      6        6          -0.006742383   -0.000067945   -0.000966356
      7        6          -0.002497311   -0.004008516   -0.000323437
      8        6           0.005861418   -0.009694818   -0.001425900
      9        6          -0.011755424    0.004390930    0.001148146
     10        6           0.013226595    0.011870141    0.002978883
     11        6          -0.006489530    0.014012323    0.002178894
     12        6          -0.004464312   -0.005639551   -0.000625136
     13        6           0.007067810    0.001127432   -0.000003260
     14        6           0.007141904   -0.004521057   -0.000747815
     15        1           0.000366536    0.000630358    0.000044565
     16        1           0.000410104   -0.000931125   -0.000162294
     17        1           0.000233977    0.000701027    0.000172644
     18        7          -0.000978893   -0.001937675   -0.000480838
     19        7           0.000460883    0.002047934    0.000168550
     20        8          -0.014458543    0.014870197    0.002175827
     21        8           0.018278627    0.006203151    0.000525026
     22        8           0.014744085   -0.013993199   -0.002104895
     23        8          -0.018049025   -0.009577587   -0.002889866
     24        6           0.000822720   -0.001879981   -0.001322245
     25        1          -0.000924891   -0.000384306   -0.000386963
     26        1          -0.001541345   -0.000851042    0.000956542
     27        1           0.000650503    0.000027953    0.000047334
     28        6           0.001222058    0.001906711   -0.000124617
     29        1          -0.000831927    0.000849338    0.000918876
     30        1          -0.000615315    0.000845547   -0.000332059
     31        1           0.000649843   -0.000261669   -0.000014271
     32        6           0.014031874    0.001097012   -0.000397135
     33        6          -0.005605798   -0.006009706    0.004106323
     34       16          -0.000071982    0.010152368   -0.005571883
     35        6           0.007224861   -0.007163850    0.003247005
     36        1          -0.000083022   -0.000317361   -0.000031348
     37        6          -0.014673420    0.008114157   -0.003566116
     38        8          -0.006370036    0.001840784    0.000131710
     39        6           0.014134427   -0.007485556    0.003772034
     40        6           0.000630901   -0.003627117    0.001750995
     41        6          -0.005821387    0.005932393   -0.003047460
     42       16          -0.002072544   -0.009349513    0.005216372
     43        1          -0.001014682   -0.000933678    0.000474385
     44        1           0.001032045   -0.000624357    0.000874252
     45        1           0.000944886   -0.001065081   -0.000109942
     46        6           0.000222101    0.005259971   -0.002914481
     47        8           0.005830276   -0.000865830    0.000104107
     48        6          -0.007004269   -0.000392053    0.000279368
     49        1           0.000077823    0.000389779   -0.000235039
     50        6           0.000931176    0.003956661   -0.001854938
     51        1          -0.001785474   -0.000206078    0.000161513
     52        1          -0.001262841    0.000401374   -0.001297830
     53        1           0.000150093    0.000584590   -0.000328763
     54        1          -0.001137725    0.001226997    0.000297167
 -------------------------------------------------------------------
 Cartesian Forces:  Max     0.018278627 RMS     0.005505310

 GradGradGradGradGradGradGradGradGradGradGradGradGradGradGradGradGradGrad
 Berny optimization.
 FormGI is forming the generalized inverse of G from B-inverse, IUseBI=4.
 Internal  Forces:  Max     0.020848432 RMS     0.003604266
 Search for a local minimum.
 Step number   1 out of a maximum of  307
 All quantities printed in internal units (Hartrees-Bohrs-Radians)
 Mixed Optimization -- RFO/linear search
 Second derivative matrix not updated -- first step.
 ITU=  0
     Eigenvalues ---    0.01155   0.01172   0.01239   0.01297   0.01369
     Eigenvalues ---    0.01383   0.01397   0.01410   0.01453   0.01471
     Eigenvalues ---    0.01513   0.01544   0.01567   0.01587   0.01620
     Eigenvalues ---    0.01652   0.01679   0.01692   0.01715   0.01719
     Eigenvalues ---    0.01721   0.01763   0.01799   0.01845   0.01973
     Eigenvalues ---    0.02039   0.02053   0.02074   0.02091   0.02095
     Eigenvalues ---    0.02133   0.02149   0.02162   0.02181   0.02197
     Eigenvalues ---    0.02246   0.04601   0.04620   0.07665   0.07667
     Eigenvalues ---    0.10069   0.10069   0.10633   0.10635   0.15983
     Eigenvalues ---    0.15999   0.15999   0.16000   0.16000   0.16000
     Eigenvalues ---    0.16000   0.16000   0.16000   0.16000   0.16000
     Eigenvalues ---    0.16000   0.16000   0.16000   0.16000   0.16000
     Eigenvalues ---    0.16000   0.16000   0.22530   0.22583   0.23517
     Eigenvalues ---    0.23582   0.24513   0.24747   0.24864   0.24906
     Eigenvalues ---    0.24952   0.24985   0.24986   0.24988   0.24991
     Eigenvalues ---    0.24994   0.24996   0.24997   0.24998   0.24998
     Eigenvalues ---    0.25000   0.25000   0.25000   0.25000   0.25000
     Eigenvalues ---    0.25000   0.25000   0.25000   0.25000   0.25000
     Eigenvalues ---    0.28869   0.28905   0.30103   0.32082   0.32582
     Eigenvalues ---    0.32774   0.33104   0.33787   0.33948   0.33992
     Eigenvalues ---    0.34005   0.34076   0.34353   0.34466   0.34577
     Eigenvalues ---    0.34629   0.34693   0.34775   0.34955   0.35198
     Eigenvalues ---    0.35218   0.35468   0.35553   0.35582   0.35753
     Eigenvalues ---    0.35871   0.36078   0.36083   0.36208   0.36393
     Eigenvalues ---    0.36662   0.39348   0.40194   0.40218   0.40651
     Eigenvalues ---    0.40715   0.41524   0.41802   0.41957   0.42300
     Eigenvalues ---    0.42833   0.43455   0.43953   0.44092   0.44536
     Eigenvalues ---    0.44594   0.45014   0.45405   0.46251   0.47305
     Eigenvalues ---    0.47564   0.49309   0.49541   0.52870   0.53163
     Eigenvalues ---    0.93281   0.93432   0.93989   0.945851000.00000
     Eigenvalues --- 1000.000001000.000001000.000001000.000001000.00000
     Eigenvalues --- 1000.000001000.000001000.000001000.000001000.00000
     Eigenvalues --- 1000.000001000.000001000.000001000.000001000.00000
     Eigenvalues --- 1000.000001000.000001000.000001000.000001000.00000
     Eigenvalues --- 1000.000001000.000001000.000001000.000001000.00000
     Eigenvalues --- 1000.000001000.000001000.000001000.000001000.00000
     Eigenvalues --- 1000.000001000.000001000.000001000.000001000.00000
     Eigenvalues --- 1000.000001000.000001000.000001000.000001000.00000
     Eigenvalues --- 1000.000001000.000001000.000001000.000001000.00000
     Eigenvalues --- 1000.000001000.000001000.000001000.000001000.00000
     Eigenvalues --- 1000.000001000.000001000.000001000.000001000.00000
     Eigenvalues --- 1000.000001000.000001000.000001000.000001000.00000
     Eigenvalues --- 1000.000001000.000001000.000001000.000001000.00000
     Eigenvalues --- 1000.000001000.000001000.000001000.000001000.00000
     Eigenvalues --- 1000.000001000.000001000.000001000.000001000.00000
     Eigenvalues --- 1000.000001000.000001000.000001000.000001000.00000
     Eigenvalues --- 1000.000001000.000001000.000001000.000001000.00000
     Eigenvalues --- 1000.000001000.000001000.000001000.000001000.00000
     Eigenvalues --- 1000.000001000.000001000.000001000.000001000.00000
     Eigenvalues --- 1000.000001000.000001000.000001000.000001000.00000
     Eigenvalues --- 1000.000001000.000001000.000001000.000001000.00000
     Eigenvalues --- 1000.000001000.000001000.000001000.000001000.00000
     Eigenvalues --- 1000.000001000.000001000.000001000.000001000.00000
     Eigenvalues --- 1000.000001000.000001000.000001000.000001000.00000
     Eigenvalues --- 1000.000001000.000001000.000001000.000001000.00000
     Eigenvalues --- 1000.000001000.000001000.000001000.000001000.00000
     Eigenvalues --- 1000.000001000.000001000.000001000.000001000.00000
     Eigenvalues --- 1000.000001000.000001000.000001000.000001000.00000
     Eigenvalues --- 1000.000001000.000001000.000001000.000001000.00000
     Eigenvalues --- 1000.000001000.00000
 RFO step:  Lambda=-7.17829894D-03 EMin= 1.15532237D-02
 Linear search not attempted -- first point.
 Iteration  1 RMS(Cart)=  0.05478985 RMS(Int)=  0.00019424
 Iteration  2 RMS(Cart)=  0.00059732 RMS(Int)=  0.00001107
 Iteration  3 RMS(Cart)=  0.00000008 RMS(Int)=  0.00001107
 Iteration  1 RMS(Cart)=  0.00000528 RMS(Int)=  0.00000102
 Iteration  2 RMS(Cart)=  0.00000302 RMS(Int)=  0.00000114
 Iteration  3 RMS(Cart)=  0.00000174 RMS(Int)=  0.00000130
 Iteration  4 RMS(Cart)=  0.00000100 RMS(Int)=  0.00000142
 Iteration  5 RMS(Cart)=  0.00000058 RMS(Int)=  0.00000150
 Variable       Old X    -DE/DX   Delta X   Delta X   Delta X     New X
                                 (Linear)    (Quad)   (Total)
    R1        2.80935  -0.00182   0.00000  -0.00523  -0.00523   2.80412
    R2        2.64584  -0.00668   0.00000  -0.01466  -0.01466   2.63118
    R3        2.31147  -0.02085   0.00000  -0.02201  -0.02201   2.28946
    R4        2.67311  -0.00518   0.00000  -0.01116  -0.01116   2.66195
    R5        2.59267  -0.00875   0.00000  -0.01685  -0.01686   2.57581
    R6        2.66894  -0.00576   0.00000  -0.01277  -0.01277   2.65618
    R7        2.69164  -0.01023   0.00000  -0.02399  -0.02398   2.66766
    R8        2.81049  -0.00132   0.00000  -0.00389  -0.00389   2.80661
    R9        2.62173  -0.00929   0.00000  -0.01911  -0.01911   2.60261
   R10        2.65570  -0.00693   0.00000  -0.01551  -0.01551   2.64019
   R11        2.30889  -0.01931   0.00000  -0.02026  -0.02026   2.28863
   R12        2.70248  -0.00457   0.00000  -0.01104  -0.01105   2.69143
   R13        2.04786  -0.00035   0.00000  -0.00097  -0.00097   2.04689
   R14        2.70495  -0.00630   0.00000  -0.01531  -0.01530   2.68966
   R15        2.68322  -0.00643   0.00000  -0.01478  -0.01477   2.66845
   R16        2.68655  -0.01549   0.00000  -0.03644  -0.03644   2.65011
   R17        2.81233  -0.00199   0.00000  -0.00585  -0.00585   2.80648
   R18        2.76359  -0.00158   0.00000  -0.00423  -0.00423   2.75936
   R19        2.66221  -0.00653   0.00000  -0.01469  -0.01470   2.64751
   R20        2.31391  -0.02057   0.00000  -0.02184  -0.02184   2.29206
   R21        2.79415  -0.00058   0.00000  -0.00157  -0.00158   2.79258
   R22        2.63842  -0.00688   0.00000  -0.01476  -0.01476   2.62365
   R23        2.31456  -0.02043   0.00000  -0.02174  -0.02174   2.29283
   R24        2.62448  -0.00878   0.00000  -0.01819  -0.01819   2.60630
   R25        2.64561  -0.00268   0.00000  -0.00573  -0.00573   2.63988
   R26        2.04921  -0.00095   0.00000  -0.00263  -0.00263   2.04658
   R27        2.04741  -0.00055   0.00000  -0.00151  -0.00151   2.04590
   R28        2.77259  -0.00331   0.00000  -0.00899  -0.00899   2.76360
   R29        2.77252  -0.00339   0.00000  -0.00920  -0.00920   2.76332
   R30        2.06176  -0.00083   0.00000  -0.00235  -0.00235   2.05941
   R31        2.06551  -0.00189   0.00000  -0.00538  -0.00538   2.06013
   R32        2.05322  -0.00054   0.00000  -0.00151  -0.00151   2.05171
   R33        2.06368  -0.00140   0.00000  -0.00395  -0.00395   2.05972
   R34        2.06281  -0.00094   0.00000  -0.00266  -0.00266   2.06016
   R35        2.05355  -0.00062   0.00000  -0.00172  -0.00172   2.05183
   R36        2.61099  -0.01153   0.00000  -0.02338  -0.02337   2.58762
   R37        3.33222  -0.01057   0.00000  -0.03468  -0.03467   3.29755
   R38        2.66071  -0.00252   0.00000  -0.00607  -0.00608   2.65463
   R39        2.03757  -0.00020   0.00000  -0.00054  -0.00054   2.03703
   R40        3.30387  -0.00825   0.00000  -0.02591  -0.02591   3.27796
   R41        2.64213  -0.01323   0.00000  -0.02862  -0.02863   2.61349
   R42        2.57076  -0.00721   0.00000  -0.01345  -0.01345   2.55731
   R43        2.71258   0.00232   0.00000   0.00566   0.00566   2.71824
   R44        2.69176  -0.00707   0.00000  -0.01662  -0.01662   2.67513
   R45        2.63457  -0.01333   0.00000  -0.02861  -0.02861   2.60596
   R46        3.32870  -0.00836   0.00000  -0.02758  -0.02757   3.30113
   R47        2.06042  -0.00143   0.00000  -0.00403  -0.00403   2.05639
   R48        2.07321  -0.00121   0.00000  -0.00349  -0.00349   2.06972
   R49        2.07203  -0.00111   0.00000  -0.00320  -0.00320   2.06883
   R50        2.69054  -0.00350   0.00000  -0.00870  -0.00870   2.68183
   R51        2.56802  -0.00756   0.00000  -0.01403  -0.01403   2.55398
   R52        3.26345  -0.00784   0.00000  -0.02263  -0.02263   3.24082
   R53        2.58710  -0.00785   0.00000  -0.01503  -0.01504   2.57205
   R54        2.04284  -0.00037   0.00000  -0.00100  -0.00100   2.04184
   R55        2.68978  -0.00700   0.00000  -0.01640  -0.01640   2.67337
   R56        2.04469  -0.00180   0.00000  -0.00495  -0.00495   2.03974
   R57        2.07418  -0.00167   0.00000  -0.00482  -0.00482   2.06936
   R58        2.05747  -0.00051   0.00000  -0.00142  -0.00142   2.05605
   R59        2.07344  -0.00148   0.00000  -0.00425  -0.00425   2.06919
    A1        2.03797   0.00080   0.00000   0.00302   0.00302   2.04099
    A2        2.14521  -0.00095   0.00000  -0.00366  -0.00366   2.14155
    A3        2.10001   0.00015   0.00000   0.00063   0.00063   2.10064
    A4        2.10395  -0.00089   0.00000  -0.00336  -0.00336   2.10059
    A5        2.08282   0.00075   0.00000   0.00173   0.00173   2.08455
    A6        2.09624   0.00015   0.00000   0.00163   0.00161   2.09785
    A7        2.10093   0.00048   0.00000   0.00228   0.00228   2.10320
    A8        2.07104  -0.00009   0.00000   0.00017   0.00016   2.07120
    A9        2.11118  -0.00039   0.00000  -0.00244  -0.00243   2.10875
   A10        2.10296  -0.00082   0.00000  -0.00276  -0.00276   2.10020
   A11        2.09911   0.00035   0.00000   0.00152   0.00152   2.10063
   A12        2.08110   0.00047   0.00000   0.00125   0.00125   2.08235
   A13        2.03739   0.00068   0.00000   0.00235   0.00235   2.03975
   A14        2.12972  -0.00036   0.00000  -0.00126  -0.00126   2.12847
   A15        2.11607  -0.00032   0.00000  -0.00110  -0.00109   2.11497
   A16        2.15098  -0.00202   0.00000  -0.00804  -0.00806   2.14292
   A17        2.04399   0.00170   0.00000   0.00829   0.00829   2.05227
   A18        2.08722   0.00033   0.00000   0.00009   0.00009   2.08731
   A19        2.11101  -0.00068   0.00000  -0.00280  -0.00280   2.10821
   A20        2.04385   0.00131   0.00000   0.00500   0.00500   2.04885
   A21        2.12832  -0.00063   0.00000  -0.00219  -0.00220   2.12613
   A22        2.08678   0.00115   0.00000   0.00391   0.00392   2.09070
   A23        2.04738   0.00102   0.00000   0.00448   0.00448   2.05187
   A24        2.14662  -0.00216   0.00000  -0.00819  -0.00820   2.13842
   A25        2.04892   0.00150   0.00000   0.00546   0.00546   2.05438
   A26        2.00754   0.00305   0.00000   0.01206   0.01206   2.01960
   A27        2.22643  -0.00456   0.00000  -0.01756  -0.01756   2.20887
   A28        2.06022  -0.00006   0.00000  -0.00054  -0.00054   2.05968
   A29        2.17370  -0.00193   0.00000  -0.00733  -0.00733   2.16636
   A30        2.04919   0.00199   0.00000   0.00790   0.00789   2.05708
   A31        2.01621   0.00125   0.00000   0.00476   0.00476   2.02096
   A32        2.14188  -0.00106   0.00000  -0.00405  -0.00405   2.13782
   A33        2.12500  -0.00019   0.00000  -0.00068  -0.00068   2.12432
   A34        2.10943  -0.00075   0.00000  -0.00269  -0.00269   2.10674
   A35        2.11468  -0.00033   0.00000  -0.00111  -0.00111   2.11357
   A36        2.05896   0.00108   0.00000   0.00384   0.00383   2.06280
   A37        2.11176  -0.00068   0.00000  -0.00244  -0.00244   2.10932
   A38        2.05670   0.00074   0.00000   0.00362   0.00362   2.06032
   A39        2.11471  -0.00006   0.00000  -0.00118  -0.00118   2.11354
   A40        2.08567  -0.00027   0.00000  -0.00051  -0.00052   2.08515
   A41        2.07549   0.00062   0.00000   0.00320   0.00321   2.07870
   A42        2.12199  -0.00036   0.00000  -0.00268  -0.00267   2.11932
   A43        2.20043  -0.00082   0.00000  -0.00362  -0.00362   2.19681
   A44        2.02023   0.00039   0.00000   0.00174   0.00174   2.02198
   A45        2.06252   0.00043   0.00000   0.00187   0.00187   2.06439
   A46        2.18316  -0.00024   0.00000  -0.00154  -0.00154   2.18162
   A47        2.02959   0.00003   0.00000   0.00041   0.00041   2.03000
   A48        2.07044   0.00021   0.00000   0.00113   0.00113   2.07157
[...]
 Alpha  occ. eigenvalues --   -0.62455  -0.60681  -0.59731  -0.59195  -0.58799
 Alpha  occ. eigenvalues --   -0.58294  -0.57675  -0.57379  -0.57283  -0.56976
 Alpha  occ. eigenvalues --   -0.56582  -0.55827  -0.55452  -0.55138  -0.54373
 Alpha  occ. eigenvalues --   -0.53967  -0.53500  -0.53302  -0.53269  -0.52138
 Alpha  occ. eigenvalues --   -0.51613  -0.51084  -0.51004  -0.50512  -0.50325
 Alpha  occ. eigenvalues --   -0.50058  -0.49505  -0.49389  -0.48824  -0.48325
 Alpha  occ. eigenvalues --   -0.48026  -0.47623  -0.46907  -0.45743  -0.45486
 Alpha  occ. eigenvalues --   -0.44302  -0.44044  -0.42399  -0.41747  -0.41308
 Alpha  occ. eigenvalues --   -0.41240  -0.40167  -0.39630  -0.38559  -0.37737
 Alpha  occ. eigenvalues --   -0.37333  -0.37067  -0.36842  -0.36263  -0.34576
 Alpha  occ. eigenvalues --   -0.33169  -0.31673  -0.31565  -0.25583
 Alpha virt. eigenvalues --   -0.07222  -0.00645   0.00463   0.02385   0.03455
 Alpha virt. eigenvalues --    0.05199   0.05770   0.06093   0.06792   0.07019
 Alpha virt. eigenvalues --    0.07260   0.07510   0.07715   0.07850   0.07942
 Alpha virt. eigenvalues --    0.08516   0.08668   0.08772   0.09149   0.09249
 Alpha virt. eigenvalues --    0.09419   0.09852   0.09995   0.10162   0.10439
 Alpha virt. eigenvalues --    0.10700   0.11050   0.11483   0.11655   0.11777
 Alpha virt. eigenvalues --    0.11955   0.12152   0.12299   0.12699   0.12922
 Alpha virt. eigenvalues --    0.13281   0.13497   0.13627   0.13857   0.14488
 Alpha virt. eigenvalues --    0.14902   0.15107   0.15173   0.15293   0.15618
 Alpha virt. eigenvalues --    0.15911   0.16123   0.16345   0.16912   0.16927
 Alpha virt. eigenvalues --    0.17192   0.17490   0.17722   0.17978   0.18156
 Alpha virt. eigenvalues --    0.18450   0.18907   0.19106   0.19534   0.19716
 Alpha virt. eigenvalues --    0.19962   0.20080   0.20245   0.20565   0.20822
 Alpha virt. eigenvalues --    0.20846   0.21076   0.21372   0.21495   0.21801
 Alpha virt. eigenvalues --    0.22084   0.22226   0.22574   0.22717   0.22886
 Alpha virt. eigenvalues --    0.23078   0.23431   0.23698   0.23957   0.24243
 Alpha virt. eigenvalues --    0.24517   0.24660   0.24788   0.25055   0.25203
 Alpha virt. eigenvalues --    0.25315   0.25575   0.25834   0.26090   0.26150
 Alpha virt. eigenvalues --    0.26188   0.26509   0.26626   0.26924   0.27069
 Alpha virt. eigenvalues --    0.27148   0.27413   0.27451   0.27754   0.28057
 Alpha virt. eigenvalues --    0.28240   0.28523   0.28638   0.28978   0.29032
 Alpha virt. eigenvalues --    0.29385   0.29785   0.29861   0.29950   0.30123
 Alpha virt. eigenvalues --    0.30322   0.30683   0.30861   0.30985   0.31086
 Alpha virt. eigenvalues --    0.31284   0.31660   0.31914   0.31970   0.31993
 Alpha virt. eigenvalues --    0.32287   0.32400   0.32804   0.32999   0.33102
 Alpha virt. eigenvalues --    0.33594   0.33630   0.33811   0.33947   0.34190
 Alpha virt. eigenvalues --    0.34365   0.34570   0.34828   0.35187   0.35331
 Alpha virt. eigenvalues --    0.35518   0.35711   0.36143   0.36453   0.36599
 Alpha virt. eigenvalues --    0.36625   0.37001   0.37079   0.37517   0.37721
 Alpha virt. eigenvalues --    0.37975   0.38348   0.38439   0.38768   0.39160
 Alpha virt. eigenvalues --    0.39410   0.39645   0.39932   0.40040   0.40441
 Alpha virt. eigenvalues --    0.40638   0.40935   0.41222   0.41507   0.41530
 Alpha virt. eigenvalues --    0.42036   0.42695   0.42756   0.43029   0.43403
 Alpha virt. eigenvalues --    0.43569   0.43928   0.44349   0.44693   0.45459
 Alpha virt. eigenvalues --    0.45726   0.45985   0.46229   0.46418   0.46835
 Alpha virt. eigenvalues --    0.47239   0.47802   0.48224   0.48703   0.49282
 Alpha virt. eigenvalues --    0.49622   0.49891   0.50206   0.50895   0.51512
 Alpha virt. eigenvalues --    0.51930   0.52116   0.52616   0.52978   0.53276
 Alpha virt. eigenvalues --    0.53382   0.53601   0.54096   0.54655   0.55131
 Alpha virt. eigenvalues --    0.55321   0.55472   0.56324   0.57021   0.57889
 Alpha virt. eigenvalues --    0.57903   0.58366   0.58511   0.59125   0.59565
 Alpha virt. eigenvalues --    0.60053   0.61084   0.61290   0.61753   0.62403
 Alpha virt. eigenvalues --    0.62940   0.63322   0.63469   0.63716   0.64111
 Alpha virt. eigenvalues --    0.64548   0.65001   0.65085   0.65370   0.65862
 Alpha virt. eigenvalues --    0.66343   0.66876   0.67245   0.67432   0.67752
 Alpha virt. eigenvalues --    0.68001   0.68282   0.69291   0.69459   0.69657
 Alpha virt. eigenvalues --    0.69916   0.70120   0.70554   0.71133   0.71801
 Alpha virt. eigenvalues --    0.72149   0.72310   0.72532   0.72993   0.73209
 Alpha virt. eigenvalues --    0.73679   0.73989   0.74103   0.74364   0.74737
 Alpha virt. eigenvalues --    0.75338   0.75815   0.75898   0.76318   0.76992
 Alpha virt. eigenvalues --    0.77419   0.77813   0.78404   0.78645   0.78777
 Alpha virt. eigenvalues --    0.79503   0.79837   0.80229   0.80531   0.80910
 Alpha virt. eigenvalues --    0.81208   0.81321   0.82062   0.82230   0.82499
 Alpha virt. eigenvalues --    0.83258   0.83494   0.83578   0.84096   0.84237
 Alpha virt. eigenvalues --    0.84715   0.84945   0.85329   0.85622   0.85860
 Alpha virt. eigenvalues --    0.86106   0.86413   0.86767   0.87488   0.88020
 Alpha virt. eigenvalues --    0.88185   0.88761   0.89316   0.89830   0.90680
 Alpha virt. eigenvalues --    0.91034   0.91701   0.92322   0.93088   0.94464
 Alpha virt. eigenvalues --    0.94795   0.94830   0.95862   0.96716   0.96888
 Alpha virt. eigenvalues --    0.97188   0.97886   0.98277   0.98794   0.99506
 Alpha virt. eigenvalues --    1.00037   1.00552   1.00850   1.01131   1.01535
 Alpha virt. eigenvalues --    1.02166   1.02718   1.02899   1.03203   1.03680
 Alpha virt. eigenvalues --    1.04167   1.04648   1.04802   1.05015   1.05685
 Alpha virt. eigenvalues --    1.05867   1.06685   1.07048   1.07742   1.08659
 Alpha virt. eigenvalues --    1.08967   1.09525   1.09972   1.10195   1.10692
 Alpha virt. eigenvalues --    1.11632   1.12128   1.12441   1.12671   1.12935
 Alpha virt. eigenvalues --    1.13264   1.13542   1.14108   1.14306   1.15315
 Alpha virt. eigenvalues --    1.15371   1.15913   1.16203   1.16290   1.16870
 Alpha virt. eigenvalues --    1.17440   1.18320   1.18395   1.18650   1.19105
 Alpha virt. eigenvalues --    1.19733   1.20479   1.21191   1.22435   1.23561
 Alpha virt. eigenvalues --    1.24030   1.24863   1.25051   1.25847   1.26315
 Alpha virt. eigenvalues --    1.27150   1.27374   1.28366   1.29733   1.30033
 Alpha virt. eigenvalues --    1.30723   1.30849   1.32578   1.32689   1.33128
 Alpha virt. eigenvalues --    1.34187   1.34425   1.34917   1.35025   1.36100
 Alpha virt. eigenvalues --    1.36904   1.37924   1.38524   1.39756   1.40128
 Alpha virt. eigenvalues --    1.40686   1.41595   1.42691   1.43924   1.44425
 Alpha virt. eigenvalues --    1.44646   1.45479   1.46358   1.47096   1.47548
 Alpha virt. eigenvalues --    1.48967   1.49351   1.50518   1.51275   1.51423
 Alpha virt. eigenvalues --    1.51543   1.51820   1.52803   1.52871   1.53309
 Alpha virt. eigenvalues --    1.53485   1.53611   1.54127   1.54462   1.54863
 Alpha virt. eigenvalues --    1.54893   1.55324   1.56199   1.56811   1.57883
 Alpha virt. eigenvalues --    1.58673   1.59677   1.59921   1.60656   1.61149
 Alpha virt. eigenvalues --    1.62018   1.62477   1.62731   1.63284   1.63659
 Alpha virt. eigenvalues --    1.64050   1.64178   1.64436   1.65147   1.66036
 Alpha virt. eigenvalues --    1.66641   1.67394   1.68484   1.69840   1.69985
 Alpha virt. eigenvalues --    1.71777   1.71998   1.72367   1.72960   1.73415
 Alpha virt. eigenvalues --    1.74765   1.75239   1.75891   1.76423   1.76736
 Alpha virt. eigenvalues --    1.77015   1.78166   1.78331   1.78430   1.79054
 Alpha virt. eigenvalues --    1.79173   1.79775   1.80041   1.80565   1.81469
 Alpha virt. eigenvalues --    1.81621   1.82423   1.83276   1.83800   1.84466
 Alpha virt. eigenvalues --    1.85253   1.85952   1.86619   1.87417   1.88122
 Alpha virt. eigenvalues --    1.88746   1.88966   1.89485   1.90243   1.90904
 Alpha virt. eigenvalues --    1.92775   1.93276   1.94106   1.94607   1.95322
 Alpha virt. eigenvalues --    1.95734   1.95938   1.96216   1.97051   1.97610
 Alpha virt. eigenvalues --    1.98665   1.99205   1.99256   2.00299   2.00763
 Alpha virt. eigenvalues --    2.01065   2.01164   2.02836   2.03877   2.04325
 Alpha virt. eigenvalues --    2.04980   2.06146   2.06780   2.07008   2.07828
 Alpha virt. eigenvalues --    2.08751   2.09492   2.10479   2.10622   2.11013
 Alpha virt. eigenvalues --    2.12081   2.12742   2.13152   2.13559   2.14131
 Alpha virt. eigenvalues --    2.15312   2.15745   2.16121   2.16580   2.16790
 Alpha virt. eigenvalues --    2.17793   2.18740   2.19290   2.21133   2.21372
 Alpha virt. eigenvalues --    2.21564   2.23111   2.23459   2.24351   2.24862
 Alpha virt. eigenvalues --    2.25232   2.25770   2.26360   2.27135   2.27956
 Alpha virt. eigenvalues --    2.28470   2.29099   2.29995   2.31272   2.32049
 Alpha virt. eigenvalues --    2.33419   2.34595   2.34853   2.36064   2.37593
 Alpha virt. eigenvalues --    2.40707   2.41281   2.42184   2.44654   2.46609
 Alpha virt. eigenvalues --    2.47511   2.48432   2.48923   2.51415   2.52892
 Alpha virt. eigenvalues --    2.53160   2.53371   2.53923   2.54694   2.55659
 Alpha virt. eigenvalues --    2.56511   2.56773   2.58255   2.59019   2.59529
 Alpha virt. eigenvalues --    2.60177   2.61539   2.61670   2.62005   2.62376
 Alpha virt. eigenvalues --    2.62759   2.63151   2.63265   2.65102   2.65400
 Alpha virt. eigenvalues --    2.66382   2.67790   2.68982   2.69046   2.70012
 Alpha virt. eigenvalues --    2.72806   2.73624   2.73977   2.74579   2.76639
 Alpha virt. eigenvalues --    2.76985   2.77122   2.77841   2.78932   2.79359
 Alpha virt. eigenvalues --    2.79892   2.80169   2.80920   2.81466   2.81597
 Alpha virt. eigenvalues --    2.82190   2.82755   2.83396   2.84030   2.85447
 Alpha virt. eigenvalues --    2.86633   2.87515   2.87996   2.89087   2.90470
 Alpha virt. eigenvalues --    2.92156   2.93184   2.93719   2.94545   2.94770
 Alpha virt. eigenvalues --    2.95041   2.95309   2.96078   2.96274   2.97273
 Alpha virt. eigenvalues --    2.97795   2.98568   2.99342   2.99672   3.00639
 Alpha virt. eigenvalues --    3.01336   3.02330   3.02822   3.04239   3.04991
 Alpha virt. eigenvalues --    3.05285   3.05690   3.08216   3.09594   3.10388
 Alpha virt. eigenvalues --    3.12018   3.12725   3.13742   3.14967   3.15832
 Alpha virt. eigenvalues --    3.17341   3.17823   3.18966   3.19004   3.21028
 Alpha virt. eigenvalues --    3.22038   3.24023   3.24655   3.25484   3.26236
 Alpha virt. eigenvalues --    3.27993   3.28868   3.31236   3.32239   3.32769
 Alpha virt. eigenvalues --    3.34125   3.34564   3.35262   3.36468   3.37022
 Alpha virt. eigenvalues --    3.39872   3.40114   3.43186   3.43324   3.44215
 Alpha virt. eigenvalues --    3.44834   3.45051   3.46265   3.46878   3.48912
 Alpha virt. eigenvalues --    3.49941   3.50681   3.52688   3.54378   3.54782
 Alpha virt. eigenvalues --    3.55803   3.57044   3.57507   3.59918   3.60256
 Alpha virt. eigenvalues --    3.62328   3.64775   3.66421   3.68675   3.70717
 Alpha virt. eigenvalues --    3.71248   3.72976   3.75902   3.76666   3.77994
 Alpha virt. eigenvalues --    3.80070   3.81783   3.82676   3.83438   3.87077
 Alpha virt. eigenvalues --    3.87195   3.87552   3.91821   3.93317   3.95364
 Alpha virt. eigenvalues --    3.95712   3.96198   4.00153   4.01879   4.03219
 Alpha virt. eigenvalues --    4.04445   4.05878   4.06974   4.11165   4.13187
 Alpha virt. eigenvalues --    4.14360   4.19006   4.21351   4.22363   4.25034
 Alpha virt. eigenvalues --    4.29953   4.33721   4.35233   4.38035   4.45591
 Alpha virt. eigenvalues --    4.50000   4.50468   4.62468   4.79637   4.95385
 Alpha virt. eigenvalues --    4.96661   4.98771   5.01595   5.13334   5.14858
 Alpha virt. eigenvalues --    5.15178   5.16708   5.16922   5.21110   5.22916
 Alpha virt. eigenvalues --    5.24301   5.36532   5.38200   5.40420   5.41892
 Alpha virt. eigenvalues --    5.54878   5.56090   5.87537   5.89570   5.91676
 Alpha virt. eigenvalues --    5.93176   5.93531   5.96138   8.14893   8.16896
 Alpha virt. eigenvalues --   17.43428  17.47031  17.64284  17.67220  17.72419
 Alpha virt. eigenvalues --   17.77294  23.61857  23.70531  23.85525  23.92251
 Alpha virt. eigenvalues --   23.96037  23.96932  23.98248  24.00662  24.01060
 Alpha virt. eigenvalues --   24.01938  24.02653  24.04413  24.05219  24.07102
 Alpha virt. eigenvalues --   24.08422  24.09767  24.10402  24.14687  24.16304
 Alpha virt. eigenvalues --   24.19056  24.20203  24.21211  24.28607  24.28869
 Alpha virt. eigenvalues --   24.29232  24.30197  35.70139  35.72722  50.10934
 Alpha virt. eigenvalues --   50.12474  50.16673  50.18455  50.20638  50.22073
 Alpha virt. eigenvalues --  189.40381 189.42938
          Condensed to atoms (all electrons):
 Mulliken charges:
               1
     1  C    0.349155
     2  C   -0.086891
     3  C    0.156602
     4  C    0.194140
     5  C    0.334569
     6  C   -0.448174
     7  C    0.187565
     8  C    0.337998
     9  C    0.456802
    10  C   -0.466069
    11  C    0.268397
    12  C    0.122091
    13  C   -0.549193
    14  C   -0.682648
    15  H    0.187199
    16  H    0.188393
    17  H    0.205323
    18  N   -0.065046
    19  N   -0.091342
    20  O   -0.264540
    21  O   -0.266165
    22  O   -0.273560
    23  O   -0.193188
    24  C   -0.280532
    25  H    0.196897
    26  H    0.189503
    27  H    0.201029
    28  C   -0.282537
    29  H    0.193062
    30  H    0.193558
    31  H    0.200063
    32  C    0.087624
    33  C   -0.485943
    34  S   -0.639037
    35  C   -0.130828
    36  H    0.159185
    37  C    0.682977
    38  O   -0.109809
    39  C    0.851684
    40  C   -0.308501
    41  C   -0.013811
    42  S   -0.281783
    43  H    0.181702
    44  H    0.156623
    45  H    0.176784
    46  C   -0.623899
    47  O   -0.111494
    48  C   -0.338638
    49  H    0.156454
    50  C   -0.306910
    51  H    0.186709
    52  H    0.157136
    53  H    0.182441
    54  H    0.158874
 Sum of Mulliken charges =  -0.00000
 Mulliken charges with hydrogens summed into heavy atoms:
               1
     1  C    0.349155
     2  C   -0.086891
     3  C    0.156602
     4  C    0.194140
     5  C    0.334569
     6  C   -0.242851
     7  C    0.187565
     8  C    0.337998
     9  C    0.456802
    10  C   -0.466069
    11  C    0.268397
    12  C    0.122091
    13  C   -0.360801
    14  C   -0.495449
    18  N   -0.065046
    19  N   -0.091342
    20  O   -0.264540
    21  O   -0.266165
    22  O   -0.273560
    23  O   -0.193188
    24  C    0.306896
    28  C    0.304146
    32  C    0.087624
    33  C   -0.326757
    34  S   -0.639037
    35  C   -0.130828
    37  C    0.682977
    38  O   -0.109809
    39  C    0.851684
    40  C    0.206609
    41  C   -0.013811
    42  S   -0.281783
    46  C   -0.467445
    47  O   -0.111494
    48  C   -0.151929
    50  C    0.191541
 Electronic spatial extent (au):  <R**2>=          22210.2641
 Charge=             -0.0000 electrons
 Dipole moment (field-independent basis, Debye):
    X=             -2.7286    Y=             -0.3458    Z=              0.1312  Tot=              2.7535
 Quadrupole moment (field-independent basis, Debye-Ang):
   XX=           -216.0136   YY=           -210.2633   ZZ=           -215.7543
   XY=              3.8755   XZ=              4.0375   YZ=             13.6637
 Traceless Quadrupole moment (field-independent basis, Debye-Ang):
   XX=             -2.0032   YY=              3.7471   ZZ=             -1.7439
   XY=              3.8755   XZ=              4.0375   YZ=             13.6637
 Octapole moment (field-independent basis, Debye-Ang**2):
  XXX=           -319.3457  YYY=            -18.9065  ZZZ=             -1.4211  XYY=           -105.2498
  XXY=            -78.1444  XXZ=            -31.4380  XZZ=             -7.6657  YZZ=              1.2986
  YYZ=             -2.5169  XYZ=            -48.2499
 Hexadecapole moment (field-independent basis, Debye-Ang**3):
 XXXX=         -20549.2900 YYYY=          -7260.3864 ZZZZ=          -1001.6768 XXXY=            548.5552
 XXXZ=            165.8857 YYYX=           -313.0689 YYYZ=            142.3715 ZZZX=             13.8064
 ZZZY=             33.2391 XXYY=          -4801.2975 XXZZ=          -3727.0286 YYZZ=          -1323.1615
 XXYZ=            277.9720 YYXZ=             85.4067 ZZXY=            -15.9188
 N-N= 4.105087693128D+03 E-N=-1.374997985088D+04  KE= 2.352010787677D+03
 Unable to Open any file for archive entry.
 1\1\GINC-CX3-6-18\FOpt\RwB97XD\6-311+G(d,p)\C26H18N2O6S2\NS5018\29-Nov
 -2020\0\\# opt=modredundant wb97xd/6-311+g(d,p)\\NDI_-40.pdb\\0,1\C,-2
 .6188534581,-3.0109038847,-0.4490749479\C,-2.2763455891,-1.5775136078,
 -0.2482663712\C,-3.2953199289,-0.6145750429,-0.1020386237\C,-4.6498407
 286,-0.9970431902,-0.1452841196\C,-5.0237058922,-2.4230085081,-0.35356
 86153\C,-0.9676674213,-1.1961996311,-0.2324698955\C,-2.9337650419,0.73
 44065728,0.1033065517\C,-1.5625270281,1.1237319833,0.1339574456\C,-0.5
 663447488,0.1602410711,-0.0651110038\C,-1.2565311974,2.5331988822,0.52
 29863531\C,-3.6784726127,3.0997743733,0.5327275759\C,-3.9779458948,1.6
 722481861,0.2728214007\C,-5.2984921324,1.2832202178,0.2191741304\C,-5.
 6426966751,-0.0572123802,0.0074551901\H,-6.6783604931,-0.370800862,-0.
 0314868263\H,-6.0627935868,2.0392297204,0.3506025226\H,-0.2136366362,-
 1.9578109022,-0.3907523543\N,-2.3334368221,3.4182725402,0.6725196255\N
 ,-3.9736605611,-3.3356637044,-0.4879937452\O,-1.7767273742,-3.87010804
 08,-0.5776999198\O,-6.1786986724,-2.7794189536,-0.4028226455\O,-4.5489
 444514,3.9357990771,0.6383204944\O,-0.1408655456,2.9574364506,0.720157
 3623\C,-1.9800859909,4.7941768107,1.0199697851\H,-1.4370556868,4.80843
 59567,1.9647723658\H,-1.3395313721,5.2191330909,0.2468734761\H,-2.9011
 613069,5.3633342599,1.1012334915\C,-4.293552156,-4.748052092,-0.690569
 6964\H,-3.8554055667,-5.0933543243,-1.6269868745\H,-3.879978503,-5.340
 4788209,0.1258707371\H,-5.3745840388,-4.84620175,-0.7184870331\C,0.872
 3364903,0.4084829924,-0.2020361659\C,1.5221319611,1.411003406,-0.86812
 02644\S,2.000964807,-0.7254724176,0.470171945\C,2.9249062541,1.2666487
 548,-0.8368000477\H,1.0081417659,2.2217026658,-1.3593505428\C,3.362868
 1518,0.1574438257,-0.1381895441\O,3.8269119274,2.0987403544,-1.4062776
 923\C,4.7292566857,-0.2466949671,0.1034402307\C,3.3363414248,3.2948100
 897,-1.9779655007\C,5.159882707,-1.3729141966,0.7733584519\S,6.1037207
 791,0.6780697027,-0.4361283545\H,4.2105894184,3.8524193995,-2.30905480
 29\H,2.6938818611,3.0858048203,-2.8405090557\H,2.7821331237,3.88481934
 68,-1.240303629\C,6.5744748588,-1.4920444836,0.8526014793\O,4.25215059
 82,-2.2358370298,1.2833898846\C,7.2013251711,-0.450005053,0.238916656\
 H,7.0988228844,-2.3038821239,1.335616952\C,4.7370764821,-3.3944130908,
 1.9304482627\H,8.2643954316,-0.2874664028,0.1454761379\H,5.33804235,-3
 .1343154451,2.8084881904\H,3.8586759635,-3.9534526848,2.2475874168\H,5
 .3309560161,-4.0097409611,1.246104157\\Version=ES64L-G16RevC.01\State=
 1-A\HF=-2358.7738758\RMSD=8.148e-09\RMSF=5.728e-04\Dipole=1.0765847,-0
 .1153777,-0.0352365\Quadrupole=-1.4715202,2.6065209,-1.1350007,-2.8007
 14,3.204139,-10.1541258\PG=C01 [X(C26H18N2O6S2)]\\@
 The archive entry for this job was punched.


 ONE OF THE BENEFITS OF A COLLEGE EDUCATION
 IS TO SHOW THE BOY ITS LITTLE AVAIL 
                                    EMERSON IN 'CULTURE'
 Job cpu time:       1 days 13 hours 15 minutes 16.8 seconds.
 Elapsed time:       0 days  4 hours 42 minutes  5.3 seconds.
 File lengths (MBytes):  RWF=    496 Int=      0 D2E=      0 Chk=     61 Scr=      1
 Normal termination of Gaussian 16 at Sun Nov 29 20:23:09 2020.
