 Entering Gaussian System, Link 0=g16
 Input=NDI_145.gjf
 Output=NDI_145.log
 Initial command:
 /apps/gaussian/g16-c01-avx/g16/l1.exe "/tmp/pbs.2626208[65].pbs/Gau-1370613.inp" -scrdir="/tmp/pbs.2626208[65].pbs/"
 Entering Link 1 = /apps/gaussian/g16-c01-avx/g16/l1.exe PID=   1370614.
  
 Copyright (c) 1988-2019, Gaussian, Inc.  All Rights Reserved.
  
 This is part of the Gaussian(R) 16 program.  It is based on
 the Gaussian(R) 09 system (copyright 2009, Gaussian, Inc.),
 the Gaussian(R) 03 system (copyright 2003, Gaussian, Inc.),
 the Gaussian(R) 98 system (copyright 1998, Gaussian, Inc.),
 the Gaussian(R) 94 system (copyright 1995, Gaussian, Inc.),
 the Gaussian 92(TM) system (copyright 1992, Gaussian, Inc.),
 the Gaussian 90(TM) system (copyright 1990, Gaussian, Inc.),
 the Gaussian 88(TM) system (copyright 1988, Gaussian, Inc.),
 the Gaussian 86(TM) system (copyright 1986, Carnegie Mellon
 University), and the Gaussian 82(TM) system (copyright 1983,
 Carnegie Mellon University). Gaussian is a federally registered
 trademark of Gaussian, Inc.
  
 This software contains proprietary and confidential information,
 including trade secrets, belonging to Gaussian, Inc.
  
 This software is provided under written license and may be
 used, copied, transmitted, or stored only in accord with that
 written license.
  
 The following legend is applicable only to US Government
 contracts under FAR:
  
                    RESTRICTED RIGHTS LEGEND
  
 Use, reproduction and disclosure by the US Government is
 subject to restrictions as set forth in subparagraphs (a)
 and (c) of the Commercial Computer Software - Restricted
 Rights clause in FAR 52.227-19.
  
 Gaussian, Inc.
 340 Quinnipiac St., Bldg. 40, Wallingford CT 06492
  
  
 ---------------------------------------------------------------
 Warning -- This program may not be used in any manner that
 competes with the business of Gaussian, Inc. or will provide
 assistance to any competitor of Gaussian, Inc.  The licensee
 of this program is prohibited from giving any competitor of
 Gaussian, Inc. access to this program.  By using this program,
 the user acknowledges that Gaussian, Inc. is engaged in the
 business of creating and licensing software in the field of
 computational chemistry and represents and warrants to the
 licensee that it is not a competitor of Gaussian, Inc. and that
 it will not use this program in any manner prohibited above.
 ---------------------------------------------------------------
  

 Cite this work as:
 Gaussian 16, Revision C.01,
 M. J. Frisch, G. W. Trucks, H. B. Schlegel, G. E. Scuseria, 
 M. A. Robb, J. R. Cheeseman, G. Scalmani, V. Barone, 
 G. A. Petersson, H. Nakatsuji, X. Li, M. Caricato, A. V. Marenich, 
 J. Bloino, B. G. Janesko, R. Gomperts, B. Mennucci, H. P. Hratchian, 
 J. V. Ortiz, A. F. Izmaylov, J. L. Sonnenberg, D. Williams-Young, 
 F. Ding, F. Lipparini, F. Egidi, J. Goings, B. Peng, A. Petrone, 
 T. Henderson, D. Ranasinghe, V. G. Zakrzewski, J. Gao, N. Rega, 
 G. Zheng, W. Liang, M. Hada, M. Ehara, K. Toyota, R. Fukuda, 
 J. Hasegawa, M. Ishida, T. Nakajima, Y. Honda, O. Kitao, H. Nakai, 
 T. Vreven, K. Throssell, J. A. Montgomery, Jr., J. E. Peralta, 
 F. Ogliaro, M. J. Bearpark, J. J. Heyd, E. N. Brothers, K. N. Kudin, 
 V. N. Staroverov, T. A. Keith, R. Kobayashi, J. Normand, 
 K. Raghavachari, A. P. Rendell, J. C. Burant, S. S. Iyengar, 
 J. Tomasi, M. Cossi, J. M. Millam, M. Klene, C. Adamo, R. Cammi, 
 J. W. Ochterski, R. L. Martin, K. Morokuma, O. Farkas, 
 J. B. Foresman, and D. J. Fox, Gaussian, Inc., Wallingford CT, 2019.
 
 ******************************************
 Gaussian 16:  ES64L-G16RevC.01  3-Jul-2019
                29-Nov-2020 
 ******************************************
 %mem=10GB
 %nprocshared=8
 Will use up to    8 processors via shared memory.
 --------------------------------------
 # opt=modredundant wb97xd/6-311+g(d,p)
 --------------------------------------
 1/18=120,19=15,26=3,38=1/1,3;
 2/9=110,12=2,17=6,18=5,40=1/2;
 3/5=4,6=6,7=111,11=2,25=1,30=1,71=1,74=-58/1,2,3;
 4//1;
 5/5=2,38=5/2;
 6/7=2,8=2,9=2,10=2,28=1/1;
 7//1,2,3,16;
 1/18=20,19=15,26=3/3(2);
 2/9=110/2;
 99//99;
 2/9=110/2;
 3/5=4,6=6,7=111,11=2,25=1,30=1,71=1,74=-58/1,2,3;
 4/5=5,16=3,69=1/1;
 5/5=2,38=5/2;
 7//1,2,3,16;
 1/18=20,19=15,26=3/3(-5);
 2/9=110/2;
 6/7=2,8=2,9=2,10=2,19=2,28=1/1;
 99/9=1/99;
 -----------
 NDI_145.pdb
 -----------
 Symbolic Z-matrix:
 Charge =  0 Multiplicity = 1
 C                    -2.563    -2.994    -0.409 
 C                    -2.257    -1.551    -0.224 
 C                    -3.301    -0.607    -0.083 
 C                    -4.65     -1.024    -0.115 
 C                    -4.992    -2.459    -0.304 
 C                    -0.949    -1.137    -0.215 
 C                    -2.962     0.764     0.102 
 C                    -1.595     1.188     0.123 
 C                    -0.561     0.232    -0.072 
 C                    -1.328     2.616     0.446 
 C                    -3.777     3.115     0.508 
 C                    -4.035     1.679     0.268 
 C                    -5.356     1.252     0.23 
 C                    -5.672    -0.098     0.036 
 H                    -6.699    -0.442     0.008 
 H                    -6.133     1.997     0.361 
 H                    -0.19     -1.895    -0.369 
 N                    -2.432     3.476     0.608 
 N                    -3.916    -3.353    -0.438 
 O                    -1.695    -3.847    -0.532 
 O                    -6.149    -2.85     -0.34 
 O                    -4.676     3.938     0.629 
 O                    -0.212     3.097     0.596 
 C                    -2.111     4.875     0.912 
 H                    -1.54      4.931     1.84 
 H                    -1.5       5.299     0.111 
 H                    -3.05      5.414     1.003 
 C                    -4.206    -4.779    -0.625 
 H                    -3.759    -5.126    -1.559 
 H                    -3.775    -5.355     0.196 
 H                    -5.286    -4.897    -0.649 
 C                     0.876     0.482    -0.178 
 C                     1.957    -0.264     0.249 
 S                     1.424     2.034    -0.812 
 C                     3.195     0.385     0.071 
 H                     1.856    -1.251     0.67 
 C                     3.104     1.654    -0.51 
 O                     4.42     -0.104     0.402 
 C                     4.179     2.54     -0.856 
 C                     4.489    -1.452     0.856 
 C                     4.085     3.814    -1.413 
 S                     5.876     2.13     -0.619 
 H                     5.549    -1.67      0.988 
 H                     3.971    -1.574     1.816 
 H                     4.058    -2.141     0.12 
 C                     5.341     4.444    -1.643 
 O                     2.859     4.332    -1.684 
 C                     6.389     3.649    -1.261 
 H                     5.463     5.431    -2.067 
 C                     2.793     5.649    -2.219 
 H                     7.444     3.878    -1.322 
 H                     3.296     5.708    -3.193 
 H                     1.734     5.87     -2.346 
 H                     3.239     6.379    -1.534 
 
 The following ModRedundant input section has been read:
 D       8       9      32      33 F                                           
 D      33      35      38      40 F                                           
 D      46      41      47      50 F                                           
 D      10      18      24      25 F                                           
 D       1      19      28      30 F                                           
 D       9       8      10      23 F                                           
 D      20       1       2       6 F                                           
 

 GradGradGradGradGradGradGradGradGradGradGradGradGradGradGradGradGradGrad
 Berny optimization.
 Initialization pass.
                           ----------------------------
                           !    Initial Parameters    !
                           ! (Angstroms and Degrees)  !
 --------------------------                            --------------------------
 ! Name  Definition              Value          Derivative Info.                !
 --------------------------------------------------------------------------------
 ! R1    R(1,2)                  1.4866         estimate D2E/DX2                !
 ! R2    R(1,19)                 1.4001         estimate D2E/DX2                !
 ! R3    R(1,20)                 1.2232         estimate D2E/DX2                !
 ! R4    R(2,3)                  1.4146         estimate D2E/DX2                !
 ! R5    R(2,6)                  1.372          estimate D2E/DX2                !
 ! R6    R(3,4)                  1.4123         estimate D2E/DX2                !
 ! R7    R(3,7)                  1.4244         estimate D2E/DX2                !
 ! R8    R(4,5)                  1.4872         estimate D2E/DX2                !
 ! R9    R(4,14)                 1.3874         estimate D2E/DX2                !
 ! R10   R(5,19)                 1.4053         estimate D2E/DX2                !
 ! R11   R(5,21)                 1.2218         estimate D2E/DX2                !
 ! R12   R(6,9)                  1.4301         estimate D2E/DX2                !
 ! R13   R(6,17)                 1.0837         estimate D2E/DX2                !
 ! R14   R(7,8)                  1.4314         estimate D2E/DX2                !
 ! R15   R(7,12)                 1.4199         estimate D2E/DX2                !
 ! R16   R(8,9)                  1.4217         estimate D2E/DX2                !
 ! R17   R(8,10)                 1.4882         estimate D2E/DX2                !
 ! R18   R(9,32)                 1.4624         estimate D2E/DX2                !
 ! R19   R(10,18)                1.4088         estimate D2E/DX2                !
 ! R20   R(10,23)                1.2245         estimate D2E/DX2                !
 ! R21   R(11,12)                1.4786         estimate D2E/DX2                !
 ! R22   R(11,18)                1.3962         estimate D2E/DX2                !
 ! R23   R(11,22)                1.2248         estimate D2E/DX2                !
 ! R24   R(12,13)                1.3888         estimate D2E/DX2                !
 ! R25   R(13,14)                1.4            estimate D2E/DX2                !
 ! R26   R(13,16)                1.0844         estimate D2E/DX2                !
 ! R27   R(14,15)                1.0834         estimate D2E/DX2                !
 ! R28   R(18,24)                1.4672         estimate D2E/DX2                !
 ! R29   R(19,28)                1.4672         estimate D2E/DX2                !
 ! R30   R(24,25)                1.091          estimate D2E/DX2                !
 ! R31   R(24,26)                1.093          estimate D2E/DX2                !
 ! R32   R(24,27)                1.0865         estimate D2E/DX2                !
 ! R33   R(28,29)                1.0921         estimate D2E/DX2                !
 ! R34   R(28,30)                1.0916         estimate D2E/DX2                !
 ! R35   R(28,31)                1.0867         estimate D2E/DX2                !
 ! R36   R(32,33)                1.3811         estimate D2E/DX2                !
 ! R37   R(32,34)                1.7638         estimate D2E/DX2                !
 ! R38   R(33,35)                1.4091         estimate D2E/DX2                !
 ! R39   R(33,36)                1.0778         estimate D2E/DX2                !
 ! R40   R(34,37)                1.7487         estimate D2E/DX2                !
 ! R41   R(35,37)                1.3986         estimate D2E/DX2                !
 ! R42   R(35,38)                1.3599         estimate D2E/DX2                !
 ! R43   R(37,39)                1.4354         estimate D2E/DX2                !
 ! R44   R(38,40)                1.4241         estimate D2E/DX2                !
 ! R45   R(39,41)                1.3936         estimate D2E/DX2                !
 ! R46   R(39,42)                1.7618         estimate D2E/DX2                !
 ! R47   R(40,43)                1.0902         estimate D2E/DX2                !
 ! R48   R(40,44)                1.0976         estimate D2E/DX2                !
 ! R49   R(40,45)                1.0964         estimate D2E/DX2                !
 ! R50   R(41,46)                1.4238         estimate D2E/DX2                !
 ! R51   R(41,47)                1.3582         estimate D2E/DX2                !
 ! R52   R(42,48)                1.727          estimate D2E/DX2                !
 ! R53   R(46,48)                1.3698         estimate D2E/DX2                !
 ! R54   R(46,49)                1.0811         estimate D2E/DX2                !
 ! R55   R(47,50)                1.423          estimate D2E/DX2                !
 ! R56   R(48,51)                1.0813         estimate D2E/DX2                !
 ! R57   R(50,52)                1.0978         estimate D2E/DX2                !
 ! R58   R(50,53)                1.0892         estimate D2E/DX2                !
 ! R59   R(50,54)                1.0959         estimate D2E/DX2                !
 ! A1    A(2,1,19)             116.767          estimate D2E/DX2                !
 ! A2    A(2,1,20)             122.9113         estimate D2E/DX2                !
 ! A3    A(19,1,20)            120.3217         estimate D2E/DX2                !
 ! A4    A(1,2,3)              120.5473         estimate D2E/DX2                !
 ! A5    A(1,2,6)              119.3369         estimate D2E/DX2                !
 ! A6    A(3,2,6)              120.1056         estimate D2E/DX2                !
 ! A7    A(2,3,4)              120.3743         estimate D2E/DX2                !
 ! A8    A(2,3,7)              118.662          estimate D2E/DX2                !
 ! A9    A(4,3,7)              120.9617         estimate D2E/DX2                !
 ! A10   A(3,4,5)              120.4909         estimate D2E/DX2                !
 ! A11   A(3,4,14)             120.2702         estimate D2E/DX2                !
 ! A12   A(5,4,14)             119.2382         estimate D2E/DX2                !
 ! A13   A(4,5,19)             116.7341         estimate D2E/DX2                !
 ! A14   A(4,5,21)             122.024          estimate D2E/DX2                !
 ! A15   A(19,5,21)            121.2418         estimate D2E/DX2                !
 ! A16   A(2,6,9)              123.2421         estimate D2E/DX2                !
 ! A17   A(2,6,17)             117.1119         estimate D2E/DX2                !
 ! A18   A(9,6,17)             119.589          estimate D2E/DX2                !
 ! A19   A(3,7,8)              120.9519         estimate D2E/DX2                !
 ! A20   A(3,7,12)             117.1037         estimate D2E/DX2                !
 ! A21   A(8,7,12)             121.944          estimate D2E/DX2                !
 ! A22   A(7,8,9)              119.5639         estimate D2E/DX2                !
 ! A23   A(7,8,10)             117.3064         estimate D2E/DX2                !
 ! A24   A(9,8,10)             122.9922         estimate D2E/DX2                !
 ! A25   A(6,9,8)              117.3944         estimate D2E/DX2                !
 ! A26   A(6,9,32)             115.0236         estimate D2E/DX2                !
 ! A27   A(8,9,32)             127.5648         estimate D2E/DX2                !
 ! A28   A(8,10,18)            118.042          estimate D2E/DX2                !
 ! A29   A(8,10,23)            124.5436         estimate D2E/DX2                !
 ! A30   A(18,10,23)           117.4097         estimate D2E/DX2                !
 ! A31   A(12,11,18)           115.5202         estimate D2E/DX2                !
 ! A32   A(12,11,22)           122.7205         estimate D2E/DX2                !
 ! A33   A(18,11,22)           121.7534         estimate D2E/DX2                !
 ! A34   A(7,12,11)            120.8614         estimate D2E/DX2                !
 ! A35   A(7,12,13)            121.162          estimate D2E/DX2                !
 ! A36   A(11,12,13)           117.9699         estimate D2E/DX2                !
 ! A37   A(12,13,14)           120.9948         estimate D2E/DX2                !
 ! A38   A(12,13,16)           117.8401         estimate D2E/DX2                !
 ! A39   A(14,13,16)           121.1642         estimate D2E/DX2                !
 ! A40   A(4,14,13)            119.5003         estimate D2E/DX2                !
 ! A41   A(4,14,15)            118.9169         estimate D2E/DX2                !
 ! A42   A(13,14,15)           121.5811         estimate D2E/DX2                !
 ! A43   A(10,18,11)           126.0753         estimate D2E/DX2                !
 ! A44   A(10,18,24)           115.7508         estimate D2E/DX2                !
 ! A45   A(11,18,24)           118.1737         estimate D2E/DX2                !
 ! A46   A(1,19,5)             125.0856         estimate D2E/DX2                !
 ! A47   A(1,19,28)            116.2868         estimate D2E/DX2                !
 ! A48   A(5,19,28)            118.6276         estimate D2E/DX2                !
 ! A49   A(18,24,25)           109.8574         estimate D2E/DX2                !
 ! A50   A(18,24,26)           109.8979         estimate D2E/DX2                !
 ! A51   A(18,24,27)           107.5355         estimate D2E/DX2                !
 ! A52   A(25,24,26)           108.1108         estimate D2E/DX2                !
 ! A53   A(25,24,27)           110.8301         estimate D2E/DX2                !
 ! A54   A(26,24,27)           110.6124         estimate D2E/DX2                !
 ! A55   A(19,28,29)           109.6906         estimate D2E/DX2                !
 ! A56   A(19,28,30)           109.8136         estimate D2E/DX2                !
 ! A57   A(19,28,31)           107.7461         estimate D2E/DX2                !
 ! A58   A(29,28,30)           108.2991         estimate D2E/DX2                !
 ! A59   A(29,28,31)           110.6959         estimate D2E/DX2                !
 ! A60   A(30,28,31)           110.5924         estimate D2E/DX2                !
 ! A61   A(9,32,33)            130.8709         estimate D2E/DX2                !
 ! A62   A(9,32,34)            118.8008         estimate D2E/DX2                !
 ! A63   A(33,32,34)           110.0745         estimate D2E/DX2                !
 ! A64   A(32,33,35)           113.5681         estimate D2E/DX2                !
 ! A65   A(32,33,36)           122.8252         estimate D2E/DX2                !
 ! A66   A(35,33,36)           123.605          estimate D2E/DX2                !
 ! A67   A(32,34,37)            92.5906         estimate D2E/DX2                !
 ! A68   A(33,35,37)           114.4061         estimate D2E/DX2                !
 ! A69   A(33,35,38)           126.5174         estimate D2E/DX2                !
 ! A70   A(37,35,38)           119.0764         estimate D2E/DX2                !
 ! A71   A(34,37,35)           109.3541         estimate D2E/DX2                !
 ! A72   A(34,37,39)           122.9385         estimate D2E/DX2                !
 ! A73   A(35,37,39)           127.6941         estimate D2E/DX2                !
 ! A74   A(35,38,40)           117.4919         estimate D2E/DX2                !
 ! A75   A(37,39,41)           127.597          estimate D2E/DX2                !
 ! A76   A(37,39,42)           123.0449         estimate D2E/DX2                !
 ! A77   A(41,39,42)           109.358          estimate D2E/DX2                !
 ! A78   A(38,40,43)           105.9615         estimate D2E/DX2                !
 ! A79   A(38,40,44)           111.1722         estimate D2E/DX2                !
 ! A80   A(38,40,45)           111.2097         estimate D2E/DX2                !
 ! A81   A(43,40,44)           109.3129         estimate D2E/DX2                !
 ! A82   A(43,40,45)           109.7441         estimate D2E/DX2                !
 ! A83   A(44,40,45)           109.3743         estimate D2E/DX2                !
 ! A84   A(39,41,46)           114.1766         estimate D2E/DX2                !
 ! A85   A(39,41,47)           119.2925         estimate D2E/DX2                !
 ! A86   A(46,41,47)           126.5308         estimate D2E/DX2                !
 ! A87   A(39,42,48)            91.8008         estimate D2E/DX2                !
 ! A88   A(41,46,48)           111.9041         estimate D2E/DX2                !
 ! A89   A(41,46,49)           124.5299         estimate D2E/DX2                !
 ! A90   A(48,46,49)           123.566          estimate D2E/DX2                !
 ! A91   A(41,47,50)           118.023          estimate D2E/DX2                !
 ! A92   A(42,48,46)           112.7606         estimate D2E/DX2                !
 ! A93   A(42,48,51)           119.8056         estimate D2E/DX2                !
 ! A94   A(46,48,51)           127.4337         estimate D2E/DX2                !
 ! A95   A(47,50,52)           111.2258         estimate D2E/DX2                !
 ! A96   A(47,50,53)           106.0633         estimate D2E/DX2                !
 ! A97   A(47,50,54)           111.2602         estimate D2E/DX2                !
 ! A98   A(52,50,53)           109.3366         estimate D2E/DX2                !
 ! A99   A(52,50,54)           109.408          estimate D2E/DX2                !
 ! A100  A(53,50,54)           109.4748         estimate D2E/DX2                !
 ! D1    D(19,1,2,3)             0.1578         estimate D2E/DX2                !
 ! D2    D(19,1,2,6)          -178.6792         estimate D2E/DX2                !
 ! D3    D(20,1,2,3)          -179.8231         estimate D2E/DX2                !
 ! D4    D(20,1,2,6)             1.3399         Frozen                          !
 ! D5    D(2,1,19,5)            -0.124          estimate D2E/DX2                !
 ! D6    D(2,1,19,28)          179.8267         estimate D2E/DX2                !
 ! D7    D(20,1,19,5)          179.8575         estimate D2E/DX2                !
 ! D8    D(20,1,19,28)          -0.1919         estimate D2E/DX2                !
 ! D9    D(1,2,3,4)              0.0571         estimate D2E/DX2                !
 ! D10   D(1,2,3,7)            179.5453         estimate D2E/DX2                !
 ! D11   D(6,2,3,4)            178.8851         estimate D2E/DX2                !
 ! D12   D(6,2,3,7)             -1.6266         estimate D2E/DX2                !
 ! D13   D(1,2,6,9)            178.625          estimate D2E/DX2                !
 ! D14   D(1,2,6,17)             1.3881         estimate D2E/DX2                !
 ! D15   D(3,2,6,9)             -0.2173         estimate D2E/DX2                !
 ! D16   D(3,2,6,17)          -177.4541         estimate D2E/DX2                !
 ! D17   D(2,3,4,5)             -0.3074         estimate D2E/DX2                !
 ! D18   D(2,3,4,14)           179.3968         estimate D2E/DX2                !
 ! D19   D(7,3,4,5)           -179.7837         estimate D2E/DX2                !
 ! D20   D(7,3,4,14)            -0.0795         estimate D2E/DX2                !
 ! D21   D(2,3,7,8)              1.0523         estimate D2E/DX2                !
 ! D22   D(2,3,7,12)          -178.712          estimate D2E/DX2                !
 ! D23   D(4,3,7,8)           -179.4626         estimate D2E/DX2                !
 ! D24   D(4,3,7,12)             0.7731         estimate D2E/DX2                !
 ! D25   D(3,4,5,19)             0.3343         estimate D2E/DX2                !
 ! D26   D(3,4,5,21)          -179.7799         estimate D2E/DX2                !
 ! D27   D(14,4,5,19)         -179.3729         estimate D2E/DX2                !
 ! D28   D(14,4,5,21)            0.5129         estimate D2E/DX2                !
 ! D29   D(3,4,14,13)           -0.4559         estimate D2E/DX2                !
 ! D30   D(3,4,14,15)         -179.9937         estimate D2E/DX2                !
 ! D31   D(5,4,14,13)          179.252          estimate D2E/DX2                !
 ! D32   D(5,4,14,15)           -0.2858         estimate D2E/DX2                !
 ! D33   D(4,5,19,1)            -0.1141         estimate D2E/DX2                !
 ! D34   D(4,5,19,28)          179.9364         estimate D2E/DX2                !
 ! D35   D(21,5,19,1)          179.9992         estimate D2E/DX2                !
 ! D36   D(21,5,19,28)           0.0496         estimate D2E/DX2                !
 ! D37   D(2,6,9,8)              2.5984         estimate D2E/DX2                !
 ! D38   D(2,6,9,32)          -176.0103         estimate D2E/DX2                !
 ! D39   D(17,6,9,8)           179.77           estimate D2E/DX2                !
 ! D40   D(17,6,9,32)            1.1613         estimate D2E/DX2                !
 ! D41   D(3,7,8,9)              1.3551         estimate D2E/DX2                !
 ! D42   D(3,7,8,10)          -174.5099         estimate D2E/DX2                !
 ! D43   D(12,7,8,9)          -178.8921         estimate D2E/DX2                !
 ! D44   D(12,7,8,10)            5.2428         estimate D2E/DX2                !
 ! D45   D(3,7,12,11)          178.0768         estimate D2E/DX2                !
 ! D46   D(3,7,12,13)           -0.9621         estimate D2E/DX2                !
 ! D47   D(8,7,12,11)           -1.685          estimate D2E/DX2                !
 ! D48   D(8,7,12,13)          179.2761         estimate D2E/DX2                !
 ! D49   D(7,8,9,6)             -3.0809         estimate D2E/DX2                !
 ! D50   D(7,8,9,32)           175.3285         estimate D2E/DX2                !
 ! D51   D(10,8,9,6)           172.5381         estimate D2E/DX2                !
 ! D52   D(10,8,9,32)           -9.0525         estimate D2E/DX2                !
 ! D53   D(7,8,10,18)           -4.7549         estimate D2E/DX2                !
 ! D54   D(7,8,10,23)          174.4235         estimate D2E/DX2                !
 ! D55   D(9,8,10,18)          179.5335         estimate D2E/DX2                !
 ! D56   D(9,8,10,23)           -1.2882         Frozen                          !
 ! D57   D(6,9,32,33)          -36.5303         estimate D2E/DX2                !
 ! D58   D(6,9,32,34)          149.8906         estimate D2E/DX2                !
 ! D59   D(8,9,32,33)          145.0282         Frozen                          !
 ! D60   D(8,9,32,34)          -28.5509         estimate D2E/DX2                !
 ! D61   D(8,10,18,11)           0.7189         estimate D2E/DX2                !
 ! D62   D(8,10,18,24)        -179.4089         estimate D2E/DX2                !
 ! D63   D(23,10,18,11)       -178.5188         estimate D2E/DX2                !
 ! D64   D(23,10,18,24)          1.3535         estimate D2E/DX2                !
 ! D65   D(18,11,12,7)          -2.3856         estimate D2E/DX2                !
 ! D66   D(18,11,12,13)        176.6833         estimate D2E/DX2                !
 ! D67   D(22,11,12,7)         178.4862         estimate D2E/DX2                !
 ! D68   D(22,11,12,13)         -2.445          estimate D2E/DX2                !
 ! D69   D(12,11,18,10)          2.8444         estimate D2E/DX2                !
 ! D70   D(12,11,18,24)       -177.0251         estimate D2E/DX2                !
 ! D71   D(22,11,18,10)       -178.0181         estimate D2E/DX2                !
 ! D72   D(22,11,18,24)          2.1124         estimate D2E/DX2                !
 ! D73   D(7,12,13,14)           0.461          estimate D2E/DX2                !
 ! D74   D(7,12,13,16)        -179.8781         estimate D2E/DX2                !
 ! D75   D(11,12,13,14)       -178.6049         estimate D2E/DX2                !
 ! D76   D(11,12,13,16)          1.056          estimate D2E/DX2                !
 ! D77   D(12,13,14,4)           0.2708         estimate D2E/DX2                !
 ! D78   D(12,13,14,15)        179.7958         estimate D2E/DX2                !
 ! D79   D(16,13,14,4)        -179.3788         estimate D2E/DX2                !
 ! D80   D(16,13,14,15)          0.1463         estimate D2E/DX2                !
 ! D81   D(10,18,24,25)        -59.609          Frozen                          !
 ! D82   D(10,18,24,26)         59.2209         estimate D2E/DX2                !
 ! D83   D(10,18,24,27)        179.6858         estimate D2E/DX2                !
 ! D84   D(11,18,24,25)        120.2739         estimate D2E/DX2                !
 ! D85   D(11,18,24,26)       -120.8962         estimate D2E/DX2                !
 ! D86   D(11,18,24,27)         -0.4313         estimate D2E/DX2                !
 ! D87   D(1,19,28,29)         -58.1407         estimate D2E/DX2                !
 ! D88   D(1,19,28,30)          60.7668         Frozen                          !
 ! D89   D(1,19,28,31)        -178.7139         estimate D2E/DX2                !
 ! D90   D(5,19,28,29)         121.8132         estimate D2E/DX2                !
 ! D91   D(5,19,28,30)        -119.2792         estimate D2E/DX2                !
 ! D92   D(5,19,28,31)           1.2401         estimate D2E/DX2                !
 ! D93   D(9,32,33,35)        -174.198          estimate D2E/DX2                !
 ! D94   D(9,32,33,36)           6.2602         estimate D2E/DX2                !
 ! D95   D(34,32,33,35)         -0.1869         estimate D2E/DX2                !
 ! D96   D(34,32,33,36)       -179.7288         estimate D2E/DX2                !
 ! D97   D(9,32,34,37)         175.3789         estimate D2E/DX2                !
 ! D98   D(33,32,34,37)          0.5446         estimate D2E/DX2                !
 ! D99   D(32,33,35,37)         -0.4049         estimate D2E/DX2                !
 ! D100  D(32,33,35,38)        179.7498         estimate D2E/DX2                !
 ! D101  D(36,33,35,37)        179.1329         estimate D2E/DX2                !
 ! D102  D(36,33,35,38)         -0.7125         estimate D2E/DX2                !
 ! D103  D(32,34,37,35)         -0.7537         estimate D2E/DX2                !
 ! D104  D(32,34,37,39)        178.0124         estimate D2E/DX2                !
 ! D105  D(33,35,37,34)          0.7971         estimate D2E/DX2                !
 ! D106  D(33,35,37,39)       -177.8942         estimate D2E/DX2                !
 ! D107  D(38,35,37,34)       -179.3452         estimate D2E/DX2                !
 ! D108  D(38,35,37,39)          1.9636         estimate D2E/DX2                !
 ! D109  D(33,35,38,40)          6.4737         Frozen                          !
 ! D110  D(37,35,38,40)       -173.3651         estimate D2E/DX2                !
 ! D111  D(34,37,39,41)          2.7186         estimate D2E/DX2                !
 ! D112  D(34,37,39,42)       -177.1849         estimate D2E/DX2                !
 ! D113  D(35,37,39,41)       -178.7527         estimate D2E/DX2                !
 ! D114  D(35,37,39,42)          1.3437         estimate D2E/DX2                !
 ! D115  D(35,38,40,43)        175.5288         estimate D2E/DX2                !
 ! D116  D(35,38,40,44)        -65.8075         estimate D2E/DX2                !
 ! D117  D(35,38,40,45)         56.3268         estimate D2E/DX2                !
 ! D118  D(37,39,41,46)       -179.927          estimate D2E/DX2                !
 ! D119  D(37,39,41,47)         -0.064          estimate D2E/DX2                !
 ! D120  D(42,39,41,46)         -0.0127         estimate D2E/DX2                !
 ! D121  D(42,39,41,47)        179.8503         estimate D2E/DX2                !
 ! D122  D(37,39,42,48)        179.933          estimate D2E/DX2                !
 ! D123  D(41,39,42,48)          0.014          estimate D2E/DX2                !
 ! D124  D(39,41,46,48)          0.0039         estimate D2E/DX2                !
 ! D125  D(39,41,46,49)       -179.9572         estimate D2E/DX2                !
 ! D126  D(47,41,46,48)       -179.8475         estimate D2E/DX2                !
 ! D127  D(47,41,46,49)          0.1914         estimate D2E/DX2                !
 ! D128  D(39,41,47,50)        178.3429         estimate D2E/DX2                !
 ! D129  D(46,41,47,50)         -1.8127         Frozen                          !
 ! D130  D(39,42,48,46)         -0.0123         estimate D2E/DX2                !
 ! D131  D(39,42,48,51)        179.8965         estimate D2E/DX2                !
 ! D132  D(41,46,48,42)          0.0072         estimate D2E/DX2                !
 ! D133  D(41,46,48,51)       -179.8932         estimate D2E/DX2                !
 ! D134  D(49,46,48,42)        179.9688         estimate D2E/DX2                !
 ! D135  D(49,46,48,51)          0.0684         estimate D2E/DX2                !
 ! D136  D(41,47,50,52)         62.0125         estimate D2E/DX2                !
 ! D137  D(41,47,50,53)       -179.2053         estimate D2E/DX2                !
 ! D138  D(41,47,50,54)        -60.2382         estimate D2E/DX2                !
 --------------------------------------------------------------------------------
 Trust Radius=3.00D-01 FncErr=1.00D-07 GrdErr=1.00D-06 EigMax=2.50D+02 EigMin=1.00D-04
 Number of steps in this run=    307 maximum allowed number of steps=    324.
 GradGradGradGradGradGradGradGradGradGradGradGradGradGradGradGradGradGrad

 Stoichiometry    C26H18N2O6S2
 Framework group  C1[X(C26H18N2O6S2)]
 Deg. of freedom   156
 Full point group                 C1      NOp   1
 Largest Abelian subgroup         C1      NOp   1
 Largest concise Abelian subgroup C1      NOp   1
                         Standard orientation:                         
 ---------------------------------------------------------------------
 Center     Atomic      Atomic             Coordinates (Angstroms)
 Number     Number       Type             X           Y           Z
 ---------------------------------------------------------------------
      1          6           0        3.815420   -2.565594    0.366492
      2          6           0        2.938817   -1.385631    0.144309
      3          6           0        3.488075   -0.083578    0.081657
      4          6           0        4.879007    0.112582    0.228431
      5          6           0        5.784326   -1.044931    0.457499
      6          6           0        1.584309   -1.567681    0.023863
      7          6           0        2.612438    1.017216   -0.142619
      8          6           0        1.201439    0.819426   -0.279976
      9          6           0        0.662081   -0.490699   -0.162581
     10          6           0        0.377182    2.006190   -0.636336
     11          6           0        2.376096    3.501631   -0.500514
     12          6           0        3.202153    2.306066   -0.227540
     13          6           0        4.571649    2.481099   -0.077009
     14          6           0        5.416900    1.389264    0.154156
     15          1           0        6.486854    1.514501    0.269753
     16          1           0        4.964385    3.489241   -0.149978
     17          1           0        1.211536   -2.580547    0.121351
     18          7           0        1.017973    3.258380   -0.714235
     19          7           0        5.185458   -2.315190    0.510100
     20          8           0        3.387363   -3.709934    0.424926
     21          8           0        6.990842   -0.907088    0.592199
     22          8           0        2.844724    4.631977   -0.554137
     23          8           0       -0.821841    1.970315   -0.882047
     24          6           0        0.155934    4.395410   -1.055861
     25          1           0       -0.309824    4.228357   -2.028241
     26          1           0       -0.638180    4.496963   -0.311705
     27          1           0        0.779365    5.285092   -1.073812
     28          6           0        6.040238   -3.486641    0.732808
     29          1           0        5.712275   -4.016265    1.629754
     30          1           0        5.961765   -4.168655   -0.115884
     31          1           0        7.061890   -3.134324    0.846818
     32          6           0       -0.747741   -0.879132   -0.177631
     33          6           0       -1.370300   -2.002338   -0.685800
     34         16           0       -1.953026    0.274046    0.395458
     35          6           0       -2.776584   -1.947147   -0.616167
     36          1           0       -0.825430   -2.840569   -1.088413
     37          6           0       -3.281220   -0.776498   -0.040731
     38          8           0       -3.646015   -2.901816   -1.042784
     39          6           0       -4.654841   -0.442153    0.207698
     40          6           0       -3.097809   -4.138023   -1.489154
     41          6           0       -5.157027    0.734951    0.759421
     42         16           0       -5.990650   -1.528842   -0.164856
     43          1           0       -3.949701   -4.782781   -1.706213
     44          1           0       -2.503833   -4.001667   -2.402066
     45          1           0       -2.473242   -4.597851   -0.714137
     46          6           0       -6.575500    0.763875    0.879556
     47          8           0       -4.294363    1.717914    1.126074
     48          6           0       -7.150950   -0.390832    0.419380
     49          1           0       -7.139528    1.593085    1.283427
     50          6           0       -4.838395    2.922593    1.653188
     51          1           0       -8.204065   -0.634432    0.391170
     52          1           0       -5.393085    2.735258    2.581838
     53          1           0       -3.988292    3.569776    1.865155
     54          1           0       -5.497956    3.411727    0.927401
 ---------------------------------------------------------------------
 Rotational constants (GHZ):           0.1724526           0.0576832           0.0450468
 Standard basis: 6-311+G(d,p) (5D, 7F)
 There are   952 symmetry adapted cartesian basis functions of A   symmetry.
 There are   916 symmetry adapted basis functions of A   symmetry.
   916 basis functions,  1468 primitive gaussians,   952 cartesian basis functions
   134 alpha electrons      134 beta electrons
       nuclear repulsion energy      4117.1884062326 Hartrees.
 NAtoms=   54 NActive=   54 NUniq=   54 SFac= 1.00D+00 NAtFMM=   60 NAOKFM=F Big=F
 Integral buffers will be    131072 words long.
 Raffenetti 2 integral format.
 Two-electron integral symmetry is turned on.
 Nuclear repulsion after empirical dispersion term =     4117.1475073730 Hartrees.
 One-electron integrals computed using PRISM.
 NBasis=   916 RedAO= T EigKep=  1.52D-06  NBF=   916
 NBsUse=   901 1.00D-06 EigRej=  8.95D-07 NBFU=   901
 ExpMin= 4.05D-02 ExpMax= 9.34D+04 ExpMxC= 3.17D+03 IAcc=3 IRadAn=         5 AccDes= 0.00D+00
 Harris functional with IExCor= 4639 and IRadAn=       5 diagonalized for initial guess.
 HarFok:  IExCor= 4639 AccDes= 0.00D+00 IRadAn=         5 IDoV= 1 UseB2=F ITyADJ=14
 ICtDFT=  3500011 ScaDFX=  1.000000  1.000000  1.000000  1.000000
 FoFCou: FMM=F IPFlag=           0 FMFlag=      100000 FMFlg1=           0
         NFxFlg=           0 DoJE=T BraDBF=F KetDBF=T FulRan=T
         wScrn=  0.000000 ICntrl=       500 IOpCl=  0 I1Cent=   200000004 NGrid=           0
         NMat0=    1 NMatS0=      1 NMatT0=    0 NMatD0=    1 NMtDS0=    0 NMtDT0=    0
 Petite list used in FoFCou.
 Requested convergence on RMS density matrix=1.00D-08 within 128 cycles.
 Requested convergence on MAX density matrix=1.00D-06.
 Requested convergence on             energy=1.00D-06.
 No special actions if energy rises.
 SCF Done:  E(RwB97XD) =  -2358.75064684     A.U. after   20 cycles
            NFock= 20  Conv=0.41D-08     -V/T= 2.0032

 **********************************************************************

            Population analysis using the SCF Density.

 **********************************************************************

 Orbital symmetries:
       Occupied  (A) (A) (A) (A) (A) (A) (A) (A) (A) (A) (A) (A)
                 (A) (A) (A) (A) (A) (A) (A) (A) (A) (A) (A) (A)
                 (A) (A) (A) (A) (A) (A) (A) (A) (A) (A) (A) (A)
                 (A) (A) (A) (A) (A) (A) (A) (A) (A) (A) (A) (A)
                 (A) (A) (A) (A) (A) (A) (A) (A) (A) (A) (A) (A)
                 (A) (A) (A) (A) (A) (A) (A) (A) (A) (A) (A) (A)
                 (A) (A) (A) (A) (A) (A) (A) (A) (A) (A) (A) (A)
                 (A) (A) (A) (A) (A) (A) (A) (A) (A) (A) (A) (A)
                 (A) (A) (A) (A) (A) (A) (A) (A) (A) (A) (A) (A)
                 (A) (A) (A) (A) (A) (A) (A) (A) (A) (A) (A) (A)
                 (A) (A) (A) (A) (A) (A) (A) (A) (A) (A) (A) (A)
                 (A) (A)
       Virtual   (A) (A) (A) (A) (A) (A) (A) (A) (A) (A) (A) (A)
                 (A) (A) (A) (A) (A) (A) (A) (A) (A) (A) (A) (A)
                 (A) (A) (A) (A) (A) (A) (A) (A) (A) (A) (A) (A)
                 (A) (A) (A) (A) (A) (A) (A) (A) (A) (A) (A) (A)
                 (A) (A) (A) (A) (A) (A) (A) (A) (A) (A) (A) (A)
                 (A) (A) (A) (A) (A) (A) (A) (A) (A) (A) (A) (A)
                 (A) (A) (A) (A) (A) (A) (A) (A) (A) (A) (A) (A)
                 (A) (A) (A) (A) (A) (A) (A) (A) (A) (A) (A) (A)
                 (A) (A) (A) (A) (A) (A) (A) (A) (A) (A) (A) (A)
                 (A) (A) (A) (A) (A) (A) (A) (A) (A) (A) (A) (A)
                 (A) (A) (A) (A) (A) (A) (A) (A) (A) (A) (A) (A)
                 (A) (A) (A) (A) (A) (A) (A) (A) (A) (A) (A) (A)
                 (A) (A) (A) (A) (A) (A) (A) (A) (A) (A) (A) (A)
                 (A) (A) (A) (A) (A) (A) (A) (A) (A) (A) (A) (A)
                 (A) (A) (A) (A) (A) (A) (A) (A) (A) (A) (A) (A)
                 (A) (A) (A) (A) (A) (A) (A) (A) (A) (A) (A) (A)
                 (A) (A) (A) (A) (A) (A) (A) (A) (A) (A) (A) (A)
                 (A) (A) (A) (A) (A) (A) (A) (A) (A) (A) (A) (A)
                 (A) (A) (A) (A) (A) (A) (A) (A) (A) (A) (A) (A)
                 (A) (A) (A) (A) (A) (A) (A) (A) (A) (A) (A) (A)
                 (A) (A) (A) (A) (A) (A) (A) (A) (A) (A) (A) (A)
                 (A) (A) (A) (A) (A) (A) (A) (A) (A) (A) (A) (A)
                 (A) (A) (A) (A) (A) (A) (A) (A) (A) (A) (A) (A)
                 (A) (A) (A) (A) (A) (A) (A) (A) (A) (A) (A) (A)
                 (A) (A) (A) (A) (A) (A) (A) (A) (A) (A) (A) (A)
                 (A) (A) (A) (A) (A) (A) (A) (A) (A) (A) (A) (A)
                 (A) (A) (A) (A) (A) (A) (A) (A) (A) (A) (A) (A)
                 (A) (A) (A) (A) (A) (A) (A) (A) (A) (A) (A) (A)
                 (A) (A) (A) (A) (A) (A) (A) (A) (A) (A) (A) (A)
                 (A) (A) (A) (A) (A) (A) (A) (A) (A) (A) (A) (A)
                 (A) (A) (A) (A) (A) (A) (A) (A) (A) (A) (A) (A)
                 (A) (A) (A) (A) (A) (A) (A) (A) (A) (A) (A) (A)
                 (A) (A) (A) (A) (A) (A) (A) (A) (A) (A) (A) (A)
                 (A) (A) (A) (A) (A) (A) (A) (A) (A) (A) (A) (A)
                 (A) (A) (A) (A) (A) (A) (A) (A) (A) (A) (A) (A)
                 (A) (A) (A) (A) (A) (A) (A) (A) (A) (A) (A) (A)
                 (A) (A) (A) (A) (A) (A) (A) (A) (A) (A) (A) (A)
                 (A) (A) (A) (A) (A) (A) (A) (A) (A) (A) (A) (A)
                 (A) (A) (A) (A) (A) (A) (A) (A) (A) (A) (A) (A)
                 (A) (A) (A) (A) (A) (A) (A) (A) (A) (A) (A) (A)
                 (A) (A) (A) (A) (A) (A) (A) (A) (A) (A) (A) (A)
                 (A) (A) (A) (A) (A) (A) (A) (A) (A) (A) (A) (A)
                 (A) (A) (A) (A) (A) (A) (A) (A) (A) (A) (A) (A)
                 (A) (A) (A) (A) (A) (A) (A) (A) (A) (A) (A) (A)
                 (A) (A) (A) (A) (A) (A) (A) (A) (A) (A) (A) (A)
                 (A) (A) (A) (A) (A) (A) (A) (A) (A) (A) (A) (A)
                 (A) (A) (A) (A) (A) (A) (A) (A) (A) (A) (A) (A)
                 (A) (A) (A) (A) (A) (A) (A) (A) (A) (A) (A) (A)
                 (A) (A) (A) (A) (A) (A) (A) (A) (A) (A) (A) (A)
                 (A) (A) (A) (A) (A) (A) (A) (A) (A) (A) (A) (A)
                 (A) (A) (A) (A) (A) (A) (A) (A) (A) (A) (A) (A)
                 (A) (A) (A) (A) (A) (A) (A) (A) (A) (A) (A) (A)
                 (A) (A) (A) (A) (A) (A) (A) (A) (A) (A) (A) (A)
                 (A) (A) (A) (A) (A) (A) (A) (A) (A) (A) (A) (A)
                 (A) (A) (A) (A) (A) (A) (A) (A) (A) (A) (A) (A)
                 (A) (A) (A) (A) (A) (A) (A) (A) (A) (A) (A) (A)
                 (A) (A) (A) (A) (A) (A) (A) (A) (A) (A) (A) (A)
                 (A) (A) (A) (A) (A) (A) (A) (A) (A) (A) (A) (A)
                 (A) (A) (A) (A) (A) (A) (A) (A) (A) (A) (A) (A)
                 (A) (A) (A) (A) (A) (A) (A) (A) (A) (A) (A) (A)
                 (A) (A) (A) (A) (A) (A) (A) (A) (A) (A) (A) (A)
                 (A) (A) (A) (A) (A) (A) (A) (A) (A) (A) (A) (A)
                 (A) (A) (A) (A) (A) (A) (A) (A) (A) (A) (A) (A)
                 (A) (A) (A) (A) (A) (A) (A) (A) (A) (A) (A)
 The electronic state is 1-A.
 Alpha  occ. eigenvalues --  -89.04882 -89.04243 -19.29210 -19.28806 -19.25122
 Alpha  occ. eigenvalues --  -19.25076 -19.24376 -19.24282 -14.50767 -14.50231
 Alpha  occ. eigenvalues --  -10.43024 -10.42904 -10.42668 -10.42287 -10.35941
 Alpha  occ. eigenvalues --  -10.35937 -10.35313 -10.34805 -10.34719 -10.34586
 Alpha  occ. eigenvalues --  -10.34393 -10.34166 -10.34011 -10.33964 -10.33654
 Alpha  occ. eigenvalues --  -10.33291 -10.33145 -10.33121 -10.32732 -10.32723
 Alpha  occ. eigenvalues --  -10.32653 -10.32306 -10.32298 -10.31899 -10.30538
 Alpha  occ. eigenvalues --  -10.30033  -8.08835  -8.08203  -6.03682  -6.03291
 Alpha  occ. eigenvalues --   -6.03047  -6.02921  -6.02625  -6.02296  -1.18856
 Alpha  occ. eigenvalues --   -1.18547  -1.18402  -1.18036  -1.16896  -1.16453
 Alpha  occ. eigenvalues --   -1.06399  -1.05824  -1.02644  -0.99890  -0.98460
 Alpha  occ. eigenvalues --   -0.96626  -0.94399  -0.90338  -0.88463  -0.87260
 Alpha  occ. eigenvalues --   -0.85773  -0.85016  -0.84550  -0.82617  -0.82179
 Alpha  occ. eigenvalues --   -0.81290  -0.79740  -0.78239  -0.76541  -0.75398
 Alpha  occ. eigenvalues --   -0.74798  -0.74318  -0.69957  -0.68922  -0.67827
 Alpha  occ. eigenvalues --   -0.66598  -0.65695  -0.64910  -0.63923  -0.63499
 Alpha  occ. eigenvalues --   -0.62683  -0.60507  -0.59351  -0.58836  -0.58687
 Alpha  occ. eigenvalues --   -0.58053  -0.57563  -0.57183  -0.57129  -0.56772
 Alpha  occ. eigenvalues --   -0.56450  -0.55810  -0.55404  -0.54959  -0.54396
 Alpha  occ. eigenvalues --   -0.53909  -0.53538  -0.53321  -0.52941  -0.52342
 Alpha  occ. eigenvalues --   -0.51336  -0.51020  -0.50709  -0.50340  -0.49969
 Alpha  occ. eigenvalues --   -0.49923  -0.49537  -0.49436  -0.48827  -0.48372
 Alpha  occ. eigenvalues --   -0.47828  -0.47352  -0.46208  -0.45572  -0.45415
 Alpha  occ. eigenvalues --   -0.44265  -0.44047  -0.42290  -0.41782  -0.41333
 Alpha  occ. eigenvalues --   -0.40885  -0.39874  -0.39300  -0.38189  -0.37851
 Alpha  occ. eigenvalues --   -0.37221  -0.37112  -0.36529  -0.36305  -0.34560
 Alpha  occ. eigenvalues --   -0.33023  -0.31728  -0.29813  -0.25301
 Alpha virt. eigenvalues --   -0.07638  -0.01155   0.00293   0.02175   0.03340
 Alpha virt. eigenvalues --    0.05218   0.05726   0.05992   0.06677   0.06993
 Alpha virt. eigenvalues --    0.07109   0.07444   0.07747   0.07828   0.07999
 Alpha virt. eigenvalues --    0.08414   0.08582   0.08863   0.08978   0.09275
 Alpha virt. eigenvalues --    0.09345   0.09519   0.10075   0.10353   0.10533
 Alpha virt. eigenvalues --    0.10717   0.10968   0.11252   0.11486   0.11751
 Alpha virt. eigenvalues --    0.12032   0.12094   0.12359   0.12776   0.12979
 Alpha virt. eigenvalues --    0.13361   0.13548   0.13806   0.14242   0.14447
 Alpha virt. eigenvalues --    0.14574   0.14766   0.15287   0.15387   0.15531
 Alpha virt. eigenvalues --    0.15818   0.16110   0.16405   0.17023   0.17140
 Alpha virt. eigenvalues --    0.17382   0.17568   0.17757   0.17840   0.18298
 Alpha virt. eigenvalues --    0.18403   0.18888   0.19043   0.19386   0.19789
 Alpha virt. eigenvalues --    0.20036   0.20154   0.20221   0.20470   0.20827
 Alpha virt. eigenvalues --    0.21013   0.21099   0.21253   0.21351   0.21809
 Alpha virt. eigenvalues --    0.21888   0.22159   0.22179   0.22556   0.22740
 Alpha virt. eigenvalues --    0.23151   0.23549   0.23716   0.23995   0.24259
 Alpha virt. eigenvalues --    0.24458   0.24739   0.24793   0.24866   0.25013
 Alpha virt. eigenvalues --    0.25159   0.25655   0.25706   0.25866   0.26270
 Alpha virt. eigenvalues --    0.26349   0.26555   0.26585   0.26819   0.26927
 Alpha virt. eigenvalues --    0.27236   0.27378   0.27568   0.27647   0.27900
 Alpha virt. eigenvalues --    0.28286   0.28457   0.28470   0.28922   0.29037
 Alpha virt. eigenvalues --    0.29395   0.29576   0.29603   0.29879   0.30172
 Alpha virt. eigenvalues --    0.30343   0.30641   0.30676   0.30952   0.31151
 Alpha virt. eigenvalues --    0.31377   0.31527   0.31583   0.31931   0.32027
 Alpha virt. eigenvalues --    0.32163   0.32475   0.32503   0.32793   0.32844
 Alpha virt. eigenvalues --    0.33207   0.33440   0.33609   0.33857   0.33911
 Alpha virt. eigenvalues --    0.34119   0.34190   0.34669   0.34904   0.35033
 Alpha virt. eigenvalues --    0.35574   0.35802   0.36300   0.36413   0.36643
 Alpha virt. eigenvalues --    0.36700   0.36931   0.37227   0.37509   0.37640
 Alpha virt. eigenvalues --    0.37985   0.38313   0.38517   0.38692   0.38823
 Alpha virt. eigenvalues --    0.39090   0.39338   0.39530   0.39869   0.39897
 Alpha virt. eigenvalues --    0.40688   0.40904   0.41288   0.41520   0.41675
 Alpha virt. eigenvalues --    0.41916   0.42299   0.42873   0.43074   0.43386
 Alpha virt. eigenvalues --    0.43769   0.43880   0.44275   0.44547   0.45020
 Alpha virt. eigenvalues --    0.45175   0.45655   0.46337   0.46505   0.46589
 Alpha virt. eigenvalues --    0.47139   0.47499   0.48252   0.48978   0.49323
 Alpha virt. eigenvalues --    0.49702   0.50151   0.50671   0.50859   0.51180
 Alpha virt. eigenvalues --    0.51484   0.52214   0.52560   0.52976   0.53189
 Alpha virt. eigenvalues --    0.53283   0.53699   0.53880   0.54169   0.54911
 Alpha virt. eigenvalues --    0.55146   0.55794   0.56279   0.56885   0.57086
 Alpha virt. eigenvalues --    0.57177   0.57789   0.58192   0.58843   0.59220
 Alpha virt. eigenvalues --    0.60503   0.60995   0.61425   0.61770   0.61979
 Alpha virt. eigenvalues --    0.62246   0.62524   0.63050   0.63529   0.64119
 Alpha virt. eigenvalues --    0.64182   0.64599   0.64827   0.65048   0.65571
 Alpha virt. eigenvalues --    0.66374   0.66644   0.67065   0.67535   0.67787
 Alpha virt. eigenvalues --    0.67993   0.68505   0.69037   0.69234   0.69713
 Alpha virt. eigenvalues --    0.69745   0.70057   0.70546   0.71304   0.71315
 Alpha virt. eigenvalues --    0.71793   0.72139   0.72301   0.72645   0.73466
 Alpha virt. eigenvalues --    0.73547   0.74012   0.74120   0.74317   0.74554
 Alpha virt. eigenvalues --    0.75253   0.75701   0.75850   0.76154   0.76644
 Alpha virt. eigenvalues --    0.77327   0.77500   0.78028   0.78136   0.78879
 Alpha virt. eigenvalues --    0.79182   0.79570   0.79933   0.80362   0.80682
 Alpha virt. eigenvalues --    0.80888   0.81005   0.81218   0.81994   0.82332
 Alpha virt. eigenvalues --    0.82577   0.82793   0.83029   0.83546   0.83859
 Alpha virt. eigenvalues --    0.84369   0.84719   0.85137   0.85214   0.85893
 Alpha virt. eigenvalues --    0.86113   0.86605   0.87106   0.87270   0.87670
 Alpha virt. eigenvalues --    0.88126   0.88516   0.89297   0.89791   0.90231
 Alpha virt. eigenvalues --    0.91349   0.92097   0.92336   0.92867   0.94031
 Alpha virt. eigenvalues --    0.94398   0.94842   0.95939   0.96246   0.97228
 Alpha virt. eigenvalues --    0.97682   0.97896   0.98912   0.98979   0.99476
 Alpha virt. eigenvalues --    1.00090   1.01023   1.01148   1.01273   1.01506
 Alpha virt. eigenvalues --    1.01913   1.02260   1.02501   1.02704   1.03579
 Alpha virt. eigenvalues --    1.04248   1.04476   1.04607   1.05222   1.05497
 Alpha virt. eigenvalues --    1.06393   1.06830   1.07467   1.07815   1.08571
 Alpha virt. eigenvalues --    1.09222   1.09357   1.09699   1.10194   1.10866
 Alpha virt. eigenvalues --    1.11005   1.11640   1.12409   1.12697   1.13279
 Alpha virt. eigenvalues --    1.13304   1.13509   1.13999   1.14484   1.15069
 Alpha virt. eigenvalues --    1.15587   1.15772   1.16005   1.16312   1.16526
 Alpha virt. eigenvalues --    1.17746   1.18238   1.18582   1.19049   1.19164
 Alpha virt. eigenvalues --    1.19906   1.20426   1.21833   1.22202   1.23327
 Alpha virt. eigenvalues --    1.24231   1.24662   1.25520   1.26117   1.26376
 Alpha virt. eigenvalues --    1.26716   1.27768   1.28371   1.29355   1.29874
 Alpha virt. eigenvalues --    1.30520   1.30700   1.32972   1.33536   1.33817
 Alpha virt. eigenvalues --    1.33913   1.34679   1.35123   1.35745   1.36425
 Alpha virt. eigenvalues --    1.36699   1.37325   1.38579   1.39153   1.40067
 Alpha virt. eigenvalues --    1.40827   1.41445   1.41884   1.43035   1.44046
 Alpha virt. eigenvalues --    1.45118   1.45613   1.46281   1.46854   1.47503
 Alpha virt. eigenvalues --    1.48752   1.49220   1.50061   1.50489   1.51292
 Alpha virt. eigenvalues --    1.51575   1.51722   1.51959   1.52403   1.52949
 Alpha virt. eigenvalues --    1.53198   1.53491   1.54083   1.54337   1.54617
 Alpha virt. eigenvalues --    1.54968   1.55193   1.56163   1.56528   1.57726
 Alpha virt. eigenvalues --    1.58047   1.59122   1.59390   1.60192   1.60879
 Alpha virt. eigenvalues --    1.61887   1.62501   1.62938   1.63268   1.63355
 Alpha virt. eigenvalues --    1.63809   1.64031   1.64672   1.65041   1.65327
 Alpha virt. eigenvalues --    1.65659   1.67130   1.68010   1.69208   1.70063
 Alpha virt. eigenvalues --    1.70878   1.71452   1.71808   1.72404   1.72709
 Alpha virt. eigenvalues --    1.73726   1.74935   1.75160   1.75459   1.76130
 Alpha virt. eigenvalues --    1.76239   1.76626   1.77692   1.77834   1.78184
 Alpha virt. eigenvalues --    1.78565   1.79117   1.79416   1.79555   1.79988
 Alpha virt. eigenvalues --    1.82200   1.82342   1.83008   1.83711   1.84497
 Alpha virt. eigenvalues --    1.84869   1.85683   1.85741   1.87103   1.87767
 Alpha virt. eigenvalues --    1.88091   1.88664   1.88864   1.90094   1.91779
 Alpha virt. eigenvalues --    1.92258   1.92913   1.94414   1.94701   1.94770
 Alpha virt. eigenvalues --    1.95104   1.95632   1.95970   1.96631   1.97276
 Alpha virt. eigenvalues --    1.98283   1.98653   1.99154   1.99668   1.99784
 Alpha virt. eigenvalues --    2.00863   2.01304   2.02158   2.02964   2.03915
 Alpha virt. eigenvalues --    2.04042   2.04460   2.05848   2.06865   2.07626
 Alpha virt. eigenvalues --    2.08621   2.09110   2.10055   2.10335   2.10927
 Alpha virt. eigenvalues --    2.11828   2.12120   2.12644   2.12747   2.13797
 Alpha virt. eigenvalues --    2.14365   2.15315   2.15861   2.16347   2.16931
 Alpha virt. eigenvalues --    2.17469   2.18688   2.19340   2.20823   2.21017
 Alpha virt. eigenvalues --    2.21132   2.21639   2.22508   2.23140   2.23913
 Alpha virt. eigenvalues --    2.24396   2.25370   2.26171   2.26464   2.28362
 Alpha virt. eigenvalues --    2.28612   2.28955   2.29291   2.30479   2.31146
 Alpha virt. eigenvalues --    2.31953   2.34484   2.34906   2.36153   2.37258
 Alpha virt. eigenvalues --    2.40549   2.41530   2.42117   2.43540   2.44392
 Alpha virt. eigenvalues --    2.46496   2.47839   2.48673   2.50491   2.52070
 Alpha virt. eigenvalues --    2.52573   2.52995   2.53195   2.54379   2.55215
 Alpha virt. eigenvalues --    2.55687   2.56522   2.57198   2.57962   2.58508
 Alpha virt. eigenvalues --    2.59394   2.60796   2.61648   2.61742   2.62181
 Alpha virt. eigenvalues --    2.62910   2.63072   2.63317   2.64338   2.65740
 Alpha virt. eigenvalues --    2.66023   2.67494   2.68065   2.68709   2.70371
 Alpha virt. eigenvalues --    2.72200   2.72890   2.73811   2.74306   2.75601
 Alpha virt. eigenvalues --    2.76516   2.77210   2.77678   2.77992   2.78714
 Alpha virt. eigenvalues --    2.78979   2.79312   2.79701   2.80646   2.80817
 Alpha virt. eigenvalues --    2.81698   2.81899   2.83259   2.83553   2.85382
 Alpha virt. eigenvalues --    2.86196   2.86719   2.87418   2.87929   2.88992
 Alpha virt. eigenvalues --    2.91593   2.91862   2.92977   2.93118   2.93906
 Alpha virt. eigenvalues --    2.93921   2.94809   2.95328   2.95876   2.96379
 Alpha virt. eigenvalues --    2.97275   2.97672   2.97875   2.99102   2.99746
 Alpha virt. eigenvalues --    3.00515   3.01639   3.02011   3.03361   3.03941
 Alpha virt. eigenvalues --    3.04970   3.05188   3.06120   3.07937   3.09255
 Alpha virt. eigenvalues --    3.10154   3.12286   3.12992   3.13952   3.14290
 Alpha virt. eigenvalues --    3.15080   3.16328   3.18151   3.18578   3.20320
 Alpha virt. eigenvalues --    3.20995   3.22965   3.23725   3.24656   3.24913
 Alpha virt. eigenvalues --    3.26698   3.27732   3.29385   3.29839   3.31843
 Alpha virt. eigenvalues --    3.32742   3.33104   3.33490   3.34538   3.36900
 Alpha virt. eigenvalues --    3.38259   3.39839   3.41448   3.41844   3.42847
 Alpha virt. eigenvalues --    3.43254   3.43720   3.44535   3.44733   3.47192
 Alpha virt. eigenvalues --    3.48323   3.49526   3.51403   3.51660   3.52264
 Alpha virt. eigenvalues --    3.54208   3.55071   3.55974   3.58384   3.59015
 Alpha virt. eigenvalues --    3.60322   3.63297   3.65129   3.67070   3.68820
 Alpha virt. eigenvalues --    3.69686   3.71085   3.74165   3.75642   3.76090
 Alpha virt. eigenvalues --    3.79592   3.79759   3.81969   3.82721   3.85597
 Alpha virt. eigenvalues --    3.86097   3.86317   3.90666   3.92440   3.94452
 Alpha virt. eigenvalues --    3.95027   3.96090   3.99475   4.00573   4.02373
 Alpha virt. eigenvalues --    4.03722   4.05391   4.06473   4.10852   4.13157
 Alpha virt. eigenvalues --    4.14376   4.18290   4.20456   4.22447   4.24320
 Alpha virt. eigenvalues --    4.30326   4.33685   4.35144   4.36941   4.44990
 Alpha virt. eigenvalues --    4.49154   4.50198   4.61962   4.79307   4.93852
 Alpha virt. eigenvalues --    4.95135   4.97655   5.00696   5.13556   5.14475
 Alpha virt. eigenvalues --    5.15037   5.16489   5.17130   5.20818   5.21527
 Alpha virt. eigenvalues --    5.23347   5.35878   5.37702   5.40005   5.43318
 Alpha virt. eigenvalues --    5.53691   5.54596   5.86307   5.87883   5.90947
 Alpha virt. eigenvalues --    5.91469   5.92478   5.95927   8.13770   8.18319
 Alpha virt. eigenvalues --   17.43349  17.50329  17.63829  17.66688  17.73006
 Alpha virt. eigenvalues --   17.77836  23.61966  23.70094  23.84804  23.91498
 Alpha virt. eigenvalues --   23.94685  23.95562  23.97014  23.99210  23.99423
 Alpha virt. eigenvalues --   24.00706  24.01948  24.03483  24.04490  24.05780
 Alpha virt. eigenvalues --   24.07754  24.07958  24.09238  24.10771  24.13237
 Alpha virt. eigenvalues --   24.15023  24.16000  24.17674  24.24903  24.25963
 Alpha virt. eigenvalues --   24.26760  24.27356  35.69227  35.72196  50.10328
 Alpha virt. eigenvalues --   50.12031  50.15662  50.17847  50.19379  50.21083
 Alpha virt. eigenvalues --  189.39231 189.44655
          Condensed to atoms (all electrons):
 Mulliken charges:
               1
     1  C    0.386526
     2  C   -0.094800
     3  C    0.139231
     4  C    0.209063
     5  C    0.318500
     6  C   -0.236492
     7  C    0.126162
     8  C    0.259259
     9  C    0.170720
    10  C   -0.260244
    11  C    0.329450
    12  C    0.180827
    13  C   -0.569797
    14  C   -0.671481
    15  H    0.188564
    16  H    0.190755
    17  H    0.186235
    18  N   -0.043480
    19  N   -0.081012
    20  O   -0.274459
    21  O   -0.270778
    22  O   -0.279080
    23  O   -0.166655
    24  C   -0.276536
    25  H    0.198669
    26  H    0.192835
    27  H    0.202540
    28  C   -0.280258
    29  H    0.193007
    30  H    0.193056
    31  H    0.201116
    32  C    0.478660
    33  C   -0.739393
    34  S   -0.837078
    35  C   -0.236152
    36  H    0.159178
    37  C    0.674450
    38  O   -0.124406
    39  C    0.962161
    40  C   -0.301628
    41  C   -0.093334
    42  S   -0.323978
    43  H    0.183662
    44  H    0.158716
    45  H    0.167651
    46  C   -0.555284
    47  O   -0.103214
    48  C   -0.359621
    49  H    0.157050
    50  C   -0.321260
    51  H    0.188834
    52  H    0.158517
    53  H    0.183313
    54  H    0.161712
 Sum of Mulliken charges =  -0.00000
 Mulliken charges with hydrogens summed into heavy atoms:
               1
     1  C    0.386526
     2  C   -0.094800
     3  C    0.139231
     4  C    0.209063
     5  C    0.318500
     6  C   -0.050257
     7  C    0.126162
     8  C    0.259259
     9  C    0.170720
    10  C   -0.260244
    11  C    0.329450
    12  C    0.180827
    13  C   -0.379042
    14  C   -0.482917
    18  N   -0.043480
    19  N   -0.081012
    20  O   -0.274459
    21  O   -0.270778
    22  O   -0.279080
    23  O   -0.166655
    24  C    0.317509
    28  C    0.306921
    32  C    0.478660
    33  C   -0.580216
    34  S   -0.837078
    35  C   -0.236152
    37  C    0.674450
    38  O   -0.124406
    39  C    0.962161
    40  C    0.208401
    41  C   -0.093334
    42  S   -0.323978
    46  C   -0.398234
    47  O   -0.103214
    48  C   -0.170786
    50  C    0.182283
 Electronic spatial extent (au):  <R**2>=          22131.5729
 Charge=             -0.0000 electrons
 Dipole moment (field-independent basis, Debye):
    X=             -3.3352    Y=             -0.2318    Z=              0.2101  Tot=              3.3498
 Quadrupole moment (field-independent basis, Debye-Ang):
   XX=           -211.8345   YY=           -212.6498   ZZ=           -218.8743
   XY=            -12.3153   XZ=             -6.4930   YZ=             10.9340
 Traceless Quadrupole moment (field-independent basis, Debye-Ang):
   XX=              2.6184   YY=              1.8031   ZZ=             -4.4214
   XY=            -12.3153   XZ=             -6.4930   YZ=             10.9340
 Octapole moment (field-independent basis, Debye-Ang**2):
  XXX=           -325.4321  YYY=            -56.6185  ZZZ=             -2.3619  XYY=           -109.1847
  XXY=             27.3980  XXZ=             35.5678  XZZ=             -1.8201  YZZ=              1.4905
  YYZ=            -10.5338  XYZ=            -38.0427
 Hexadecapole moment (field-independent basis, Debye-Ang**3):
 XXXX=         -21320.3405 YYYY=          -7194.5327 ZZZZ=           -847.0544 XXXY=           -377.9431
 XXXZ=           -370.0280 YYYX=           -320.6917 YYYZ=            168.5719 ZZZX=             22.2473
 ZZZY=             15.2153 XXYY=          -4446.0201 XXZZ=          -3829.9825 YYZZ=          -1237.1593
 XXYZ=            185.7414 YYXZ=             60.9941 ZZXY=            -79.4717
 N-N= 4.117147507373D+03 E-N=-1.377370310586D+04  KE= 2.351269813255D+03
 Calling FoFJK, ICntrl=      2127 FMM=F ISym2X=0 I1Cent= 0 IOpClX= 0 NMat=1 NMatS=1 NMatT=0.
 ***** Axes restored to original set *****
 -------------------------------------------------------------------
 Center     Atomic                   Forces (Hartrees/Bohr)
 Number     Number              X              Y              Z
 -------------------------------------------------------------------
      1        6           0.006210520   -0.013653638   -0.001833601
      2        6           0.006737788    0.004879236    0.000788087
      3        6           0.000440640    0.003898732    0.000431217
      4        6          -0.001711650    0.007607664    0.001214320
      5        6          -0.011810894   -0.008581377   -0.000962270
      6        6          -0.005572079   -0.000347566   -0.000591141
      7        6          -0.002617215   -0.003861299   -0.000384131
      8        6           0.005412076   -0.008740166   -0.001148660
      9        6          -0.006791086   -0.003950801    0.001077082
     10        6           0.006787840    0.012241151    0.005086704
     11        6          -0.006466208    0.013676670    0.001813520
     12        6          -0.003929605   -0.005613417   -0.000561727
     13        6           0.006648710    0.000546712   -0.000028493
     14        6           0.006739695   -0.003914991   -0.000680519
     15        1           0.000382442    0.000648201    0.000039936
     16        1           0.000400394   -0.000950631   -0.000170443
     17        1           0.001059918    0.001046578    0.000262102
     18        7          -0.000720054   -0.002076493   -0.001122860
     19        7           0.001088182    0.001775054    0.000115035
     20        8          -0.013789761    0.014312885    0.002195100
     21        8           0.018448754    0.006051294    0.000517965
     22        8           0.014554105   -0.013819384   -0.001961639
     23        8          -0.037380457   -0.000905794    0.012665307
     24        6           0.000893930   -0.001857206   -0.001361238
     25        1          -0.000856303   -0.000415255   -0.000401068
     26        1          -0.001460595   -0.000988675    0.000977766
     27        1           0.000662750    0.000014922    0.000046370
     28        6           0.001224384    0.001902991   -0.000138394
     29        1          -0.000858702    0.000836410    0.000908907
     30        1          -0.000622618    0.000830929   -0.000325525
     31        1           0.000634116   -0.000254750   -0.000019752
     32        6           0.002590541    0.036961682   -0.003537732
     33        6          -0.000875223   -0.001642699   -0.003700994
     34       16           0.031299065   -0.026206553   -0.006069287
     35        6           0.000454487    0.003788282   -0.002338734
     36        1          -0.000405078   -0.002049737    0.002843298
     37        6          -0.016027854   -0.013674161   -0.003157653
     38        8          -0.002437156   -0.006228824    0.002030482
     39        6           0.010408993    0.010477613   -0.004052919
     40        6          -0.000774470    0.005965900   -0.000674338
     41        6          -0.003576099   -0.006826621    0.002862839
     42       16          -0.005638880    0.008794508   -0.003815026
     43        1          -0.001322122    0.000239269   -0.000340263
     44        1           0.000572996    0.000762616   -0.001121965
     45        1           0.000737056    0.000918671   -0.000109923
     46        6           0.003032068   -0.005171896    0.002498156
     47        8           0.005511837    0.002911944   -0.001375205
     48        6          -0.007756221   -0.002061622    0.000482308
     49        1           0.000139349   -0.000382557    0.000198715
     50        6           0.002177812   -0.004268761    0.000815465
     51        1          -0.001250877   -0.000269385    0.000058506
     52        1          -0.000806335   -0.000837507    0.001443861
     53        1           0.000628246   -0.000617295    0.000390356
     54        1          -0.000421153   -0.000920853    0.000222099
 -------------------------------------------------------------------
 Cartesian Forces:  Max     0.037380457 RMS     0.007237238

 GradGradGradGradGradGradGradGradGradGradGradGradGradGradGradGradGradGrad
 Berny optimization.
 FormGI is forming the generalized inverse of G from B-inverse, IUseBI=4.
 Internal  Forces:  Max     0.079020101 RMS     0.010291717
 Search for a local minimum.
 Step number   1 out of a maximum of  307
 All quantities printed in internal units (Hartrees-Bohrs-Radians)
 Mixed Optimization -- RFO/linear search
 Second derivative matrix not updated -- first step.
 ITU=  0
     Eigenvalues ---    0.01155   0.01172   0.01239   0.01297   0.01373
     Eigenvalues ---    0.01387   0.01397   0.01410   0.01452   0.01469
     Eigenvalues ---    0.01512   0.01544   0.01567   0.01586   0.01621
     Eigenvalues ---    0.01652   0.01679   0.01694   0.01711   0.01719
     Eigenvalues ---    0.01721   0.01763   0.01799   0.01845   0.01973
     Eigenvalues ---    0.02039   0.02045   0.02071   0.02086   0.02095
     Eigenvalues ---    0.02133   0.02149   0.02162   0.02180   0.02197
     Eigenvalues ---    0.02240   0.04601   0.04620   0.07665   0.07667
     Eigenvalues ---    0.10067   0.10076   0.10633   0.10639   0.15983
     Eigenvalues ---    0.15999   0.15999   0.16000   0.16000   0.16000
     Eigenvalues ---    0.16000   0.16000   0.16000   0.16000   0.16000
     Eigenvalues ---    0.16000   0.16000   0.16000   0.16000   0.16000
     Eigenvalues ---    0.16000   0.16000   0.22531   0.22583   0.23517
     Eigenvalues ---    0.23581   0.24513   0.24747   0.24866   0.24906
     Eigenvalues ---    0.24952   0.24985   0.24986   0.24988   0.24993
     Eigenvalues ---    0.24994   0.24996   0.24997   0.24998   0.24998
     Eigenvalues ---    0.25000   0.25000   0.25000   0.25000   0.25000
     Eigenvalues ---    0.25000   0.25000   0.25000   0.25000   0.25000
     Eigenvalues ---    0.28831   0.28874   0.30069   0.32072   0.32582
     Eigenvalues ---    0.32774   0.33104   0.33787   0.33927   0.33945
     Eigenvalues ---    0.34079   0.34137   0.34353   0.34466   0.34577
     Eigenvalues ---    0.34629   0.34693   0.34789   0.34900   0.35198
     Eigenvalues ---    0.35218   0.35468   0.35553   0.35582   0.35839
     Eigenvalues ---    0.35859   0.36078   0.36083   0.36264   0.36393
     Eigenvalues ---    0.36662   0.39348   0.40194   0.40225   0.40651
     Eigenvalues ---    0.40705   0.41524   0.41853   0.42004   0.42300
     Eigenvalues ---    0.42681   0.43455   0.43896   0.44092   0.44594
     Eigenvalues ---    0.44601   0.45014   0.45405   0.46251   0.47305
     Eigenvalues ---    0.47634   0.49309   0.49431   0.52969   0.53303
     Eigenvalues ---    0.93281   0.93432   0.93989   0.945851000.00000
     Eigenvalues --- 1000.000001000.000001000.000001000.000001000.00000
     Eigenvalues --- 1000.000001000.000001000.000001000.000001000.00000
     Eigenvalues --- 1000.000001000.000001000.000001000.000001000.00000
     Eigenvalues --- 1000.000001000.000001000.000001000.000001000.00000
     Eigenvalues --- 1000.000001000.000001000.000001000.000001000.00000
     Eigenvalues --- 1000.000001000.000001000.000001000.000001000.00000
     Eigenvalues --- 1000.000001000.000001000.000001000.000001000.00000
     Eigenvalues --- 1000.000001000.000001000.000001000.000001000.00000
     Eigenvalues --- 1000.000001000.000001000.000001000.000001000.00000
     Eigenvalues --- 1000.000001000.000001000.000001000.000001000.00000
     Eigenvalues --- 1000.000001000.000001000.000001000.000001000.00000
     Eigenvalues --- 1000.000001000.000001000.000001000.000001000.00000
     Eigenvalues --- 1000.000001000.000001000.000001000.000001000.00000
     Eigenvalues --- 1000.000001000.000001000.000001000.000001000.00000
     Eigenvalues --- 1000.000001000.000001000.000001000.000001000.00000
     Eigenvalues --- 1000.000001000.000001000.000001000.000001000.00000
     Eigenvalues --- 1000.000001000.000001000.000001000.000001000.00000
     Eigenvalues --- 1000.000001000.000001000.000001000.000001000.00000
     Eigenvalues --- 1000.000001000.000001000.000001000.000001000.00000
     Eigenvalues --- 1000.000001000.000001000.000001000.000001000.00000
     Eigenvalues --- 1000.000001000.000001000.000001000.000001000.00000
     Eigenvalues --- 1000.000001000.000001000.000001000.000001000.00000
     Eigenvalues --- 1000.000001000.000001000.000001000.000001000.00000
     Eigenvalues --- 1000.000001000.000001000.000001000.000001000.00000
     Eigenvalues --- 1000.000001000.000001000.000001000.000001000.00000
     Eigenvalues --- 1000.000001000.000001000.000001000.000001000.00000
     Eigenvalues --- 1000.000001000.000001000.000001000.000001000.00000
     Eigenvalues --- 1000.000001000.000001000.000001000.000001000.00000
     Eigenvalues --- 1000.000001000.000001000.000001000.000001000.00000
     Eigenvalues --- 1000.000001000.00000
 RFO step:  Lambda=-9.71608225D-02 EMin= 1.15532237D-02
 Linear search not attempted -- first point.
 Maximum step size (   0.300) exceeded in Quadratic search.
    -- Step size scaled by   0.661
 Iteration  1 RMS(Cart)=  0.38532228 RMS(Int)=  0.01022567
 Iteration  2 RMS(Cart)=  0.08521745 RMS(Int)=  0.00091990
 Iteration  3 RMS(Cart)=  0.00193625 RMS(Int)=  0.00081961
 Iteration  4 RMS(Cart)=  0.00000620 RMS(Int)=  0.00081961
 Iteration  5 RMS(Cart)=  0.00000002 RMS(Int)=  0.00081961
 Iteration  1 RMS(Cart)=  0.00029087 RMS(Int)=  0.00005235
 Iteration  2 RMS(Cart)=  0.00015587 RMS(Int)=  0.00005840
 Iteration  3 RMS(Cart)=  0.00008456 RMS(Int)=  0.00006602
 Iteration  4 RMS(Cart)=  0.00004626 RMS(Int)=  0.00007119
 Iteration  5 RMS(Cart)=  0.00002545 RMS(Int)=  0.00007433
 Iteration  6 RMS(Cart)=  0.00001405 RMS(Int)=  0.00007617
 Iteration  7 RMS(Cart)=  0.00000778 RMS(Int)=  0.00007723
 Iteration  8 RMS(Cart)=  0.00000431 RMS(Int)=  0.00007784
 Iteration  9 RMS(Cart)=  0.00000239 RMS(Int)=  0.00007819
 Iteration 10 RMS(Cart)=  0.00000133 RMS(Int)=  0.00007839
 Iteration 11 RMS(Cart)=  0.00000073 RMS(Int)=  0.00007851
 Variable       Old X    -DE/DX   Delta X   Delta X   Delta X     New X
                                 (Linear)    (Quad)   (Total)
    R1        2.80935  -0.00171   0.00000  -0.00298  -0.00297   2.80638
    R2        2.64584  -0.00936   0.00000  -0.01145  -0.01142   2.63442
    R3        2.31147  -0.01999   0.00000  -0.01273  -0.01273   2.29874
    R4        2.67311  -0.01236   0.00000  -0.01708  -0.01717   2.65594
    R5        2.59267  -0.01892   0.00000  -0.02281  -0.02280   2.56988
    R6        2.66894  -0.00317   0.00000  -0.00363  -0.00366   2.66528
    R7        2.69164  -0.00591   0.00000  -0.00590  -0.00597   2.68567
    R8        2.81049  -0.00154   0.00000  -0.00195  -0.00196   2.80853
    R9        2.62173  -0.01348   0.00000  -0.01629  -0.01627   2.60545
   R10        2.65570  -0.00905   0.00000  -0.01096  -0.01094   2.64476
   R11        2.30889  -0.01942   0.00000  -0.01230  -0.01230   2.29659
   R12        2.70248  -0.00493   0.00000  -0.00733  -0.00724   2.69524
   R13        2.04786  -0.00003   0.00000  -0.00004  -0.00004   2.04782
   R14        2.70495   0.01356   0.00000   0.02216   0.02215   2.72710
   R15        2.68322  -0.00016   0.00000   0.00165   0.00164   2.68486
   R16        2.68655   0.02264   0.00000   0.03049   0.03050   2.71705
   R17        2.81233   0.01414   0.00000   0.02244   0.02249   2.83482
   R18        2.76359   0.01711   0.00000   0.02438   0.02438   2.78797
   R19        2.66221  -0.00960   0.00000  -0.01277  -0.01278   2.64942
   R20        2.31391  -0.03287   0.00000  -0.02105  -0.02105   2.29285
   R21        2.79415  -0.00933   0.00000  -0.01483  -0.01484   2.77931
   R22        2.63842  -0.01721   0.00000  -0.02195  -0.02201   2.61641
   R23        2.31456  -0.02016   0.00000  -0.01293  -0.01293   2.30163
   R24        2.62448  -0.00920   0.00000  -0.01063  -0.01063   2.61386
   R25        2.64561  -0.00852   0.00000  -0.01100  -0.01098   2.63463
   R26        2.04921  -0.00096   0.00000  -0.00140  -0.00140   2.04781
   R27        2.04741  -0.00057   0.00000  -0.00083  -0.00083   2.04658
   R28        2.77259  -0.00341   0.00000  -0.00492  -0.00492   2.76767
   R29        2.77252  -0.00335   0.00000  -0.00484  -0.00484   2.76769
   R30        2.06176  -0.00081   0.00000  -0.00121  -0.00121   2.06055
   R31        2.06551  -0.00192   0.00000  -0.00286  -0.00286   2.06265
   R32        2.05322  -0.00056   0.00000  -0.00083  -0.00083   2.05240
   R33        2.06368  -0.00139   0.00000  -0.00208  -0.00208   2.06160
   R34        2.06281  -0.00093   0.00000  -0.00138  -0.00138   2.06143
   R35        2.05355  -0.00060   0.00000  -0.00088  -0.00088   2.05267
   R36        2.60988   0.00196   0.00000   0.00229   0.00252   2.61240
   R37        3.33308  -0.01077   0.00000  -0.01774  -0.01749   3.31559
   R38        2.66279  -0.00868   0.00000  -0.01097  -0.01099   2.65180
   R39        2.03671   0.00303   0.00000   0.00435   0.00435   2.04106
   R40        3.30459  -0.01245   0.00000  -0.02028  -0.02044   3.28415
   R41        2.64305  -0.01441   0.00000  -0.01747  -0.01778   2.62527
   R42        2.56982  -0.00355   0.00000  -0.00374  -0.00374   2.56608
   R43        2.71249   0.00241   0.00000   0.00319   0.00319   2.71568
   R44        2.69111  -0.00822   0.00000  -0.01053  -0.01053   2.68058
   R45        2.63355  -0.01224   0.00000  -0.01448  -0.01448   2.61907
   R46        3.32939  -0.00826   0.00000  -0.01380  -0.01380   3.31559
   R47        2.06019  -0.00137   0.00000  -0.00204  -0.00204   2.05815
   R48        2.07423  -0.00134   0.00000  -0.00202  -0.00202   2.07221
   R49        2.07197  -0.00079   0.00000  -0.00120  -0.00120   2.07077
   R50        2.69068  -0.00342   0.00000  -0.00461  -0.00461   2.68607
   R51        2.56672  -0.00813   0.00000  -0.00852  -0.00852   2.55820
   R52        3.26365  -0.00805   0.00000  -0.01225  -0.01225   3.25139
   R53        2.58848  -0.00849   0.00000  -0.00925  -0.00925   2.57923
   R54        2.04303  -0.00041   0.00000  -0.00060  -0.00060   2.04243
   R55        2.68917  -0.00730   0.00000  -0.00933  -0.00933   2.67985
   R56        2.04334  -0.00128   0.00000  -0.00186  -0.00186   2.04148
   R57        2.07454  -0.00170   0.00000  -0.00257  -0.00257   2.07198
   R58        2.05837  -0.00078   0.00000  -0.00116  -0.00116   2.05721
   R59        2.07099  -0.00065   0.00000  -0.00097  -0.00097   2.07002
    A1        2.03797   0.00134   0.00000   0.00136   0.00135   2.03932
    A2        2.14521  -0.00131   0.00000  -0.00191  -0.00190   2.14330
    A3        2.10001  -0.00002   0.00000   0.00054   0.00054   2.10055
    A4        2.10395   0.00332   0.00000   0.00805   0.00806   2.11201
    A5        2.08282  -0.00393   0.00000  -0.00463  -0.00455   2.07827
    A6        2.09624   0.00058   0.00000  -0.00350  -0.00360   2.09264
    A7        2.10093  -0.00491   0.00000  -0.01039  -0.01033   2.09060
    A8        2.07104   0.00011   0.00000  -0.00139  -0.00149   2.06955
    A9        2.11118   0.00479   0.00000   0.01173   0.01175   2.12293
   A10        2.10296   0.00190   0.00000   0.00441   0.00436   2.10733
   A11        2.09911   0.00211   0.00000   0.00354   0.00352   2.10263
   A12        2.08110  -0.00401   0.00000  -0.00796  -0.00789   2.07321
   A13        2.03739   0.00066   0.00000   0.00157   0.00154   2.03894
   A14        2.12972  -0.00012   0.00000  -0.00039  -0.00038   2.12934
   A15        2.11607  -0.00053   0.00000  -0.00118  -0.00117   2.11490
   A16        2.15098   0.01393   0.00000   0.02500   0.02500   2.17598
   A17        2.04399  -0.00560   0.00000  -0.00922  -0.00925   2.03474
   A18        2.08722  -0.00847   0.00000  -0.01657  -0.01667   2.07055
   A19        2.11101   0.00616   0.00000   0.01286   0.01288   2.12389
   A20        2.04385  -0.01147   0.00000  -0.02384  -0.02378   2.02007
   A21        2.12832   0.00531   0.00000   0.01096   0.01087   2.13920
   A22        2.08678  -0.01332   0.00000  -0.02185  -0.02194   2.06485
   A23        2.04738  -0.02279   0.00000  -0.04232  -0.04235   2.00504
   A24        2.14662   0.03586   0.00000   0.06167   0.06119   2.20781
   A25        2.04892  -0.00778   0.00000  -0.01228  -0.01230   2.03662
   A26        2.00754  -0.07128   0.00000  -0.13717  -0.13713   1.87041
   A27        2.22643   0.07902   0.00000   0.14891   0.14869   2.37512
   A28        2.06022   0.01069   0.00000   0.02121   0.02118   2.08140
   A29        2.17370   0.01412   0.00000   0.02637   0.02640   2.20009
   A30        2.04919  -0.02487   0.00000  -0.04762  -0.04762   2.00156
   A31        2.01621  -0.00225   0.00000  -0.00710  -0.00737   2.00884
   A32        2.14188   0.00069   0.00000   0.00265   0.00271   2.14458
   A33        2.12500   0.00152   0.00000   0.00421   0.00427   2.12927
   A34        2.10943   0.00411   0.00000   0.00819   0.00806   2.11749
   A35        2.11468   0.00616   0.00000   0.01346   0.01345   2.12813
   A36        2.05896  -0.01028   0.00000  -0.02172  -0.02159   2.03737
   A37        2.11176   0.00104   0.00000   0.00207   0.00201   2.11377
   A38        2.05670  -0.00010   0.00000   0.00005   0.00008   2.05677
   A39        2.11471  -0.00095   0.00000  -0.00215  -0.00212   2.11260
   A40        2.08567  -0.00265   0.00000  -0.00713  -0.00717   2.07850
[...]
 Alpha  occ. eigenvalues --   -0.66648  -0.65772  -0.64974  -0.64169  -0.63550
 Alpha  occ. eigenvalues --   -0.62849  -0.60697  -0.59746  -0.59100  -0.58908
 Alpha  occ. eigenvalues --   -0.58162  -0.57688  -0.57366  -0.57311  -0.56999
 Alpha  occ. eigenvalues --   -0.56520  -0.55942  -0.55392  -0.55280  -0.54229
 Alpha  occ. eigenvalues --   -0.53858  -0.53698  -0.53426  -0.53192  -0.52469
 Alpha  occ. eigenvalues --   -0.51586  -0.51169  -0.50917  -0.50373  -0.50123
 Alpha  occ. eigenvalues --   -0.50089  -0.49529  -0.49462  -0.48852  -0.48365
 Alpha  occ. eigenvalues --   -0.48067  -0.47468  -0.46591  -0.45851  -0.45452
 Alpha  occ. eigenvalues --   -0.44379  -0.43986  -0.42335  -0.41721  -0.41238
 Alpha  occ. eigenvalues --   -0.41050  -0.40182  -0.39603  -0.38397  -0.37668
 Alpha  occ. eigenvalues --   -0.37379  -0.37120  -0.36685  -0.36257  -0.34778
 Alpha  occ. eigenvalues --   -0.33195  -0.31732  -0.31307  -0.25531
 Alpha virt. eigenvalues --   -0.07210  -0.00510   0.00477   0.02299   0.03430
 Alpha virt. eigenvalues --    0.05209   0.05799   0.06083   0.06733   0.06877
 Alpha virt. eigenvalues --    0.07116   0.07546   0.07677   0.07750   0.07925
 Alpha virt. eigenvalues --    0.08578   0.08675   0.08879   0.09019   0.09144
 Alpha virt. eigenvalues --    0.09329   0.09592   0.10008   0.10170   0.10533
 Alpha virt. eigenvalues --    0.10735   0.11054   0.11368   0.11558   0.11760
 Alpha virt. eigenvalues --    0.11995   0.12067   0.12250   0.12766   0.13027
 Alpha virt. eigenvalues --    0.13283   0.13584   0.13973   0.14083   0.14524
 Alpha virt. eigenvalues --    0.14628   0.14794   0.15115   0.15309   0.15439
 Alpha virt. eigenvalues --    0.15801   0.15909   0.16373   0.16714   0.17242
 Alpha virt. eigenvalues --    0.17309   0.17597   0.17758   0.17953   0.18156
 Alpha virt. eigenvalues --    0.18503   0.18556   0.19204   0.19405   0.19730
 Alpha virt. eigenvalues --    0.20019   0.20192   0.20448   0.20590   0.20637
 Alpha virt. eigenvalues --    0.20793   0.21033   0.21208   0.21416   0.21706
 Alpha virt. eigenvalues --    0.22063   0.22249   0.22489   0.22707   0.22816
 Alpha virt. eigenvalues --    0.23151   0.23537   0.23746   0.24027   0.24458
 Alpha virt. eigenvalues --    0.24500   0.24739   0.24880   0.24920   0.25169
 Alpha virt. eigenvalues --    0.25332   0.25579   0.25775   0.26052   0.26214
 Alpha virt. eigenvalues --    0.26389   0.26567   0.26686   0.26881   0.26984
 Alpha virt. eigenvalues --    0.27097   0.27541   0.27719   0.27879   0.28031
 Alpha virt. eigenvalues --    0.28138   0.28472   0.28629   0.28769   0.28959
 Alpha virt. eigenvalues --    0.29308   0.29447   0.29708   0.30052   0.30311
 Alpha virt. eigenvalues --    0.30326   0.30491   0.30767   0.30992   0.31111
 Alpha virt. eigenvalues --    0.31242   0.31405   0.31784   0.31962   0.32173
 Alpha virt. eigenvalues --    0.32406   0.32600   0.32695   0.32862   0.33095
 Alpha virt. eigenvalues --    0.33283   0.33458   0.33875   0.33977   0.34013
 Alpha virt. eigenvalues --    0.34134   0.34610   0.34788   0.34901   0.35262
 Alpha virt. eigenvalues --    0.35635   0.35874   0.36134   0.36451   0.36635
 Alpha virt. eigenvalues --    0.36809   0.37032   0.37152   0.37390   0.37754
 Alpha virt. eigenvalues --    0.37929   0.38045   0.38285   0.38536   0.38852
 Alpha virt. eigenvalues --    0.39149   0.39312   0.39478   0.40140   0.40331
 Alpha virt. eigenvalues --    0.40375   0.40657   0.41327   0.41632   0.41738
 Alpha virt. eigenvalues --    0.42127   0.42297   0.42674   0.43084   0.43521
 Alpha virt. eigenvalues --    0.43627   0.44044   0.44335   0.44702   0.45411
 Alpha virt. eigenvalues --    0.45589   0.45759   0.46099   0.46401   0.46655
 Alpha virt. eigenvalues --    0.47293   0.47523   0.48336   0.48617   0.48839
 Alpha virt. eigenvalues --    0.49276   0.50108   0.50254   0.50671   0.51281
 Alpha virt. eigenvalues --    0.51413   0.51820   0.52554   0.52869   0.52947
 Alpha virt. eigenvalues --    0.53374   0.53518   0.53782   0.54377   0.54813
 Alpha virt. eigenvalues --    0.55549   0.55795   0.56676   0.57084   0.57155
 Alpha virt. eigenvalues --    0.57444   0.58181   0.58385   0.59095   0.59755
 Alpha virt. eigenvalues --    0.59909   0.61263   0.61833   0.61964   0.62073
 Alpha virt. eigenvalues --    0.62894   0.62991   0.63560   0.63636   0.64221
 Alpha virt. eigenvalues --    0.64410   0.65133   0.65228   0.65442   0.66017
 Alpha virt. eigenvalues --    0.66258   0.66882   0.67115   0.67651   0.67879
 Alpha virt. eigenvalues --    0.68182   0.68456   0.68863   0.69120   0.69636
 Alpha virt. eigenvalues --    0.69888   0.69961   0.70365   0.70824   0.71778
 Alpha virt. eigenvalues --    0.72178   0.72437   0.72806   0.73128   0.73321
 Alpha virt. eigenvalues --    0.73918   0.74154   0.74194   0.74665   0.74788
 Alpha virt. eigenvalues --    0.75397   0.75884   0.76255   0.76736   0.76788
 Alpha virt. eigenvalues --    0.77555   0.77736   0.78058   0.78697   0.79199
 Alpha virt. eigenvalues --    0.79438   0.79602   0.80398   0.80597   0.80790
 Alpha virt. eigenvalues --    0.81289   0.81495   0.81552   0.81974   0.82360
 Alpha virt. eigenvalues --    0.82630   0.82889   0.83293   0.83586   0.83951
 Alpha virt. eigenvalues --    0.84312   0.84453   0.85128   0.85429   0.85887
 Alpha virt. eigenvalues --    0.86001   0.86625   0.86726   0.86978   0.87510
 Alpha virt. eigenvalues --    0.88224   0.88369   0.89336   0.89738   0.90063
 Alpha virt. eigenvalues --    0.91174   0.91826   0.92378   0.92901   0.94153
 Alpha virt. eigenvalues --    0.94443   0.95295   0.95990   0.96208   0.96588
 Alpha virt. eigenvalues --    0.97184   0.97928   0.98591   0.99040   0.99656
 Alpha virt. eigenvalues --    0.99816   1.00494   1.00768   1.01264   1.01861
 Alpha virt. eigenvalues --    1.01884   1.02417   1.02612   1.03567   1.03945
 Alpha virt. eigenvalues --    1.04430   1.04936   1.05284   1.05403   1.06047
 Alpha virt. eigenvalues --    1.06266   1.06375   1.07476   1.08080   1.08968
 Alpha virt. eigenvalues --    1.09230   1.09556   1.10090   1.10466   1.10622
 Alpha virt. eigenvalues --    1.11149   1.11634   1.11686   1.12473   1.12970
 Alpha virt. eigenvalues --    1.13393   1.13699   1.14485   1.14798   1.14960
 Alpha virt. eigenvalues --    1.15051   1.15771   1.15977   1.16890   1.17303
 Alpha virt. eigenvalues --    1.17794   1.18295   1.18593   1.18850   1.19445
 Alpha virt. eigenvalues --    1.19693   1.21279   1.21540   1.22729   1.23226
 Alpha virt. eigenvalues --    1.24069   1.24746   1.25732   1.26231   1.26675
 Alpha virt. eigenvalues --    1.27146   1.27351   1.28912   1.29320   1.29968
 Alpha virt. eigenvalues --    1.30540   1.31036   1.31959   1.32987   1.33571
 Alpha virt. eigenvalues --    1.33683   1.34561   1.34689   1.35301   1.35791
 Alpha virt. eigenvalues --    1.36615   1.36766   1.38835   1.38925   1.39906
 Alpha virt. eigenvalues --    1.41368   1.41980   1.42303   1.42730   1.43985
 Alpha virt. eigenvalues --    1.44729   1.44892   1.45229   1.47089   1.48599
 Alpha virt. eigenvalues --    1.48855   1.49669   1.50502   1.51302   1.51529
 Alpha virt. eigenvalues --    1.51675   1.52206   1.52363   1.52744   1.53285
 Alpha virt. eigenvalues --    1.53501   1.53602   1.54145   1.54233   1.54560
 Alpha virt. eigenvalues --    1.55087   1.55337   1.56262   1.57168   1.58226
 Alpha virt. eigenvalues --    1.59254   1.59462   1.59907   1.60157   1.60897
 Alpha virt. eigenvalues --    1.61622   1.62557   1.63034   1.63330   1.63437
 Alpha virt. eigenvalues --    1.64014   1.64102   1.64750   1.65644   1.65928
 Alpha virt. eigenvalues --    1.67141   1.67874   1.68612   1.69635   1.70727
 Alpha virt. eigenvalues --    1.71040   1.72050   1.72243   1.73052   1.73364
 Alpha virt. eigenvalues --    1.74088   1.74414   1.75030   1.76250   1.76575
 Alpha virt. eigenvalues --    1.77101   1.77446   1.77920   1.78365   1.78444
 Alpha virt. eigenvalues --    1.79463   1.79731   1.79794   1.80103   1.80747
 Alpha virt. eigenvalues --    1.81949   1.82720   1.83018   1.83402   1.84687
 Alpha virt. eigenvalues --    1.85714   1.86036   1.86956   1.87134   1.88008
 Alpha virt. eigenvalues --    1.88445   1.89222   1.89577   1.90096   1.91442
 Alpha virt. eigenvalues --    1.91992   1.93473   1.94705   1.95038   1.95421
 Alpha virt. eigenvalues --    1.95558   1.96008   1.96480   1.97016   1.97486
 Alpha virt. eigenvalues --    1.98441   1.99077   1.99605   2.00010   2.00076
 Alpha virt. eigenvalues --    2.00577   2.00832   2.02545   2.03368   2.04417
 Alpha virt. eigenvalues --    2.05114   2.05841   2.05944   2.07246   2.08285
 Alpha virt. eigenvalues --    2.08516   2.09489   2.09956   2.10417   2.11575
 Alpha virt. eigenvalues --    2.12024   2.12322   2.12776   2.13206   2.13701
 Alpha virt. eigenvalues --    2.14996   2.15420   2.15754   2.17171   2.17373
 Alpha virt. eigenvalues --    2.17827   2.18787   2.19269   2.20357   2.20752
 Alpha virt. eigenvalues --    2.21420   2.21860   2.23084   2.23904   2.24339
 Alpha virt. eigenvalues --    2.24940   2.25973   2.26122   2.27767   2.28098
 Alpha virt. eigenvalues --    2.29142   2.29853   2.30436   2.31119   2.31624
 Alpha virt. eigenvalues --    2.32611   2.34657   2.35587   2.37396   2.38167
 Alpha virt. eigenvalues --    2.41136   2.41570   2.42368   2.44069   2.46202
 Alpha virt. eigenvalues --    2.47405   2.48748   2.49437   2.51144   2.52986
 Alpha virt. eigenvalues --    2.53325   2.53516   2.53679   2.55321   2.55637
 Alpha virt. eigenvalues --    2.56556   2.56863   2.58129   2.58457   2.59027
 Alpha virt. eigenvalues --    2.60168   2.61347   2.61625   2.61840   2.62237
 Alpha virt. eigenvalues --    2.62742   2.63197   2.63617   2.65117   2.65743
 Alpha virt. eigenvalues --    2.66051   2.68150   2.68500   2.68961   2.70360
 Alpha virt. eigenvalues --    2.72426   2.73633   2.74387   2.74690   2.76320
 Alpha virt. eigenvalues --    2.76546   2.77606   2.77977   2.78609   2.79305
 Alpha virt. eigenvalues --    2.79632   2.80069   2.80414   2.81054   2.81402
 Alpha virt. eigenvalues --    2.81808   2.82259   2.83383   2.83911   2.85296
 Alpha virt. eigenvalues --    2.86759   2.87478   2.88113   2.88336   2.89540
 Alpha virt. eigenvalues --    2.92145   2.93213   2.93755   2.94268   2.94657
 Alpha virt. eigenvalues --    2.95321   2.95598   2.96163   2.96556   2.97151
 Alpha virt. eigenvalues --    2.97910   2.98574   2.99650   2.99978   3.00653
 Alpha virt. eigenvalues --    3.01544   3.02114   3.02782   3.03937   3.04969
 Alpha virt. eigenvalues --    3.05429   3.06099   3.07760   3.08662   3.10670
 Alpha virt. eigenvalues --    3.12131   3.12894   3.13902   3.14719   3.14988
 Alpha virt. eigenvalues --    3.17148   3.17613   3.18839   3.19084   3.20460
 Alpha virt. eigenvalues --    3.21541   3.23723   3.24224   3.25457   3.26540
 Alpha virt. eigenvalues --    3.27550   3.29510   3.30537   3.33056   3.33270
 Alpha virt. eigenvalues --    3.34060   3.34448   3.34659   3.36197   3.37785
 Alpha virt. eigenvalues --    3.40327   3.40788   3.42964   3.43440   3.44142
 Alpha virt. eigenvalues --    3.44705   3.45057   3.46290   3.46799   3.48918
 Alpha virt. eigenvalues --    3.49684   3.50478   3.52460   3.53902   3.54952
 Alpha virt. eigenvalues --    3.55712   3.57202   3.57406   3.59964   3.60532
 Alpha virt. eigenvalues --    3.61993   3.64489   3.66288   3.68645   3.70602
 Alpha virt. eigenvalues --    3.71350   3.72905   3.75802   3.76591   3.77558
 Alpha virt. eigenvalues --    3.80300   3.82059   3.82629   3.83784   3.86839
 Alpha virt. eigenvalues --    3.87127   3.87297   3.92139   3.93191   3.95282
 Alpha virt. eigenvalues --    3.95813   3.96016   3.99884   4.01535   4.03306
 Alpha virt. eigenvalues --    4.04340   4.06104   4.06889   4.10914   4.13141
 Alpha virt. eigenvalues --    4.14530   4.18959   4.21464   4.22140   4.25168
 Alpha virt. eigenvalues --    4.30485   4.33701   4.35280   4.37281   4.45343
 Alpha virt. eigenvalues --    4.49221   4.50483   4.61173   4.77575   4.95272
 Alpha virt. eigenvalues --    4.96461   4.98592   5.01465   5.13649   5.14494
 Alpha virt. eigenvalues --    5.15247   5.16651   5.17043   5.20848   5.22526
 Alpha virt. eigenvalues --    5.23789   5.36333   5.38003   5.40158   5.42077
 Alpha virt. eigenvalues --    5.54831   5.55914   5.87455   5.89326   5.91361
 Alpha virt. eigenvalues --    5.93143   5.93394   5.95990   8.15069   8.18489
 Alpha virt. eigenvalues --   17.43563  17.48128  17.64570  17.67583  17.73183
 Alpha virt. eigenvalues --   17.78457  23.61959  23.69930  23.85892  23.92427
 Alpha virt. eigenvalues --   23.95847  23.96903  23.98547  24.00373  24.00867
 Alpha virt. eigenvalues --   24.01725  24.02506  24.04314  24.05265  24.07088
 Alpha virt. eigenvalues --   24.08389  24.09719  24.10489  24.15148  24.16965
 Alpha virt. eigenvalues --   24.19432  24.20591  24.21099  24.26714  24.28622
 Alpha virt. eigenvalues --   24.29005  24.30321  35.69884  35.72252  50.11070
 Alpha virt. eigenvalues --   50.12520  50.16525  50.18234  50.20459  50.21717
 Alpha virt. eigenvalues --  189.40558 189.44759
          Condensed to atoms (all electrons):
 Mulliken charges:
               1
     1  C    0.382110
     2  C   -0.019578
     3  C    0.171031
     4  C    0.242911
     5  C    0.305953
     6  C   -0.264153
     7  C    0.145060
     8  C    0.040212
     9  C    0.266398
    10  C   -0.408389
    11  C    0.339172
    12  C    0.081237
    13  C   -0.543064
    14  C   -0.690738
    15  H    0.187537
    16  H    0.188657
    17  H    0.192855
    18  N   -0.029408
    19  N   -0.093654
    20  O   -0.265120
    21  O   -0.267394
    22  O   -0.275655
    23  O   -0.207099
    24  C   -0.265567
    25  H    0.198078
    26  H    0.197217
    27  H    0.200295
    28  C   -0.278039
    29  H    0.193528
    30  H    0.192701
    31  H    0.200360
    32  C    0.212437
    33  C   -0.691985
    34  S   -0.653263
    35  C    0.006382
    36  H    0.161410
    37  C    0.636490
    38  O   -0.117359
    39  C    0.935193
    40  C   -0.295924
    41  C    0.033709
    42  S   -0.278864
    43  H    0.183199
    44  H    0.158319
    45  H    0.167950
    46  C   -0.640161
    47  O   -0.115815
    48  C   -0.349961
    49  H    0.155718
    50  C   -0.306504
    51  H    0.186208
    52  H    0.156388
    53  H    0.179967
    54  H    0.159014
 Sum of Mulliken charges =  -0.00000
 Mulliken charges with hydrogens summed into heavy atoms:
               1
     1  C    0.382110
     2  C   -0.019578
     3  C    0.171031
     4  C    0.242911
     5  C    0.305953
     6  C   -0.071298
     7  C    0.145060
     8  C    0.040212
     9  C    0.266398
    10  C   -0.408389
    11  C    0.339172
    12  C    0.081237
    13  C   -0.354406
    14  C   -0.503201
    18  N   -0.029408
    19  N   -0.093654
    20  O   -0.265120
    21  O   -0.267394
    22  O   -0.275655
    23  O   -0.207099
    24  C    0.330023
    28  C    0.308550
    32  C    0.212437
    33  C   -0.530576
    34  S   -0.653263
    35  C    0.006382
    37  C    0.636490
    38  O   -0.117359
    39  C    0.935193
    40  C    0.213544
    41  C    0.033709
    42  S   -0.278864
    46  C   -0.484443
    47  O   -0.115815
    48  C   -0.163753
    50  C    0.188865
 Electronic spatial extent (au):  <R**2>=          21891.6687
 Charge=             -0.0000 electrons
 Dipole moment (field-independent basis, Debye):
    X=             -2.3388    Y=             -0.3579    Z=              0.4362  Tot=              2.4059
 Quadrupole moment (field-independent basis, Debye-Ang):
   XX=           -213.7284   YY=           -216.6640   ZZ=           -212.2015
   XY=             -8.6298   XZ=            -11.0494   YZ=             13.3105
 Traceless Quadrupole moment (field-independent basis, Debye-Ang):
   XX=              0.4696   YY=             -2.4660   ZZ=              1.9964
   XY=             -8.6298   XZ=            -11.0494   YZ=             13.3105
 Octapole moment (field-independent basis, Debye-Ang**2):
  XXX=           -281.6562  YYY=            -35.0508  ZZZ=              1.5600  XYY=            -77.8592
  XXY=             10.1741  XXZ=             45.8463  XZZ=            -29.9176  YZZ=             -1.1801
  YYZ=            -14.8912  XYZ=            -52.8779
 Hexadecapole moment (field-independent basis, Debye-Ang**3):
 XXXX=         -20563.4051 YYYY=          -6896.3549 ZZZZ=          -1554.3520 XXXY=           -102.5853
 XXXZ=           -589.7723 YYYX=           -408.8183 YYYZ=             71.1368 ZZZX=            -22.4181
 ZZZY=             72.0949 XXYY=          -4461.3385 XXZZ=          -3700.8915 YYZZ=          -1244.2264
 XXYZ=            275.2028 YYXZ=             71.1680 ZZXY=            -64.4540
 N-N= 4.117254750402D+03 E-N=-1.377437256498D+04  KE= 2.352007432271D+03
 Unable to Open any file for archive entry.
 1\1\GINC-CX3-6-26\FOpt\RwB97XD\6-311+G(d,p)\C26H18N2O6S2\NS5018\30-Nov
 -2020\0\\# opt=modredundant wb97xd/6-311+g(d,p)\\NDI_145.pdb\\0,1\C,-2
 .3533160621,-2.8074003104,-0.6313804636\C,-2.1415365144,-1.3811994391,
 -0.2688109469\C,-3.2431061427,-0.5135356786,-0.124554554\C,-4.55632939
 15,-0.9818597446,-0.3239200901\C,-4.7981698751,-2.4016137123,-0.699745
 6692\C,-0.871365842,-0.9094722585,-0.101120885\C,-3.010243601,0.828098
 1064,0.2438285326\C,-1.6837097167,1.3057184693,0.4306452124\C,-0.60236
 46409,0.4465058683,0.2315682197\C,-1.51476509,2.66059611,1.0329337287\
 C,-3.9561191245,3.0812639356,0.8471024026\C,-4.1306046709,1.6722943691
 ,0.4146159116\C,-5.4074993492,1.2013523064,0.2048492692\C,-5.626631212
 5,-0.13172807,-0.168514435\H,-6.628640258,-0.509620301,-0.3292461986\H
 ,-6.237680494,1.8834223908,0.3415813456\H,-0.0428654946,-1.5862296807,
 -0.2692037299\N,-2.6563970929,3.4635442891,1.1569299675\N,-3.670763964
 ,-3.2203565807,-0.8221306489\O,-1.4383908002,-3.5886229952,-0.76435442
 2\O,-5.9127853798,-2.8323710339,-0.8873238544\O,-4.8906351361,3.845193
 2194,0.948710824\O,-0.4525093569,3.0979394825,1.4072413652\C,-2.432359
 8017,4.8069889368,1.6896462881\H,-1.9935360197,4.7407770878,2.68512683
 65\H,-1.7410935166,5.3487796444,1.0438248234\H,-3.3912193152,5.3149124
 259,1.7285330739\C,-3.8606393865,-4.6241266427,-1.1853229184\H,-3.3211
 336327,-4.8414036682,-2.1071815433\H,-3.4703863084,-5.2654942458,-0.39
 47908559\H,-4.9245280793,-4.7949879479,-1.3193533723\C,0.8198514619,0.
 8184153912,0.2106691997\C,1.8465187044,0.0384892261,0.6799693641\S,1.4
 181775869,2.139693693,-0.7240131154\C,3.1187522801,0.541459938,0.32578
 20683\H,1.6851668624,-0.848574244,1.2770642527\C,3.0693812963,1.675258
 2591,-0.4606718631\O,4.3169761368,0.0234686201,0.6849044818\C,4.186439
 3644,2.4153787955,-1.0048311914\C,4.3138523066,-1.2093142178,1.3737078
 995\C,4.1342740013,3.5388353012,-1.8027055017\S,5.847670069,1.97414251
 83,-0.7195513084\H,5.3585798541,-1.4732910371,1.5276016134\H,3.8176829
 298,-1.1183856796,2.3463220806\H,3.8246953057,-1.9916347906,0.78282848
 67\C,5.4108136,4.040871278,-2.177878855\O,2.9345478803,4.0553742371,-2
 .1546101636\C,6.4195528816,3.286719502,-1.6595447142\H,5.5736203065,4.
 9108255815,-2.797568458\C,2.9298879754,5.2279124862,-2.9417550726\H,7.
 481291401,3.436994889,-1.7835515173\H,3.4094049624,5.0555653796,-3.911
 484568\H,1.8833177593,5.4830450979,-3.0982422291\H,3.4308703438,6.0533
 85443,-2.4246241025\\Version=ES64L-G16RevC.01\State=1-A\HF=-2358.77228
 09\RMSD=7.108e-09\RMSF=9.648e-04\Dipole=0.8790152,0.2297775,-0.2654933
 \Quadrupole=-5.2452519,4.6288743,0.6163776,4.0732602,-2.8554749,-12.64
 99586\PG=C01 [X(C26H18N2O6S2)]\\@
 The archive entry for this job was punched.


 THE BEST WAY TO CONVINCE A FOOL THAT HE IS WRONG 
 IS TO LET HIM HAVE HIS OWN WAY.

                                         JOSH BILLINGS
 Job cpu time:       2 days 11 hours 40 minutes 22.3 seconds.
 Elapsed time:       0 days  7 hours 31 minutes 37.1 seconds.
 File lengths (MBytes):  RWF=    496 Int=      0 D2E=      0 Chk=     77 Scr=      1
 Normal termination of Gaussian 16 at Mon Nov 30 03:39:02 2020.
