 Entering Gaussian System, Link 0=g16
 Input=NDI_5.gjf
 Output=NDI_5.log
 Initial command:
 /apps/gaussian/g16-c01-avx/g16/l1.exe "/tmp/pbs.2610758[37].pbs/Gau-2642176.inp" -scrdir="/tmp/pbs.2610758[37].pbs/"
 Entering Link 1 = /apps/gaussian/g16-c01-avx/g16/l1.exe PID=   2642179.
  
 Copyright (c) 1988-2019, Gaussian, Inc.  All Rights Reserved.
  
 This is part of the Gaussian(R) 16 program.  It is based on
 the Gaussian(R) 09 system (copyright 2009, Gaussian, Inc.),
 the Gaussian(R) 03 system (copyright 2003, Gaussian, Inc.),
 the Gaussian(R) 98 system (copyright 1998, Gaussian, Inc.),
 the Gaussian(R) 94 system (copyright 1995, Gaussian, Inc.),
 the Gaussian 92(TM) system (copyright 1992, Gaussian, Inc.),
 the Gaussian 90(TM) system (copyright 1990, Gaussian, Inc.),
 the Gaussian 88(TM) system (copyright 1988, Gaussian, Inc.),
 the Gaussian 86(TM) system (copyright 1986, Carnegie Mellon
 University), and the Gaussian 82(TM) system (copyright 1983,
 Carnegie Mellon University). Gaussian is a federally registered
 trademark of Gaussian, Inc.
  
 This software contains proprietary and confidential information,
 including trade secrets, belonging to Gaussian, Inc.
  
 This software is provided under written license and may be
 used, copied, transmitted, or stored only in accord with that
 written license.
  
 The following legend is applicable only to US Government
 contracts under FAR:
  
                    RESTRICTED RIGHTS LEGEND
  
 Use, reproduction and disclosure by the US Government is
 subject to restrictions as set forth in subparagraphs (a)
 and (c) of the Commercial Computer Software - Restricted
 Rights clause in FAR 52.227-19.
  
 Gaussian, Inc.
 340 Quinnipiac St., Bldg. 40, Wallingford CT 06492
  
  
 ---------------------------------------------------------------
 Warning -- This program may not be used in any manner that
 competes with the business of Gaussian, Inc. or will provide
 assistance to any competitor of Gaussian, Inc.  The licensee
 of this program is prohibited from giving any competitor of
 Gaussian, Inc. access to this program.  By using this program,
 the user acknowledges that Gaussian, Inc. is engaged in the
 business of creating and licensing software in the field of
 computational chemistry and represents and warrants to the
 licensee that it is not a competitor of Gaussian, Inc. and that
 it will not use this program in any manner prohibited above.
 ---------------------------------------------------------------
  

 Cite this work as:
 Gaussian 16, Revision C.01,
 M. J. Frisch, G. W. Trucks, H. B. Schlegel, G. E. Scuseria, 
 M. A. Robb, J. R. Cheeseman, G. Scalmani, V. Barone, 
 G. A. Petersson, H. Nakatsuji, X. Li, M. Caricato, A. V. Marenich, 
 J. Bloino, B. G. Janesko, R. Gomperts, B. Mennucci, H. P. Hratchian, 
 J. V. Ortiz, A. F. Izmaylov, J. L. Sonnenberg, D. Williams-Young, 
 F. Ding, F. Lipparini, F. Egidi, J. Goings, B. Peng, A. Petrone, 
 T. Henderson, D. Ranasinghe, V. G. Zakrzewski, J. Gao, N. Rega, 
 G. Zheng, W. Liang, M. Hada, M. Ehara, K. Toyota, R. Fukuda, 
 J. Hasegawa, M. Ishida, T. Nakajima, Y. Honda, O. Kitao, H. Nakai, 
 T. Vreven, K. Throssell, J. A. Montgomery, Jr., J. E. Peralta, 
 F. Ogliaro, M. J. Bearpark, J. J. Heyd, E. N. Brothers, K. N. Kudin, 
 V. N. Staroverov, T. A. Keith, R. Kobayashi, J. Normand, 
 K. Raghavachari, A. P. Rendell, J. C. Burant, S. S. Iyengar, 
 J. Tomasi, M. Cossi, J. M. Millam, M. Klene, C. Adamo, R. Cammi, 
 J. W. Ochterski, R. L. Martin, K. Morokuma, O. Farkas, 
 J. B. Foresman, and D. J. Fox, Gaussian, Inc., Wallingford CT, 2019.
 
 ******************************************
 Gaussian 16:  ES64L-G16RevC.01  3-Jul-2019
                26-Nov-2020 
 ******************************************
 %mem=10GB
 %nprocshared=16
 Will use up to   16 processors via shared memory.
 -------------------------------------
 # opt=modredundant b3lyp/6-311+g(d,p)
 -------------------------------------
 1/18=120,19=15,26=3,38=1/1,3;
 2/9=110,12=2,17=6,18=5,40=1/2;
 3/5=4,6=6,7=111,11=2,25=1,30=1,71=1,74=-5/1,2,3;
 4//1;
 5/5=2,38=5/2;
 6/7=2,8=2,9=2,10=2,28=1/1;
 7//1,2,3,16;
 1/18=20,19=15,26=3/3(2);
 2/9=110/2;
 99//99;
 2/9=110/2;
 3/5=4,6=6,7=111,11=2,25=1,30=1,71=1,74=-5/1,2,3;
 4/5=5,16=3,69=1/1;
 5/5=2,38=5/2;
 7//1,2,3,16;
 1/18=20,19=15,26=3/3(-5);
 2/9=110/2;
 6/7=2,8=2,9=2,10=2,19=2,28=1/1;
 99/9=1/99;
 ---------
 NDI_5.pdb
 ---------
 Symbolic Z-matrix:
 Charge =  0 Multiplicity = 1
 C                    -2.563    -2.994    -0.409 
 C                    -2.257    -1.551    -0.224 
 C                    -3.301    -0.607    -0.083 
 C                    -4.65     -1.024    -0.115 
 C                    -4.992    -2.459    -0.304 
 C                    -0.949    -1.137    -0.215 
 C                    -2.962     0.764     0.102 
 C                    -1.595     1.188     0.123 
 C                    -0.561     0.232    -0.072 
 C                    -1.328     2.616     0.446 
 C                    -3.777     3.115     0.508 
 C                    -4.035     1.679     0.268 
 C                    -5.356     1.252     0.23 
 C                    -5.672    -0.098     0.036 
 H                    -6.699    -0.442     0.008 
 H                    -6.133     1.997     0.361 
 H                    -0.19     -1.895    -0.369 
 N                    -2.432     3.476     0.608 
 N                    -3.916    -3.353    -0.438 
 O                    -1.695    -3.847    -0.532 
 O                    -6.149    -2.85     -0.34 
 O                    -4.676     3.938     0.629 
 O                    -0.212     3.097     0.596 
 C                    -2.111     4.875     0.912 
 H                    -1.54      4.931     1.84 
 H                    -1.5       5.299     0.111 
 H                    -3.05      5.414     1.003 
 C                    -4.206    -4.779    -0.625 
 H                    -3.759    -5.126    -1.559 
 H                    -3.775    -5.355     0.196 
 H                    -5.286    -4.897    -0.649 
 C                     0.876     0.482    -0.178 
 C                     1.604     1.647    -0.031 
 S                     1.928    -0.825    -0.721 
 C                     2.971     1.499    -0.34 
 H                     1.163     2.574     0.297 
 C                     3.339     0.207    -0.729 
 O                     3.921     2.47     -0.29 
 C                     4.652    -0.268    -1.062 
 C                     3.542     3.735     0.246 
 C                     5.014    -1.55     -1.472 
 S                     6.088     0.751    -1.001 
 H                     4.451     4.334     0.272 
 H                     2.799     4.229    -0.392 
 H                     3.138     3.63      1.26 
 C                     6.406    -1.709    -1.729 
 O                     4.055    -2.506    -1.586 
 C                     7.1      -0.549    -1.516 
 H                     6.866    -2.631    -2.056 
 C                     4.45     -3.796    -2.04 
 H                     8.163    -0.387    -1.636 
 H                     5.166    -4.259    -1.35 
 H                     3.54     -4.395    -2.072 
 H                     4.89     -3.747    -3.043 
 
 The following ModRedundant input section has been read:
 D       8       9      32      33 F                                           
 

 GradGradGradGradGradGradGradGradGradGradGradGradGradGradGradGradGradGrad
 Berny optimization.
 Initialization pass.
                           ----------------------------
                           !    Initial Parameters    !
                           ! (Angstroms and Degrees)  !
 --------------------------                            --------------------------
 ! Name  Definition              Value          Derivative Info.                !
 --------------------------------------------------------------------------------
 ! R1    R(1,2)                  1.4866         estimate D2E/DX2                !
 ! R2    R(1,19)                 1.4001         estimate D2E/DX2                !
 ! R3    R(1,20)                 1.2232         estimate D2E/DX2                !
 ! R4    R(2,3)                  1.4146         estimate D2E/DX2                !
 ! R5    R(2,6)                  1.372          estimate D2E/DX2                !
 ! R6    R(3,4)                  1.4123         estimate D2E/DX2                !
 ! R7    R(3,7)                  1.4244         estimate D2E/DX2                !
 ! R8    R(4,5)                  1.4872         estimate D2E/DX2                !
 ! R9    R(4,14)                 1.3874         estimate D2E/DX2                !
 ! R10   R(5,19)                 1.4053         estimate D2E/DX2                !
 ! R11   R(5,21)                 1.2218         estimate D2E/DX2                !
 ! R12   R(6,9)                  1.4301         estimate D2E/DX2                !
 ! R13   R(6,17)                 1.0837         estimate D2E/DX2                !
 ! R14   R(7,8)                  1.4314         estimate D2E/DX2                !
 ! R15   R(7,12)                 1.4199         estimate D2E/DX2                !
 ! R16   R(8,9)                  1.4217         estimate D2E/DX2                !
 ! R17   R(8,10)                 1.4882         estimate D2E/DX2                !
 ! R18   R(9,32)                 1.4624         estimate D2E/DX2                !
 ! R19   R(10,18)                1.4088         estimate D2E/DX2                !
 ! R20   R(10,23)                1.2245         estimate D2E/DX2                !
 ! R21   R(11,12)                1.4786         estimate D2E/DX2                !
 ! R22   R(11,18)                1.3962         estimate D2E/DX2                !
 ! R23   R(11,22)                1.2248         estimate D2E/DX2                !
 ! R24   R(12,13)                1.3888         estimate D2E/DX2                !
 ! R25   R(13,14)                1.4            estimate D2E/DX2                !
 ! R26   R(13,16)                1.0844         estimate D2E/DX2                !
 ! R27   R(14,15)                1.0834         estimate D2E/DX2                !
 ! R28   R(18,24)                1.4672         estimate D2E/DX2                !
 ! R29   R(19,28)                1.4672         estimate D2E/DX2                !
 ! R30   R(24,25)                1.091          estimate D2E/DX2                !
 ! R31   R(24,26)                1.093          estimate D2E/DX2                !
 ! R32   R(24,27)                1.0865         estimate D2E/DX2                !
 ! R33   R(28,29)                1.0921         estimate D2E/DX2                !
 ! R34   R(28,30)                1.0916         estimate D2E/DX2                !
 ! R35   R(28,31)                1.0867         estimate D2E/DX2                !
 ! R36   R(32,33)                1.3816         estimate D2E/DX2                !
 ! R37   R(32,34)                1.7635         estimate D2E/DX2                !
 ! R38   R(33,35)                1.4093         estimate D2E/DX2                !
 ! R39   R(33,36)                1.0777         estimate D2E/DX2                !
 ! R40   R(34,37)                1.7481         estimate D2E/DX2                !
 ! R41   R(35,37)                1.3986         estimate D2E/DX2                !
 ! R42   R(35,38)                1.3594         estimate D2E/DX2                !
 ! R43   R(37,39)                1.4354         estimate D2E/DX2                !
 ! R44   R(38,40)                1.4252         estimate D2E/DX2                !
 ! R45   R(39,41)                1.3938         estimate D2E/DX2                !
 ! R46   R(39,42)                1.7619         estimate D2E/DX2                !
 ! R47   R(40,43)                1.0889         estimate D2E/DX2                !
 ! R48   R(40,44)                1.0969         estimate D2E/DX2                !
 ! R49   R(40,45)                1.0966         estimate D2E/DX2                !
 ! R50   R(41,46)                1.4244         estimate D2E/DX2                !
 ! R51   R(41,47)                1.3589         estimate D2E/DX2                !
 ! R52   R(42,48)                1.7261         estimate D2E/DX2                !
 ! R53   R(46,48)                1.3684         estimate D2E/DX2                !
 ! R54   R(46,49)                1.081          estimate D2E/DX2                !
 ! R55   R(47,50)                1.4235         estimate D2E/DX2                !
 ! R56   R(48,51)                1.0819         estimate D2E/DX2                !
 ! R57   R(50,52)                1.0969         estimate D2E/DX2                !
 ! R58   R(50,53)                1.0899         estimate D2E/DX2                !
 ! R59   R(50,54)                1.0964         estimate D2E/DX2                !
 ! A1    A(2,1,19)             116.767          estimate D2E/DX2                !
 ! A2    A(2,1,20)             122.9113         estimate D2E/DX2                !
 ! A3    A(19,1,20)            120.3217         estimate D2E/DX2                !
 ! A4    A(1,2,3)              120.5473         estimate D2E/DX2                !
 ! A5    A(1,2,6)              119.3369         estimate D2E/DX2                !
 ! A6    A(3,2,6)              120.1056         estimate D2E/DX2                !
 ! A7    A(2,3,4)              120.3743         estimate D2E/DX2                !
 ! A8    A(2,3,7)              118.662          estimate D2E/DX2                !
 ! A9    A(4,3,7)              120.9617         estimate D2E/DX2                !
 ! A10   A(3,4,5)              120.4909         estimate D2E/DX2                !
 ! A11   A(3,4,14)             120.2702         estimate D2E/DX2                !
 ! A12   A(5,4,14)             119.2382         estimate D2E/DX2                !
 ! A13   A(4,5,19)             116.7341         estimate D2E/DX2                !
 ! A14   A(4,5,21)             122.024          estimate D2E/DX2                !
 ! A15   A(19,5,21)            121.2418         estimate D2E/DX2                !
 ! A16   A(2,6,9)              123.2421         estimate D2E/DX2                !
 ! A17   A(2,6,17)             117.1119         estimate D2E/DX2                !
 ! A18   A(9,6,17)             119.589          estimate D2E/DX2                !
 ! A19   A(3,7,8)              120.9519         estimate D2E/DX2                !
 ! A20   A(3,7,12)             117.1037         estimate D2E/DX2                !
 ! A21   A(8,7,12)             121.944          estimate D2E/DX2                !
 ! A22   A(7,8,9)              119.5639         estimate D2E/DX2                !
 ! A23   A(7,8,10)             117.3064         estimate D2E/DX2                !
 ! A24   A(9,8,10)             122.9922         estimate D2E/DX2                !
 ! A25   A(6,9,8)              117.3944         estimate D2E/DX2                !
 ! A26   A(6,9,32)             115.0236         estimate D2E/DX2                !
 ! A27   A(8,9,32)             127.5648         estimate D2E/DX2                !
 ! A28   A(8,10,18)            118.042          estimate D2E/DX2                !
 ! A29   A(8,10,23)            124.5436         estimate D2E/DX2                !
 ! A30   A(18,10,23)           117.4097         estimate D2E/DX2                !
 ! A31   A(12,11,18)           115.5202         estimate D2E/DX2                !
 ! A32   A(12,11,22)           122.7205         estimate D2E/DX2                !
 ! A33   A(18,11,22)           121.7534         estimate D2E/DX2                !
 ! A34   A(7,12,11)            120.8614         estimate D2E/DX2                !
 ! A35   A(7,12,13)            121.162          estimate D2E/DX2                !
 ! A36   A(11,12,13)           117.9699         estimate D2E/DX2                !
 ! A37   A(12,13,14)           120.9948         estimate D2E/DX2                !
 ! A38   A(12,13,16)           117.8401         estimate D2E/DX2                !
 ! A39   A(14,13,16)           121.1642         estimate D2E/DX2                !
 ! A40   A(4,14,13)            119.5003         estimate D2E/DX2                !
 ! A41   A(4,14,15)            118.9169         estimate D2E/DX2                !
 ! A42   A(13,14,15)           121.5811         estimate D2E/DX2                !
 ! A43   A(10,18,11)           126.0753         estimate D2E/DX2                !
 ! A44   A(10,18,24)           115.7508         estimate D2E/DX2                !
 ! A45   A(11,18,24)           118.1737         estimate D2E/DX2                !
 ! A46   A(1,19,5)             125.0856         estimate D2E/DX2                !
 ! A47   A(1,19,28)            116.2868         estimate D2E/DX2                !
 ! A48   A(5,19,28)            118.6276         estimate D2E/DX2                !
 ! A49   A(18,24,25)           109.8574         estimate D2E/DX2                !
 ! A50   A(18,24,26)           109.8979         estimate D2E/DX2                !
 ! A51   A(18,24,27)           107.5355         estimate D2E/DX2                !
 ! A52   A(25,24,26)           108.1108         estimate D2E/DX2                !
 ! A53   A(25,24,27)           110.8301         estimate D2E/DX2                !
 ! A54   A(26,24,27)           110.6124         estimate D2E/DX2                !
 ! A55   A(19,28,29)           109.6906         estimate D2E/DX2                !
 ! A56   A(19,28,30)           109.8136         estimate D2E/DX2                !
 ! A57   A(19,28,31)           107.7461         estimate D2E/DX2                !
 ! A58   A(29,28,30)           108.2991         estimate D2E/DX2                !
 ! A59   A(29,28,31)           110.6959         estimate D2E/DX2                !
 ! A60   A(30,28,31)           110.5924         estimate D2E/DX2                !
 ! A61   A(9,32,33)            130.8589         estimate D2E/DX2                !
 ! A62   A(9,32,34)            118.803          estimate D2E/DX2                !
 ! A63   A(33,32,34)           110.0832         estimate D2E/DX2                !
 ! A64   A(32,33,35)           113.5303         estimate D2E/DX2                !
 ! A65   A(32,33,36)           122.8257         estimate D2E/DX2                !
 ! A66   A(35,33,36)           123.6421         estimate D2E/DX2                !
 ! A67   A(32,34,37)            92.6009         estimate D2E/DX2                !
 ! A68   A(33,35,37)           114.408          estimate D2E/DX2                !
 ! A69   A(33,35,38)           126.4994         estimate D2E/DX2                !
 ! A70   A(37,35,38)           119.0925         estimate D2E/DX2                !
 ! A71   A(34,37,35)           109.3722         estimate D2E/DX2                !
 ! A72   A(34,37,39)           122.9569         estimate D2E/DX2                !
 ! A73   A(35,37,39)           127.6546         estimate D2E/DX2                !
 ! A74   A(35,38,40)           117.5168         estimate D2E/DX2                !
 ! A75   A(37,39,41)           127.6023         estimate D2E/DX2                !
 ! A76   A(37,39,42)           123.1003         estimate D2E/DX2                !
 ! A77   A(41,39,42)           109.2975         estimate D2E/DX2                !
 ! A78   A(38,40,43)           105.9766         estimate D2E/DX2                !
 ! A79   A(38,40,44)           111.1697         estimate D2E/DX2                !
 ! A80   A(38,40,45)           111.1468         estimate D2E/DX2                !
 ! A81   A(43,40,44)           109.366          estimate D2E/DX2                !
 ! A82   A(43,40,45)           109.7638         estimate D2E/DX2                !
 ! A83   A(44,40,45)           109.3552         estimate D2E/DX2                !
 ! A84   A(39,41,46)           114.1768         estimate D2E/DX2                !
 ! A85   A(39,41,47)           119.2399         estimate D2E/DX2                !
 ! A86   A(46,41,47)           126.583          estimate D2E/DX2                !
 ! A87   A(39,42,48)            91.83           estimate D2E/DX2                !
 ! A88   A(41,46,48)           111.8945         estimate D2E/DX2                !
 ! A89   A(41,46,49)           124.445          estimate D2E/DX2                !
 ! A90   A(48,46,49)           123.6602         estimate D2E/DX2                !
 ! A91   A(41,47,50)           117.9353         estimate D2E/DX2                !
 ! A92   A(42,48,46)           112.8012         estimate D2E/DX2                !
 ! A93   A(42,48,51)           119.759          estimate D2E/DX2                !
 ! A94   A(46,48,51)           127.4399         estimate D2E/DX2                !
 ! A95   A(47,50,52)           111.2869         estimate D2E/DX2                !
 ! A96   A(47,50,53)           106.0057         estimate D2E/DX2                !
 ! A97   A(47,50,54)           111.2626         estimate D2E/DX2                !
 ! A98   A(52,50,53)           109.3596         estimate D2E/DX2                !
 ! A99   A(52,50,54)           109.4137         estimate D2E/DX2                !
 ! A100  A(53,50,54)           109.4376         estimate D2E/DX2                !
 ! D1    D(19,1,2,3)             0.1578         estimate D2E/DX2                !
 ! D2    D(19,1,2,6)          -178.6792         estimate D2E/DX2                !
 ! D3    D(20,1,2,3)          -179.8231         estimate D2E/DX2                !
 ! D4    D(20,1,2,6)             1.3399         estimate D2E/DX2                !
 ! D5    D(2,1,19,5)            -0.124          estimate D2E/DX2                !
 ! D6    D(2,1,19,28)          179.8267         estimate D2E/DX2                !
 ! D7    D(20,1,19,5)          179.8575         estimate D2E/DX2                !
 ! D8    D(20,1,19,28)          -0.1919         estimate D2E/DX2                !
 ! D9    D(1,2,3,4)              0.0571         estimate D2E/DX2                !
 ! D10   D(1,2,3,7)            179.5453         estimate D2E/DX2                !
 ! D11   D(6,2,3,4)            178.8851         estimate D2E/DX2                !
 ! D12   D(6,2,3,7)             -1.6266         estimate D2E/DX2                !
 ! D13   D(1,2,6,9)            178.625          estimate D2E/DX2                !
 ! D14   D(1,2,6,17)             1.3881         estimate D2E/DX2                !
 ! D15   D(3,2,6,9)             -0.2173         estimate D2E/DX2                !
 ! D16   D(3,2,6,17)          -177.4541         estimate D2E/DX2                !
 ! D17   D(2,3,4,5)             -0.3074         estimate D2E/DX2                !
 ! D18   D(2,3,4,14)           179.3968         estimate D2E/DX2                !
 ! D19   D(7,3,4,5)           -179.7837         estimate D2E/DX2                !
 ! D20   D(7,3,4,14)            -0.0795         estimate D2E/DX2                !
 ! D21   D(2,3,7,8)              1.0523         estimate D2E/DX2                !
 ! D22   D(2,3,7,12)          -178.712          estimate D2E/DX2                !
 ! D23   D(4,3,7,8)           -179.4626         estimate D2E/DX2                !
 ! D24   D(4,3,7,12)             0.7731         estimate D2E/DX2                !
 ! D25   D(3,4,5,19)             0.3343         estimate D2E/DX2                !
 ! D26   D(3,4,5,21)          -179.7799         estimate D2E/DX2                !
 ! D27   D(14,4,5,19)         -179.3729         estimate D2E/DX2                !
 ! D28   D(14,4,5,21)            0.5129         estimate D2E/DX2                !
 ! D29   D(3,4,14,13)           -0.4559         estimate D2E/DX2                !
 ! D30   D(3,4,14,15)         -179.9937         estimate D2E/DX2                !
 ! D31   D(5,4,14,13)          179.252          estimate D2E/DX2                !
 ! D32   D(5,4,14,15)           -0.2858         estimate D2E/DX2                !
 ! D33   D(4,5,19,1)            -0.1141         estimate D2E/DX2                !
 ! D34   D(4,5,19,28)          179.9364         estimate D2E/DX2                !
 ! D35   D(21,5,19,1)          179.9992         estimate D2E/DX2                !
 ! D36   D(21,5,19,28)           0.0496         estimate D2E/DX2                !
 ! D37   D(2,6,9,8)              2.5984         estimate D2E/DX2                !
 ! D38   D(2,6,9,32)          -176.0103         estimate D2E/DX2                !
 ! D39   D(17,6,9,8)           179.77           estimate D2E/DX2                !
 ! D40   D(17,6,9,32)            1.1613         estimate D2E/DX2                !
 ! D41   D(3,7,8,9)              1.3551         estimate D2E/DX2                !
 ! D42   D(3,7,8,10)          -174.5099         estimate D2E/DX2                !
 ! D43   D(12,7,8,9)          -178.8921         estimate D2E/DX2                !
 ! D44   D(12,7,8,10)            5.2428         estimate D2E/DX2                !
 ! D45   D(3,7,12,11)          178.0768         estimate D2E/DX2                !
 ! D46   D(3,7,12,13)           -0.9621         estimate D2E/DX2                !
 ! D47   D(8,7,12,11)           -1.685          estimate D2E/DX2                !
 ! D48   D(8,7,12,13)          179.2761         estimate D2E/DX2                !
 ! D49   D(7,8,9,6)             -3.0809         estimate D2E/DX2                !
 ! D50   D(7,8,9,32)           175.3285         estimate D2E/DX2                !
 ! D51   D(10,8,9,6)           172.5381         estimate D2E/DX2                !
 ! D52   D(10,8,9,32)           -9.0525         estimate D2E/DX2                !
 ! D53   D(7,8,10,18)           -4.7549         estimate D2E/DX2                !
 ! D54   D(7,8,10,23)          174.4235         estimate D2E/DX2                !
 ! D55   D(9,8,10,18)          179.5335         estimate D2E/DX2                !
 ! D56   D(9,8,10,23)           -1.2882         estimate D2E/DX2                !
 ! D57   D(6,9,32,33)         -176.5466         estimate D2E/DX2                !
 ! D58   D(6,9,32,34)            9.8892         estimate D2E/DX2                !
 ! D59   D(8,9,32,33)            5.0119         Frozen                          !
 ! D60   D(8,9,32,34)         -168.5523         estimate D2E/DX2                !
 ! D61   D(8,10,18,11)           0.7189         estimate D2E/DX2                !
 ! D62   D(8,10,18,24)        -179.4089         estimate D2E/DX2                !
 ! D63   D(23,10,18,11)       -178.5188         estimate D2E/DX2                !
 ! D64   D(23,10,18,24)          1.3535         estimate D2E/DX2                !
 ! D65   D(18,11,12,7)          -2.3856         estimate D2E/DX2                !
 ! D66   D(18,11,12,13)        176.6833         estimate D2E/DX2                !
 ! D67   D(22,11,12,7)         178.4862         estimate D2E/DX2                !
 ! D68   D(22,11,12,13)         -2.445          estimate D2E/DX2                !
 ! D69   D(12,11,18,10)          2.8444         estimate D2E/DX2                !
 ! D70   D(12,11,18,24)       -177.0251         estimate D2E/DX2                !
 ! D71   D(22,11,18,10)       -178.0181         estimate D2E/DX2                !
 ! D72   D(22,11,18,24)          2.1124         estimate D2E/DX2                !
 ! D73   D(7,12,13,14)           0.461          estimate D2E/DX2                !
 ! D74   D(7,12,13,16)        -179.8781         estimate D2E/DX2                !
 ! D75   D(11,12,13,14)       -178.6049         estimate D2E/DX2                !
 ! D76   D(11,12,13,16)          1.056          estimate D2E/DX2                !
 ! D77   D(12,13,14,4)           0.2708         estimate D2E/DX2                !
 ! D78   D(12,13,14,15)        179.7958         estimate D2E/DX2                !
 ! D79   D(16,13,14,4)        -179.3788         estimate D2E/DX2                !
 ! D80   D(16,13,14,15)          0.1463         estimate D2E/DX2                !
 ! D81   D(10,18,24,25)        -59.609          estimate D2E/DX2                !
 ! D82   D(10,18,24,26)         59.2209         estimate D2E/DX2                !
 ! D83   D(10,18,24,27)        179.6858         estimate D2E/DX2                !
 ! D84   D(11,18,24,25)        120.2739         estimate D2E/DX2                !
 ! D85   D(11,18,24,26)       -120.8962         estimate D2E/DX2                !
 ! D86   D(11,18,24,27)         -0.4313         estimate D2E/DX2                !
 ! D87   D(1,19,28,29)         -58.1407         estimate D2E/DX2                !
 ! D88   D(1,19,28,30)          60.7668         estimate D2E/DX2                !
 ! D89   D(1,19,28,31)        -178.7139         estimate D2E/DX2                !
 ! D90   D(5,19,28,29)         121.8132         estimate D2E/DX2                !
 ! D91   D(5,19,28,30)        -119.2792         estimate D2E/DX2                !
 ! D92   D(5,19,28,31)           1.2401         estimate D2E/DX2                !
 ! D93   D(9,32,33,35)        -174.2061         estimate D2E/DX2                !
 ! D94   D(9,32,33,36)           6.2805         estimate D2E/DX2                !
 ! D95   D(34,32,33,35)         -0.2092         estimate D2E/DX2                !
 ! D96   D(34,32,33,36)       -179.7226         estimate D2E/DX2                !
 ! D97   D(9,32,34,37)         175.345          estimate D2E/DX2                !
 ! D98   D(33,32,34,37)          0.5238         estimate D2E/DX2                !
 ! D99   D(32,33,35,37)         -0.3356         estimate D2E/DX2                !
 ! D100  D(32,33,35,38)        179.788          estimate D2E/DX2                !
 ! D101  D(36,33,35,37)        179.1733         estimate D2E/DX2                !
 ! D102  D(36,33,35,38)         -0.7031         estimate D2E/DX2                !
 ! D103  D(32,34,37,35)         -0.6963         estimate D2E/DX2                !
 ! D104  D(32,34,37,39)        177.9328         estimate D2E/DX2                !
 ! D105  D(33,35,37,34)          0.7153         estimate D2E/DX2                !
 ! D106  D(33,35,37,39)       -177.8317         estimate D2E/DX2                !
 ! D107  D(38,35,37,34)       -179.3984         estimate D2E/DX2                !
 ! D108  D(38,35,37,39)          2.0546         estimate D2E/DX2                !
 ! D109  D(33,35,38,40)          6.4338         estimate D2E/DX2                !
 ! D110  D(37,35,38,40)       -173.4374         estimate D2E/DX2                !
 ! D111  D(34,37,39,41)          2.8516         estimate D2E/DX2                !
 ! D112  D(34,37,39,42)       -177.1522         estimate D2E/DX2                !
 ! D113  D(35,37,39,41)       -178.782          estimate D2E/DX2                !
 ! D114  D(35,37,39,42)          1.2142         estimate D2E/DX2                !
 ! D115  D(35,38,40,43)        175.5342         estimate D2E/DX2                !
 ! D116  D(35,38,40,44)        -65.7305         estimate D2E/DX2                !
 ! D117  D(35,38,40,45)         56.3335         estimate D2E/DX2                !
 ! D118  D(37,39,41,46)       -179.9672         estimate D2E/DX2                !
 ! D119  D(37,39,41,47)         -0.1364         estimate D2E/DX2                !
 ! D120  D(42,39,41,46)          0.0362         estimate D2E/DX2                !
 ! D121  D(42,39,41,47)        179.867          estimate D2E/DX2                !
 ! D122  D(37,39,42,48)       -179.9924         estimate D2E/DX2                !
 ! D123  D(41,39,42,48)          0.0044         estimate D2E/DX2                !
 ! D124  D(39,41,46,48)         -0.0711         estimate D2E/DX2                !
 ! D125  D(39,41,46,49)       -179.9032         estimate D2E/DX2                !
 ! D126  D(47,41,46,48)       -179.8872         estimate D2E/DX2                !
 ! D127  D(47,41,46,49)          0.2807         estimate D2E/DX2                !
 ! D128  D(39,41,47,50)        178.4082         estimate D2E/DX2                !
 ! D129  D(46,41,47,50)         -1.784          estimate D2E/DX2                !
 ! D130  D(39,42,48,46)         -0.0453         estimate D2E/DX2                !
 ! D131  D(39,42,48,51)        179.9193         estimate D2E/DX2                !
 ! D132  D(41,46,48,42)          0.0732         estimate D2E/DX2                !
 ! D133  D(41,46,48,51)       -179.8881         estimate D2E/DX2                !
 ! D134  D(49,46,48,42)        179.9068         estimate D2E/DX2                !
 ! D135  D(49,46,48,51)         -0.0545         estimate D2E/DX2                !
 ! D136  D(41,47,50,52)         61.9931         estimate D2E/DX2                !
 ! D137  D(41,47,50,53)       -179.1987         estimate D2E/DX2                !
 ! D138  D(41,47,50,54)        -60.3098         estimate D2E/DX2                !
 --------------------------------------------------------------------------------
 Trust Radius=3.00D-01 FncErr=1.00D-07 GrdErr=1.00D-06 EigMax=2.50D+02 EigMin=1.00D-04
 Number of steps in this run=    307 maximum allowed number of steps=    324.
 GradGradGradGradGradGradGradGradGradGradGradGradGradGradGradGradGradGrad

 Stoichiometry    C26H18N2O6S2
 Framework group  C1[X(C26H18N2O6S2)]
 Deg. of freedom   156
 Full point group                 C1      NOp   1
 Largest Abelian subgroup         C1      NOp   1
 Largest concise Abelian subgroup C1      NOp   1
                         Standard orientation:                         
 ---------------------------------------------------------------------
 Center     Atomic      Atomic             Coordinates (Angstroms)
 Number     Number       Type             X           Y           Z
 ---------------------------------------------------------------------
      1          6           0       -2.511391   -3.024598    0.244188
      2          6           0       -2.228361   -1.566778    0.175170
      3          6           0       -3.280538   -0.637618    0.000418
      4          6           0       -4.616109   -1.083518   -0.109756
      5          6           0       -4.934371   -2.535107   -0.050526
      6          6           0       -0.930684   -1.129278    0.258651
      7          6           0       -2.964848    0.750383   -0.050394
      8          6           0       -1.610062    1.201394    0.049848
      9          6           0       -0.561241    0.249624    0.173244
     10          6           0       -1.382589    2.670755    0.113384
     11          6           0       -3.820223    3.116045   -0.218432
     12          6           0       -4.048895    1.655370   -0.198558
     13          6           0       -5.355955    1.199128   -0.309236
     14          6           0       -5.647692   -0.169532   -0.268582
     15          1           0       -6.664059   -0.535724   -0.350744
     16          1           0       -6.142164    1.937368   -0.422341
     17          1           0       -0.159554   -1.885196    0.349798
     18          7           0       -2.496987    3.520334   -0.031497
     19          7           0       -3.851222   -3.413148    0.124972
     20          8           0       -1.635978   -3.865047    0.397356
     21          8           0       -6.078853   -2.951916   -0.146739
     22          8           0       -4.726200    3.925985   -0.371321
     23          8           0       -0.292585    3.197261    0.297776
     24          6           0       -2.213638    4.958768    0.025763
     25          1           0       -1.759990    5.209199    0.985892
     26          1           0       -1.508972    5.230850   -0.764246
     27          1           0       -3.156027    5.483514   -0.104883
     28          6           0       -4.118105   -4.854333    0.190595
     29          1           0       -3.560997   -5.367896   -0.595825
     30          1           0       -3.791185   -5.247637    1.154967
     31          1           0       -5.187271   -4.999424    0.061237
     32          6           0        0.878284    0.506707    0.192762
     33          6           0        1.584437    1.694211    0.192357
     34         16           0        1.986951   -0.857134    0.049240
     35          6           0        2.978722    1.519652    0.084786
     36          1           0        1.107934    2.657273    0.275126
     37          6           0        3.389734    0.185149    0.006183
     38          8           0        3.916795    2.503001    0.055009
     39          6           0        4.732925   -0.315893   -0.066474
     40          6           0        3.476904    3.839692    0.280650
     41          6           0        5.140556   -1.644861   -0.168206
     42         16           0        6.152091    0.727787   -0.036836
     43          1           0        4.376726    4.452745    0.296253
     44          1           0        2.817890    4.181466   -0.526828
     45          1           0        2.952133    3.926916    1.239527
     46          6           0        6.553299   -1.819405   -0.220016
     47          8           0        4.201374   -2.626297   -0.204739
     48          6           0        7.217651   -0.624602   -0.159295
     49          1           0        7.048545   -2.776935   -0.300525
     50          6           0        4.647114   -3.971003   -0.343741
     51          1           0        8.287561   -0.465086   -0.180776
     52          1           0        5.273028   -4.272783    0.504956
     53          1           0        3.747031   -4.585259   -0.365300
     54          1           0        5.206202   -4.110132   -1.276518
 ---------------------------------------------------------------------
 Rotational constants (GHZ):           0.1523327           0.0607584           0.0436307
 Standard basis: 6-311+G(d,p) (5D, 7F)
 There are   952 symmetry adapted cartesian basis functions of A   symmetry.
 There are   916 symmetry adapted basis functions of A   symmetry.
   916 basis functions,  1468 primitive gaussians,   952 cartesian basis functions
   134 alpha electrons      134 beta electrons
       nuclear repulsion energy      4092.9627761335 Hartrees.
 NAtoms=   54 NActive=   54 NUniq=   54 SFac= 1.00D+00 NAtFMM=   60 NAOKFM=F Big=F
 Integral buffers will be    131072 words long.
 Raffenetti 2 integral format.
 Two-electron integral symmetry is turned on.
 One-electron integrals computed using PRISM.
 NBasis=   916 RedAO= T EigKep=  1.03D-06  NBF=   916
 NBsUse=   901 1.00D-06 EigRej=  6.69D-07 NBFU=   901
 ExpMin= 4.05D-02 ExpMax= 9.34D+04 ExpMxC= 3.17D+03 IAcc=3 IRadAn=         5 AccDes= 0.00D+00
 Harris functional with IExCor=  402 and IRadAn=       5 diagonalized for initial guess.
 HarFok:  IExCor=  402 AccDes= 0.00D+00 IRadAn=         5 IDoV= 1 UseB2=F ITyADJ=14
 ICtDFT=  3500011 ScaDFX=  1.000000  1.000000  1.000000  1.000000
 FoFCou: FMM=F IPFlag=           0 FMFlag=      100000 FMFlg1=           0
         NFxFlg=           0 DoJE=T BraDBF=F KetDBF=T FulRan=T
         wScrn=  0.000000 ICntrl=       500 IOpCl=  0 I1Cent=   200000004 NGrid=           0
         NMat0=    1 NMatS0=      1 NMatT0=    0 NMatD0=    1 NMtDS0=    0 NMtDT0=    0
 Petite list used in FoFCou.
 Requested convergence on RMS density matrix=1.00D-08 within 128 cycles.
 Requested convergence on MAX density matrix=1.00D-06.
 Requested convergence on             energy=1.00D-06.
 No special actions if energy rises.
 SCF Done:  E(RB3LYP) =  -2359.31914968     A.U. after   17 cycles
            NFock= 17  Conv=0.76D-08     -V/T= 2.0031

 **********************************************************************

            Population analysis using the SCF Density.

 **********************************************************************

 Orbital symmetries:
       Occupied  (A) (A) (A) (A) (A) (A) (A) (A) (A) (A) (A) (A)
                 (A) (A) (A) (A) (A) (A) (A) (A) (A) (A) (A) (A)
                 (A) (A) (A) (A) (A) (A) (A) (A) (A) (A) (A) (A)
                 (A) (A) (A) (A) (A) (A) (A) (A) (A) (A) (A) (A)
                 (A) (A) (A) (A) (A) (A) (A) (A) (A) (A) (A) (A)
                 (A) (A) (A) (A) (A) (A) (A) (A) (A) (A) (A) (A)
                 (A) (A) (A) (A) (A) (A) (A) (A) (A) (A) (A) (A)
                 (A) (A) (A) (A) (A) (A) (A) (A) (A) (A) (A) (A)
                 (A) (A) (A) (A) (A) (A) (A) (A) (A) (A) (A) (A)
                 (A) (A) (A) (A) (A) (A) (A) (A) (A) (A) (A) (A)
                 (A) (A) (A) (A) (A) (A) (A) (A) (A) (A) (A) (A)
                 (A) (A)
       Virtual   (A) (A) (A) (A) (A) (A) (A) (A) (A) (A) (A) (A)
                 (A) (A) (A) (A) (A) (A) (A) (A) (A) (A) (A) (A)
                 (A) (A) (A) (A) (A) (A) (A) (A) (A) (A) (A) (A)
                 (A) (A) (A) (A) (A) (A) (A) (A) (A) (A) (A) (A)
                 (A) (A) (A) (A) (A) (A) (A) (A) (A) (A) (A) (A)
                 (A) (A) (A) (A) (A) (A) (A) (A) (A) (A) (A) (A)
                 (A) (A) (A) (A) (A) (A) (A) (A) (A) (A) (A) (A)
                 (A) (A) (A) (A) (A) (A) (A) (A) (A) (A) (A) (A)
                 (A) (A) (A) (A) (A) (A) (A) (A) (A) (A) (A) (A)
                 (A) (A) (A) (A) (A) (A) (A) (A) (A) (A) (A) (A)
                 (A) (A) (A) (A) (A) (A) (A) (A) (A) (A) (A) (A)
                 (A) (A) (A) (A) (A) (A) (A) (A) (A) (A) (A) (A)
                 (A) (A) (A) (A) (A) (A) (A) (A) (A) (A) (A) (A)
                 (A) (A) (A) (A) (A) (A) (A) (A) (A) (A) (A) (A)
                 (A) (A) (A) (A) (A) (A) (A) (A) (A) (A) (A) (A)
                 (A) (A) (A) (A) (A) (A) (A) (A) (A) (A) (A) (A)
                 (A) (A) (A) (A) (A) (A) (A) (A) (A) (A) (A) (A)
                 (A) (A) (A) (A) (A) (A) (A) (A) (A) (A) (A) (A)
                 (A) (A) (A) (A) (A) (A) (A) (A) (A) (A) (A) (A)
                 (A) (A) (A) (A) (A) (A) (A) (A) (A) (A) (A) (A)
                 (A) (A) (A) (A) (A) (A) (A) (A) (A) (A) (A) (A)
                 (A) (A) (A) (A) (A) (A) (A) (A) (A) (A) (A) (A)
                 (A) (A) (A) (A) (A) (A) (A) (A) (A) (A) (A) (A)
                 (A) (A) (A) (A) (A) (A) (A) (A) (A) (A) (A) (A)
                 (A) (A) (A) (A) (A) (A) (A) (A) (A) (A) (A) (A)
                 (A) (A) (A) (A) (A) (A) (A) (A) (A) (A) (A) (A)
                 (A) (A) (A) (A) (A) (A) (A) (A) (A) (A) (A) (A)
                 (A) (A) (A) (A) (A) (A) (A) (A) (A) (A) (A) (A)
                 (A) (A) (A) (A) (A) (A) (A) (A) (A) (A) (A) (A)
                 (A) (A) (A) (A) (A) (A) (A) (A) (A) (A) (A) (A)
                 (A) (A) (A) (A) (A) (A) (A) (A) (A) (A) (A) (A)
                 (A) (A) (A) (A) (A) (A) (A) (A) (A) (A) (A) (A)
                 (A) (A) (A) (A) (A) (A) (A) (A) (A) (A) (A) (A)
                 (A) (A) (A) (A) (A) (A) (A) (A) (A) (A) (A) (A)
                 (A) (A) (A) (A) (A) (A) (A) (A) (A) (A) (A) (A)
                 (A) (A) (A) (A) (A) (A) (A) (A) (A) (A) (A) (A)
                 (A) (A) (A) (A) (A) (A) (A) (A) (A) (A) (A) (A)
                 (A) (A) (A) (A) (A) (A) (A) (A) (A) (A) (A) (A)
                 (A) (A) (A) (A) (A) (A) (A) (A) (A) (A) (A) (A)
                 (A) (A) (A) (A) (A) (A) (A) (A) (A) (A) (A) (A)
                 (A) (A) (A) (A) (A) (A) (A) (A) (A) (A) (A) (A)
                 (A) (A) (A) (A) (A) (A) (A) (A) (A) (A) (A) (A)
                 (A) (A) (A) (A) (A) (A) (A) (A) (A) (A) (A) (A)
                 (A) (A) (A) (A) (A) (A) (A) (A) (A) (A) (A) (A)
                 (A) (A) (A) (A) (A) (A) (A) (A) (A) (A) (A) (A)
                 (A) (A) (A) (A) (A) (A) (A) (A) (A) (A) (A) (A)
                 (A) (A) (A) (A) (A) (A) (A) (A) (A) (A) (A) (A)
                 (A) (A) (A) (A) (A) (A) (A) (A) (A) (A) (A) (A)
                 (A) (A) (A) (A) (A) (A) (A) (A) (A) (A) (A) (A)
                 (A) (A) (A) (A) (A) (A) (A) (A) (A) (A) (A) (A)
                 (A) (A) (A) (A) (A) (A) (A) (A) (A) (A) (A) (A)
                 (A) (A) (A) (A) (A) (A) (A) (A) (A) (A) (A) (A)
                 (A) (A) (A) (A) (A) (A) (A) (A) (A) (A) (A) (A)
                 (A) (A) (A) (A) (A) (A) (A) (A) (A) (A) (A) (A)
                 (A) (A) (A) (A) (A) (A) (A) (A) (A) (A) (A) (A)
                 (A) (A) (A) (A) (A) (A) (A) (A) (A) (A) (A) (A)
                 (A) (A) (A) (A) (A) (A) (A) (A) (A) (A) (A) (A)
                 (A) (A) (A) (A) (A) (A) (A) (A) (A) (A) (A) (A)
                 (A) (A) (A) (A) (A) (A) (A) (A) (A) (A) (A) (A)
                 (A) (A) (A) (A) (A) (A) (A) (A) (A) (A) (A) (A)
                 (A) (A) (A) (A) (A) (A) (A) (A) (A) (A) (A) (A)
                 (A) (A) (A) (A) (A) (A) (A) (A) (A) (A) (A) (A)
                 (A) (A) (A) (A) (A) (A) (A) (A) (A) (A) (A) (A)
                 (A) (A) (A) (A) (A) (A) (A) (A) (A) (A) (A)
 The electronic state is 1-A.
 Alpha  occ. eigenvalues --  -88.88755 -88.88315 -19.17551 -19.16770 -19.12262
 Alpha  occ. eigenvalues --  -19.12259 -19.12188 -19.11549 -14.38520 -14.38343
 Alpha  occ. eigenvalues --  -10.31264 -10.30904 -10.30798 -10.30220 -10.25326
 Alpha  occ. eigenvalues --  -10.24225 -10.24086 -10.23981 -10.23261 -10.22799
 Alpha  occ. eigenvalues --  -10.22757 -10.22441 -10.22284 -10.22191 -10.22150
 Alpha  occ. eigenvalues --  -10.22113 -10.22019 -10.21672 -10.21512 -10.21453
 Alpha  occ. eigenvalues --  -10.20909 -10.20866 -10.20780 -10.20653 -10.19386
 Alpha  occ. eigenvalues --  -10.16822  -7.97296  -7.96901  -5.93606  -5.93226
 Alpha  occ. eigenvalues --   -5.93217  -5.92864  -5.92830  -5.92434  -1.09067
 Alpha  occ. eigenvalues --   -1.08757  -1.08276  -1.08274  -1.06391  -1.06297
 Alpha  occ. eigenvalues --   -0.96078  -0.95891  -0.92142  -0.90402  -0.88856
 Alpha  occ. eigenvalues --   -0.86386  -0.84006  -0.80376  -0.78243  -0.77772
 Alpha  occ. eigenvalues --   -0.76486  -0.75246  -0.75067  -0.73419  -0.72343
 Alpha  occ. eigenvalues --   -0.71665  -0.70519  -0.68767  -0.67291  -0.65699
 Alpha  occ. eigenvalues --   -0.65557  -0.64682  -0.61190  -0.59858  -0.58542
 Alpha  occ. eigenvalues --   -0.57294  -0.56994  -0.56517  -0.55719  -0.54987
 Alpha  occ. eigenvalues --   -0.53268  -0.51745  -0.51482  -0.50011  -0.49603
 Alpha  occ. eigenvalues --   -0.49497  -0.48943  -0.48558  -0.48512  -0.48300
 Alpha  occ. eigenvalues --   -0.48107  -0.47637  -0.46294  -0.46139  -0.45808
 Alpha  occ. eigenvalues --   -0.45697  -0.44973  -0.44234  -0.44143  -0.42990
 Alpha  occ. eigenvalues --   -0.42858  -0.42549  -0.42315  -0.41785  -0.41722
 Alpha  occ. eigenvalues --   -0.41521  -0.41145  -0.41123  -0.40503  -0.39711
 Alpha  occ. eigenvalues --   -0.39559  -0.39069  -0.38496  -0.37502  -0.37096
 Alpha  occ. eigenvalues --   -0.36372  -0.36280  -0.34516  -0.34191  -0.33494
 Alpha  occ. eigenvalues --   -0.33308  -0.32026  -0.30640  -0.30500  -0.29600
 Alpha  occ. eigenvalues --   -0.29218  -0.29001  -0.28540  -0.27401  -0.27261
 Alpha  occ. eigenvalues --   -0.26154  -0.24974  -0.24645  -0.19671
 Alpha virt. eigenvalues --   -0.12860  -0.07795  -0.06566  -0.04609  -0.03382
 Alpha virt. eigenvalues --   -0.00785  -0.00499  -0.00357  -0.00027   0.00430
 Alpha virt. eigenvalues --    0.00893   0.01051   0.01370   0.01758   0.01952
 Alpha virt. eigenvalues --    0.02010   0.02228   0.02560   0.02895   0.03354
 Alpha virt. eigenvalues --    0.03704   0.03794   0.03899   0.04099   0.04303
 Alpha virt. eigenvalues --    0.04771   0.04995   0.05225   0.05636   0.05834
 Alpha virt. eigenvalues --    0.06231   0.06285   0.06477   0.06890   0.07058
 Alpha virt. eigenvalues --    0.07294   0.07688   0.07847   0.07922   0.08221
 Alpha virt. eigenvalues --    0.08506   0.08653   0.08722   0.09178   0.09484
 Alpha virt. eigenvalues --    0.09827   0.10010   0.10478   0.10584   0.10916
 Alpha virt. eigenvalues --    0.11110   0.11374   0.11659   0.12170   0.12225
 Alpha virt. eigenvalues --    0.12405   0.12806   0.13006   0.13270   0.13391
 Alpha virt. eigenvalues --    0.13510   0.13742   0.13854   0.14335   0.14571
 Alpha virt. eigenvalues --    0.14584   0.15124   0.15241   0.15360   0.15540
 Alpha virt. eigenvalues --    0.15630   0.15796   0.15969   0.16196   0.16347
 Alpha virt. eigenvalues --    0.16724   0.16960   0.17373   0.17540   0.17893
 Alpha virt. eigenvalues --    0.18034   0.18115   0.18417   0.18520   0.18687
 Alpha virt. eigenvalues --    0.18870   0.19188   0.19381   0.19456   0.19622
 Alpha virt. eigenvalues --    0.19776   0.20078   0.20235   0.20324   0.20470
 Alpha virt. eigenvalues --    0.20556   0.21018   0.21103   0.21223   0.21715
 Alpha virt. eigenvalues --    0.21949   0.22095   0.22279   0.22458   0.22748
 Alpha virt. eigenvalues --    0.22940   0.23126   0.23203   0.23368   0.23561
 Alpha virt. eigenvalues --    0.23904   0.24025   0.24427   0.24533   0.24652
 Alpha virt. eigenvalues --    0.24802   0.24942   0.25059   0.25342   0.25428
 Alpha virt. eigenvalues --    0.25819   0.25865   0.26183   0.26325   0.26480
 Alpha virt. eigenvalues --    0.26676   0.26776   0.26998   0.27330   0.27496
 Alpha virt. eigenvalues --    0.27708   0.27848   0.28144   0.28284   0.28505
 Alpha virt. eigenvalues --    0.28732   0.29059   0.29216   0.29281   0.29615
 Alpha virt. eigenvalues --    0.30116   0.30286   0.30419   0.30986   0.31094
 Alpha virt. eigenvalues --    0.31488   0.31849   0.32057   0.32278   0.32510
 Alpha virt. eigenvalues --    0.32690   0.32769   0.33084   0.33470   0.33839
 Alpha virt. eigenvalues --    0.34130   0.34402   0.34581   0.34904   0.35188
 Alpha virt. eigenvalues --    0.35381   0.35452   0.36150   0.36509   0.36844
 Alpha virt. eigenvalues --    0.36967   0.37187   0.37627   0.37906   0.38036
 Alpha virt. eigenvalues --    0.38838   0.38939   0.39033   0.40026   0.40254
 Alpha virt. eigenvalues --    0.40921   0.41334   0.41810   0.42166   0.42571
 Alpha virt. eigenvalues --    0.42797   0.43181   0.43279   0.43704   0.43971
 Alpha virt. eigenvalues --    0.44499   0.44992   0.45374   0.45955   0.46053
 Alpha virt. eigenvalues --    0.46101   0.46377   0.46882   0.47279   0.47620
 Alpha virt. eigenvalues --    0.47874   0.48152   0.48807   0.48984   0.49962
 Alpha virt. eigenvalues --    0.50424   0.50690   0.50977   0.51376   0.52142
 Alpha virt. eigenvalues --    0.52431   0.52879   0.53573   0.53953   0.54465
 Alpha virt. eigenvalues --    0.54691   0.55401   0.55490   0.55730   0.56250
 Alpha virt. eigenvalues --    0.56378   0.56497   0.56885   0.57180   0.57530
 Alpha virt. eigenvalues --    0.58276   0.58462   0.58716   0.59496   0.59711
 Alpha virt. eigenvalues --    0.60169   0.60266   0.60469   0.60838   0.61387
 Alpha virt. eigenvalues --    0.61571   0.61892   0.62320   0.62609   0.62966
 Alpha virt. eigenvalues --    0.63147   0.63473   0.64184   0.64577   0.64723
 Alpha virt. eigenvalues --    0.65103   0.65478   0.65614   0.65929   0.66135
 Alpha virt. eigenvalues --    0.66314   0.67171   0.67327   0.67766   0.68004
 Alpha virt. eigenvalues --    0.68207   0.68896   0.69724   0.69812   0.70590
 Alpha virt. eigenvalues --    0.71031   0.71292   0.71684   0.71978   0.72465
 Alpha virt. eigenvalues --    0.72782   0.73187   0.73233   0.73933   0.74133
 Alpha virt. eigenvalues --    0.74922   0.75310   0.75374   0.75646   0.75789
 Alpha virt. eigenvalues --    0.75991   0.76634   0.76828   0.77682   0.77847
 Alpha virt. eigenvalues --    0.78074   0.78636   0.78973   0.79336   0.80131
 Alpha virt. eigenvalues --    0.80246   0.81357   0.82385   0.82588   0.83392
 Alpha virt. eigenvalues --    0.83969   0.84214   0.85023   0.85866   0.86435
 Alpha virt. eigenvalues --    0.87230   0.87924   0.88406   0.88723   0.88890
 Alpha virt. eigenvalues --    0.89389   0.90742   0.91283   0.91570   0.92202
 Alpha virt. eigenvalues --    0.92518   0.92602   0.92877   0.93547   0.93774
 Alpha virt. eigenvalues --    0.94514   0.94901   0.94924   0.95534   0.95983
 Alpha virt. eigenvalues --    0.96485   0.96874   0.97418   0.97545   0.98072
 Alpha virt. eigenvalues --    0.98762   0.99256   0.99508   1.00256   1.00729
 Alpha virt. eigenvalues --    1.00966   1.01503   1.01522   1.01997   1.02449
 Alpha virt. eigenvalues --    1.03047   1.03676   1.04257   1.05140   1.05227
 Alpha virt. eigenvalues --    1.05401   1.05423   1.06252   1.06782   1.06933
 Alpha virt. eigenvalues --    1.07227   1.07685   1.08220   1.08354   1.08584
 Alpha virt. eigenvalues --    1.09195   1.09656   1.10575   1.10934   1.11642
 Alpha virt. eigenvalues --    1.12334   1.13606   1.13986   1.14506   1.15267
 Alpha virt. eigenvalues --    1.15501   1.16629   1.17527   1.17760   1.18102
 Alpha virt. eigenvalues --    1.18445   1.18699   1.19425   1.20800   1.21705
 Alpha virt. eigenvalues --    1.22455   1.23549   1.24845   1.25126   1.25390
 Alpha virt. eigenvalues --    1.25826   1.26260   1.26361   1.27123   1.27241
 Alpha virt. eigenvalues --    1.29171   1.29738   1.30298   1.30654   1.32497
 Alpha virt. eigenvalues --    1.32832   1.33323   1.34066   1.34717   1.35253
 Alpha virt. eigenvalues --    1.35646   1.36837   1.37521   1.38866   1.40354
 Alpha virt. eigenvalues --    1.41727   1.41937   1.42095   1.42523   1.42599
 Alpha virt. eigenvalues --    1.43356   1.43588   1.43807   1.44075   1.44524
 Alpha virt. eigenvalues --    1.44747   1.44948   1.45545   1.46091   1.46698
 Alpha virt. eigenvalues --    1.47025   1.48125   1.48651   1.48812   1.49385
 Alpha virt. eigenvalues --    1.50471   1.51181   1.51666   1.52776   1.53458
 Alpha virt. eigenvalues --    1.53596   1.54361   1.54469   1.54935   1.55214
 Alpha virt. eigenvalues --    1.55425   1.55765   1.56332   1.57068   1.57737
 Alpha virt. eigenvalues --    1.58002   1.59485   1.60356   1.60793   1.61222
 Alpha virt. eigenvalues --    1.62389   1.62574   1.63374   1.63759   1.64432
 Alpha virt. eigenvalues --    1.65415   1.66247   1.67020   1.67375   1.67805
 Alpha virt. eigenvalues --    1.67829   1.68353   1.69105   1.69763   1.69840
 Alpha virt. eigenvalues --    1.70225   1.70747   1.71351   1.71840   1.72233
 Alpha virt. eigenvalues --    1.72915   1.73807   1.74952   1.75324   1.75714
 Alpha virt. eigenvalues --    1.76185   1.77157   1.78002   1.78464   1.78610
 Alpha virt. eigenvalues --    1.78733   1.79389   1.80613   1.82658   1.83112
 Alpha virt. eigenvalues --    1.83623   1.84538   1.85399   1.85929   1.86727
 Alpha virt. eigenvalues --    1.87218   1.87321   1.88044   1.88408   1.88531
 Alpha virt. eigenvalues --    1.89708   1.90340   1.90889   1.91513   1.92576
 Alpha virt. eigenvalues --    1.93348   1.93559   1.93888   1.94849   1.95031
 Alpha virt. eigenvalues --    1.95990   1.96534   1.98158   1.98410   1.98950
 Alpha virt. eigenvalues --    2.00123   2.00972   2.01472   2.01989   2.02121
 Alpha virt. eigenvalues --    2.03161   2.03343   2.03986   2.04359   2.05697
 Alpha virt. eigenvalues --    2.06087   2.06584   2.06930   2.08358   2.08682
 Alpha virt. eigenvalues --    2.09333   2.09868   2.10815   2.11535   2.11769
 Alpha virt. eigenvalues --    2.13466   2.14097   2.14135   2.14833   2.16349
 Alpha virt. eigenvalues --    2.16462   2.16879   2.18448   2.19286   2.20089
 Alpha virt. eigenvalues --    2.20506   2.20789   2.21792   2.22388   2.23080
 Alpha virt. eigenvalues --    2.24356   2.25356   2.26630   2.27143   2.30126
 Alpha virt. eigenvalues --    2.32092   2.32541   2.33680   2.35266   2.37604
 Alpha virt. eigenvalues --    2.38970   2.39581   2.40253   2.42086   2.42790
 Alpha virt. eigenvalues --    2.43155   2.43841   2.44954   2.45345   2.45756
 Alpha virt. eigenvalues --    2.46835   2.47818   2.47964   2.48454   2.49258
 Alpha virt. eigenvalues --    2.50371   2.51671   2.51751   2.52286   2.52711
 Alpha virt. eigenvalues --    2.53036   2.53210   2.54158   2.54553   2.56519
 Alpha virt. eigenvalues --    2.58291   2.58744   2.59140   2.59924   2.60379
 Alpha virt. eigenvalues --    2.62545   2.62892   2.63688   2.65499   2.66071
 Alpha virt. eigenvalues --    2.67045   2.67515   2.67621   2.68026   2.69230
 Alpha virt. eigenvalues --    2.69681   2.70329   2.70612   2.70678   2.71625
 Alpha virt. eigenvalues --    2.72902   2.72995   2.73826   2.75221   2.75685
 Alpha virt. eigenvalues --    2.76184   2.76451   2.77674   2.80236   2.80909
 Alpha virt. eigenvalues --    2.81316   2.82309   2.83169   2.83515   2.83870
 Alpha virt. eigenvalues --    2.84950   2.85088   2.85501   2.85774   2.86610
 Alpha virt. eigenvalues --    2.87812   2.88134   2.89008   2.89495   2.89745
 Alpha virt. eigenvalues --    2.91689   2.92086   2.92759   2.93948   2.94237
 Alpha virt. eigenvalues --    2.95322   2.95670   2.96543   2.97499   2.99697
 Alpha virt. eigenvalues --    3.00899   3.02521   3.03013   3.04499   3.05013
 Alpha virt. eigenvalues --    3.06169   3.08283   3.09144   3.10934   3.11758
 Alpha virt. eigenvalues --    3.12817   3.13665   3.14745   3.15189   3.16636
 Alpha virt. eigenvalues --    3.18142   3.18562   3.20525   3.20885   3.22751
 Alpha virt. eigenvalues --    3.22868   3.23594   3.24181   3.25945   3.27568
 Alpha virt. eigenvalues --    3.28810   3.30156   3.30593   3.31950   3.34038
 Alpha virt. eigenvalues --    3.34487   3.34724   3.34952   3.37142   3.38290
 Alpha virt. eigenvalues --    3.39377   3.40627   3.41403   3.42590   3.43813
 Alpha virt. eigenvalues --    3.44744   3.45752   3.47560   3.49226   3.49724
 Alpha virt. eigenvalues --    3.52031   3.53190   3.55960   3.57934   3.59960
 Alpha virt. eigenvalues --    3.60677   3.64297   3.66023   3.66402   3.67719
 Alpha virt. eigenvalues --    3.70108   3.72171   3.72419   3.74046   3.75659
 Alpha virt. eigenvalues --    3.76594   3.77404   3.81903   3.82942   3.84911
 Alpha virt. eigenvalues --    3.85460   3.86543   3.90335   3.92624   3.93113
 Alpha virt. eigenvalues --    3.93634   3.94180   3.99292   4.01892   4.03467
 Alpha virt. eigenvalues --    4.05366   4.08431   4.10300   4.13316   4.14633
 Alpha virt. eigenvalues --    4.22012   4.24202   4.25727   4.29283   4.35837
 Alpha virt. eigenvalues --    4.40690   4.41892   4.54252   4.73559   4.84481
 Alpha virt. eigenvalues --    4.86992   4.87784   4.90513   5.00853   5.02425
 Alpha virt. eigenvalues --    5.03994   5.05542   5.05863   5.07042   5.11495
 Alpha virt. eigenvalues --    5.13608   5.25282   5.27346   5.29706   5.37974
 Alpha virt. eigenvalues --    5.42267   5.44259   5.76195   5.76316   5.79890
 Alpha virt. eigenvalues --    5.80816   5.82588   5.85917   8.02524   8.05035
 Alpha virt. eigenvalues --   17.28542  17.30610  17.49611  17.52344  17.59175
 Alpha virt. eigenvalues --   17.63885  23.49075  23.56917  23.71717  23.78372
 Alpha virt. eigenvalues --   23.82225  23.82853  23.84203  23.86771  23.87020
 Alpha virt. eigenvalues --   23.88298  23.89253  23.90105  23.91696  23.93119
 Alpha virt. eigenvalues --   23.94645  23.95382  23.96104  23.98219  24.00810
 Alpha virt. eigenvalues --   24.01529  24.02066  24.05288  24.13391  24.13711
 Alpha virt. eigenvalues --   24.14332  24.14615  35.56489  35.59515  49.95800
 Alpha virt. eigenvalues --   49.98288  50.02272  50.04364  50.05974  50.07768
 Alpha virt. eigenvalues --  189.19943 189.22918
          Condensed to atoms (all electrons):
 Mulliken charges:
               1
     1  C    0.332918
     2  C    0.094350
     3  C    0.171583
     4  C    0.304443
     5  C    0.311125
     6  C    0.032059
     7  C    0.143687
     8  C    0.105306
     9  C   -0.120624
    10  C   -0.091537
    11  C    0.138939
    12  C    0.236100
    13  C   -0.412067
    14  C   -0.712555
    15  H    0.159259
    16  H    0.161768
    17  H    0.169011
    18  N   -0.193263
    19  N   -0.138354
    20  O   -0.283449
    21  O   -0.269916
    22  O   -0.272068
    23  O   -0.276601
    24  C   -0.199128
    25  H    0.172662
    26  H    0.172810
    27  H    0.189507
    28  C   -0.197205
    29  H    0.173613
    30  H    0.174004
    31  H    0.182402
    32  C   -0.336992
    33  C   -0.126907
    34  S   -0.767658
    35  C   -0.056079
    36  H    0.265811
    37  C    0.551805
    38  O   -0.136275
    39  C    0.803377
    40  C   -0.229479
    41  C    0.012193
    42  S   -0.221349
    43  H    0.163307
    44  H    0.150590
    45  H    0.153332
    46  C   -0.592119
    47  O   -0.120025
    48  C   -0.290964
    49  H    0.133886
    50  C   -0.242665
    51  H    0.163489
    52  H    0.145684
    53  H    0.172261
    54  H    0.145996
 Sum of Mulliken charges =  -0.00000
 Mulliken charges with hydrogens summed into heavy atoms:
               1
     1  C    0.332918
     2  C    0.094350
     3  C    0.171583
     4  C    0.304443
     5  C    0.311125
     6  C    0.201070
     7  C    0.143687
     8  C    0.105306
     9  C   -0.120624
    10  C   -0.091537
    11  C    0.138939
    12  C    0.236100
    13  C   -0.250299
    14  C   -0.553296
    18  N   -0.193263
    19  N   -0.138354
    20  O   -0.283449
    21  O   -0.269916
    22  O   -0.272068
    23  O   -0.276601
    24  C    0.335851
    28  C    0.332814
    32  C   -0.336992
    33  C    0.138904
    34  S   -0.767658
    35  C   -0.056079
    37  C    0.551805
    38  O   -0.136275
    39  C    0.803377
    40  C    0.237750
    41  C    0.012193
    42  S   -0.221349
    46  C   -0.458233
    47  O   -0.120025
    48  C   -0.127475
    50  C    0.221275
 Electronic spatial extent (au):  <R**2>=          22420.7392
 Charge=             -0.0000 electrons
 Dipole moment (field-independent basis, Debye):
    X=              5.2547    Y=             -0.5902    Z=             -0.0426  Tot=              5.2879
 Quadrupole moment (field-independent basis, Debye-Ang):
   XX=           -217.0192   YY=           -207.3780   ZZ=           -223.7891
   XY=             -5.5788   XZ=             -3.3669   YZ=              3.9011
 Traceless Quadrupole moment (field-independent basis, Debye-Ang):
   XX=             -0.9571   YY=              8.6841   ZZ=             -7.7270
   XY=             -5.5788   XZ=             -3.3669   YZ=              3.9011
 Octapole moment (field-independent basis, Debye-Ang**2):
  XXX=            397.6118  YYY=            -19.1500  ZZZ=              2.2463  XYY=            149.5423
  XXY=            -89.6337  XXZ=              5.0035  XZZ=            -14.0540  YZZ=             -0.4912
  YYZ=              0.7411  XYZ=              7.8585
 Hexadecapole moment (field-independent basis, Debye-Ang**3):
 XXXX=         -20751.4060 YYYY=          -8026.4518 ZZZZ=           -325.3284 XXXY=           -595.0596
 XXXZ=           -124.7237 YYYX=            210.8641 YYYZ=             78.6823 ZZZX=             -1.0023
 ZZZY=             -0.6267 XXYY=          -4977.0834 XXZZ=          -3761.5117 YYZZ=          -1474.2169
 XXYZ=             64.2127 YYXZ=            -73.8461 ZZXY=             27.4331
 N-N= 4.092962776133D+03 E-N=-1.372590639324D+04  KE= 2.352040920761D+03
 Calling FoFJK, ICntrl=      2127 FMM=F ISym2X=0 I1Cent= 0 IOpClX= 0 NMat=1 NMatS=1 NMatT=0.
 ***** Axes restored to original set *****
 -------------------------------------------------------------------
 Center     Atomic                   Forces (Hartrees/Bohr)
 Number     Number              X              Y              Z
 -------------------------------------------------------------------
      1        6           0.004236312   -0.005514514   -0.000112346
      2        6           0.005944190    0.000377064   -0.001035384
      3        6          -0.003179826    0.000964326    0.000275005
      4        6           0.002882270    0.001418368    0.000345698
      5        6          -0.005864957   -0.001575289   -0.000070631
      6        6          -0.006086569   -0.000838970   -0.004104576
      7        6          -0.001486040    0.000283894    0.000808028
      8        6          -0.000097178    0.006311815    0.006968110
      9        6           0.011455038    0.000184630   -0.000700142
     10        6          -0.012191825   -0.006702152   -0.002292093
     11        6          -0.006123789    0.002364324   -0.000262773
     12        6           0.001898187    0.000614209    0.000317839
     13        6          -0.001717080   -0.002743375   -0.000516771
     14        6           0.000090539    0.002629927    0.000404378
     15        1           0.000642814    0.000794804    0.000031843
     16        1           0.000573745   -0.001154647   -0.000262816
     17        1          -0.002135979   -0.000317382    0.002268027
     18        7           0.003794560   -0.001785632   -0.001517136
     19        7           0.001121468    0.001235917   -0.000028524
     20        8          -0.005918860    0.006149844    0.000721525
     21        8           0.007481247    0.002055250    0.000152602
     22        8           0.006350281   -0.004785816   -0.000430335
     23        8          -0.039929375    0.023999690    0.012244897
     24        6           0.000878093    0.002387349   -0.000672029
     25        1          -0.000763117    0.000063069   -0.000206671
     26        1          -0.001432327   -0.000420525    0.001065679
     27        1           0.000988907    0.000008969    0.000072584
     28        6          -0.000438990   -0.001924535   -0.000668063
     29        1          -0.000689733    0.000383535    0.000982547
     30        1          -0.000463348    0.000391545   -0.000492682
     31        1           0.000938909   -0.000351928   -0.000019347
     32        6          -0.010372736    0.001847212   -0.001311907
     33        6           0.034368454   -0.002577646   -0.005766971
     34       16           0.003740289   -0.002152795   -0.000490712
     35        6          -0.003003300   -0.008148438   -0.000979900
     36        1           0.015246835   -0.013636013   -0.005632836
     37        6           0.002145936    0.000985517    0.000587563
     38        8          -0.001256662   -0.001702093    0.001081227
     39        6          -0.000482998   -0.001269931   -0.001073430
     40        6          -0.001827602    0.002618094    0.000561274
     41        6           0.000171461   -0.000078395    0.000302548
     42       16           0.000204370   -0.000549060   -0.000689877
     43        1           0.000058449   -0.000354843    0.000021873
     44        1           0.000984661   -0.001147635    0.000943961
     45        1           0.000901573    0.000048968   -0.001526484
     46        6          -0.002042288    0.000055010    0.000125001
     47        8           0.002650807    0.001808622   -0.000176624
     48        6           0.000116286    0.000080713    0.000236993
     49        1          -0.000031861    0.000729475    0.000252937
     50        6           0.000637238   -0.003034609   -0.000613341
     51        1          -0.001819104   -0.000078630    0.000323068
     52        1          -0.001123118    0.000865770   -0.000338804
     53        1           0.000777127    0.000734043    0.000106724
     54        1          -0.000801386    0.000452901    0.000791281
 -------------------------------------------------------------------
 Cartesian Forces:  Max     0.039929375 RMS     0.005666635

 GradGradGradGradGradGradGradGradGradGradGradGradGradGradGradGradGradGrad
 Berny optimization.
 FormGI is forming the generalized inverse of G from B-inverse, IUseBI=4.
 Internal  Forces:  Max     0.138877304 RMS     0.016404893
 Search for a local minimum.
 Step number   1 out of a maximum of  307
 All quantities printed in internal units (Hartrees-Bohrs-Radians)
 Mixed Optimization -- RFO/linear search
 Second derivative matrix not updated -- first step.
 ITU=  0
     Eigenvalues ---    0.00803   0.00803   0.01176   0.01203   0.01245
     Eigenvalues ---    0.01292   0.01308   0.01311   0.01359   0.01381
     Eigenvalues ---    0.01419   0.01429   0.01458   0.01496   0.01516
     Eigenvalues ---    0.01568   0.01574   0.01577   0.01620   0.01651
     Eigenvalues ---    0.01692   0.01711   0.01712   0.01719   0.01754
     Eigenvalues ---    0.01783   0.01803   0.01847   0.01960   0.02040
     Eigenvalues ---    0.02043   0.02066   0.02075   0.02082   0.02135
     Eigenvalues ---    0.02149   0.02163   0.02174   0.02197   0.02229
     Eigenvalues ---    0.02235   0.02252   0.07556   0.07572   0.07690
     Eigenvalues ---    0.07700   0.10058   0.10078   0.10633   0.10635
     Eigenvalues ---    0.15983   0.15999   0.15999   0.16000   0.16000
     Eigenvalues ---    0.16000   0.16000   0.16000   0.16000   0.16000
     Eigenvalues ---    0.16000   0.16000   0.16000   0.16000   0.16000
     Eigenvalues ---    0.16000   0.16000   0.16000   0.22530   0.22583
     Eigenvalues ---    0.23518   0.23582   0.24516   0.24747   0.24866
     Eigenvalues ---    0.24931   0.24952   0.24985   0.24987   0.24988
     Eigenvalues ---    0.24991   0.24994   0.24997   0.24997   0.24998
     Eigenvalues ---    0.24998   0.25000   0.25000   0.25000   0.25000
     Eigenvalues ---    0.25000   0.25000   0.25000   0.25000   0.25000
     Eigenvalues ---    0.25000   0.28859   0.28872   0.30119   0.32164
     Eigenvalues ---    0.32582   0.32774   0.33111   0.33787   0.34030
     Eigenvalues ---    0.34031   0.34066   0.34088   0.34354   0.34466
     Eigenvalues ---    0.34577   0.34629   0.34693   0.34822   0.34937
     Eigenvalues ---    0.35198   0.35218   0.35468   0.35553   0.35582
     Eigenvalues ---    0.35760   0.35871   0.36078   0.36083   0.36276
     Eigenvalues ---    0.36396   0.36662   0.39352   0.40194   0.40218
     Eigenvalues ---    0.40627   0.40651   0.41524   0.41688   0.41943
     Eigenvalues ---    0.42300   0.42656   0.43455   0.43891   0.44092
     Eigenvalues ---    0.44594   0.44595   0.45014   0.45406   0.46251
     Eigenvalues ---    0.47305   0.47561   0.49310   0.49645   0.53078
     Eigenvalues ---    0.53170   0.93281   0.93432   0.93989   0.94585
     Eigenvalues --- 1000.000001000.000001000.000001000.000001000.00000
     Eigenvalues --- 1000.000001000.000001000.000001000.000001000.00000
     Eigenvalues --- 1000.000001000.000001000.000001000.000001000.00000
     Eigenvalues --- 1000.000001000.000001000.000001000.000001000.00000
     Eigenvalues --- 1000.000001000.000001000.000001000.000001000.00000
     Eigenvalues --- 1000.000001000.000001000.000001000.000001000.00000
     Eigenvalues --- 1000.000001000.000001000.000001000.000001000.00000
     Eigenvalues --- 1000.000001000.000001000.000001000.000001000.00000
     Eigenvalues --- 1000.000001000.000001000.000001000.000001000.00000
     Eigenvalues --- 1000.000001000.000001000.000001000.000001000.00000
     Eigenvalues --- 1000.000001000.000001000.000001000.000001000.00000
     Eigenvalues --- 1000.000001000.000001000.000001000.000001000.00000
     Eigenvalues --- 1000.000001000.000001000.000001000.000001000.00000
     Eigenvalues --- 1000.000001000.000001000.000001000.000001000.00000
     Eigenvalues --- 1000.000001000.000001000.000001000.000001000.00000
     Eigenvalues --- 1000.000001000.000001000.000001000.000001000.00000
     Eigenvalues --- 1000.000001000.000001000.000001000.000001000.00000
     Eigenvalues --- 1000.000001000.000001000.000001000.000001000.00000
     Eigenvalues --- 1000.000001000.000001000.000001000.000001000.00000
     Eigenvalues --- 1000.000001000.000001000.000001000.000001000.00000
     Eigenvalues --- 1000.000001000.000001000.000001000.000001000.00000
     Eigenvalues --- 1000.000001000.000001000.000001000.000001000.00000
     Eigenvalues --- 1000.000001000.000001000.000001000.000001000.00000
     Eigenvalues --- 1000.000001000.000001000.000001000.000001000.00000
     Eigenvalues --- 1000.000001000.000001000.000001000.000001000.00000
     Eigenvalues --- 1000.000001000.000001000.000001000.000001000.00000
     Eigenvalues --- 1000.000001000.000001000.000001000.000001000.00000
     Eigenvalues --- 1000.000001000.000001000.000001000.000001000.00000
     Eigenvalues --- 1000.000001000.00000
 RFO step:  Lambda=-1.78702784D-01 EMin= 8.02933640D-03
 Linear search not attempted -- first point.
 Maximum step size (   0.300) exceeded in Quadratic search.
    -- Step size scaled by   0.476
 Iteration  1 RMS(Cart)=  0.30273343 RMS(Int)=  0.00755756
 Iteration  2 RMS(Cart)=  0.11035220 RMS(Int)=  0.00075575
 Iteration  3 RMS(Cart)=  0.00256238 RMS(Int)=  0.00009149
 Iteration  4 RMS(Cart)=  0.00000041 RMS(Int)=  0.00009149
 Iteration  1 RMS(Cart)=  0.00001186 RMS(Int)=  0.00000213
 Iteration  2 RMS(Cart)=  0.00000674 RMS(Int)=  0.00000238
 Iteration  3 RMS(Cart)=  0.00000382 RMS(Int)=  0.00000270
 Iteration  4 RMS(Cart)=  0.00000217 RMS(Int)=  0.00000292
 Iteration  5 RMS(Cart)=  0.00000123 RMS(Int)=  0.00000306
 Iteration  6 RMS(Cart)=  0.00000070 RMS(Int)=  0.00000314
 Variable       Old X    -DE/DX   Delta X   Delta X   Delta X     New X
                                 (Linear)    (Quad)   (Total)
    R1        2.80935  -0.00003   0.00000  -0.00040  -0.00040   2.80895
    R2        2.64584  -0.00614   0.00000  -0.00473  -0.00472   2.64112
    R3        2.31147  -0.00856   0.00000  -0.00364  -0.00364   2.30783
    R4        2.67311  -0.01516   0.00000  -0.01379  -0.01389   2.65923
    R5        2.59267  -0.02309   0.00000  -0.01822  -0.01826   2.57442
    R6        2.66894   0.00275   0.00000   0.00223   0.00221   2.67115
    R7        2.69164   0.00604   0.00000   0.00638   0.00636   2.69800
    R8        2.81049  -0.00081   0.00000  -0.00037  -0.00038   2.81012
    R9        2.62173  -0.00921   0.00000  -0.00754  -0.00758   2.61415
   R10        2.65570  -0.00580   0.00000  -0.00425  -0.00425   2.65145
   R11        2.30889  -0.00775   0.00000  -0.00328  -0.00328   2.30561
   R12        2.70248   0.00277   0.00000   0.00145   0.00150   2.70398
   R13        2.04786  -0.00160   0.00000  -0.00142  -0.00142   2.04644
   R14        2.70495   0.03770   0.00000   0.03495   0.03509   2.74005
   R15        2.68322   0.01040   0.00000   0.01008   0.01010   2.69332
   R16        2.68655   0.07389   0.00000   0.06035   0.06044   2.74699
   R17        2.81233   0.02702   0.00000   0.02587   0.02599   2.83832
   R18        2.76359   0.03533   0.00000   0.03082   0.03082   2.79441
   R19        2.66221  -0.00792   0.00000  -0.00706  -0.00706   2.65515
   R20        2.31391  -0.02546   0.00000  -0.01088  -0.01088   2.30302
   R21        2.79415  -0.01929   0.00000  -0.01836  -0.01848   2.77567
   R22        2.63842  -0.02090   0.00000  -0.01716  -0.01726   2.62115
   R23        2.31456  -0.00792   0.00000  -0.00339  -0.00339   2.31118
   R24        2.62448  -0.00160   0.00000  -0.00113  -0.00113   2.62335
   R25        2.64561  -0.01475   0.00000  -0.01190  -0.01193   2.63368
   R26        2.04921  -0.00124   0.00000  -0.00110  -0.00110   2.04811
   R27        2.04741  -0.00086   0.00000  -0.00077  -0.00077   2.04664
   R28        2.77259   0.00193   0.00000   0.00170   0.00170   2.77429
   R29        2.77252   0.00161   0.00000   0.00142   0.00142   2.77394
   R30        2.06176  -0.00057   0.00000  -0.00052  -0.00052   2.06124
   R31        2.06551  -0.00174   0.00000  -0.00159  -0.00159   2.06393
   R32        2.05322  -0.00084   0.00000  -0.00076  -0.00076   2.05247
   R33        2.06368  -0.00124   0.00000  -0.00113  -0.00113   2.06255
   R34        2.06281  -0.00076   0.00000  -0.00069  -0.00069   2.06213
   R35        2.05355  -0.00089   0.00000  -0.00080  -0.00080   2.05275
   R36        2.61085   0.01521   0.00000   0.01132   0.01136   2.62220
   R37        3.33246   0.01154   0.00000   0.01224   0.01228   3.34475
   R38        2.66316  -0.00086   0.00000  -0.00073  -0.00074   2.66242
   R39        2.03652  -0.01968   0.00000  -0.01729  -0.01729   2.01923
   R40        3.30351  -0.01035   0.00000  -0.01060  -0.01062   3.29289
   R41        2.64292  -0.01153   0.00000  -0.00914  -0.00919   2.63373
   R42        2.56881  -0.00114   0.00000  -0.00076  -0.00076   2.56804
   R43        2.71259  -0.00133   0.00000  -0.00109  -0.00109   2.71150
   R44        2.69322   0.00100   0.00000   0.00080   0.00080   2.69402
   R45        2.63389  -0.00096   0.00000  -0.00071  -0.00071   2.63318
   R46        3.32945  -0.00075   0.00000  -0.00071  -0.00071   3.32874
   R47        2.05777  -0.00015   0.00000  -0.00013  -0.00013   2.05764
   R48        2.07279  -0.00173   0.00000  -0.00159  -0.00159   2.07120
   R49        2.07219  -0.00175   0.00000  -0.00160  -0.00160   2.07059
   R50        2.69178  -0.00256   0.00000  -0.00208  -0.00208   2.68970
   R51        2.56795  -0.00207   0.00000  -0.00139  -0.00139   2.56656
   R52        3.26183  -0.00142   0.00000  -0.00131  -0.00131   3.26052
   R53        2.58596  -0.00083   0.00000  -0.00060  -0.00060   2.58537
   R54        2.04284  -0.00071   0.00000  -0.00063  -0.00063   2.04221
   R55        2.68995   0.00076   0.00000   0.00061   0.00061   2.69056
   R56        2.04459  -0.00183   0.00000  -0.00163  -0.00163   2.04296
   R57        2.07278  -0.00131   0.00000  -0.00120  -0.00120   2.07158
   R58        2.05965  -0.00106   0.00000  -0.00095  -0.00095   2.05870
   R59        2.07182  -0.00103   0.00000  -0.00094  -0.00094   2.07089
    A1        2.03797   0.00150   0.00000   0.00060   0.00060   2.03856
    A2        2.14521  -0.00101   0.00000  -0.00059  -0.00059   2.14462
    A3        2.10001  -0.00049   0.00000  -0.00001  -0.00001   2.10000
    A4        2.10395   0.00764   0.00000   0.01004   0.01008   2.11402
    A5        2.08282  -0.00964   0.00000  -0.00748  -0.00741   2.07541
    A6        2.09624   0.00198   0.00000  -0.00260  -0.00271   2.09353
    A7        2.10093  -0.01007   0.00000  -0.01224  -0.01222   2.08870
    A8        2.07104   0.00028   0.00000  -0.00154  -0.00166   2.06939
    A9        2.11118   0.00979   0.00000   0.01378   0.01388   2.12506
   A10        2.10296   0.00523   0.00000   0.00634   0.00632   2.10929
   A11        2.09911   0.00374   0.00000   0.00357   0.00353   2.10264
   A12        2.08110  -0.00897   0.00000  -0.00990  -0.00985   2.07125
   A13        2.03739   0.00035   0.00000   0.00075   0.00073   2.03812
   A14        2.12972   0.00035   0.00000   0.00020   0.00022   2.12994
   A15        2.11607  -0.00070   0.00000  -0.00096  -0.00095   2.11512
   A16        2.15098   0.03115   0.00000   0.03326   0.03330   2.18428
   A17        2.04399  -0.01730   0.00000  -0.01910  -0.01910   2.02488
   A18        2.08722  -0.01385   0.00000  -0.01421  -0.01424   2.07298
   A19        2.11101   0.01347   0.00000   0.01563   0.01555   2.12656
   A20        2.04385  -0.02472   0.00000  -0.02915  -0.02916   2.01468
   A21        2.12832   0.01125   0.00000   0.01352   0.01361   2.14194
   A22        2.08678  -0.02694   0.00000  -0.02551  -0.02550   2.06129
   A23        2.04738  -0.04502   0.00000  -0.04824  -0.04804   1.99934
   A24        2.14662   0.07204   0.00000   0.07390   0.07369   2.22031
   A25        2.04892  -0.02014   0.00000  -0.01969  -0.01949   2.02943
   A26        2.00754  -0.11881   0.00000  -0.13323  -0.13330   1.87424
   A27        2.22643   0.13888   0.00000   0.15275   0.15262   2.37904
   A28        2.06022   0.02103   0.00000   0.02451   0.02466   2.08488
   A29        2.17370   0.03583   0.00000   0.03913   0.03905   2.21274
   A30        2.04919  -0.05689   0.00000  -0.06372  -0.06380   1.98539
   A31        2.01621  -0.00601   0.00000  -0.00908  -0.00932   2.00689
   A32        2.14188   0.00392   0.00000   0.00554   0.00565   2.14753
   A33        2.12500   0.00207   0.00000   0.00349   0.00360   2.12860
   A34        2.10943   0.00892   0.00000   0.01044   0.01031   2.11974
   A35        2.11468   0.01266   0.00000   0.01558   0.01566   2.13034
   A36        2.05896  -0.02158   0.00000  -0.02602  -0.02596   2.03300
   A37        2.11176   0.00310   0.00000   0.00345   0.00341   2.11517
   A38        2.05670  -0.00109   0.00000  -0.00109  -0.00107   2.05563
   A39        2.11471  -0.00200   0.00000  -0.00237  -0.00235   2.11237
   A40        2.08567  -0.00455   0.00000  -0.00721  -0.00730   2.07837
   A41        2.07549   0.00284   0.00000   0.00439   0.00444   2.07993
   A42        2.12199   0.00172   0.00000   0.00282   0.00287   2.12486
   A43        2.20043   0.00962   0.00000   0.00829   0.00820   2.20863
   A44        2.02023  -0.00385   0.00000  -0.00308  -0.00304   2.01719
   A45        2.06252  -0.00577   0.00000  -0.00521  -0.00517   2.05736
   A46        2.18316  -0.00465   0.00000  -0.00549  -0.00550   2.17765
   A47        2.02959   0.00249   0.00000   0.00293   0.00293   2.03252
   A48        2.07044   0.00216   0.00000   0.00256   0.00257   2.07301
   A49        1.91737   0.00000   0.00000   0.00003   0.00003   1.91740
   A50        1.91808   0.00013   0.00000   0.00022   0.00022   1.91830
   A51        1.87685   0.00057   0.00000   0.00073   0.00073   1.87758
   A52        1.88689   0.00029   0.00000   0.00053   0.00053   1.88742
   A53        1.93435  -0.00050   0.00000  -0.00077  -0.00077   1.93358
[...]
 Alpha  occ. eigenvalues --   -0.57313  -0.56867  -0.56711  -0.55406  -0.55001
 Alpha  occ. eigenvalues --   -0.53305  -0.51461  -0.50563  -0.49846  -0.49541
 Alpha  occ. eigenvalues --   -0.49328  -0.49197  -0.48654  -0.48589  -0.48473
 Alpha  occ. eigenvalues --   -0.48201  -0.47145  -0.46466  -0.46174  -0.45995
 Alpha  occ. eigenvalues --   -0.45767  -0.44808  -0.44366  -0.44007  -0.43189
 Alpha  occ. eigenvalues --   -0.43047  -0.42552  -0.42378  -0.42065  -0.41929
 Alpha  occ. eigenvalues --   -0.41621  -0.41141  -0.41027  -0.40435  -0.39841
 Alpha  occ. eigenvalues --   -0.39440  -0.39089  -0.39016  -0.37826  -0.37340
 Alpha  occ. eigenvalues --   -0.36707  -0.36276  -0.34719  -0.34362  -0.33705
 Alpha  occ. eigenvalues --   -0.33387  -0.31833  -0.30796  -0.30463  -0.29715
 Alpha  occ. eigenvalues --   -0.29169  -0.28596  -0.28508  -0.27754  -0.27366
 Alpha  occ. eigenvalues --   -0.26062  -0.25093  -0.25009  -0.19830
 Alpha virt. eigenvalues --   -0.12727  -0.08078  -0.06273  -0.04259  -0.03560
 Alpha virt. eigenvalues --   -0.00850  -0.00456  -0.00262  -0.00140   0.00366
 Alpha virt. eigenvalues --    0.00874   0.01186   0.01331   0.01803   0.01963
 Alpha virt. eigenvalues --    0.02079   0.02187   0.02567   0.02871   0.03281
 Alpha virt. eigenvalues --    0.03649   0.03765   0.03791   0.04154   0.04226
 Alpha virt. eigenvalues --    0.04645   0.04972   0.05201   0.05617   0.05843
 Alpha virt. eigenvalues --    0.06177   0.06285   0.06561   0.06787   0.07004
 Alpha virt. eigenvalues --    0.07220   0.07426   0.07809   0.07902   0.08142
 Alpha virt. eigenvalues --    0.08390   0.08559   0.08726   0.09188   0.09483
 Alpha virt. eigenvalues --    0.09849   0.10052   0.10216   0.10293   0.10852
 Alpha virt. eigenvalues --    0.11058   0.11204   0.11550   0.12063   0.12172
 Alpha virt. eigenvalues --    0.12341   0.12719   0.12770   0.13053   0.13216
 Alpha virt. eigenvalues --    0.13467   0.13599   0.13810   0.14116   0.14460
 Alpha virt. eigenvalues --    0.14733   0.15045   0.15160   0.15360   0.15457
 Alpha virt. eigenvalues --    0.15605   0.15781   0.16054   0.16262   0.16373
 Alpha virt. eigenvalues --    0.16650   0.16834   0.17412   0.17653   0.17749
 Alpha virt. eigenvalues --    0.17898   0.18194   0.18356   0.18506   0.18682
 Alpha virt. eigenvalues --    0.18832   0.19164   0.19264   0.19419   0.19533
 Alpha virt. eigenvalues --    0.19932   0.20028   0.20162   0.20366   0.20519
 Alpha virt. eigenvalues --    0.20739   0.20942   0.21047   0.21234   0.21774
 Alpha virt. eigenvalues --    0.21954   0.22159   0.22433   0.22565   0.22784
 Alpha virt. eigenvalues --    0.22937   0.22967   0.23249   0.23300   0.23426
 Alpha virt. eigenvalues --    0.24040   0.24161   0.24278   0.24557   0.24599
 Alpha virt. eigenvalues --    0.24775   0.24873   0.25247   0.25419   0.25542
 Alpha virt. eigenvalues --    0.25701   0.26092   0.26286   0.26334   0.26526
 Alpha virt. eigenvalues --    0.26695   0.26784   0.26954   0.27350   0.27587
 Alpha virt. eigenvalues --    0.27716   0.27963   0.27992   0.28290   0.28409
 Alpha virt. eigenvalues --    0.28596   0.29099   0.29320   0.29368   0.29646
 Alpha virt. eigenvalues --    0.29884   0.30111   0.30310   0.30670   0.30936
 Alpha virt. eigenvalues --    0.31436   0.31569   0.31894   0.32309   0.32597
 Alpha virt. eigenvalues --    0.32775   0.32905   0.33011   0.33325   0.33734
 Alpha virt. eigenvalues --    0.33873   0.34038   0.34539   0.34820   0.34907
 Alpha virt. eigenvalues --    0.35044   0.35671   0.35800   0.35889   0.36427
 Alpha virt. eigenvalues --    0.36555   0.37087   0.37362   0.37780   0.38471
 Alpha virt. eigenvalues --    0.38719   0.38883   0.39042   0.39629   0.39971
 Alpha virt. eigenvalues --    0.40150   0.40315   0.40805   0.41427   0.41989
 Alpha virt. eigenvalues --    0.42296   0.42622   0.42879   0.43142   0.43763
 Alpha virt. eigenvalues --    0.43826   0.44202   0.44690   0.45206   0.45483
 Alpha virt. eigenvalues --    0.45618   0.45843   0.46178   0.46928   0.47067
 Alpha virt. eigenvalues --    0.47447   0.48000   0.48640   0.49173   0.49476
 Alpha virt. eigenvalues --    0.49864   0.50223   0.50505   0.50632   0.51424
 Alpha virt. eigenvalues --    0.52174   0.52756   0.53268   0.53704   0.54323
 Alpha virt. eigenvalues --    0.54593   0.54939   0.55074   0.55244   0.55497
 Alpha virt. eigenvalues --    0.55947   0.56290   0.56424   0.56691   0.57039
 Alpha virt. eigenvalues --    0.57364   0.57852   0.58305   0.58672   0.58853
 Alpha virt. eigenvalues --    0.59587   0.60578   0.60889   0.61178   0.61306
 Alpha virt. eigenvalues --    0.61485   0.61742   0.62117   0.62456   0.62869
 Alpha virt. eigenvalues --    0.63137   0.63548   0.64105   0.64623   0.64922
 Alpha virt. eigenvalues --    0.65259   0.65502   0.65825   0.66137   0.66342
 Alpha virt. eigenvalues --    0.67061   0.67232   0.67674   0.68072   0.68430
 Alpha virt. eigenvalues --    0.69155   0.69175   0.69768   0.70008   0.70322
 Alpha virt. eigenvalues --    0.70494   0.70966   0.71342   0.71745   0.72195
 Alpha virt. eigenvalues --    0.72465   0.72944   0.73261   0.73514   0.74157
 Alpha virt. eigenvalues --    0.74466   0.74844   0.75110   0.75242   0.75629
 Alpha virt. eigenvalues --    0.75929   0.76504   0.76607   0.76865   0.77401
 Alpha virt. eigenvalues --    0.77782   0.78213   0.78905   0.79517   0.79951
 Alpha virt. eigenvalues --    0.80277   0.80722   0.81129   0.81881   0.82109
 Alpha virt. eigenvalues --    0.83522   0.83637   0.84105   0.85139   0.85703
 Alpha virt. eigenvalues --    0.86202   0.87272   0.87547   0.88448   0.88928
 Alpha virt. eigenvalues --    0.89572   0.89745   0.90285   0.90997   0.91585
 Alpha virt. eigenvalues --    0.92188   0.92328   0.92540   0.93048   0.93515
 Alpha virt. eigenvalues --    0.93930   0.94293   0.94500   0.94602   0.95390
 Alpha virt. eigenvalues --    0.95799   0.96581   0.97195   0.97313   0.97454
 Alpha virt. eigenvalues --    0.98106   0.98717   0.98955   0.99951   1.00000
 Alpha virt. eigenvalues --    1.00195   1.01164   1.01286   1.01788   1.02210
 Alpha virt. eigenvalues --    1.02384   1.03346   1.03786   1.04429   1.04979
 Alpha virt. eigenvalues --    1.05372   1.05470   1.05883   1.05931   1.06272
 Alpha virt. eigenvalues --    1.06964   1.07552   1.07769   1.08389   1.08852
 Alpha virt. eigenvalues --    1.09282   1.09803   1.09941   1.10745   1.11056
 Alpha virt. eigenvalues --    1.11851   1.12506   1.13139   1.14336   1.15202
 Alpha virt. eigenvalues --    1.15268   1.16723   1.17194   1.17242   1.17947
 Alpha virt. eigenvalues --    1.18829   1.19530   1.20027   1.21105   1.21835
 Alpha virt. eigenvalues --    1.22003   1.22946   1.23680   1.24155   1.24605
 Alpha virt. eigenvalues --    1.24916   1.25634   1.26263   1.26688   1.27089
 Alpha virt. eigenvalues --    1.28585   1.29161   1.29925   1.30728   1.31661
 Alpha virt. eigenvalues --    1.32468   1.33318   1.33383   1.34623   1.34736
 Alpha virt. eigenvalues --    1.35060   1.35809   1.36740   1.37470   1.38649
 Alpha virt. eigenvalues --    1.39737   1.41043   1.41542   1.41765   1.42254
 Alpha virt. eigenvalues --    1.42652   1.42978   1.43126   1.43310   1.44187
 Alpha virt. eigenvalues --    1.45078   1.45306   1.45987   1.46192   1.46681
 Alpha virt. eigenvalues --    1.46859   1.47893   1.48469   1.48747   1.49415
 Alpha virt. eigenvalues --    1.49657   1.51191   1.51605   1.52238   1.52722
 Alpha virt. eigenvalues --    1.53254   1.53360   1.53932   1.54660   1.54682
 Alpha virt. eigenvalues --    1.55269   1.55967   1.56253   1.57264   1.57381
 Alpha virt. eigenvalues --    1.58310   1.58786   1.59152   1.60803   1.61285
 Alpha virt. eigenvalues --    1.61492   1.62274   1.62526   1.63617   1.63827
 Alpha virt. eigenvalues --    1.65081   1.65712   1.66154   1.66514   1.67151
 Alpha virt. eigenvalues --    1.67831   1.68473   1.68865   1.69602   1.69875
 Alpha virt. eigenvalues --    1.70270   1.70452   1.70939   1.71666   1.72221
 Alpha virt. eigenvalues --    1.72714   1.73983   1.74711   1.75177   1.75415
 Alpha virt. eigenvalues --    1.76228   1.76444   1.77770   1.78244   1.78561
 Alpha virt. eigenvalues --    1.78816   1.79752   1.80357   1.81049   1.83082
 Alpha virt. eigenvalues --    1.83644   1.84273   1.84897   1.85438   1.85677
 Alpha virt. eigenvalues --    1.86291   1.87082   1.87455   1.88331   1.89027
 Alpha virt. eigenvalues --    1.89432   1.90131   1.90656   1.91162   1.91994
 Alpha virt. eigenvalues --    1.92640   1.93508   1.94181   1.94488   1.95518
 Alpha virt. eigenvalues --    1.96059   1.96494   1.96904   1.97762   1.99141
 Alpha virt. eigenvalues --    1.99826   2.00226   2.01156   2.01625   2.02373
 Alpha virt. eigenvalues --    2.02658   2.03261   2.03533   2.04296   2.05008
 Alpha virt. eigenvalues --    2.05962   2.06459   2.06632   2.07248   2.08379
 Alpha virt. eigenvalues --    2.08786   2.09396   2.10168   2.10837   2.11458
 Alpha virt. eigenvalues --    2.13017   2.13284   2.14258   2.14733   2.15203
 Alpha virt. eigenvalues --    2.15463   2.16711   2.18418   2.18682   2.19125
 Alpha virt. eigenvalues --    2.20474   2.21256   2.21853   2.22043   2.22810
 Alpha virt. eigenvalues --    2.24025   2.25285   2.26248   2.26965   2.29715
 Alpha virt. eigenvalues --    2.32058   2.32272   2.34971   2.35879   2.38400
 Alpha virt. eigenvalues --    2.38669   2.38986   2.40648   2.41675   2.42755
 Alpha virt. eigenvalues --    2.43249   2.43727   2.45017   2.45968   2.45972
 Alpha virt. eigenvalues --    2.46326   2.47497   2.48193   2.48519   2.49483
 Alpha virt. eigenvalues --    2.50515   2.51194   2.51834   2.52444   2.52630
 Alpha virt. eigenvalues --    2.53639   2.53910   2.54252   2.55087   2.56766
 Alpha virt. eigenvalues --    2.57191   2.58226   2.58827   2.59274   2.61406
 Alpha virt. eigenvalues --    2.62674   2.63257   2.63824   2.65005   2.66203
 Alpha virt. eigenvalues --    2.66649   2.67305   2.67575   2.68636   2.68777
 Alpha virt. eigenvalues --    2.69167   2.69490   2.70717   2.71441   2.71852
 Alpha virt. eigenvalues --    2.72355   2.73257   2.73535   2.73798   2.75603
 Alpha virt. eigenvalues --    2.76459   2.77003   2.77387   2.79378   2.80699
 Alpha virt. eigenvalues --    2.81560   2.81920   2.82323   2.83049   2.83734
 Alpha virt. eigenvalues --    2.84521   2.84813   2.85482   2.85683   2.86823
 Alpha virt. eigenvalues --    2.88016   2.88566   2.89357   2.89843   2.90969
 Alpha virt. eigenvalues --    2.91386   2.91923   2.92255   2.93417   2.94684
 Alpha virt. eigenvalues --    2.95094   2.95154   2.95883   2.97643   2.99956
 Alpha virt. eigenvalues --    3.01007   3.02169   3.02638   3.03734   3.04373
 Alpha virt. eigenvalues --    3.05280   3.07070   3.07726   3.09596   3.10747
 Alpha virt. eigenvalues --    3.11964   3.13446   3.14274   3.14941   3.15246
 Alpha virt. eigenvalues --    3.17007   3.17648   3.18009   3.20533   3.22511
 Alpha virt. eigenvalues --    3.22828   3.23451   3.24017   3.24720   3.26875
 Alpha virt. eigenvalues --    3.28604   3.29225   3.30660   3.32207   3.34774
 Alpha virt. eigenvalues --    3.35303   3.35675   3.35971   3.36278   3.38069
 Alpha virt. eigenvalues --    3.39493   3.40759   3.40919   3.42621   3.43959
 Alpha virt. eigenvalues --    3.44465   3.45535   3.45919   3.48899   3.49659
 Alpha virt. eigenvalues --    3.51071   3.53205   3.55354   3.58599   3.60639
 Alpha virt. eigenvalues --    3.60660   3.62386   3.65253   3.65907   3.67110
 Alpha virt. eigenvalues --    3.68826   3.69923   3.72712   3.74117   3.75780
 Alpha virt. eigenvalues --    3.76209   3.76762   3.80441   3.82862   3.84579
 Alpha virt. eigenvalues --    3.85404   3.86154   3.90526   3.90995   3.93108
 Alpha virt. eigenvalues --    3.93491   3.94837   3.96974   4.01961   4.03065
 Alpha virt. eigenvalues --    4.03864   4.08067   4.10084   4.12681   4.14607
 Alpha virt. eigenvalues --    4.20118   4.23971   4.25551   4.27769   4.35538
 Alpha virt. eigenvalues --    4.39574   4.41107   4.53337   4.72003   4.84665
 Alpha virt. eigenvalues --    4.85021   4.87429   4.89918   5.00638   5.01994
 Alpha virt. eigenvalues --    5.04231   5.05792   5.06988   5.10315   5.11409
 Alpha virt. eigenvalues --    5.12479   5.25372   5.27238   5.29500   5.31856
 Alpha virt. eigenvalues --    5.41803   5.43090   5.76318   5.76698   5.79652
 Alpha virt. eigenvalues --    5.80433   5.82925   5.84090   8.02491   8.04559
 Alpha virt. eigenvalues --   17.28330  17.30312  17.49542  17.52232  17.58348
 Alpha virt. eigenvalues --   17.64282  23.49057  23.56555  23.71035  23.78706
 Alpha virt. eigenvalues --   23.82582  23.83493  23.84795  23.87227  23.87636
 Alpha virt. eigenvalues --   23.88515  23.89418  23.90238  23.91390  23.93331
 Alpha virt. eigenvalues --   23.94845  23.95236  23.96304  23.97592  24.01438
 Alpha virt. eigenvalues --   24.01861  24.02298  24.05574  24.12286  24.14247
 Alpha virt. eigenvalues --   24.15225  24.15474  35.55940  35.58372  49.95770
 Alpha virt. eigenvalues --   49.98016  50.02723  50.03781  50.06018  50.07225
 Alpha virt. eigenvalues --  189.19890 189.22500
          Condensed to atoms (all electrons):
 Mulliken charges:
               1
     1  C    0.386977
     2  C    0.000794
     3  C    0.036361
     4  C    0.307566
     5  C    0.297014
     6  C   -0.098462
     7  C    0.070454
     8  C    0.329716
     9  C    0.131567
    10  C   -0.417141
    11  C    0.258022
    12  C    0.194878
    13  C   -0.468311
    14  C   -0.661883
    15  H    0.158170
    16  H    0.160917
    17  H    0.171050
    18  N   -0.069399
    19  N   -0.141298
    20  O   -0.284921
    21  O   -0.270381
    22  O   -0.285700
    23  O   -0.275099
    24  C   -0.166426
    25  H    0.176683
    26  H    0.166749
    27  H    0.182935
    28  C   -0.196018
    29  H    0.173270
    30  H    0.173477
    31  H    0.181993
    32  C   -0.103086
    33  C   -0.051234
    34  S   -0.748543
    35  C   -0.398546
    36  H    0.186769
    37  C    0.642745
    38  O   -0.138067
    39  C    0.840230
    40  C   -0.234747
    41  C    0.020364
    42  S   -0.223709
    43  H    0.166411
    44  H    0.149080
    45  H    0.159019
    46  C   -0.581459
    47  O   -0.123741
    48  C   -0.307217
    49  H    0.133940
    50  C   -0.242992
    51  H    0.163634
    52  H    0.147292
    53  H    0.174385
    54  H    0.145917
 Sum of Mulliken charges =  -0.00000
 Mulliken charges with hydrogens summed into heavy atoms:
               1
     1  C    0.386977
     2  C    0.000794
     3  C    0.036361
     4  C    0.307566
     5  C    0.297014
     6  C    0.072588
     7  C    0.070454
     8  C    0.329716
     9  C    0.131567
    10  C   -0.417141
    11  C    0.258022
    12  C    0.194878
    13  C   -0.307394
    14  C   -0.503713
    18  N   -0.069399
    19  N   -0.141298
    20  O   -0.284921
    21  O   -0.270381
    22  O   -0.285700
    23  O   -0.275099
    24  C    0.359941
    28  C    0.332722
    32  C   -0.103086
    33  C    0.135535
    34  S   -0.748543
    35  C   -0.398546
    37  C    0.642745
    38  O   -0.138067
    39  C    0.840230
    40  C    0.239764
    41  C    0.020364
    42  S   -0.223709
    46  C   -0.447519
    47  O   -0.123741
    48  C   -0.143583
    50  C    0.224601
 Electronic spatial extent (au):  <R**2>=          22360.1765
 Charge=             -0.0000 electrons
 Dipole moment (field-independent basis, Debye):
    X=              5.8412    Y=             -0.7766    Z=             -0.4278  Tot=              5.9081
 Quadrupole moment (field-independent basis, Debye-Ang):
   XX=           -214.5806   YY=           -206.2429   ZZ=           -225.5329
   XY=             -5.0854   XZ=             -5.7443   YZ=              1.2032
 Traceless Quadrupole moment (field-independent basis, Debye-Ang):
   XX=              0.8715   YY=              9.2092   ZZ=            -10.0807
   XY=             -5.0854   XZ=             -5.7443   YZ=              1.2032
 Octapole moment (field-independent basis, Debye-Ang**2):
  XXX=            394.3267  YYY=            -14.7607  ZZZ=              4.0369  XYY=            154.6990
  XXY=            -81.4106  XXZ=             11.8890  XZZ=            -12.0044  YZZ=             -5.8413
  YYZ=             -0.5887  XYZ=             -1.7892
 Hexadecapole moment (field-independent basis, Debye-Ang**3):
 XXXX=         -20443.1751 YYYY=          -8010.9430 ZZZZ=           -394.5030 XXXY=           -563.1098
 XXXZ=           -224.2920 YYYX=            167.8052 YYYZ=             50.3316 ZZZX=              8.4801
 ZZZY=             -1.8168 XXYY=          -4948.1905 XXZZ=          -3731.4119 YYZZ=          -1522.3244
 XXYZ=             49.6189 YYXZ=           -107.6948 ZZXY=             27.4562
 N-N= 4.088999850367D+03 E-N=-1.371791064242D+04  KE= 2.352056112769D+03
 Unable to Open any file for archive entry.
 1\1\GINC-CX3-5-9\FOpt\RB3LYP\6-311+G(d,p)\C26H18N2O6S2\NS5018\26-Nov-2
 020\0\\# opt=modredundant b3lyp/6-311+g(d,p)\\NDI_5.pdb\\0,1\C,-2.4683
 475788,-2.9579107288,-0.3667814311\C,-2.2025262615,-1.5079432867,-0.17
 27888059\C,-3.2706756953,-0.5883380204,-0.0723903118\C,-4.6029696006,-
 1.0250808358,-0.1972605042\C,-4.906388905,-2.4649174206,-0.4142678518\
 C,-0.9117546082,-1.0666420854,-0.1168049851\C,-2.9607511881,0.77867703
 7,0.1644685833\C,-1.6036748131,1.2199604983,0.3028390817\C,-0.53296635
 37,0.304976316,0.0612153798\C,-1.4208904333,2.6135009622,0.7744986383\
 C,-3.8367236488,3.123108142,0.4572164846\C,-4.0549088118,1.6792985041,
 0.236981137\C,-5.3627654919,1.2351337003,0.0898341812\C,-5.6468167481,
 -0.1155086933,-0.1181975805\H,-6.6646216272,-0.4682605605,-0.221927989
 2\H,-6.156400835,1.9696815503,0.1419866006\H,-0.1509371751,-1.82876998
 88,-0.2173686144\N,-2.5157874806,3.4930792865,0.7081085165\N,-3.808711
 3218,-3.3411931844,-0.477082027\O,-1.581174302,-3.7892345141,-0.435321
 3198\O,-6.0458505747,-2.8756298638,-0.5280104461\O,-4.7417528255,3.940
 3239365,0.4485693128\O,-0.3803878793,3.0502558587,1.244107156\C,-2.248
 1720377,4.8900602501,1.0779765259\H,-2.0005789824,4.9599793644,2.13828
 43281\H,-1.4029330339,5.2633935108,0.5015834984\H,-3.1441645128,5.4642
 175403,0.8638050664\C,-4.0630544174,-4.7747126239,-0.6778342005\H,-3.5
 680079821,-5.1119824652,-1.588746865\H,-3.6612624673,-5.3411152411,0.1
 626857909\H,-5.136517017,-4.9158433465,-0.7532697199\C,0.8958059298,0.
 564586412,-0.1069202027\C,1.6778128138,1.7071200535,-0.0054202844\S,1.
 9142417515,-0.7766428494,-0.6699233488\C,3.0221762463,1.5160962624,-0.
 358359267\H,1.2844629974,2.6396223623,0.3517364397\C,3.3437448351,0.21
 46441323,-0.7486212436\O,4.0002138398,2.4578013342,-0.3373082595\C,4.6
 238718297,-0.2913885964,-1.1484675704\C,3.6527184554,3.7753337204,0.08
 67191903\C,4.9454040766,-1.5960324082,-1.5162758191\S,6.0668584407,0.7
 133176597,-1.2399873308\H,4.5736183043,4.3536585445,0.0410137121\H,2.9
 07588761,4.2177874942,-0.5813877008\H,3.2705204177,3.7703709841,1.1116
 849162\C,6.3115689351,-1.7825069627,-1.8601894003\O,3.975572658,-2.542
 2773792,-1.5200294665\C,7.027090577,-0.6213988231,-1.7554306736\H,6.74
 35475546,-2.7230997728,-2.1687423147\C,4.3310630815,-3.8768120362,-1.8
 753663443\H,8.0780993549,-0.4772290996,-1.9544012016\H,5.0768652042,-4
 .2812418807,-1.1840212055\H,3.4138455386,-4.4576621743,-1.8015417421\H
 ,4.7107830067,-3.9216105755,-2.9008685119\\Version=ES64L-G16RevC.01\St
 ate=1-A\HF=-2359.335261\RMSD=8.872e-09\RMSF=3.167e-05\Dipole=2.2449704
 ,-0.2979769,-0.5237271\Quadrupole=-0.8160141,5.9521866,-5.1361725,-2.2
 211642,-5.6518268,4.1177876\PG=C01 [X(C26H18N2O6S2)]\\@
 The archive entry for this job was punched.


 NATURE WILL TELL YOU A DIRECT LIE IF SHE CAN.

                                -- CHARLES DARWIN
 Job cpu time:       2 days  1 hours 47 minutes 30.9 seconds.
 Elapsed time:       0 days  3 hours  8 minutes 15.3 seconds.
 File lengths (MBytes):  RWF=    496 Int=      0 D2E=      0 Chk=     70 Scr=      1
 Normal termination of Gaussian 16 at Thu Nov 26 12:55:06 2020.
