 Entering Gaussian System, Link 0=g16
 Input=NDI_80.gjf
 Output=NDI_80.log
 Initial command:
 /apps/gaussian/g16-c01-avx/g16/l1.exe "/tmp/pbs.2610758[52].pbs/Gau-1959018.inp" -scrdir="/tmp/pbs.2610758[52].pbs/"
 Entering Link 1 = /apps/gaussian/g16-c01-avx/g16/l1.exe PID=   1959019.
  
 Copyright (c) 1988-2019, Gaussian, Inc.  All Rights Reserved.
  
 This is part of the Gaussian(R) 16 program.  It is based on
 the Gaussian(R) 09 system (copyright 2009, Gaussian, Inc.),
 the Gaussian(R) 03 system (copyright 2003, Gaussian, Inc.),
 the Gaussian(R) 98 system (copyright 1998, Gaussian, Inc.),
 the Gaussian(R) 94 system (copyright 1995, Gaussian, Inc.),
 the Gaussian 92(TM) system (copyright 1992, Gaussian, Inc.),
 the Gaussian 90(TM) system (copyright 1990, Gaussian, Inc.),
 the Gaussian 88(TM) system (copyright 1988, Gaussian, Inc.),
 the Gaussian 86(TM) system (copyright 1986, Carnegie Mellon
 University), and the Gaussian 82(TM) system (copyright 1983,
 Carnegie Mellon University). Gaussian is a federally registered
 trademark of Gaussian, Inc.
  
 This software contains proprietary and confidential information,
 including trade secrets, belonging to Gaussian, Inc.
  
 This software is provided under written license and may be
 used, copied, transmitted, or stored only in accord with that
 written license.
  
 The following legend is applicable only to US Government
 contracts under FAR:
  
                    RESTRICTED RIGHTS LEGEND
  
 Use, reproduction and disclosure by the US Government is
 subject to restrictions as set forth in subparagraphs (a)
 and (c) of the Commercial Computer Software - Restricted
 Rights clause in FAR 52.227-19.
  
 Gaussian, Inc.
 340 Quinnipiac St., Bldg. 40, Wallingford CT 06492
  
  
 ---------------------------------------------------------------
 Warning -- This program may not be used in any manner that
 competes with the business of Gaussian, Inc. or will provide
 assistance to any competitor of Gaussian, Inc.  The licensee
 of this program is prohibited from giving any competitor of
 Gaussian, Inc. access to this program.  By using this program,
 the user acknowledges that Gaussian, Inc. is engaged in the
 business of creating and licensing software in the field of
 computational chemistry and represents and warrants to the
 licensee that it is not a competitor of Gaussian, Inc. and that
 it will not use this program in any manner prohibited above.
 ---------------------------------------------------------------
  

 Cite this work as:
 Gaussian 16, Revision C.01,
 M. J. Frisch, G. W. Trucks, H. B. Schlegel, G. E. Scuseria, 
 M. A. Robb, J. R. Cheeseman, G. Scalmani, V. Barone, 
 G. A. Petersson, H. Nakatsuji, X. Li, M. Caricato, A. V. Marenich, 
 J. Bloino, B. G. Janesko, R. Gomperts, B. Mennucci, H. P. Hratchian, 
 J. V. Ortiz, A. F. Izmaylov, J. L. Sonnenberg, D. Williams-Young, 
 F. Ding, F. Lipparini, F. Egidi, J. Goings, B. Peng, A. Petrone, 
 T. Henderson, D. Ranasinghe, V. G. Zakrzewski, J. Gao, N. Rega, 
 G. Zheng, W. Liang, M. Hada, M. Ehara, K. Toyota, R. Fukuda, 
 J. Hasegawa, M. Ishida, T. Nakajima, Y. Honda, O. Kitao, H. Nakai, 
 T. Vreven, K. Throssell, J. A. Montgomery, Jr., J. E. Peralta, 
 F. Ogliaro, M. J. Bearpark, J. J. Heyd, E. N. Brothers, K. N. Kudin, 
 V. N. Staroverov, T. A. Keith, R. Kobayashi, J. Normand, 
 K. Raghavachari, A. P. Rendell, J. C. Burant, S. S. Iyengar, 
 J. Tomasi, M. Cossi, J. M. Millam, M. Klene, C. Adamo, R. Cammi, 
 J. W. Ochterski, R. L. Martin, K. Morokuma, O. Farkas, 
 J. B. Foresman, and D. J. Fox, Gaussian, Inc., Wallingford CT, 2019.
 
 ******************************************
 Gaussian 16:  ES64L-G16RevC.01  3-Jul-2019
                26-Nov-2020 
 ******************************************
 %mem=10GB
 %nprocshared=16
 Will use up to   16 processors via shared memory.
 -------------------------------------
 # opt=modredundant b3lyp/6-311+g(d,p)
 -------------------------------------
 1/18=120,19=15,26=3,38=1/1,3;
 2/9=110,12=2,17=6,18=5,40=1/2;
 3/5=4,6=6,7=111,11=2,25=1,30=1,71=1,74=-5/1,2,3;
 4//1;
 5/5=2,38=5/2;
 6/7=2,8=2,9=2,10=2,28=1/1;
 7//1,2,3,16;
 1/18=20,19=15,26=3/3(2);
 2/9=110/2;
 99//99;
 2/9=110/2;
 3/5=4,6=6,7=111,11=2,25=1,30=1,71=1,74=-5/1,2,3;
 4/5=5,16=3,69=1/1;
 5/5=2,38=5/2;
 7//1,2,3,16;
 1/18=20,19=15,26=3/3(-5);
 2/9=110/2;
 6/7=2,8=2,9=2,10=2,19=2,28=1/1;
 99/9=1/99;
 ----------
 NDI_80.pdb
 ----------
 Symbolic Z-matrix:
 Charge =  0 Multiplicity = 1
 C                    -2.563    -2.994    -0.409 
 C                    -2.257    -1.551    -0.224 
 C                    -3.301    -0.607    -0.083 
 C                    -4.65     -1.024    -0.115 
 C                    -4.992    -2.459    -0.304 
 C                    -0.949    -1.137    -0.215 
 C                    -2.962     0.764     0.102 
 C                    -1.595     1.188     0.123 
 C                    -0.561     0.232    -0.072 
 C                    -1.328     2.616     0.446 
 C                    -3.777     3.115     0.508 
 C                    -4.035     1.679     0.268 
 C                    -5.356     1.252     0.23 
 C                    -5.672    -0.098     0.036 
 H                    -6.699    -0.442     0.008 
 H                    -6.133     1.997     0.361 
 H                    -0.19     -1.895    -0.369 
 N                    -2.432     3.476     0.608 
 N                    -3.916    -3.353    -0.438 
 O                    -1.695    -3.847    -0.532 
 O                    -6.149    -2.85     -0.34 
 O                    -4.676     3.938     0.629 
 O                    -0.212     3.097     0.596 
 C                    -2.111     4.875     0.912 
 H                    -1.54      4.931     1.84 
 H                    -1.5       5.299     0.111 
 H                    -3.05      5.414     1.003 
 C                    -4.206    -4.779    -0.625 
 H                    -3.759    -5.126    -1.559 
 H                    -3.775    -5.355     0.196 
 H                    -5.286    -4.897    -0.649 
 C                     0.876     0.482    -0.178 
 C                     1.829     0.708     0.796 
 S                     1.586     0.693    -1.779 
 C                     3.097     1.036     0.279 
 H                     1.616     0.629     1.85 
 C                     3.161     1.067    -1.118 
 O                     4.217     1.313     0.998 
 C                     4.311     1.324    -1.938 
 C                     4.154     1.134     2.41 
 C                     4.368     1.378    -3.33 
 S                     5.914     1.63     -1.277 
 H                     5.16      1.326     2.782 
 H                     3.455     1.843     2.869 
 H                     3.854     0.11      2.666 
 C                     5.664     1.655    -3.85 
 O                     3.235     1.166    -4.049 
 C                     6.59      1.814    -2.855 
 H                     5.897     1.735    -4.903 
 C                     3.317     1.261    -5.467 
 H                     7.644     2.033    -2.966 
 H                     4.003     0.509    -5.877 
 H                     2.311     1.075    -5.84 
 H                     3.643     2.261    -5.78 
 
 The following ModRedundant input section has been read:
 D       8       9      32      33 F                                           
 

 GradGradGradGradGradGradGradGradGradGradGradGradGradGradGradGradGradGrad
 Berny optimization.
 Initialization pass.
                           ----------------------------
                           !    Initial Parameters    !
                           ! (Angstroms and Degrees)  !
 --------------------------                            --------------------------
 ! Name  Definition              Value          Derivative Info.                !
 --------------------------------------------------------------------------------
 ! R1    R(1,2)                  1.4866         estimate D2E/DX2                !
 ! R2    R(1,19)                 1.4001         estimate D2E/DX2                !
 ! R3    R(1,20)                 1.2232         estimate D2E/DX2                !
 ! R4    R(2,3)                  1.4146         estimate D2E/DX2                !
 ! R5    R(2,6)                  1.372          estimate D2E/DX2                !
 ! R6    R(3,4)                  1.4123         estimate D2E/DX2                !
 ! R7    R(3,7)                  1.4244         estimate D2E/DX2                !
 ! R8    R(4,5)                  1.4872         estimate D2E/DX2                !
 ! R9    R(4,14)                 1.3874         estimate D2E/DX2                !
 ! R10   R(5,19)                 1.4053         estimate D2E/DX2                !
 ! R11   R(5,21)                 1.2218         estimate D2E/DX2                !
 ! R12   R(6,9)                  1.4301         estimate D2E/DX2                !
 ! R13   R(6,17)                 1.0837         estimate D2E/DX2                !
 ! R14   R(7,8)                  1.4314         estimate D2E/DX2                !
 ! R15   R(7,12)                 1.4199         estimate D2E/DX2                !
 ! R16   R(8,9)                  1.4217         estimate D2E/DX2                !
 ! R17   R(8,10)                 1.4882         estimate D2E/DX2                !
 ! R18   R(9,32)                 1.4624         estimate D2E/DX2                !
 ! R19   R(10,18)                1.4088         estimate D2E/DX2                !
 ! R20   R(10,23)                1.2245         estimate D2E/DX2                !
 ! R21   R(11,12)                1.4786         estimate D2E/DX2                !
 ! R22   R(11,18)                1.3962         estimate D2E/DX2                !
 ! R23   R(11,22)                1.2248         estimate D2E/DX2                !
 ! R24   R(12,13)                1.3888         estimate D2E/DX2                !
 ! R25   R(13,14)                1.4            estimate D2E/DX2                !
 ! R26   R(13,16)                1.0844         estimate D2E/DX2                !
 ! R27   R(14,15)                1.0834         estimate D2E/DX2                !
 ! R28   R(18,24)                1.4672         estimate D2E/DX2                !
 ! R29   R(19,28)                1.4672         estimate D2E/DX2                !
 ! R30   R(24,25)                1.091          estimate D2E/DX2                !
 ! R31   R(24,26)                1.093          estimate D2E/DX2                !
 ! R32   R(24,27)                1.0865         estimate D2E/DX2                !
 ! R33   R(28,29)                1.0921         estimate D2E/DX2                !
 ! R34   R(28,30)                1.0916         estimate D2E/DX2                !
 ! R35   R(28,31)                1.0867         estimate D2E/DX2                !
 ! R36   R(32,33)                1.3813         estimate D2E/DX2                !
 ! R37   R(32,34)                1.764          estimate D2E/DX2                !
 ! R38   R(33,35)                1.4081         estimate D2E/DX2                !
 ! R39   R(33,36)                1.0782         estimate D2E/DX2                !
 ! R40   R(34,37)                1.7485         estimate D2E/DX2                !
 ! R41   R(35,37)                1.3988         estimate D2E/DX2                !
 ! R42   R(35,38)                1.3594         estimate D2E/DX2                !
 ! R43   R(37,39)                1.4356         estimate D2E/DX2                !
 ! R44   R(38,40)                1.4247         estimate D2E/DX2                !
 ! R45   R(39,41)                1.3942         estimate D2E/DX2                !
 ! R46   R(39,42)                1.7607         estimate D2E/DX2                !
 ! R47   R(40,43)                1.0896         estimate D2E/DX2                !
 ! R48   R(40,44)                1.0963         estimate D2E/DX2                !
 ! R49   R(40,45)                1.0973         estimate D2E/DX2                !
 ! R50   R(41,46)                1.4236         estimate D2E/DX2                !
 ! R51   R(41,47)                1.3585         estimate D2E/DX2                !
 ! R52   R(42,48)                1.7265         estimate D2E/DX2                !
 ! R53   R(46,48)                1.3685         estimate D2E/DX2                !
 ! R54   R(46,49)                1.0814         estimate D2E/DX2                !
 ! R55   R(47,50)                1.4235         estimate D2E/DX2                !
 ! R56   R(48,51)                1.0822         estimate D2E/DX2                !
 ! R57   R(50,52)                1.0974         estimate D2E/DX2                !
 ! R58   R(50,53)                1.0889         estimate D2E/DX2                !
 ! R59   R(50,54)                1.0974         estimate D2E/DX2                !
 ! A1    A(2,1,19)             116.767          estimate D2E/DX2                !
 ! A2    A(2,1,20)             122.9113         estimate D2E/DX2                !
 ! A3    A(19,1,20)            120.3217         estimate D2E/DX2                !
 ! A4    A(1,2,3)              120.5473         estimate D2E/DX2                !
 ! A5    A(1,2,6)              119.3369         estimate D2E/DX2                !
 ! A6    A(3,2,6)              120.1056         estimate D2E/DX2                !
 ! A7    A(2,3,4)              120.3743         estimate D2E/DX2                !
 ! A8    A(2,3,7)              118.662          estimate D2E/DX2                !
 ! A9    A(4,3,7)              120.9617         estimate D2E/DX2                !
 ! A10   A(3,4,5)              120.4909         estimate D2E/DX2                !
 ! A11   A(3,4,14)             120.2702         estimate D2E/DX2                !
 ! A12   A(5,4,14)             119.2382         estimate D2E/DX2                !
 ! A13   A(4,5,19)             116.7341         estimate D2E/DX2                !
 ! A14   A(4,5,21)             122.024          estimate D2E/DX2                !
 ! A15   A(19,5,21)            121.2418         estimate D2E/DX2                !
 ! A16   A(2,6,9)              123.2421         estimate D2E/DX2                !
 ! A17   A(2,6,17)             117.1119         estimate D2E/DX2                !
 ! A18   A(9,6,17)             119.589          estimate D2E/DX2                !
 ! A19   A(3,7,8)              120.9519         estimate D2E/DX2                !
 ! A20   A(3,7,12)             117.1037         estimate D2E/DX2                !
 ! A21   A(8,7,12)             121.944          estimate D2E/DX2                !
 ! A22   A(7,8,9)              119.5639         estimate D2E/DX2                !
 ! A23   A(7,8,10)             117.3064         estimate D2E/DX2                !
 ! A24   A(9,8,10)             122.9922         estimate D2E/DX2                !
 ! A25   A(6,9,8)              117.3944         estimate D2E/DX2                !
 ! A26   A(6,9,32)             115.0236         estimate D2E/DX2                !
 ! A27   A(8,9,32)             127.5648         estimate D2E/DX2                !
 ! A28   A(8,10,18)            118.042          estimate D2E/DX2                !
 ! A29   A(8,10,23)            124.5436         estimate D2E/DX2                !
 ! A30   A(18,10,23)           117.4097         estimate D2E/DX2                !
 ! A31   A(12,11,18)           115.5202         estimate D2E/DX2                !
 ! A32   A(12,11,22)           122.7205         estimate D2E/DX2                !
 ! A33   A(18,11,22)           121.7534         estimate D2E/DX2                !
 ! A34   A(7,12,11)            120.8614         estimate D2E/DX2                !
 ! A35   A(7,12,13)            121.162          estimate D2E/DX2                !
 ! A36   A(11,12,13)           117.9699         estimate D2E/DX2                !
 ! A37   A(12,13,14)           120.9948         estimate D2E/DX2                !
 ! A38   A(12,13,16)           117.8401         estimate D2E/DX2                !
 ! A39   A(14,13,16)           121.1642         estimate D2E/DX2                !
 ! A40   A(4,14,13)            119.5003         estimate D2E/DX2                !
 ! A41   A(4,14,15)            118.9169         estimate D2E/DX2                !
 ! A42   A(13,14,15)           121.5811         estimate D2E/DX2                !
 ! A43   A(10,18,11)           126.0753         estimate D2E/DX2                !
 ! A44   A(10,18,24)           115.7508         estimate D2E/DX2                !
 ! A45   A(11,18,24)           118.1737         estimate D2E/DX2                !
 ! A46   A(1,19,5)             125.0856         estimate D2E/DX2                !
 ! A47   A(1,19,28)            116.2868         estimate D2E/DX2                !
 ! A48   A(5,19,28)            118.6276         estimate D2E/DX2                !
 ! A49   A(18,24,25)           109.8574         estimate D2E/DX2                !
 ! A50   A(18,24,26)           109.8979         estimate D2E/DX2                !
 ! A51   A(18,24,27)           107.5355         estimate D2E/DX2                !
 ! A52   A(25,24,26)           108.1108         estimate D2E/DX2                !
 ! A53   A(25,24,27)           110.8301         estimate D2E/DX2                !
 ! A54   A(26,24,27)           110.6124         estimate D2E/DX2                !
 ! A55   A(19,28,29)           109.6906         estimate D2E/DX2                !
 ! A56   A(19,28,30)           109.8136         estimate D2E/DX2                !
 ! A57   A(19,28,31)           107.7461         estimate D2E/DX2                !
 ! A58   A(29,28,30)           108.2991         estimate D2E/DX2                !
 ! A59   A(29,28,31)           110.6959         estimate D2E/DX2                !
 ! A60   A(30,28,31)           110.5924         estimate D2E/DX2                !
 ! A61   A(9,32,33)            130.9043         estimate D2E/DX2                !
 ! A62   A(9,32,34)            118.7976         estimate D2E/DX2                !
 ! A63   A(33,32,34)           110.042          estimate D2E/DX2                !
 ! A64   A(32,33,35)           113.6099         estimate D2E/DX2                !
 ! A65   A(32,33,36)           122.7533         estimate D2E/DX2                !
 ! A66   A(35,33,36)           123.6342         estimate D2E/DX2                !
 ! A67   A(32,34,37)            92.581          estimate D2E/DX2                !
 ! A68   A(33,35,37)           114.3969         estimate D2E/DX2                !
 ! A69   A(33,35,38)           126.5252         estimate D2E/DX2                !
 ! A70   A(37,35,38)           119.0779         estimate D2E/DX2                !
 ! A71   A(34,37,35)           109.3651         estimate D2E/DX2                !
 ! A72   A(34,37,39)           122.9506         estimate D2E/DX2                !
 ! A73   A(35,37,39)           127.6669         estimate D2E/DX2                !
 ! A74   A(35,38,40)           117.5258         estimate D2E/DX2                !
 ! A75   A(37,39,41)           127.5871         estimate D2E/DX2                !
 ! A76   A(37,39,42)           123.0916         estimate D2E/DX2                !
 ! A77   A(41,39,42)           109.3213         estimate D2E/DX2                !
 ! A78   A(38,40,43)           105.9855         estimate D2E/DX2                !
 ! A79   A(38,40,44)           111.2155         estimate D2E/DX2                !
 ! A80   A(38,40,45)           111.1341         estimate D2E/DX2                !
 ! A81   A(43,40,44)           109.3755         estimate D2E/DX2                !
 ! A82   A(43,40,45)           109.7062         estimate D2E/DX2                !
 ! A83   A(44,40,45)           109.3601         estimate D2E/DX2                !
 ! A84   A(39,41,46)           114.1694         estimate D2E/DX2                !
 ! A85   A(39,41,47)           119.2269         estimate D2E/DX2                !
 ! A86   A(46,41,47)           126.6031         estimate D2E/DX2                !
 ! A87   A(39,42,48)            91.8261         estimate D2E/DX2                !
 ! A88   A(41,46,48)           111.9022         estimate D2E/DX2                !
 ! A89   A(41,46,49)           124.4849         estimate D2E/DX2                !
 ! A90   A(48,46,49)           123.6126         estimate D2E/DX2                !
 ! A91   A(41,47,50)           117.9522         estimate D2E/DX2                !
 ! A92   A(42,48,46)           112.7809         estimate D2E/DX2                !
 ! A93   A(42,48,51)           119.7777         estimate D2E/DX2                !
 ! A94   A(46,48,51)           127.4413         estimate D2E/DX2                !
 ! A95   A(47,50,52)           111.2505         estimate D2E/DX2                !
 ! A96   A(47,50,53)           106.0568         estimate D2E/DX2                !
 ! A97   A(47,50,54)           111.2255         estimate D2E/DX2                !
 ! A98   A(52,50,53)           109.4203         estimate D2E/DX2                !
 ! A99   A(52,50,54)           109.4019         estimate D2E/DX2                !
 ! A100  A(53,50,54)           109.4145         estimate D2E/DX2                !
 ! D1    D(19,1,2,3)             0.1578         estimate D2E/DX2                !
 ! D2    D(19,1,2,6)          -178.6792         estimate D2E/DX2                !
 ! D3    D(20,1,2,3)          -179.8231         estimate D2E/DX2                !
 ! D4    D(20,1,2,6)             1.3399         estimate D2E/DX2                !
 ! D5    D(2,1,19,5)            -0.124          estimate D2E/DX2                !
 ! D6    D(2,1,19,28)          179.8267         estimate D2E/DX2                !
 ! D7    D(20,1,19,5)          179.8575         estimate D2E/DX2                !
 ! D8    D(20,1,19,28)          -0.1919         estimate D2E/DX2                !
 ! D9    D(1,2,3,4)              0.0571         estimate D2E/DX2                !
 ! D10   D(1,2,3,7)            179.5453         estimate D2E/DX2                !
 ! D11   D(6,2,3,4)            178.8851         estimate D2E/DX2                !
 ! D12   D(6,2,3,7)             -1.6266         estimate D2E/DX2                !
 ! D13   D(1,2,6,9)            178.625          estimate D2E/DX2                !
 ! D14   D(1,2,6,17)             1.3881         estimate D2E/DX2                !
 ! D15   D(3,2,6,9)             -0.2173         estimate D2E/DX2                !
 ! D16   D(3,2,6,17)          -177.4541         estimate D2E/DX2                !
 ! D17   D(2,3,4,5)             -0.3074         estimate D2E/DX2                !
 ! D18   D(2,3,4,14)           179.3968         estimate D2E/DX2                !
 ! D19   D(7,3,4,5)           -179.7837         estimate D2E/DX2                !
 ! D20   D(7,3,4,14)            -0.0795         estimate D2E/DX2                !
 ! D21   D(2,3,7,8)              1.0523         estimate D2E/DX2                !
 ! D22   D(2,3,7,12)          -178.712          estimate D2E/DX2                !
 ! D23   D(4,3,7,8)           -179.4626         estimate D2E/DX2                !
 ! D24   D(4,3,7,12)             0.7731         estimate D2E/DX2                !
 ! D25   D(3,4,5,19)             0.3343         estimate D2E/DX2                !
 ! D26   D(3,4,5,21)          -179.7799         estimate D2E/DX2                !
 ! D27   D(14,4,5,19)         -179.3729         estimate D2E/DX2                !
 ! D28   D(14,4,5,21)            0.5129         estimate D2E/DX2                !
 ! D29   D(3,4,14,13)           -0.4559         estimate D2E/DX2                !
 ! D30   D(3,4,14,15)         -179.9937         estimate D2E/DX2                !
 ! D31   D(5,4,14,13)          179.252          estimate D2E/DX2                !
 ! D32   D(5,4,14,15)           -0.2858         estimate D2E/DX2                !
 ! D33   D(4,5,19,1)            -0.1141         estimate D2E/DX2                !
 ! D34   D(4,5,19,28)          179.9364         estimate D2E/DX2                !
 ! D35   D(21,5,19,1)          179.9992         estimate D2E/DX2                !
 ! D36   D(21,5,19,28)           0.0496         estimate D2E/DX2                !
 ! D37   D(2,6,9,8)              2.5984         estimate D2E/DX2                !
 ! D38   D(2,6,9,32)          -176.0103         estimate D2E/DX2                !
 ! D39   D(17,6,9,8)           179.77           estimate D2E/DX2                !
 ! D40   D(17,6,9,32)            1.1613         estimate D2E/DX2                !
 ! D41   D(3,7,8,9)              1.3551         estimate D2E/DX2                !
 ! D42   D(3,7,8,10)          -174.5099         estimate D2E/DX2                !
 ! D43   D(12,7,8,9)          -178.8921         estimate D2E/DX2                !
 ! D44   D(12,7,8,10)            5.2428         estimate D2E/DX2                !
 ! D45   D(3,7,12,11)          178.0768         estimate D2E/DX2                !
 ! D46   D(3,7,12,13)           -0.9621         estimate D2E/DX2                !
 ! D47   D(8,7,12,11)           -1.685          estimate D2E/DX2                !
 ! D48   D(8,7,12,13)          179.2761         estimate D2E/DX2                !
 ! D49   D(7,8,9,6)             -3.0809         estimate D2E/DX2                !
 ! D50   D(7,8,9,32)           175.3285         estimate D2E/DX2                !
 ! D51   D(10,8,9,6)           172.5381         estimate D2E/DX2                !
 ! D52   D(10,8,9,32)           -9.0525         estimate D2E/DX2                !
 ! D53   D(7,8,10,18)           -4.7549         estimate D2E/DX2                !
 ! D54   D(7,8,10,23)          174.4235         estimate D2E/DX2                !
 ! D55   D(9,8,10,18)          179.5335         estimate D2E/DX2                !
 ! D56   D(9,8,10,23)           -1.2882         estimate D2E/DX2                !
 ! D57   D(6,9,32,33)         -101.5692         estimate D2E/DX2                !
 ! D58   D(6,9,32,34)           84.8837         estimate D2E/DX2                !
 ! D59   D(8,9,32,33)           79.9893         Frozen                          !
 ! D60   D(8,9,32,34)          -93.5578         estimate D2E/DX2                !
 ! D61   D(8,10,18,11)           0.7189         estimate D2E/DX2                !
 ! D62   D(8,10,18,24)        -179.4089         estimate D2E/DX2                !
 ! D63   D(23,10,18,11)       -178.5188         estimate D2E/DX2                !
 ! D64   D(23,10,18,24)          1.3535         estimate D2E/DX2                !
 ! D65   D(18,11,12,7)          -2.3856         estimate D2E/DX2                !
 ! D66   D(18,11,12,13)        176.6833         estimate D2E/DX2                !
 ! D67   D(22,11,12,7)         178.4862         estimate D2E/DX2                !
 ! D68   D(22,11,12,13)         -2.445          estimate D2E/DX2                !
 ! D69   D(12,11,18,10)          2.8444         estimate D2E/DX2                !
 ! D70   D(12,11,18,24)       -177.0251         estimate D2E/DX2                !
 ! D71   D(22,11,18,10)       -178.0181         estimate D2E/DX2                !
 ! D72   D(22,11,18,24)          2.1124         estimate D2E/DX2                !
 ! D73   D(7,12,13,14)           0.461          estimate D2E/DX2                !
 ! D74   D(7,12,13,16)        -179.8781         estimate D2E/DX2                !
 ! D75   D(11,12,13,14)       -178.6049         estimate D2E/DX2                !
 ! D76   D(11,12,13,16)          1.056          estimate D2E/DX2                !
 ! D77   D(12,13,14,4)           0.2708         estimate D2E/DX2                !
 ! D78   D(12,13,14,15)        179.7958         estimate D2E/DX2                !
 ! D79   D(16,13,14,4)        -179.3788         estimate D2E/DX2                !
 ! D80   D(16,13,14,15)          0.1463         estimate D2E/DX2                !
 ! D81   D(10,18,24,25)        -59.609          estimate D2E/DX2                !
 ! D82   D(10,18,24,26)         59.2209         estimate D2E/DX2                !
 ! D83   D(10,18,24,27)        179.6858         estimate D2E/DX2                !
 ! D84   D(11,18,24,25)        120.2739         estimate D2E/DX2                !
 ! D85   D(11,18,24,26)       -120.8962         estimate D2E/DX2                !
 ! D86   D(11,18,24,27)         -0.4313         estimate D2E/DX2                !
 ! D87   D(1,19,28,29)         -58.1407         estimate D2E/DX2                !
 ! D88   D(1,19,28,30)          60.7668         estimate D2E/DX2                !
 ! D89   D(1,19,28,31)        -178.7139         estimate D2E/DX2                !
 ! D90   D(5,19,28,29)         121.8132         estimate D2E/DX2                !
 ! D91   D(5,19,28,30)        -119.2792         estimate D2E/DX2                !
 ! D92   D(5,19,28,31)           1.2401         estimate D2E/DX2                !
 ! D93   D(9,32,33,35)        -174.2368         estimate D2E/DX2                !
 ! D94   D(9,32,33,36)           6.3353         estimate D2E/DX2                !
 ! D95   D(34,32,33,35)         -0.2545         estimate D2E/DX2                !
 ! D96   D(34,32,33,36)       -179.6824         estimate D2E/DX2                !
 ! D97   D(9,32,34,37)         175.3489         estimate D2E/DX2                !
 ! D98   D(33,32,34,37)          0.5365         estimate D2E/DX2                !
 ! D99   D(32,33,35,37)         -0.2703         estimate D2E/DX2                !
 ! D100  D(32,33,35,38)        179.7464         estimate D2E/DX2                !
 ! D101  D(36,33,35,37)        179.1519         estimate D2E/DX2                !
 ! D102  D(36,33,35,38)         -0.8314         estimate D2E/DX2                !
 ! D103  D(32,34,37,35)         -0.6739         estimate D2E/DX2                !
 ! D104  D(32,34,37,39)        177.9144         estimate D2E/DX2                !
 ! D105  D(33,35,37,34)          0.6625         estimate D2E/DX2                !
 ! D106  D(33,35,37,39)       -177.841          estimate D2E/DX2                !
 ! D107  D(38,35,37,34)       -179.3529         estimate D2E/DX2                !
 ! D108  D(38,35,37,39)          2.1436         estimate D2E/DX2                !
 ! D109  D(33,35,38,40)          6.5056         estimate D2E/DX2                !
 ! D110  D(37,35,38,40)       -173.477          estimate D2E/DX2                !
 ! D111  D(34,37,39,41)          2.928          estimate D2E/DX2                !
 ! D112  D(34,37,39,42)       -177.1803         estimate D2E/DX2                !
 ! D113  D(35,37,39,41)       -178.7545         estimate D2E/DX2                !
 ! D114  D(35,37,39,42)          1.1372         estimate D2E/DX2                !
 ! D115  D(35,38,40,43)        175.4564         estimate D2E/DX2                !
 ! D116  D(35,38,40,44)        -65.767          estimate D2E/DX2                !
 ! D117  D(35,38,40,45)         56.3265         estimate D2E/DX2                !
 ! D118  D(37,39,41,46)       -179.9875         estimate D2E/DX2                !
 ! D119  D(37,39,41,47)         -0.2567         estimate D2E/DX2                !
 ! D120  D(42,39,41,46)          0.1087         estimate D2E/DX2                !
 ! D121  D(42,39,41,47)        179.8395         estimate D2E/DX2                !
 ! D122  D(37,39,42,48)       -179.9612         estimate D2E/DX2                !
 ! D123  D(41,39,42,48)         -0.0521         estimate D2E/DX2                !
 ! D124  D(39,41,46,48)         -0.1247         estimate D2E/DX2                !
 ! D125  D(39,41,46,49)       -179.9437         estimate D2E/DX2                !
 ! D126  D(47,41,46,48)       -179.8321         estimate D2E/DX2                !
 ! D127  D(47,41,46,49)          0.3489         estimate D2E/DX2                !
 ! D128  D(39,41,47,50)        178.4363         estimate D2E/DX2                !
 ! D129  D(46,41,47,50)         -1.8695         estimate D2E/DX2                !
 ! D130  D(39,42,48,46)         -0.017          estimate D2E/DX2                !
 ! D131  D(39,42,48,51)        179.9014         estimate D2E/DX2                !
 ! D132  D(41,46,48,42)          0.0811         estimate D2E/DX2                !
 ! D133  D(41,46,48,51)       -179.8297         estimate D2E/DX2                !
 ! D134  D(49,46,48,42)        179.902          estimate D2E/DX2                !
 ! D135  D(49,46,48,51)         -0.0088         estimate D2E/DX2                !
 ! D136  D(41,47,50,52)         61.9948         estimate D2E/DX2                !
 ! D137  D(41,47,50,53)       -179.1129         estimate D2E/DX2                !
 ! D138  D(41,47,50,54)        -60.2411         estimate D2E/DX2                !
 --------------------------------------------------------------------------------
 Trust Radius=3.00D-01 FncErr=1.00D-07 GrdErr=1.00D-06 EigMax=2.50D+02 EigMin=1.00D-04
 Number of steps in this run=    307 maximum allowed number of steps=    324.
 GradGradGradGradGradGradGradGradGradGradGradGradGradGradGradGradGradGrad

 Stoichiometry    C26H18N2O6S2
 Framework group  C1[X(C26H18N2O6S2)]
 Deg. of freedom   156
 Full point group                 C1      NOp   1
 Largest Abelian subgroup         C1      NOp   1
 Largest concise Abelian subgroup C1      NOp   1
                         Standard orientation:                         
 ---------------------------------------------------------------------
 Center     Atomic      Atomic             Coordinates (Angstroms)
 Number     Number       Type             X           Y           Z
 ---------------------------------------------------------------------
      1          6           0       -3.202890   -2.811274    0.599352
      2          6           0       -2.600063   -1.463070    0.428894
      3          6           0       -3.390308   -0.371249   -0.000517
      4          6           0       -4.764975   -0.547834   -0.272220
      5          6           0       -5.399213   -1.884140   -0.117502
      6          6           0       -1.260378   -1.290472    0.669302
      7          6           0       -2.773625    0.904982   -0.140961
      8          6           0       -1.377958    1.081326    0.123467
      9          6           0       -0.589196   -0.038514    0.504167
     10          6           0       -0.843667    2.469429    0.073428
     11          6           0       -3.059004    3.351757   -0.677719
     12          6           0       -3.603471    1.983302   -0.546782
     13          6           0       -4.952782    1.790839   -0.813492
     14          6           0       -5.540730    0.527186   -0.681240
     15          1           0       -6.592968    0.366959   -0.883650
     16          1           0       -5.535905    2.651620   -1.121612
     17          1           0       -0.692838   -2.168242    0.955274
     18          7           0       -1.715455    3.500565   -0.328324
     19          7           0       -4.567896   -2.932534    0.312325
     20          8           0       -2.561221   -3.784036    0.971046
     21          8           0       -6.584584   -2.069376   -0.348608
     22          8           0       -3.736957    4.301145   -1.050834
     23          8           0        0.301579    2.783755    0.371635
     24          6           0       -1.133116    4.846511   -0.372698
     25          1           0       -0.765301    5.123966    0.616287
     26          1           0       -0.288652    4.863788   -1.066442
     27          1           0       -1.911817    5.529458   -0.700921
     28          6           0       -5.151015   -4.268313    0.480292
     29          1           0       -4.622218   -4.983037   -0.153835
     30          1           0       -5.047648   -4.589287    1.518496
     31          1           0       -6.199557   -4.209502    0.201007
     32          6           0        0.856374   -0.078146    0.722020
     33          6           0        1.618578    0.310020    1.806609
     34         16           0        1.904832   -0.548855   -0.616260
     35          6           0        3.005773    0.228898    1.579000
     36          1           0        1.184276    0.633808    2.738848
     37          6           0        3.356383   -0.232814    0.305987
     38          8           0        3.990345    0.549381    2.459907
     39          6           0        4.675640   -0.464447   -0.210594
     40          6           0        3.601769    0.879204    3.790313
     41          6           0        5.024174   -0.902027   -1.487652
     42         16           0        6.137273   -0.215864    0.739144
     43          1           0        4.527698    1.020461    4.347077
     44          1           0        3.017633    1.806651    3.814636
     45          1           0        3.017088    0.069042    4.244072
     46          6           0        6.426178   -1.035915   -1.695503
     47          8           0        4.043026   -1.160274   -2.391118
     48          6           0        7.142273   -0.698095   -0.579318
     49          1           0        6.879498   -1.361697   -2.621713
     50          6           0        4.430477   -1.572946   -3.697279
     51          1           0        8.217920   -0.705634   -0.460466
     52          1           0        4.981948   -2.521206   -3.667577
     53          1           0        3.506205   -1.708997   -4.256719
     54          1           0        5.045531   -0.808804   -4.189257
 ---------------------------------------------------------------------
 Rotational constants (GHZ):           0.1576116           0.0549057           0.0476530
 Standard basis: 6-311+G(d,p) (5D, 7F)
 There are   952 symmetry adapted cartesian basis functions of A   symmetry.
 There are   916 symmetry adapted basis functions of A   symmetry.
   916 basis functions,  1468 primitive gaussians,   952 cartesian basis functions
   134 alpha electrons      134 beta electrons
       nuclear repulsion energy      4082.4528406754 Hartrees.
 NAtoms=   54 NActive=   54 NUniq=   54 SFac= 1.00D+00 NAtFMM=   60 NAOKFM=F Big=F
 Integral buffers will be    131072 words long.
 Raffenetti 2 integral format.
 Two-electron integral symmetry is turned on.
 One-electron integrals computed using PRISM.
 NBasis=   916 RedAO= T EigKep=  1.01D-06  NBF=   916
 NBsUse=   902 1.00D-06 EigRej=  7.10D-07 NBFU=   902
 ExpMin= 4.05D-02 ExpMax= 9.34D+04 ExpMxC= 3.17D+03 IAcc=3 IRadAn=         5 AccDes= 0.00D+00
 Harris functional with IExCor=  402 and IRadAn=       5 diagonalized for initial guess.
 HarFok:  IExCor=  402 AccDes= 0.00D+00 IRadAn=         5 IDoV= 1 UseB2=F ITyADJ=14
 ICtDFT=  3500011 ScaDFX=  1.000000  1.000000  1.000000  1.000000
 FoFCou: FMM=F IPFlag=           0 FMFlag=      100000 FMFlg1=           0
         NFxFlg=           0 DoJE=T BraDBF=F KetDBF=T FulRan=T
         wScrn=  0.000000 ICntrl=       500 IOpCl=  0 I1Cent=   200000004 NGrid=           0
         NMat0=    1 NMatS0=      1 NMatT0=    0 NMatD0=    1 NMtDS0=    0 NMtDT0=    0
 Petite list used in FoFCou.
 Requested convergence on RMS density matrix=1.00D-08 within 128 cycles.
 Requested convergence on MAX density matrix=1.00D-06.
 Requested convergence on             energy=1.00D-06.
 No special actions if energy rises.
 EnCoef did     2 forward-backward iterations
 Restarting incremental Fock formation.
 SCF Done:  E(RB3LYP) =  -2359.32950091     A.U. after   22 cycles
            NFock= 22  Conv=0.38D-08     -V/T= 2.0032

 **********************************************************************

            Population analysis using the SCF Density.

 **********************************************************************

 Orbital symmetries:
       Occupied  (A) (A) (A) (A) (A) (A) (A) (A) (A) (A) (A) (A)
                 (A) (A) (A) (A) (A) (A) (A) (A) (A) (A) (A) (A)
                 (A) (A) (A) (A) (A) (A) (A) (A) (A) (A) (A) (A)
                 (A) (A) (A) (A) (A) (A) (A) (A) (A) (A) (A) (A)
                 (A) (A) (A) (A) (A) (A) (A) (A) (A) (A) (A) (A)
                 (A) (A) (A) (A) (A) (A) (A) (A) (A) (A) (A) (A)
                 (A) (A) (A) (A) (A) (A) (A) (A) (A) (A) (A) (A)
                 (A) (A) (A) (A) (A) (A) (A) (A) (A) (A) (A) (A)
                 (A) (A) (A) (A) (A) (A) (A) (A) (A) (A) (A) (A)
                 (A) (A) (A) (A) (A) (A) (A) (A) (A) (A) (A) (A)
                 (A) (A) (A) (A) (A) (A) (A) (A) (A) (A) (A) (A)
                 (A) (A)
       Virtual   (A) (A) (A) (A) (A) (A) (A) (A) (A) (A) (A) (A)
                 (A) (A) (A) (A) (A) (A) (A) (A) (A) (A) (A) (A)
                 (A) (A) (A) (A) (A) (A) (A) (A) (A) (A) (A) (A)
                 (A) (A) (A) (A) (A) (A) (A) (A) (A) (A) (A) (A)
                 (A) (A) (A) (A) (A) (A) (A) (A) (A) (A) (A) (A)
                 (A) (A) (A) (A) (A) (A) (A) (A) (A) (A) (A) (A)
                 (A) (A) (A) (A) (A) (A) (A) (A) (A) (A) (A) (A)
                 (A) (A) (A) (A) (A) (A) (A) (A) (A) (A) (A) (A)
                 (A) (A) (A) (A) (A) (A) (A) (A) (A) (A) (A) (A)
                 (A) (A) (A) (A) (A) (A) (A) (A) (A) (A) (A) (A)
                 (A) (A) (A) (A) (A) (A) (A) (A) (A) (A) (A) (A)
                 (A) (A) (A) (A) (A) (A) (A) (A) (A) (A) (A) (A)
                 (A) (A) (A) (A) (A) (A) (A) (A) (A) (A) (A) (A)
                 (A) (A) (A) (A) (A) (A) (A) (A) (A) (A) (A) (A)
                 (A) (A) (A) (A) (A) (A) (A) (A) (A) (A) (A) (A)
                 (A) (A) (A) (A) (A) (A) (A) (A) (A) (A) (A) (A)
                 (A) (A) (A) (A) (A) (A) (A) (A) (A) (A) (A) (A)
                 (A) (A) (A) (A) (A) (A) (A) (A) (A) (A) (A) (A)
                 (A) (A) (A) (A) (A) (A) (A) (A) (A) (A) (A) (A)
                 (A) (A) (A) (A) (A) (A) (A) (A) (A) (A) (A) (A)
                 (A) (A) (A) (A) (A) (A) (A) (A) (A) (A) (A) (A)
                 (A) (A) (A) (A) (A) (A) (A) (A) (A) (A) (A) (A)
                 (A) (A) (A) (A) (A) (A) (A) (A) (A) (A) (A) (A)
                 (A) (A) (A) (A) (A) (A) (A) (A) (A) (A) (A) (A)
                 (A) (A) (A) (A) (A) (A) (A) (A) (A) (A) (A) (A)
                 (A) (A) (A) (A) (A) (A) (A) (A) (A) (A) (A) (A)
                 (A) (A) (A) (A) (A) (A) (A) (A) (A) (A) (A) (A)
                 (A) (A) (A) (A) (A) (A) (A) (A) (A) (A) (A) (A)
                 (A) (A) (A) (A) (A) (A) (A) (A) (A) (A) (A) (A)
                 (A) (A) (A) (A) (A) (A) (A) (A) (A) (A) (A) (A)
                 (A) (A) (A) (A) (A) (A) (A) (A) (A) (A) (A) (A)
                 (A) (A) (A) (A) (A) (A) (A) (A) (A) (A) (A) (A)
                 (A) (A) (A) (A) (A) (A) (A) (A) (A) (A) (A) (A)
                 (A) (A) (A) (A) (A) (A) (A) (A) (A) (A) (A) (A)
                 (A) (A) (A) (A) (A) (A) (A) (A) (A) (A) (A) (A)
                 (A) (A) (A) (A) (A) (A) (A) (A) (A) (A) (A) (A)
                 (A) (A) (A) (A) (A) (A) (A) (A) (A) (A) (A) (A)
                 (A) (A) (A) (A) (A) (A) (A) (A) (A) (A) (A) (A)
                 (A) (A) (A) (A) (A) (A) (A) (A) (A) (A) (A) (A)
                 (A) (A) (A) (A) (A) (A) (A) (A) (A) (A) (A) (A)
                 (A) (A) (A) (A) (A) (A) (A) (A) (A) (A) (A) (A)
                 (A) (A) (A) (A) (A) (A) (A) (A) (A) (A) (A) (A)
                 (A) (A) (A) (A) (A) (A) (A) (A) (A) (A) (A) (A)
                 (A) (A) (A) (A) (A) (A) (A) (A) (A) (A) (A) (A)
                 (A) (A) (A) (A) (A) (A) (A) (A) (A) (A) (A) (A)
                 (A) (A) (A) (A) (A) (A) (A) (A) (A) (A) (A) (A)
                 (A) (A) (A) (A) (A) (A) (A) (A) (A) (A) (A) (A)
                 (A) (A) (A) (A) (A) (A) (A) (A) (A) (A) (A) (A)
                 (A) (A) (A) (A) (A) (A) (A) (A) (A) (A) (A) (A)
                 (A) (A) (A) (A) (A) (A) (A) (A) (A) (A) (A) (A)
                 (A) (A) (A) (A) (A) (A) (A) (A) (A) (A) (A) (A)
                 (A) (A) (A) (A) (A) (A) (A) (A) (A) (A) (A) (A)
                 (A) (A) (A) (A) (A) (A) (A) (A) (A) (A) (A) (A)
                 (A) (A) (A) (A) (A) (A) (A) (A) (A) (A) (A) (A)
                 (A) (A) (A) (A) (A) (A) (A) (A) (A) (A) (A) (A)
                 (A) (A) (A) (A) (A) (A) (A) (A) (A) (A) (A) (A)
                 (A) (A) (A) (A) (A) (A) (A) (A) (A) (A) (A) (A)
                 (A) (A) (A) (A) (A) (A) (A) (A) (A) (A) (A) (A)
                 (A) (A) (A) (A) (A) (A) (A) (A) (A) (A) (A) (A)
                 (A) (A) (A) (A) (A) (A) (A) (A) (A) (A) (A) (A)
                 (A) (A) (A) (A) (A) (A) (A) (A) (A) (A) (A) (A)
                 (A) (A) (A) (A) (A) (A) (A) (A) (A) (A) (A) (A)
                 (A) (A) (A) (A) (A) (A) (A) (A) (A) (A) (A) (A)
                 (A) (A) (A) (A) (A) (A) (A) (A) (A) (A) (A) (A)
 The electronic state is 1-A.
 Alpha  occ. eigenvalues --  -88.87879 -88.87514 -19.16377 -19.16216 -19.12954
 Alpha  occ. eigenvalues --  -19.12860 -19.12461 -19.12345 -14.39137 -14.38684
 Alpha  occ. eigenvalues --  -10.31640 -10.31389 -10.31260 -10.31073 -10.24423
 Alpha  occ. eigenvalues --  -10.24044 -10.23779 -10.23736 -10.23660 -10.23441
 Alpha  occ. eigenvalues --  -10.23414 -10.23235 -10.23076 -10.22974 -10.22872
 Alpha  occ. eigenvalues --  -10.22038 -10.21916 -10.21844 -10.21452 -10.21371
 Alpha  occ. eigenvalues --  -10.21027 -10.20942 -10.20800 -10.20000 -10.18421
 Alpha  occ. eigenvalues --  -10.18140  -7.96390  -7.96058  -5.92714  -5.92368
 Alpha  occ. eigenvalues --   -5.92324  -5.91981  -5.91938  -5.91628  -1.08911
 Alpha  occ. eigenvalues --   -1.08500  -1.07964  -1.07785  -1.07024  -1.06516
 Alpha  occ. eigenvalues --   -0.96697  -0.96136  -0.92970  -0.89567  -0.88143
 Alpha  occ. eigenvalues --   -0.86734  -0.84883  -0.80573  -0.79069  -0.77170
 Alpha  occ. eigenvalues --   -0.75840  -0.75624  -0.74581  -0.72976  -0.72606
 Alpha  occ. eigenvalues --   -0.71945  -0.69867  -0.68724  -0.67540  -0.66355
 Alpha  occ. eigenvalues --   -0.65812  -0.64998  -0.60903  -0.59462  -0.58730
 Alpha  occ. eigenvalues --   -0.57803  -0.56627  -0.55640  -0.55615  -0.54077
 Alpha  occ. eigenvalues --   -0.53876  -0.52097  -0.50586  -0.50237  -0.50007
 Alpha  occ. eigenvalues --   -0.49189  -0.49012  -0.48914  -0.48121  -0.47922
 Alpha  occ. eigenvalues --   -0.47750  -0.47521  -0.46957  -0.46561  -0.45567
 Alpha  occ. eigenvalues --   -0.45287  -0.44955  -0.44865  -0.44623  -0.44153
 Alpha  occ. eigenvalues --   -0.42989  -0.42667  -0.42292  -0.42097  -0.41663
 Alpha  occ. eigenvalues --   -0.41497  -0.41206  -0.40975  -0.40629  -0.40168
 Alpha  occ. eigenvalues --   -0.39756  -0.38854  -0.38108  -0.37933  -0.37045
 Alpha  occ. eigenvalues --   -0.35847  -0.35563  -0.33674  -0.33275  -0.33192
 Alpha  occ. eigenvalues --   -0.32896  -0.32629  -0.31401  -0.30555  -0.30021
 Alpha  occ. eigenvalues --   -0.29402  -0.29327  -0.28803  -0.28672  -0.27220
 Alpha  occ. eigenvalues --   -0.26751  -0.24240  -0.23893  -0.18562
 Alpha virt. eigenvalues --   -0.13821  -0.07505  -0.06373  -0.05256  -0.04809
 Alpha virt. eigenvalues --   -0.01090  -0.00116  -0.00093   0.00199   0.00310
 Alpha virt. eigenvalues --    0.00624   0.00701   0.00983   0.01111   0.01744
 Alpha virt. eigenvalues --    0.01976   0.02201   0.02631   0.03073   0.03192
 Alpha virt. eigenvalues --    0.03499   0.03712   0.04009   0.04120   0.04438
 Alpha virt. eigenvalues --    0.04797   0.04979   0.05319   0.05570   0.05809
 Alpha virt. eigenvalues --    0.05920   0.06085   0.06157   0.06299   0.06685
 Alpha virt. eigenvalues --    0.07246   0.07513   0.07775   0.07935   0.08155
 Alpha virt. eigenvalues --    0.08529   0.08786   0.08942   0.09059   0.09157
 Alpha virt. eigenvalues --    0.09510   0.09567   0.09809   0.10274   0.10690
 Alpha virt. eigenvalues --    0.10799   0.11302   0.11390   0.11763   0.11969
 Alpha virt. eigenvalues --    0.12420   0.12560   0.13001   0.13152   0.13213
 Alpha virt. eigenvalues --    0.13440   0.13669   0.13729   0.14009   0.14201
 Alpha virt. eigenvalues --    0.14429   0.14627   0.14819   0.14963   0.15282
 Alpha virt. eigenvalues --    0.15505   0.15529   0.15811   0.16109   0.16216
 Alpha virt. eigenvalues --    0.16404   0.16833   0.16908   0.17079   0.17769
 Alpha virt. eigenvalues --    0.17814   0.17977   0.18094   0.18371   0.18520
 Alpha virt. eigenvalues --    0.18664   0.18949   0.19069   0.19360   0.19561
 Alpha virt. eigenvalues --    0.19660   0.19959   0.20118   0.20192   0.20229
 Alpha virt. eigenvalues --    0.20327   0.20543   0.20715   0.20995   0.21391
 Alpha virt. eigenvalues --    0.21436   0.21611   0.21689   0.21933   0.22256
 Alpha virt. eigenvalues --    0.22408   0.22583   0.22822   0.22878   0.23141
 Alpha virt. eigenvalues --    0.23228   0.23524   0.23698   0.24116   0.24407
 Alpha virt. eigenvalues --    0.24515   0.24550   0.24765   0.24883   0.25085
 Alpha virt. eigenvalues --    0.25261   0.25525   0.25755   0.25949   0.26176
 Alpha virt. eigenvalues --    0.26485   0.26579   0.26689   0.26804   0.27082
 Alpha virt. eigenvalues --    0.27379   0.27742   0.27852   0.27992   0.28072
 Alpha virt. eigenvalues --    0.28299   0.28738   0.28831   0.29158   0.29272
 Alpha virt. eigenvalues --    0.29414   0.29491   0.29878   0.30247   0.30382
 Alpha virt. eigenvalues --    0.30640   0.30957   0.31153   0.31293   0.31714
 Alpha virt. eigenvalues --    0.31807   0.32064   0.32331   0.32412   0.32770
 Alpha virt. eigenvalues --    0.32905   0.33438   0.33790   0.33897   0.34208
 Alpha virt. eigenvalues --    0.34583   0.34775   0.35193   0.35245   0.35934
 Alpha virt. eigenvalues --    0.36163   0.36483   0.36759   0.37067   0.37857
 Alpha virt. eigenvalues --    0.38140   0.38381   0.38484   0.38779   0.39026
 Alpha virt. eigenvalues --    0.39100   0.39646   0.40482   0.41256   0.41468
 Alpha virt. eigenvalues --    0.41816   0.42112   0.42367   0.42816   0.43345
 Alpha virt. eigenvalues --    0.43897   0.44195   0.44807   0.44988   0.45201
 Alpha virt. eigenvalues --    0.45441   0.45535   0.45793   0.46070   0.46534
 Alpha virt. eigenvalues --    0.46837   0.47262   0.47404   0.48041   0.49184
 Alpha virt. eigenvalues --    0.49330   0.49710   0.50092   0.50267   0.50984
 Alpha virt. eigenvalues --    0.51457   0.52128   0.52315   0.52667   0.53259
 Alpha virt. eigenvalues --    0.53964   0.54457   0.54689   0.54947   0.55398
 Alpha virt. eigenvalues --    0.55984   0.56271   0.56479   0.56854   0.56932
 Alpha virt. eigenvalues --    0.57509   0.57941   0.58834   0.58926   0.59303
 Alpha virt. eigenvalues --    0.59839   0.60277   0.60559   0.61015   0.61298
 Alpha virt. eigenvalues --    0.61689   0.61913   0.62471   0.62665   0.62994
 Alpha virt. eigenvalues --    0.63640   0.63711   0.63820   0.64399   0.64848
 Alpha virt. eigenvalues --    0.64991   0.65431   0.65760   0.65947   0.66502
 Alpha virt. eigenvalues --    0.67291   0.67359   0.67566   0.67734   0.67901
 Alpha virt. eigenvalues --    0.68594   0.68838   0.69290   0.69626   0.70278
 Alpha virt. eigenvalues --    0.70668   0.70995   0.71095   0.71920   0.72167
 Alpha virt. eigenvalues --    0.72376   0.73091   0.73135   0.73416   0.74008
 Alpha virt. eigenvalues --    0.74262   0.74414   0.74873   0.75010   0.75360
 Alpha virt. eigenvalues --    0.75603   0.76150   0.76264   0.76702   0.76896
 Alpha virt. eigenvalues --    0.77171   0.77495   0.77876   0.78350   0.78976
 Alpha virt. eigenvalues --    0.79045   0.80062   0.80401   0.80963   0.81802
 Alpha virt. eigenvalues --    0.82926   0.83000   0.83370   0.84058   0.85198
 Alpha virt. eigenvalues --    0.85998   0.86817   0.86867   0.87560   0.88008
 Alpha virt. eigenvalues --    0.88559   0.88674   0.89578   0.89795   0.90064
 Alpha virt. eigenvalues --    0.90735   0.91047   0.91740   0.92217   0.92690
 Alpha virt. eigenvalues --    0.93063   0.93381   0.93830   0.94313   0.94794
 Alpha virt. eigenvalues --    0.95087   0.95423   0.95775   0.97022   0.97363
 Alpha virt. eigenvalues --    0.97566   0.98295   0.99253   0.99842   1.00117
 Alpha virt. eigenvalues --    1.00516   1.00886   1.01103   1.01852   1.02269
 Alpha virt. eigenvalues --    1.02515   1.03241   1.03485   1.03761   1.03959
 Alpha virt. eigenvalues --    1.04695   1.05009   1.05249   1.05373   1.06135
 Alpha virt. eigenvalues --    1.06238   1.06713   1.06849   1.07961   1.08102
 Alpha virt. eigenvalues --    1.08336   1.09080   1.10046   1.10073   1.10551
 Alpha virt. eigenvalues --    1.11115   1.11994   1.12385   1.13412   1.13590
 Alpha virt. eigenvalues --    1.14747   1.15124   1.16252   1.16610   1.17695
 Alpha virt. eigenvalues --    1.18040   1.18471   1.18744   1.19389   1.19826
 Alpha virt. eigenvalues --    1.20988   1.21720   1.22356   1.24327   1.24706
 Alpha virt. eigenvalues --    1.25860   1.25926   1.26250   1.26435   1.26668
 Alpha virt. eigenvalues --    1.27350   1.27760   1.28301   1.29038   1.29649
 Alpha virt. eigenvalues --    1.32152   1.32211   1.32872   1.33113   1.34065
 Alpha virt. eigenvalues --    1.35313   1.35963   1.36154   1.37297   1.37499
 Alpha virt. eigenvalues --    1.39558   1.40427   1.40789   1.41389   1.42436
 Alpha virt. eigenvalues --    1.42594   1.42934   1.43109   1.43391   1.43949
 Alpha virt. eigenvalues --    1.44232   1.44694   1.45021   1.45187   1.45411
 Alpha virt. eigenvalues --    1.45668   1.46435   1.47005   1.47141   1.47971
 Alpha virt. eigenvalues --    1.49736   1.50257   1.50776   1.51068   1.51867
 Alpha virt. eigenvalues --    1.52697   1.53008   1.53675   1.53970   1.54638
 Alpha virt. eigenvalues --    1.54950   1.54994   1.55621   1.56156   1.56503
 Alpha virt. eigenvalues --    1.57764   1.58537   1.59406   1.60258   1.60762
 Alpha virt. eigenvalues --    1.61841   1.62485   1.63049   1.63422   1.63498
 Alpha virt. eigenvalues --    1.64277   1.64599   1.65353   1.66207   1.66703
 Alpha virt. eigenvalues --    1.66820   1.67236   1.68357   1.68988   1.69316
 Alpha virt. eigenvalues --    1.69715   1.70187   1.70534   1.70896   1.71279
 Alpha virt. eigenvalues --    1.71552   1.73521   1.73660   1.74186   1.75272
 Alpha virt. eigenvalues --    1.75467   1.76402   1.76637   1.77563   1.78435
 Alpha virt. eigenvalues --    1.78519   1.79794   1.80411   1.80871   1.81287
 Alpha virt. eigenvalues --    1.82557   1.83176   1.83820   1.84782   1.85621
 Alpha virt. eigenvalues --    1.86101   1.86407   1.86618   1.87376   1.87971
 Alpha virt. eigenvalues --    1.89087   1.89305   1.89812   1.90225   1.90921
 Alpha virt. eigenvalues --    1.91327   1.91889   1.92650   1.93900   1.94076
 Alpha virt. eigenvalues --    1.95334   1.95499   1.96537   1.96831   1.97841
 Alpha virt. eigenvalues --    1.99165   1.99517   2.00338   2.00835   2.01487
 Alpha virt. eigenvalues --    2.02020   2.02655   2.03402   2.03625   2.04297
 Alpha virt. eigenvalues --    2.05116   2.06020   2.06182   2.06863   2.06896
 Alpha virt. eigenvalues --    2.08473   2.08800   2.10121   2.10320   2.11236
 Alpha virt. eigenvalues --    2.11816   2.12416   2.13076   2.14071   2.14550
 Alpha virt. eigenvalues --    2.15054   2.15964   2.16369   2.16874   2.18111
 Alpha virt. eigenvalues --    2.18530   2.18925   2.20130   2.20423   2.21835
 Alpha virt. eigenvalues --    2.22029   2.22636   2.25468   2.25984   2.27175
 Alpha virt. eigenvalues --    2.28933   2.30890   2.31877   2.32422   2.33905
 Alpha virt. eigenvalues --    2.36132   2.36950   2.39109   2.39320   2.42016
 Alpha virt. eigenvalues --    2.43072   2.43516   2.43746   2.44527   2.45426
 Alpha virt. eigenvalues --    2.45945   2.46485   2.46766   2.48263   2.48905
 Alpha virt. eigenvalues --    2.49652   2.50391   2.51083   2.52149   2.52224
 Alpha virt. eigenvalues --    2.52551   2.53010   2.53373   2.53835   2.54855
 Alpha virt. eigenvalues --    2.55858   2.56450   2.58152   2.58639   2.58924
 Alpha virt. eigenvalues --    2.59558   2.61493   2.62953   2.63629   2.64622
 Alpha virt. eigenvalues --    2.64675   2.66877   2.67201   2.68123   2.68353
 Alpha virt. eigenvalues --    2.68706   2.69467   2.69554   2.70043   2.70277
 Alpha virt. eigenvalues --    2.70998   2.72216   2.72448   2.73277   2.74763
 Alpha virt. eigenvalues --    2.75120   2.75603   2.77549   2.78696   2.78941
 Alpha virt. eigenvalues --    2.81170   2.81443   2.82635   2.83154   2.83656
 Alpha virt. eigenvalues --    2.83768   2.84136   2.85316   2.85642   2.86009
 Alpha virt. eigenvalues --    2.86685   2.87313   2.87955   2.88061   2.89017
 Alpha virt. eigenvalues --    2.90316   2.91320   2.91601   2.93142   2.93564
 Alpha virt. eigenvalues --    2.94438   2.94524   2.96388   2.97017   2.99278
 Alpha virt. eigenvalues --    2.99572   3.00916   3.01192   3.03978   3.04200
 Alpha virt. eigenvalues --    3.05175   3.05351   3.06509   3.08326   3.08607
 Alpha virt. eigenvalues --    3.10349   3.10875   3.12958   3.13587   3.14834
 Alpha virt. eigenvalues --    3.15127   3.16477   3.16813   3.18743   3.19936
 Alpha virt. eigenvalues --    3.21836   3.23176   3.23916   3.24425   3.24901
 Alpha virt. eigenvalues --    3.26369   3.28714   3.29417   3.30882   3.32586
 Alpha virt. eigenvalues --    3.33428   3.33960   3.34175   3.34563   3.35629
 Alpha virt. eigenvalues --    3.36328   3.38151   3.38796   3.41535   3.42075
 Alpha virt. eigenvalues --    3.43366   3.43910   3.45288   3.46540   3.47936
 Alpha virt. eigenvalues --    3.49709   3.49999   3.53453   3.56672   3.57074
 Alpha virt. eigenvalues --    3.59091   3.59708   3.61242   3.64521   3.65453
 Alpha virt. eigenvalues --    3.66053   3.68678   3.70072   3.71774   3.72532
 Alpha virt. eigenvalues --    3.76315   3.76451   3.76736   3.81486   3.82539
 Alpha virt. eigenvalues --    3.84904   3.84982   3.86005   3.89914   3.92104
 Alpha virt. eigenvalues --    3.92521   3.92930   3.93828   3.96750   4.01092
 Alpha virt. eigenvalues --    4.03350   4.04514   4.08694   4.11022   4.12057
 Alpha virt. eigenvalues --    4.14563   4.18873   4.23556   4.24764   4.27461
 Alpha virt. eigenvalues --    4.34578   4.37475   4.39333   4.50817   4.66758
 Alpha virt. eigenvalues --    4.83177   4.84558   4.86773   4.89861   5.02162
 Alpha virt. eigenvalues --    5.03284   5.03930   5.04886   5.05187   5.07874
 Alpha virt. eigenvalues --    5.10673   5.12270   5.24369   5.26180   5.28272
 Alpha virt. eigenvalues --    5.30651   5.43000   5.44398   5.75020   5.77187
 Alpha virt. eigenvalues --    5.79577   5.80868   5.81365   5.85318   8.03137
 Alpha virt. eigenvalues --    8.06852  17.29874  17.34417  17.50538  17.53482
 Alpha virt. eigenvalues --   17.57421  17.63307  23.49086  23.57072  23.72733
 Alpha virt. eigenvalues --   23.78886  23.81806  23.83055  23.83484  23.85830
 Alpha virt. eigenvalues --   23.86191  23.87404  23.90039  23.90743  23.91701
 Alpha virt. eigenvalues --   23.92362  23.94185  23.94708  23.95576  23.97356
 Alpha virt. eigenvalues --   23.99393  24.02744  24.03373  24.03922  24.12044
 Alpha virt. eigenvalues --   24.13086  24.13606  24.15251  35.55372  35.58280
 Alpha virt. eigenvalues --   49.96783  49.98064  50.01423  50.03028  50.05118
 Alpha virt. eigenvalues --   50.06628 189.20368 189.25229
          Condensed to atoms (all electrons):
 Mulliken charges:
               1
     1  C    0.393759
     2  C    0.068448
     3  C    0.165429
     4  C    0.282312
     5  C    0.236847
     6  C   -0.841621
     7  C    0.142744
     8  C    0.116235
     9  C    0.709594
    10  C   -0.445629
    11  C    0.213979
    12  C    0.232888
    13  C   -0.512675
    14  C   -0.622064
    15  H    0.163347
    16  H    0.165498
    17  H    0.168837
    18  N   -0.156297
    19  N   -0.134020
    20  O   -0.272277
    21  O   -0.271619
    22  O   -0.275100
    23  O   -0.097551
    24  C   -0.204724
    25  H    0.175247
    26  H    0.178942
    27  H    0.183762
    28  C   -0.200704
    29  H    0.176085
    30  H    0.175949
    31  H    0.182810
    32  C    0.060264
    33  C   -0.302109
    34  S   -0.202226
    35  C   -0.275095
    36  H    0.110056
    37  C    0.203047
    38  O   -0.123436
    39  C    0.856149
    40  C   -0.242224
    41  C    0.089979
    42  S   -0.267388
    43  H    0.164911
    44  H    0.150467
    45  H    0.148360
    46  C   -0.522518
    47  O   -0.143578
    48  C   -0.301015
    49  H    0.128739
    50  C   -0.238702
    51  H    0.157062
    52  H    0.143257
    53  H    0.163055
    54  H    0.144518
 Sum of Mulliken charges =  -0.00000
 Mulliken charges with hydrogens summed into heavy atoms:
               1
     1  C    0.393759
     2  C    0.068448
     3  C    0.165429
     4  C    0.282312
     5  C    0.236847
     6  C   -0.672784
     7  C    0.142744
     8  C    0.116235
     9  C    0.709594
    10  C   -0.445629
    11  C    0.213979
    12  C    0.232888
    13  C   -0.347177
    14  C   -0.458718
    18  N   -0.156297
    19  N   -0.134020
    20  O   -0.272277
    21  O   -0.271619
    22  O   -0.275100
    23  O   -0.097551
    24  C    0.333225
    28  C    0.334140
    32  C    0.060264
    33  C   -0.192053
    34  S   -0.202226
    35  C   -0.275095
    37  C    0.203047
    38  O   -0.123436
    39  C    0.856149
    40  C    0.221514
    41  C    0.089979
    42  S   -0.267388
    46  C   -0.393779
    47  O   -0.143578
    48  C   -0.143952
    50  C    0.212128
 Electronic spatial extent (au):  <R**2>=          22236.2939
 Charge=             -0.0000 electrons
 Dipole moment (field-independent basis, Debye):
    X=              1.4068    Y=             -0.2724    Z=             -0.0276  Tot=              1.4332
 Quadrupole moment (field-independent basis, Debye-Ang):
   XX=           -220.9201   YY=           -231.9804   ZZ=           -199.1624
   XY=             -0.4860   XZ=            -10.3377   YZ=             11.6440
 Traceless Quadrupole moment (field-independent basis, Debye-Ang):
   XX=             -3.5658   YY=            -14.6261   ZZ=             18.1919
   XY=             -0.4860   XZ=            -10.3377   YZ=             11.6440
 Octapole moment (field-independent basis, Debye-Ang**2):
  XXX=            251.6552  YYY=             -9.2101  ZZZ=              6.6296  XYY=             24.0831
  XXY=            -43.1582  XXZ=            -30.0759  XZZ=             90.6721  YZZ=             -7.8160
  YYZ=             -2.3818  XYZ=             26.8574
 Hexadecapole moment (field-independent basis, Debye-Ang**3):
 XXXX=         -21313.7103 YYYY=          -6121.9685 ZZZZ=          -2261.3285 XXXY=           -336.0123
 XXXZ=           -435.7331 YYYX=            468.9191 YYYZ=            145.0390 ZZZX=            -44.0540
 ZZZY=            142.4932 XXYY=          -4773.7163 XXZZ=          -3652.1787 YYZZ=          -1433.2175
 XXYZ=            149.5738 YYXZ=           -125.9398 ZZXY=            -10.9354
 N-N= 4.082452840675D+03 E-N=-1.370472123955D+04  KE= 2.351792908359D+03
 Calling FoFJK, ICntrl=      2127 FMM=F ISym2X=0 I1Cent= 0 IOpClX= 0 NMat=1 NMatS=1 NMatT=0.
 ***** Axes restored to original set *****
 -------------------------------------------------------------------
 Center     Atomic                   Forces (Hartrees/Bohr)
 Number     Number              X              Y              Z
 -------------------------------------------------------------------
      1        6           0.004784419   -0.006741202   -0.000297518
      2        6          -0.004437960    0.001208570   -0.000211072
      3        6           0.004888086   -0.001364241   -0.000461947
      4        6          -0.003326984    0.002235342    0.000639073
      5        6          -0.005889887   -0.003728670   -0.000420905
      6        6           0.004108176    0.005574234   -0.005351806
      7        6          -0.001535424   -0.001078953    0.001121037
      8        6           0.005011880   -0.011406222    0.002524585
      9        6          -0.022649497   -0.008088772    0.003692756
     10        6           0.014159619    0.011966040    0.001047110
     11        6          -0.003258006    0.008433335    0.000883773
     12        6          -0.002522820   -0.001904185   -0.000058180
     13        6           0.002214923    0.001934505    0.000066760
     14        6           0.003314033   -0.002916164   -0.000461823
     15        1           0.000554536    0.000613893    0.000015245
     16        1           0.000629523   -0.001043565   -0.000258730
     17        1           0.001851384    0.002086038    0.001579267
     18        7          -0.002088489   -0.001859527   -0.001316847
     19        7           0.000154003    0.002030783    0.000104896
     20        8          -0.006924967    0.007424425    0.001053967
     21        8           0.007621729    0.002832628    0.000266562
     22        8           0.006725515   -0.007446194   -0.000888488
     23        8          -0.009497851   -0.010616634   -0.003226309
     24        6           0.001092271    0.002887101   -0.000744576
     25        1          -0.000603408   -0.000068538   -0.000434807
     26        1          -0.001196103   -0.000751441    0.001256662
     27        1           0.001070917    0.000022483    0.000111242
     28        6          -0.000581802   -0.002247297   -0.000730102
     29        1          -0.000692352    0.000436153    0.001027736
     30        1          -0.000465255    0.000450537   -0.000517491
     31        1           0.000981695   -0.000410253   -0.000027936
     32        6           0.021299806    0.017547849   -0.001299633
     33        6          -0.013617488   -0.005679243   -0.002936991
     34       16          -0.006213746   -0.001959547    0.005633577
     35        6           0.003757575    0.000073620   -0.014112622
     36        1          -0.001917729    0.001775586    0.001379175
     37        6          -0.000805260   -0.000674022    0.011549595
     38        8           0.000564319   -0.001422865    0.003223317
     39        6           0.002762209    0.001429142   -0.006892141
     40        6          -0.000118886   -0.000021535    0.000557269
     41        6           0.002992723    0.000089355    0.006734589
     42       16          -0.001017912    0.000134707   -0.001828447
     43        1          -0.000669971   -0.000271366   -0.000147271
     44        1           0.000602122   -0.000177880   -0.000641706
     45        1           0.001195879    0.001137229   -0.000404371
     46        6          -0.000356649    0.000007911    0.001241495
     47        8          -0.001812914   -0.000105635   -0.002641659
     48        6           0.002006279    0.000261008   -0.001501028
     49        1           0.000159556   -0.000027621    0.000911085
     50        6           0.001227594    0.000338283   -0.000910111
     51        1          -0.002023344   -0.000429872    0.000489944
     52        1          -0.001045877    0.000684456    0.000758285
     53        1           0.000200934   -0.000027676    0.000174106
     54        1          -0.000661123   -0.001146094    0.000681409
 -------------------------------------------------------------------
 Cartesian Forces:  Max     0.022649497 RMS     0.004715216

 GradGradGradGradGradGradGradGradGradGradGradGradGradGradGradGradGradGrad
 Berny optimization.
 FormGI is forming the generalized inverse of G from B-inverse, IUseBI=4.
 Internal  Forces:  Max     0.017923447 RMS     0.002636969
 Search for a local minimum.
 Step number   1 out of a maximum of  307
 All quantities printed in internal units (Hartrees-Bohrs-Radians)
 Mixed Optimization -- RFO/linear search
 Second derivative matrix not updated -- first step.
 ITU=  0
     Eigenvalues ---    0.00803   0.00803   0.01176   0.01203   0.01245
     Eigenvalues ---    0.01292   0.01308   0.01311   0.01365   0.01380
     Eigenvalues ---    0.01419   0.01429   0.01457   0.01496   0.01515
     Eigenvalues ---    0.01568   0.01577   0.01577   0.01618   0.01652
     Eigenvalues ---    0.01692   0.01709   0.01711   0.01719   0.01754
     Eigenvalues ---    0.01783   0.01803   0.01847   0.01964   0.02040
     Eigenvalues ---    0.02049   0.02072   0.02077   0.02083   0.02135
     Eigenvalues ---    0.02149   0.02163   0.02182   0.02197   0.02228
     Eigenvalues ---    0.02240   0.02252   0.07556   0.07572   0.07690
     Eigenvalues ---    0.07700   0.10066   0.10076   0.10631   0.10634
     Eigenvalues ---    0.15983   0.15999   0.15999   0.16000   0.16000
     Eigenvalues ---    0.16000   0.16000   0.16000   0.16000   0.16000
     Eigenvalues ---    0.16000   0.16000   0.16000   0.16000   0.16000
     Eigenvalues ---    0.16000   0.16000   0.16000   0.22530   0.22583
     Eigenvalues ---    0.23518   0.23581   0.24516   0.24747   0.24865
     Eigenvalues ---    0.24931   0.24952   0.24985   0.24987   0.24988
     Eigenvalues ---    0.24990   0.24994   0.24997   0.24997   0.24998
     Eigenvalues ---    0.24998   0.25000   0.25000   0.25000   0.25000
     Eigenvalues ---    0.25000   0.25000   0.25000   0.25000   0.25000
     Eigenvalues ---    0.25000   0.28811   0.28968   0.30084   0.32121
     Eigenvalues ---    0.32582   0.32774   0.33111   0.33787   0.33973
     Eigenvalues ---    0.33976   0.33980   0.34090   0.34354   0.34466
     Eigenvalues ---    0.34577   0.34629   0.34693   0.34856   0.34937
     Eigenvalues ---    0.35198   0.35218   0.35468   0.35553   0.35582
     Eigenvalues ---    0.35728   0.35822   0.36078   0.36083   0.36212
     Eigenvalues ---    0.36396   0.36662   0.39352   0.40194   0.40195
     Eigenvalues ---    0.40651   0.40734   0.41524   0.41761   0.41931
     Eigenvalues ---    0.42300   0.42812   0.43455   0.43883   0.44092
     Eigenvalues ---    0.44536   0.44594   0.45014   0.45406   0.46251
     Eigenvalues ---    0.47305   0.47605   0.49310   0.49629   0.53060
     Eigenvalues ---    0.53246   0.93281   0.93432   0.93989   0.94585
     Eigenvalues --- 1000.000001000.000001000.000001000.000001000.00000
     Eigenvalues --- 1000.000001000.000001000.000001000.000001000.00000
     Eigenvalues --- 1000.000001000.000001000.000001000.000001000.00000
     Eigenvalues --- 1000.000001000.000001000.000001000.000001000.00000
     Eigenvalues --- 1000.000001000.000001000.000001000.000001000.00000
     Eigenvalues --- 1000.000001000.000001000.000001000.000001000.00000
     Eigenvalues --- 1000.000001000.000001000.000001000.000001000.00000
     Eigenvalues --- 1000.000001000.000001000.000001000.000001000.00000
     Eigenvalues --- 1000.000001000.000001000.000001000.000001000.00000
     Eigenvalues --- 1000.000001000.000001000.000001000.000001000.00000
     Eigenvalues --- 1000.000001000.000001000.000001000.000001000.00000
     Eigenvalues --- 1000.000001000.000001000.000001000.000001000.00000
     Eigenvalues --- 1000.000001000.000001000.000001000.000001000.00000
     Eigenvalues --- 1000.000001000.000001000.000001000.000001000.00000
     Eigenvalues --- 1000.000001000.000001000.000001000.000001000.00000
     Eigenvalues --- 1000.000001000.000001000.000001000.000001000.00000
     Eigenvalues --- 1000.000001000.000001000.000001000.000001000.00000
     Eigenvalues --- 1000.000001000.000001000.000001000.000001000.00000
     Eigenvalues --- 1000.000001000.000001000.000001000.000001000.00000
     Eigenvalues --- 1000.000001000.000001000.000001000.000001000.00000
     Eigenvalues --- 1000.000001000.000001000.000001000.000001000.00000
     Eigenvalues --- 1000.000001000.000001000.000001000.000001000.00000
     Eigenvalues --- 1000.000001000.000001000.000001000.000001000.00000
     Eigenvalues --- 1000.000001000.000001000.000001000.000001000.00000
     Eigenvalues --- 1000.000001000.000001000.000001000.000001000.00000
     Eigenvalues --- 1000.000001000.000001000.000001000.000001000.00000
     Eigenvalues --- 1000.000001000.000001000.000001000.000001000.00000
     Eigenvalues --- 1000.000001000.000001000.000001000.000001000.00000
     Eigenvalues --- 1000.000001000.00000
 RFO step:  Lambda=-6.97181875D-03 EMin= 8.02933640D-03
 Linear search not attempted -- first point.
 Iteration  1 RMS(Cart)=  0.06374136 RMS(Int)=  0.00093615
 Iteration  2 RMS(Cart)=  0.00360549 RMS(Int)=  0.00016208
 Iteration  3 RMS(Cart)=  0.00000615 RMS(Int)=  0.00016208
 Iteration  4 RMS(Cart)=  0.00000000 RMS(Int)=  0.00016208
 Iteration  1 RMS(Cart)=  0.00005353 RMS(Int)=  0.00000853
 Iteration  2 RMS(Cart)=  0.00003062 RMS(Int)=  0.00000951
 Iteration  3 RMS(Cart)=  0.00001751 RMS(Int)=  0.00001080
 Iteration  4 RMS(Cart)=  0.00001002 RMS(Int)=  0.00001170
 Iteration  5 RMS(Cart)=  0.00000573 RMS(Int)=  0.00001226
 Iteration  6 RMS(Cart)=  0.00000328 RMS(Int)=  0.00001258
 Iteration  7 RMS(Cart)=  0.00000187 RMS(Int)=  0.00001277
 Iteration  8 RMS(Cart)=  0.00000107 RMS(Int)=  0.00001289
 Iteration  9 RMS(Cart)=  0.00000061 RMS(Int)=  0.00001295
 Variable       Old X    -DE/DX   Delta X   Delta X   Delta X     New X
                                 (Linear)    (Quad)   (Total)
    R1        2.80935  -0.00003   0.00000   0.00007   0.00007   2.80942
    R2        2.64584  -0.00018   0.00000  -0.00040  -0.00039   2.64545
    R3        2.31147  -0.01020   0.00000  -0.01077  -0.01077   2.30070
    R4        2.67311  -0.00268   0.00000  -0.00447  -0.00455   2.66856
    R5        2.59267   0.00413   0.00000   0.00925   0.00922   2.60189
    R6        2.66894  -0.00110   0.00000  -0.00230  -0.00231   2.66663
    R7        2.69164  -0.00245   0.00000  -0.00584  -0.00586   2.68578
    R8        2.81049   0.00011   0.00000   0.00018   0.00018   2.81067
    R9        2.62173  -0.00282   0.00000  -0.00550  -0.00551   2.61621
   R10        2.65570  -0.00105   0.00000  -0.00243  -0.00242   2.65328
   R11        2.30889  -0.00813   0.00000  -0.00853  -0.00853   2.30036
   R12        2.70248  -0.00725   0.00000  -0.01741  -0.01737   2.68510
   R13        2.04786  -0.00039   0.00000  -0.00107  -0.00107   2.04679
   R14        2.70495  -0.00626   0.00000  -0.01744  -0.01734   2.68761
   R15        2.68322  -0.00294   0.00000  -0.00755  -0.00755   2.67567
   R16        2.68655  -0.01792   0.00000  -0.04331  -0.04324   2.64330
   R17        2.81233  -0.00066   0.00000  -0.00244  -0.00237   2.80996
   R18        2.76359   0.00837   0.00000   0.02240   0.02240   2.78599
   R19        2.66221  -0.00014   0.00000   0.00011   0.00011   2.66231
   R20        2.31391  -0.01322   0.00000  -0.01405  -0.01405   2.29986
   R21        2.79415   0.00357   0.00000   0.01059   0.01053   2.80468
   R22        2.63842   0.00029   0.00000   0.00137   0.00131   2.63972
   R23        2.31456  -0.01003   0.00000  -0.01067  -0.01067   2.30389
   R24        2.62448  -0.00307   0.00000  -0.00653  -0.00653   2.61796
   R25        2.64561   0.00150   0.00000   0.00338   0.00338   2.64899
   R26        2.04921  -0.00120   0.00000  -0.00332  -0.00332   2.04590
   R27        2.04741  -0.00072   0.00000  -0.00199  -0.00199   2.04542
   R28        2.77259   0.00211   0.00000   0.00574   0.00574   2.77833
   R29        2.77252   0.00190   0.00000   0.00517   0.00517   2.77770
   R30        2.06176  -0.00069   0.00000  -0.00195  -0.00195   2.05981
   R31        2.06551  -0.00188   0.00000  -0.00535  -0.00535   2.06016
   R32        2.05322  -0.00090   0.00000  -0.00252  -0.00252   2.05070
   R33        2.06368  -0.00130   0.00000  -0.00369  -0.00369   2.05999
   R34        2.06281  -0.00081   0.00000  -0.00229  -0.00229   2.06052
   R35        2.05355  -0.00093   0.00000  -0.00259  -0.00259   2.05096
   R36        2.61026  -0.01144   0.00000  -0.02361  -0.02352   2.58674
   R37        3.33354  -0.00791   0.00000  -0.02722  -0.02712   3.30643
   R38        2.66089   0.00597   0.00000   0.01329   0.01326   2.67415
   R39        2.03751   0.00160   0.00000   0.00433   0.00433   2.04184
   R40        3.30428   0.00192   0.00000   0.00673   0.00667   3.31095
   R41        2.64337  -0.00790   0.00000  -0.01640  -0.01651   2.62686
   R42        2.56898   0.00251   0.00000   0.00467   0.00467   2.57365
   R43        2.71289   0.00375   0.00000   0.00918   0.00918   2.72207
   R44        2.69228  -0.00076   0.00000  -0.00178  -0.00178   2.69050
   R45        2.63468  -0.00464   0.00000  -0.01009  -0.01010   2.62458
   R46        3.32730  -0.00090   0.00000  -0.00301  -0.00301   3.32429
   R47        2.05909  -0.00072   0.00000  -0.00202  -0.00202   2.05708
   R48        2.07178  -0.00077   0.00000  -0.00220  -0.00220   2.06958
   R49        2.07363  -0.00148   0.00000  -0.00428  -0.00428   2.06936
   R50        2.69029  -0.00038   0.00000  -0.00111  -0.00111   2.68917
   R51        2.56724   0.00281   0.00000   0.00520   0.00520   2.57245
   R52        3.26267  -0.00109   0.00000  -0.00283  -0.00283   3.25984
   R53        2.58608  -0.00186   0.00000  -0.00345  -0.00345   2.58264
   R54        2.04361  -0.00086   0.00000  -0.00234  -0.00234   2.04127
   R55        2.69011  -0.00073   0.00000  -0.00171  -0.00171   2.68840
   R56        2.04510  -0.00211   0.00000  -0.00579  -0.00579   2.03931
   R57        2.07371  -0.00141   0.00000  -0.00405  -0.00405   2.06966
   R58        2.05777  -0.00024   0.00000  -0.00068  -0.00068   2.05710
   R59        2.07375  -0.00144   0.00000  -0.00414  -0.00414   2.06961
    A1        2.03797   0.00054   0.00000   0.00293   0.00291   2.04088
    A2        2.14521  -0.00078   0.00000  -0.00345  -0.00345   2.14176
    A3        2.10001   0.00024   0.00000   0.00053   0.00053   2.10054
    A4        2.10395  -0.00092   0.00000  -0.00485  -0.00487   2.09907
    A5        2.08282   0.00317   0.00000   0.00944   0.00945   2.09228
    A6        2.09624  -0.00225   0.00000  -0.00436  -0.00443   2.09181
    A7        2.10093   0.00143   0.00000   0.00526   0.00526   2.10618
    A8        2.07104   0.00036   0.00000   0.00370   0.00366   2.07470
    A9        2.11118  -0.00179   0.00000  -0.00889  -0.00888   2.10230
   A10        2.10296  -0.00061   0.00000  -0.00225  -0.00227   2.10070
   A11        2.09911  -0.00103   0.00000  -0.00352  -0.00357   2.09554
   A12        2.08110   0.00164   0.00000   0.00581   0.00584   2.08694
   A13        2.03739   0.00001   0.00000   0.00027   0.00025   2.03765
   A14        2.12972  -0.00029   0.00000  -0.00123  -0.00122   2.12850
   A15        2.11607   0.00028   0.00000   0.00097   0.00097   2.11704
   A16        2.15098  -0.00360   0.00000  -0.01297  -0.01334   2.13764
   A17        2.04399   0.00477   0.00000   0.02527   0.02482   2.06881
   A18        2.08722  -0.00111   0.00000  -0.01006  -0.01050   2.07672
   A19        2.11101  -0.00212   0.00000  -0.00877  -0.00878   2.10223
   A20        2.04385   0.00415   0.00000   0.01766   0.01752   2.06137
   A21        2.12832  -0.00202   0.00000  -0.00881  -0.00884   2.11949
   A22        2.08678   0.00294   0.00000   0.00874   0.00840   2.09519
   A23        2.04738   0.00546   0.00000   0.02221   0.02184   2.06922
   A24        2.14662  -0.00832   0.00000  -0.02739  -0.02801   2.11861
   A25        2.04892   0.00472   0.00000   0.01534   0.01549   2.06441
   A26        2.00754   0.00737   0.00000   0.03024   0.03017   2.03772
   A27        2.22643  -0.01210   0.00000  -0.04557  -0.04565   2.18077
   A28        2.06022  -0.00196   0.00000  -0.00808  -0.00802   2.05220
   A29        2.17370  -0.00618   0.00000  -0.02372  -0.02381   2.14989
   A30        2.04919   0.00814   0.00000   0.03200   0.03191   2.08109
   A31        2.01621   0.00169   0.00000   0.00838   0.00821   2.02441
   A32        2.14188  -0.00191   0.00000  -0.00825  -0.00823   2.13365
   A33        2.12500   0.00023   0.00000   0.00010   0.00012   2.12512
   A34        2.10943  -0.00064   0.00000  -0.00238  -0.00248   2.10695
   A35        2.11468  -0.00252   0.00000  -0.01062  -0.01063   2.10405
   A36        2.05896   0.00317   0.00000   0.01322   0.01322   2.07219
   A37        2.11176  -0.00027   0.00000  -0.00150  -0.00153   2.11023
   A38        2.05670   0.00047   0.00000   0.00277   0.00277   2.05947
   A39        2.11471  -0.00020   0.00000  -0.00123  -0.00122   2.11349
   A40        2.08567   0.00147   0.00000   0.00723   0.00715   2.09283
   A41        2.07549  -0.00032   0.00000  -0.00111  -0.00111   2.07438
   A42        2.12199  -0.00114   0.00000  -0.00602  -0.00603   2.11596
   A43        2.20043  -0.00246   0.00000  -0.00801  -0.00807   2.19236
   A44        2.02023   0.00085   0.00000   0.00252   0.00255   2.02278
   A45        2.06252   0.00161   0.00000   0.00549   0.00551   2.06803
   A46        2.18316  -0.00045   0.00000  -0.00134  -0.00135   2.18181
   A47        2.02959   0.00035   0.00000   0.00114   0.00114   2.03073
   A48        2.07044   0.00011   0.00000   0.00020   0.00020   2.07064
   A49        1.91737  -0.00020   0.00000  -0.00132  -0.00131   1.91606
   A50        1.91808  -0.00020   0.00000  -0.00110  -0.00110   1.91698
[...]
 Alpha  occ. eigenvalues --   -0.57740  -0.56539  -0.55689  -0.55620  -0.54159
 Alpha  occ. eigenvalues --   -0.53815  -0.52036  -0.50538  -0.50160  -0.50023
 Alpha  occ. eigenvalues --   -0.49259  -0.48944  -0.48808  -0.48157  -0.47908
 Alpha  occ. eigenvalues --   -0.47715  -0.47459  -0.46912  -0.46587  -0.45606
 Alpha  occ. eigenvalues --   -0.45329  -0.44978  -0.44925  -0.44602  -0.44061
 Alpha  occ. eigenvalues --   -0.42943  -0.42789  -0.42376  -0.42079  -0.41825
 Alpha  occ. eigenvalues --   -0.41484  -0.41294  -0.41003  -0.40768  -0.40146
 Alpha  occ. eigenvalues --   -0.39910  -0.38936  -0.38356  -0.37805  -0.36991
 Alpha  occ. eigenvalues --   -0.35843  -0.35573  -0.33820  -0.33367  -0.33236
 Alpha  occ. eigenvalues --   -0.32861  -0.32658  -0.31343  -0.30484  -0.29977
 Alpha  occ. eigenvalues --   -0.29443  -0.29335  -0.28901  -0.28574  -0.27208
 Alpha  occ. eigenvalues --   -0.26627  -0.24242  -0.23967  -0.18735
 Alpha virt. eigenvalues --   -0.13466  -0.07210  -0.06149  -0.05053  -0.04387
 Alpha virt. eigenvalues --   -0.01093  -0.00113  -0.00067   0.00134   0.00531
 Alpha virt. eigenvalues --    0.00771   0.00885   0.01001   0.01167   0.01769
 Alpha virt. eigenvalues --    0.01970   0.02154   0.02618   0.03122   0.03195
 Alpha virt. eigenvalues --    0.03522   0.03696   0.04074   0.04211   0.04461
 Alpha virt. eigenvalues --    0.04734   0.04977   0.05319   0.05627   0.05766
 Alpha virt. eigenvalues --    0.06056   0.06134   0.06195   0.06368   0.06676
 Alpha virt. eigenvalues --    0.07208   0.07595   0.07863   0.07899   0.08132
 Alpha virt. eigenvalues --    0.08612   0.08837   0.09035   0.09115   0.09226
 Alpha virt. eigenvalues --    0.09441   0.09607   0.09848   0.10263   0.10611
 Alpha virt. eigenvalues --    0.10862   0.11315   0.11459   0.11650   0.12113
 Alpha virt. eigenvalues --    0.12339   0.12516   0.12769   0.13106   0.13319
 Alpha virt. eigenvalues --    0.13510   0.13646   0.13768   0.14211   0.14312
 Alpha virt. eigenvalues --    0.14478   0.14741   0.14855   0.15158   0.15363
 Alpha virt. eigenvalues --    0.15456   0.15708   0.15840   0.15945   0.16279
 Alpha virt. eigenvalues --    0.16362   0.16735   0.16919   0.17385   0.17659
 Alpha virt. eigenvalues --    0.17895   0.18024   0.18168   0.18336   0.18419
 Alpha virt. eigenvalues --    0.18763   0.19162   0.19328   0.19375   0.19516
 Alpha virt. eigenvalues --    0.19709   0.19953   0.20144   0.20265   0.20434
 Alpha virt. eigenvalues --    0.20500   0.20630   0.20748   0.20959   0.21269
 Alpha virt. eigenvalues --    0.21479   0.21695   0.21797   0.21948   0.22358
 Alpha virt. eigenvalues --    0.22510   0.22616   0.22895   0.23046   0.23183
 Alpha virt. eigenvalues --    0.23436   0.23570   0.23787   0.24068   0.24246
 Alpha virt. eigenvalues --    0.24444   0.24754   0.24895   0.25017   0.25168
 Alpha virt. eigenvalues --    0.25341   0.25572   0.25856   0.26067   0.26152
 Alpha virt. eigenvalues --    0.26328   0.26447   0.26728   0.26938   0.27310
 Alpha virt. eigenvalues --    0.27550   0.27949   0.28051   0.28108   0.28303
 Alpha virt. eigenvalues --    0.28482   0.28708   0.28969   0.29212   0.29366
 Alpha virt. eigenvalues --    0.29497   0.29662   0.29928   0.30205   0.30509
 Alpha virt. eigenvalues --    0.30795   0.30843   0.31217   0.31440   0.31679
 Alpha virt. eigenvalues --    0.31793   0.31986   0.32387   0.32567   0.32800
 Alpha virt. eigenvalues --    0.32874   0.33279   0.33660   0.33884   0.34190
 Alpha virt. eigenvalues --    0.34503   0.34660   0.35191   0.35510   0.35686
 Alpha virt. eigenvalues --    0.36015   0.36447   0.36494   0.37184   0.37871
 Alpha virt. eigenvalues --    0.38087   0.38380   0.38784   0.38981   0.39138
 Alpha virt. eigenvalues --    0.39551   0.40161   0.40218   0.41255   0.41475
 Alpha virt. eigenvalues --    0.42079   0.42151   0.42606   0.42844   0.43305
 Alpha virt. eigenvalues --    0.43954   0.44337   0.44549   0.44850   0.45192
 Alpha virt. eigenvalues --    0.45569   0.45784   0.45843   0.46082   0.46481
 Alpha virt. eigenvalues --    0.46821   0.46933   0.47671   0.48395   0.49188
 Alpha virt. eigenvalues --    0.49775   0.50015   0.50106   0.50712   0.51199
 Alpha virt. eigenvalues --    0.51800   0.51930   0.52549   0.52850   0.53707
 Alpha virt. eigenvalues --    0.54269   0.54573   0.55146   0.55429   0.55967
 Alpha virt. eigenvalues --    0.56145   0.56499   0.56625   0.57043   0.57116
 Alpha virt. eigenvalues --    0.57143   0.58509   0.58558   0.58781   0.59314
 Alpha virt. eigenvalues --    0.59946   0.60264   0.60850   0.61110   0.61191
 Alpha virt. eigenvalues --    0.61581   0.62014   0.62413   0.62642   0.63343
 Alpha virt. eigenvalues --    0.63585   0.64007   0.64186   0.64393   0.64967
 Alpha virt. eigenvalues --    0.65357   0.65598   0.65678   0.66271   0.66399
 Alpha virt. eigenvalues --    0.67086   0.67452   0.67650   0.67940   0.68485
 Alpha virt. eigenvalues --    0.68768   0.68948   0.69412   0.69653   0.70294
 Alpha virt. eigenvalues --    0.70833   0.71167   0.71193   0.71569   0.72119
 Alpha virt. eigenvalues --    0.72425   0.73181   0.73580   0.73741   0.74075
 Alpha virt. eigenvalues --    0.74363   0.74633   0.74974   0.75234   0.75373
 Alpha virt. eigenvalues --    0.75841   0.76016   0.76361   0.76491   0.77092
 Alpha virt. eigenvalues --    0.77144   0.77650   0.77933   0.78810   0.78966
 Alpha virt. eigenvalues --    0.79349   0.79744   0.80135   0.80591   0.81462
 Alpha virt. eigenvalues --    0.81999   0.83420   0.83444   0.84164   0.84828
 Alpha virt. eigenvalues --    0.86391   0.86570   0.86965   0.87457   0.87782
 Alpha virt. eigenvalues --    0.88406   0.89046   0.89472   0.89976   0.90139
 Alpha virt. eigenvalues --    0.91337   0.91679   0.92241   0.92386   0.92876
 Alpha virt. eigenvalues --    0.93215   0.93817   0.93915   0.95119   0.95218
 Alpha virt. eigenvalues --    0.95670   0.95847   0.96092   0.96832   0.97175
 Alpha virt. eigenvalues --    0.97908   0.98207   0.98708   0.99506   1.00090
 Alpha virt. eigenvalues --    1.00675   1.00961   1.01339   1.01430   1.02118
 Alpha virt. eigenvalues --    1.02521   1.02741   1.03790   1.04344   1.04435
 Alpha virt. eigenvalues --    1.04840   1.05022   1.05315   1.05478   1.06105
 Alpha virt. eigenvalues --    1.06415   1.07129   1.07268   1.07875   1.08129
 Alpha virt. eigenvalues --    1.08316   1.09177   1.09970   1.10372   1.10767
 Alpha virt. eigenvalues --    1.11557   1.11922   1.12225   1.12975   1.13573
 Alpha virt. eigenvalues --    1.14863   1.15361   1.15840   1.16849   1.17494
 Alpha virt. eigenvalues --    1.17920   1.18407   1.18771   1.19253   1.19407
 Alpha virt. eigenvalues --    1.20991   1.21946   1.22835   1.24727   1.25025
 Alpha virt. eigenvalues --    1.25732   1.26052   1.26437   1.26581   1.27003
 Alpha virt. eigenvalues --    1.27516   1.27851   1.28745   1.29469   1.31498
 Alpha virt. eigenvalues --    1.32156   1.32445   1.33041   1.33975   1.34460
 Alpha virt. eigenvalues --    1.35412   1.36075   1.36520   1.38014   1.38180
 Alpha virt. eigenvalues --    1.39521   1.40586   1.41217   1.41958   1.42372
 Alpha virt. eigenvalues --    1.42734   1.43039   1.43121   1.43502   1.44248
 Alpha virt. eigenvalues --    1.44516   1.44771   1.44878   1.45417   1.45525
 Alpha virt. eigenvalues --    1.46083   1.46459   1.46536   1.47785   1.48133
 Alpha virt. eigenvalues --    1.50048   1.50366   1.50735   1.51633   1.52227
 Alpha virt. eigenvalues --    1.52464   1.52976   1.53977   1.54181   1.54517
 Alpha virt. eigenvalues --    1.54819   1.55072   1.55220   1.55698   1.56277
 Alpha virt. eigenvalues --    1.57119   1.58692   1.59436   1.60162   1.60915
 Alpha virt. eigenvalues --    1.61912   1.62391   1.63138   1.63505   1.63989
 Alpha virt. eigenvalues --    1.64805   1.65226   1.65845   1.66105   1.66864
 Alpha virt. eigenvalues --    1.67246   1.67929   1.68553   1.69321   1.69599
 Alpha virt. eigenvalues --    1.69961   1.70364   1.70638   1.70913   1.71064
 Alpha virt. eigenvalues --    1.71924   1.73233   1.73898   1.74264   1.74994
 Alpha virt. eigenvalues --    1.75292   1.76665   1.77312   1.77568   1.78374
 Alpha virt. eigenvalues --    1.79410   1.79947   1.80565   1.80788   1.81825
 Alpha virt. eigenvalues --    1.82524   1.83655   1.84713   1.85464   1.85956
 Alpha virt. eigenvalues --    1.86295   1.86605   1.86918   1.87319   1.88451
 Alpha virt. eigenvalues --    1.89081   1.89776   1.90084   1.90141   1.90399
 Alpha virt. eigenvalues --    1.91333   1.91832   1.92679   1.93990   1.95143
 Alpha virt. eigenvalues --    1.95174   1.95334   1.96772   1.97197   1.98118
 Alpha virt. eigenvalues --    1.99066   1.99950   2.00749   2.01210   2.01957
 Alpha virt. eigenvalues --    2.02276   2.02867   2.03703   2.03847   2.04049
 Alpha virt. eigenvalues --    2.05677   2.06059   2.06254   2.06426   2.07388
 Alpha virt. eigenvalues --    2.08556   2.09046   2.09416   2.10665   2.11592
 Alpha virt. eigenvalues --    2.12048   2.12426   2.12908   2.14210   2.15356
 Alpha virt. eigenvalues --    2.15528   2.15995   2.16383   2.17052   2.18399
 Alpha virt. eigenvalues --    2.18882   2.19379   2.20288   2.21208   2.21579
 Alpha virt. eigenvalues --    2.22694   2.22822   2.25518   2.25820   2.26792
 Alpha virt. eigenvalues --    2.27582   2.31625   2.32144   2.33088   2.34202
 Alpha virt. eigenvalues --    2.36641   2.37351   2.39296   2.39889   2.41878
 Alpha virt. eigenvalues --    2.43297   2.43651   2.43851   2.44846   2.45628
 Alpha virt. eigenvalues --    2.46196   2.46823   2.46933   2.48484   2.48969
 Alpha virt. eigenvalues --    2.50102   2.50704   2.51644   2.52030   2.52420
 Alpha virt. eigenvalues --    2.52858   2.53021   2.53177   2.53900   2.54897
 Alpha virt. eigenvalues --    2.56073   2.56710   2.58230   2.58758   2.58950
 Alpha virt. eigenvalues --    2.59469   2.62273   2.63097   2.64068   2.64763
 Alpha virt. eigenvalues --    2.65445   2.66952   2.67502   2.68161   2.68748
 Alpha virt. eigenvalues --    2.68791   2.69147   2.69846   2.70204   2.71080
 Alpha virt. eigenvalues --    2.71558   2.72026   2.72588   2.73357   2.74732
 Alpha virt. eigenvalues --    2.75260   2.75754   2.77533   2.78775   2.79197
 Alpha virt. eigenvalues --    2.80942   2.82159   2.82571   2.83581   2.84225
 Alpha virt. eigenvalues --    2.84289   2.84503   2.84951   2.85723   2.86774
 Alpha virt. eigenvalues --    2.86926   2.87367   2.88085   2.88714   2.88983
 Alpha virt. eigenvalues --    2.90311   2.91507   2.92188   2.92875   2.93996
 Alpha virt. eigenvalues --    2.94688   2.94960   2.96635   2.97389   2.99192
 Alpha virt. eigenvalues --    2.99942   3.00715   3.01412   3.03952   3.04758
 Alpha virt. eigenvalues --    3.05069   3.05588   3.07156   3.08338   3.08572
 Alpha virt. eigenvalues --    3.09694   3.11347   3.12979   3.13833   3.14367
 Alpha virt. eigenvalues --    3.15213   3.16518   3.17331   3.20229   3.20832
 Alpha virt. eigenvalues --    3.21817   3.24084   3.24444   3.24519   3.24967
 Alpha virt. eigenvalues --    3.26648   3.29282   3.29652   3.31566   3.32628
 Alpha virt. eigenvalues --    3.34177   3.34685   3.34960   3.35368   3.36546
 Alpha virt. eigenvalues --    3.37717   3.38618   3.39461   3.42038   3.42912
 Alpha virt. eigenvalues --    3.44309   3.44900   3.46109   3.46977   3.48911
 Alpha virt. eigenvalues --    3.49904   3.51327   3.53797   3.56334   3.57795
 Alpha virt. eigenvalues --    3.59869   3.60465   3.61856   3.65257   3.65621
 Alpha virt. eigenvalues --    3.66669   3.69325   3.72194   3.72382   3.72935
 Alpha virt. eigenvalues --    3.76646   3.77039   3.77400   3.81994   3.82633
 Alpha virt. eigenvalues --    3.84992   3.85175   3.86115   3.90039   3.92112
 Alpha virt. eigenvalues --    3.92954   3.93330   3.93834   3.97028   4.01066
 Alpha virt. eigenvalues --    4.03482   4.04528   4.08788   4.11120   4.12067
 Alpha virt. eigenvalues --    4.14962   4.19028   4.23527   4.24826   4.27340
 Alpha virt. eigenvalues --    4.34976   4.37780   4.39972   4.49773   4.66363
 Alpha virt. eigenvalues --    4.84080   4.86514   4.87795   4.89872   5.02332
 Alpha virt. eigenvalues --    5.03464   5.03754   5.04877   5.05295   5.07899
 Alpha virt. eigenvalues --    5.11075   5.12734   5.24721   5.26497   5.28597
 Alpha virt. eigenvalues --    5.31644   5.42731   5.44338   5.75698   5.77168
 Alpha virt. eigenvalues --    5.80253   5.80790   5.81846   5.86410   8.03085
 Alpha virt. eigenvalues --    8.06653  17.29866  17.34435  17.50325  17.53405
 Alpha virt. eigenvalues --   17.57803  17.63179  23.48724  23.56602  23.72771
 Alpha virt. eigenvalues --   23.78940  23.82384  23.82808  23.83986  23.86687
 Alpha virt. eigenvalues --   23.87260  23.88224  23.88782  23.90790  23.91564
 Alpha virt. eigenvalues --   23.93445  23.94603  23.95952  23.96522  23.99886
 Alpha virt. eigenvalues --   24.01419  24.04655  24.05394  24.05553  24.12049
 Alpha virt. eigenvalues --   24.13865  24.15729  24.16621  35.55643  35.58648
 Alpha virt. eigenvalues --   49.96712  49.97897  50.01921  50.03816  50.05787
 Alpha virt. eigenvalues --   50.07440 189.20307 189.24798
          Condensed to atoms (all electrons):
 Mulliken charges:
               1
     1  C    0.391883
     2  C    0.001747
     3  C    0.154129
     4  C    0.183018
     5  C    0.245972
     6  C   -0.712216
     7  C    0.209687
     8  C    0.131109
     9  C    0.665831
    10  C   -0.422180
    11  C    0.293118
    12  C    0.125495
    13  C   -0.518451
    14  C   -0.633008
    15  H    0.161518
    16  H    0.162619
    17  H    0.171503
    18  N   -0.164889
    19  N   -0.147946
    20  O   -0.269010
    21  O   -0.268967
    22  O   -0.271448
    23  O   -0.088132
    24  C   -0.207332
    25  H    0.175221
    26  H    0.179196
    27  H    0.184259
    28  C   -0.198214
    29  H    0.175562
    30  H    0.175765
    31  H    0.183221
    32  C    0.202389
    33  C   -0.588609
    34  S   -0.255685
    35  C   -0.379800
    36  H    0.112355
    37  C    0.461551
    38  O   -0.129282
    39  C    0.941632
    40  C   -0.236629
    41  C    0.048053
    42  S   -0.258998
    43  H    0.164280
    44  H    0.155131
    45  H    0.141992
    46  C   -0.502000
    47  O   -0.142203
    48  C   -0.302427
    49  H    0.128968
    50  C   -0.237301
    51  H    0.157429
    52  H    0.142401
    53  H    0.163024
    54  H    0.144675
 Sum of Mulliken charges =  -0.00000
 Mulliken charges with hydrogens summed into heavy atoms:
               1
     1  C    0.391883
     2  C    0.001747
     3  C    0.154129
     4  C    0.183018
     5  C    0.245972
     6  C   -0.540713
     7  C    0.209687
     8  C    0.131109
     9  C    0.665831
    10  C   -0.422180
    11  C    0.293118
    12  C    0.125495
    13  C   -0.355832
    14  C   -0.471490
    18  N   -0.164889
    19  N   -0.147946
    20  O   -0.269010
    21  O   -0.268967
    22  O   -0.271448
    23  O   -0.088132
    24  C    0.331343
    28  C    0.336333
    32  C    0.202389
    33  C   -0.476255
    34  S   -0.255685
    35  C   -0.379800
    37  C    0.461551
    38  O   -0.129282
    39  C    0.941632
    40  C    0.224772
    41  C    0.048053
    42  S   -0.258998
    46  C   -0.373032
    47  O   -0.142203
    48  C   -0.144997
    50  C    0.212799
 Electronic spatial extent (au):  <R**2>=          22281.3090
 Charge=             -0.0000 electrons
 Dipole moment (field-independent basis, Debye):
    X=              1.7108    Y=              0.0011    Z=             -0.0058  Tot=              1.7108
 Quadrupole moment (field-independent basis, Debye-Ang):
   XX=           -221.4174   YY=           -227.2373   ZZ=           -202.6807
   XY=             -0.5793   XZ=             -8.8463   YZ=             14.3397
 Traceless Quadrupole moment (field-independent basis, Debye-Ang):
   XX=             -4.3056   YY=            -10.1255   ZZ=             14.4311
   XY=             -0.5793   XZ=             -8.8463   YZ=             14.3397
 Octapole moment (field-independent basis, Debye-Ang**2):
  XXX=            280.4193  YYY=            -12.1591  ZZZ=              4.8041  XYY=             42.2361
  XXY=            -51.7106  XXZ=            -42.6779  XZZ=             66.9536  YZZ=             -1.7418
  YYZ=             -5.0488  XYZ=             44.9386
 Hexadecapole moment (field-independent basis, Debye-Ang**3):
 XXXX=         -21314.4909 YYYY=          -6353.9877 ZZZZ=          -2025.8764 XXXY=           -407.2246
 XXXZ=           -357.3872 YYYX=            451.4698 YYYZ=             99.5707 ZZZX=            -47.3049
 ZZZY=            148.1006 XXYY=          -4833.1245 XXZZ=          -3707.2100 YYZZ=          -1353.1619
 XXYZ=            256.4577 YYXZ=           -124.7263 ZZXY=              5.6481
 N-N= 4.086407432673D+03 E-N=-1.371292208918D+04  KE= 2.352047608640D+03
 Unable to Open any file for archive entry.
 1\1\GINC-CX3-6-18\FOpt\RB3LYP\6-311+G(d,p)\C26H18N2O6S2\NS5018\26-Nov-
 2020\0\\# opt=modredundant b3lyp/6-311+g(d,p)\\NDI_80.pdb\\0,1\C,-2.54
 26337184,-2.8936379472,-0.7271538841\C,-2.2549019844,-1.4652226015,-0.
 4293039588\C,-3.297832204,-0.5930707776,-0.0472254981\C,-4.6271788512,
 -1.060940348,0.0550158031\C,-4.9485559641,-2.485708315,-0.2322594445\C
 ,-0.9641497892,-0.9955439834,-0.518713949\C,-2.9955596875,0.7690047696
 ,0.2257030614\C,-1.6557510546,1.2395221408,0.1269920151\C,-0.629805873
 9,0.3498951494,-0.217662669\C,-1.3911747952,2.6906441252,0.3652222233\
 C,-3.8080850381,3.0684047865,0.866779818\C,-4.0587474463,1.6316476412,
 0.5889136159\C,-5.3540723503,1.1519606053,0.6842978222\C,-5.6420228759
 ,-0.1945973328,0.4196732597\H,-6.6536967285,-0.5731622053,0.4919006323
 \H,-6.1389952719,1.8425579815,0.9656654141\H,-0.1776360165,-1.68254004
 53,-0.8043853516\N,-2.4875531653,3.4997207042,0.7186975819\N,-3.875621
 5468,-3.3086187662,-0.6099660982\O,-1.6788756341,-3.6832941853,-1.0580
 91586\O,-6.0811295944,-2.9210885646,-0.1469585587\O,-4.6984601753,3.83
 08218861,1.196493764\O,-0.2951883537,3.2024119047,0.2595443504\C,-2.18
 66457897,4.9212491971,0.9455597154\H,-1.4664137312,5.0216597793,1.7578
 293274\H,-1.7503355831,5.3526354298,0.0447744901\H,-3.1161249559,5.421
 289754,1.1982020284\C,-4.1443756371,-4.7234661182,-0.9066664668\H,-3.8
 339866112,-4.9496925331,-1.926804932\H,-3.576325827,-5.3569680943,-0.2
 250271216\H,-5.2093538579,-4.8936537559,-0.7853121755\C,0.8015386562,0
 .7086666784,-0.3142532018\C,1.7073691324,0.8436996323,0.7029887656\S,1
 .5763033592,0.7740204273,-1.8715379561\C,3.0323914989,1.0413194826,0.2
 331458894\H,1.4275958185,0.8152105213,1.746010044\C,3.1565338319,1.041
 2156282,-1.1481857655\O,4.1415983339,1.2128834183,1.0050087301\C,4.345
 6734587,1.2514134266,-1.9345413501\C,3.960369185,1.3797634617,2.406665
 0297\C,4.4689107598,1.2201354248,-3.3163584292\S,5.9115266688,1.611729
 3987,-1.2193740988\H,4.9515180658,1.5675331401,2.8162125672\H,3.307901
 4862,2.2323974583,2.6210818417\H,3.5473733447,0.47401602,2.8634540455\
 C,5.7847266424,1.4797533837,-3.7922224362\O,3.3711525557,0.9563878931,
 -4.0793026481\C,6.6629153515,1.7082903654,-2.770206959\H,6.0676171485,
 1.495080033,-4.8346804048\C,3.5292816871,0.931164933,-5.4929238051\H,7
 .7179254204,1.9235163011,-2.8413099815\H,4.2352226326,0.1517236913,-5.
 7984068062\H,2.5449831076,0.706488461,-5.9003131498\H,3.8657619665,1.9
 023705392,-5.8706831499\\Version=ES64L-G16RevC.01\State=1-A\HF=-2359.3
 348836\RMSD=2.735e-09\RMSF=5.076e-04\Dipole=0.6387547,0.1502101,-0.149
 9065\Quadrupole=-6.3100288,-11.0196247,17.3296535,3.7199269,-1.1701206
 ,-1.4600881\PG=C01 [X(C26H18N2O6S2)]\\@
 The archive entry for this job was punched.


 ERROR IS A HARDY PLANT... IT FLOURISHETH IN EVERY SOIL.
            MARTIN FARQUHAR TUPPER
 Job cpu time:       2 days  0 hours 53 minutes 21.4 seconds.
 Elapsed time:       0 days  3 hours  5 minutes  6.4 seconds.
 File lengths (MBytes):  RWF=    496 Int=      0 D2E=      0 Chk=     70 Scr=      1
 Normal termination of Gaussian 16 at Thu Nov 26 11:42:45 2020.
