 Entering Gaussian System, Link 0=g16
 Input=NDI_-30.gjf
 Output=NDI_-30.log
 Initial command:
 /apps/gaussian/g16-c01-avx/g16/l1.exe "/tmp/pbs.2610758[30].pbs/Gau-566535.inp" -scrdir="/tmp/pbs.2610758[30].pbs/"
 Entering Link 1 = /apps/gaussian/g16-c01-avx/g16/l1.exe PID=    566536.
  
 Copyright (c) 1988-2019, Gaussian, Inc.  All Rights Reserved.
  
 This is part of the Gaussian(R) 16 program.  It is based on
 the Gaussian(R) 09 system (copyright 2009, Gaussian, Inc.),
 the Gaussian(R) 03 system (copyright 2003, Gaussian, Inc.),
 the Gaussian(R) 98 system (copyright 1998, Gaussian, Inc.),
 the Gaussian(R) 94 system (copyright 1995, Gaussian, Inc.),
 the Gaussian 92(TM) system (copyright 1992, Gaussian, Inc.),
 the Gaussian 90(TM) system (copyright 1990, Gaussian, Inc.),
 the Gaussian 88(TM) system (copyright 1988, Gaussian, Inc.),
 the Gaussian 86(TM) system (copyright 1986, Carnegie Mellon
 University), and the Gaussian 82(TM) system (copyright 1983,
 Carnegie Mellon University). Gaussian is a federally registered
 trademark of Gaussian, Inc.
  
 This software contains proprietary and confidential information,
 including trade secrets, belonging to Gaussian, Inc.
  
 This software is provided under written license and may be
 used, copied, transmitted, or stored only in accord with that
 written license.
  
 The following legend is applicable only to US Government
 contracts under FAR:
  
                    RESTRICTED RIGHTS LEGEND
  
 Use, reproduction and disclosure by the US Government is
 subject to restrictions as set forth in subparagraphs (a)
 and (c) of the Commercial Computer Software - Restricted
 Rights clause in FAR 52.227-19.
  
 Gaussian, Inc.
 340 Quinnipiac St., Bldg. 40, Wallingford CT 06492
  
  
 ---------------------------------------------------------------
 Warning -- This program may not be used in any manner that
 competes with the business of Gaussian, Inc. or will provide
 assistance to any competitor of Gaussian, Inc.  The licensee
 of this program is prohibited from giving any competitor of
 Gaussian, Inc. access to this program.  By using this program,
 the user acknowledges that Gaussian, Inc. is engaged in the
 business of creating and licensing software in the field of
 computational chemistry and represents and warrants to the
 licensee that it is not a competitor of Gaussian, Inc. and that
 it will not use this program in any manner prohibited above.
 ---------------------------------------------------------------
  

 Cite this work as:
 Gaussian 16, Revision C.01,
 M. J. Frisch, G. W. Trucks, H. B. Schlegel, G. E. Scuseria, 
 M. A. Robb, J. R. Cheeseman, G. Scalmani, V. Barone, 
 G. A. Petersson, H. Nakatsuji, X. Li, M. Caricato, A. V. Marenich, 
 J. Bloino, B. G. Janesko, R. Gomperts, B. Mennucci, H. P. Hratchian, 
 J. V. Ortiz, A. F. Izmaylov, J. L. Sonnenberg, D. Williams-Young, 
 F. Ding, F. Lipparini, F. Egidi, J. Goings, B. Peng, A. Petrone, 
 T. Henderson, D. Ranasinghe, V. G. Zakrzewski, J. Gao, N. Rega, 
 G. Zheng, W. Liang, M. Hada, M. Ehara, K. Toyota, R. Fukuda, 
 J. Hasegawa, M. Ishida, T. Nakajima, Y. Honda, O. Kitao, H. Nakai, 
 T. Vreven, K. Throssell, J. A. Montgomery, Jr., J. E. Peralta, 
 F. Ogliaro, M. J. Bearpark, J. J. Heyd, E. N. Brothers, K. N. Kudin, 
 V. N. Staroverov, T. A. Keith, R. Kobayashi, J. Normand, 
 K. Raghavachari, A. P. Rendell, J. C. Burant, S. S. Iyengar, 
 J. Tomasi, M. Cossi, J. M. Millam, M. Klene, C. Adamo, R. Cammi, 
 J. W. Ochterski, R. L. Martin, K. Morokuma, O. Farkas, 
 J. B. Foresman, and D. J. Fox, Gaussian, Inc., Wallingford CT, 2019.
 
 ******************************************
 Gaussian 16:  ES64L-G16RevC.01  3-Jul-2019
                26-Nov-2020 
 ******************************************
 %mem=10GB
 %nprocshared=16
 Will use up to   16 processors via shared memory.
 -------------------------------------
 # opt=modredundant b3lyp/6-311+g(d,p)
 -------------------------------------
 1/18=120,19=15,26=3,38=1/1,3;
 2/9=110,12=2,17=6,18=5,40=1/2;
 3/5=4,6=6,7=111,11=2,25=1,30=1,71=1,74=-5/1,2,3;
 4//1;
 5/5=2,38=5/2;
 6/7=2,8=2,9=2,10=2,28=1/1;
 7//1,2,3,16;
 1/18=20,19=15,26=3/3(2);
 2/9=110/2;
 99//99;
 2/9=110/2;
 3/5=4,6=6,7=111,11=2,25=1,30=1,71=1,74=-5/1,2,3;
 4/5=5,16=3,69=1/1;
 5/5=2,38=5/2;
 7//1,2,3,16;
 1/18=20,19=15,26=3/3(-5);
 2/9=110/2;
 6/7=2,8=2,9=2,10=2,19=2,28=1/1;
 99/9=1/99;
 -----------
 NDI_-30.pdb
 -----------
 Symbolic Z-matrix:
 Charge =  0 Multiplicity = 1
 C                    -2.563    -2.994    -0.409 
 C                    -2.257    -1.551    -0.224 
 C                    -3.301    -0.607    -0.083 
 C                    -4.65     -1.024    -0.115 
 C                    -4.992    -2.459    -0.304 
 C                    -0.949    -1.137    -0.215 
 C                    -2.962     0.764     0.102 
 C                    -1.595     1.188     0.123 
 C                    -0.561     0.232    -0.072 
 C                    -1.328     2.616     0.446 
 C                    -3.777     3.115     0.508 
 C                    -4.035     1.679     0.268 
 C                    -5.356     1.252     0.23 
 C                    -5.672    -0.098     0.036 
 H                    -6.699    -0.442     0.008 
 H                    -6.133     1.997     0.361 
 H                    -0.19     -1.895    -0.369 
 N                    -2.432     3.476     0.608 
 N                    -3.916    -3.353    -0.438 
 O                    -1.695    -3.847    -0.532 
 O                    -6.149    -2.85     -0.34 
 O                    -4.676     3.938     0.629 
 O                    -0.212     3.097     0.596 
 C                    -2.111     4.875     0.912 
 H                    -1.54      4.931     1.84 
 H                    -1.5       5.299     0.111 
 H                    -3.05      5.414     1.003 
 C                    -4.206    -4.779    -0.625 
 H                    -3.759    -5.126    -1.559 
 H                    -3.775    -5.355     0.196 
 H                    -5.286    -4.897    -0.649 
 C                     0.876     0.482    -0.178 
 C                     1.57      1.577    -0.655 
 S                     1.997    -0.825     0.206 
 C                     2.964     1.38     -0.707 
 H                     1.085     2.494    -0.948 
 C                     3.388     0.123    -0.264 
 O                     3.892     2.277    -1.136 
 C                     4.735    -0.361    -0.157 
 C                     3.442     3.593    -1.444 
 C                     5.155    -1.622     0.263 
 S                     6.143     0.617    -0.561 
 H                     4.336     4.168    -1.684 
 H                     2.769     3.589    -2.31 
 H                     2.929     4.047    -0.588 
 C                     6.568    -1.797     0.261 
 O                     4.225    -2.543     0.629 
 C                     7.221    -0.671    -0.161 
 H                     7.072    -2.708     0.554 
 C                     4.682    -3.833     1.02 
 H                     8.289    -0.529    -0.261 
 H                     5.322    -3.776     1.909 
 H                     3.788    -4.41      1.255 
 H                     5.23     -4.324     0.207 
 
 The following ModRedundant input section has been read:
 D       8       9      32      33 F                                           
 

 GradGradGradGradGradGradGradGradGradGradGradGradGradGradGradGradGradGrad
 Berny optimization.
 Initialization pass.
                           ----------------------------
                           !    Initial Parameters    !
                           ! (Angstroms and Degrees)  !
 --------------------------                            --------------------------
 ! Name  Definition              Value          Derivative Info.                !
 --------------------------------------------------------------------------------
 ! R1    R(1,2)                  1.4866         estimate D2E/DX2                !
 ! R2    R(1,19)                 1.4001         estimate D2E/DX2                !
 ! R3    R(1,20)                 1.2232         estimate D2E/DX2                !
 ! R4    R(2,3)                  1.4146         estimate D2E/DX2                !
 ! R5    R(2,6)                  1.372          estimate D2E/DX2                !
 ! R6    R(3,4)                  1.4123         estimate D2E/DX2                !
 ! R7    R(3,7)                  1.4244         estimate D2E/DX2                !
 ! R8    R(4,5)                  1.4872         estimate D2E/DX2                !
 ! R9    R(4,14)                 1.3874         estimate D2E/DX2                !
 ! R10   R(5,19)                 1.4053         estimate D2E/DX2                !
 ! R11   R(5,21)                 1.2218         estimate D2E/DX2                !
 ! R12   R(6,9)                  1.4301         estimate D2E/DX2                !
 ! R13   R(6,17)                 1.0837         estimate D2E/DX2                !
 ! R14   R(7,8)                  1.4314         estimate D2E/DX2                !
 ! R15   R(7,12)                 1.4199         estimate D2E/DX2                !
 ! R16   R(8,9)                  1.4217         estimate D2E/DX2                !
 ! R17   R(8,10)                 1.4882         estimate D2E/DX2                !
 ! R18   R(9,32)                 1.4624         estimate D2E/DX2                !
 ! R19   R(10,18)                1.4088         estimate D2E/DX2                !
 ! R20   R(10,23)                1.2245         estimate D2E/DX2                !
 ! R21   R(11,12)                1.4786         estimate D2E/DX2                !
 ! R22   R(11,18)                1.3962         estimate D2E/DX2                !
 ! R23   R(11,22)                1.2248         estimate D2E/DX2                !
 ! R24   R(12,13)                1.3888         estimate D2E/DX2                !
 ! R25   R(13,14)                1.4            estimate D2E/DX2                !
 ! R26   R(13,16)                1.0844         estimate D2E/DX2                !
 ! R27   R(14,15)                1.0834         estimate D2E/DX2                !
 ! R28   R(18,24)                1.4672         estimate D2E/DX2                !
 ! R29   R(19,28)                1.4672         estimate D2E/DX2                !
 ! R30   R(24,25)                1.091          estimate D2E/DX2                !
 ! R31   R(24,26)                1.093          estimate D2E/DX2                !
 ! R32   R(24,27)                1.0865         estimate D2E/DX2                !
 ! R33   R(28,29)                1.0921         estimate D2E/DX2                !
 ! R34   R(28,30)                1.0916         estimate D2E/DX2                !
 ! R35   R(28,31)                1.0867         estimate D2E/DX2                !
 ! R36   R(32,33)                1.3814         estimate D2E/DX2                !
 ! R37   R(32,34)                1.7642         estimate D2E/DX2                !
 ! R38   R(33,35)                1.4088         estimate D2E/DX2                !
 ! R39   R(33,36)                1.0779         estimate D2E/DX2                !
 ! R40   R(34,37)                1.7477         estimate D2E/DX2                !
 ! R41   R(35,37)                1.3986         estimate D2E/DX2                !
 ! R42   R(35,38)                1.3601         estimate D2E/DX2                !
 ! R43   R(37,39)                1.4353         estimate D2E/DX2                !
 ! R44   R(38,40)                1.4245         estimate D2E/DX2                !
 ! R45   R(39,41)                1.3939         estimate D2E/DX2                !
 ! R46   R(39,42)                1.7613         estimate D2E/DX2                !
 ! R47   R(40,43)                1.0897         estimate D2E/DX2                !
 ! R48   R(40,44)                1.0968         estimate D2E/DX2                !
 ! R49   R(40,45)                1.0964         estimate D2E/DX2                !
 ! R50   R(41,46)                1.4238         estimate D2E/DX2                !
 ! R51   R(41,47)                1.3591         estimate D2E/DX2                !
 ! R52   R(42,48)                1.7266         estimate D2E/DX2                !
 ! R53   R(46,48)                1.3683         estimate D2E/DX2                !
 ! R54   R(46,49)                1.0816         estimate D2E/DX2                !
 ! R55   R(47,50)                1.4233         estimate D2E/DX2                !
 ! R56   R(48,51)                1.082          estimate D2E/DX2                !
 ! R57   R(50,52)                1.0969         estimate D2E/DX2                !
 ! R58   R(50,53)                1.0897         estimate D2E/DX2                !
 ! R59   R(50,54)                1.0965         estimate D2E/DX2                !
 ! A1    A(2,1,19)             116.767          estimate D2E/DX2                !
 ! A2    A(2,1,20)             122.9113         estimate D2E/DX2                !
 ! A3    A(19,1,20)            120.3217         estimate D2E/DX2                !
 ! A4    A(1,2,3)              120.5473         estimate D2E/DX2                !
 ! A5    A(1,2,6)              119.3369         estimate D2E/DX2                !
 ! A6    A(3,2,6)              120.1056         estimate D2E/DX2                !
 ! A7    A(2,3,4)              120.3743         estimate D2E/DX2                !
 ! A8    A(2,3,7)              118.662          estimate D2E/DX2                !
 ! A9    A(4,3,7)              120.9617         estimate D2E/DX2                !
 ! A10   A(3,4,5)              120.4909         estimate D2E/DX2                !
 ! A11   A(3,4,14)             120.2702         estimate D2E/DX2                !
 ! A12   A(5,4,14)             119.2382         estimate D2E/DX2                !
 ! A13   A(4,5,19)             116.7341         estimate D2E/DX2                !
 ! A14   A(4,5,21)             122.024          estimate D2E/DX2                !
 ! A15   A(19,5,21)            121.2418         estimate D2E/DX2                !
 ! A16   A(2,6,9)              123.2421         estimate D2E/DX2                !
 ! A17   A(2,6,17)             117.1119         estimate D2E/DX2                !
 ! A18   A(9,6,17)             119.589          estimate D2E/DX2                !
 ! A19   A(3,7,8)              120.9519         estimate D2E/DX2                !
 ! A20   A(3,7,12)             117.1037         estimate D2E/DX2                !
 ! A21   A(8,7,12)             121.944          estimate D2E/DX2                !
 ! A22   A(7,8,9)              119.5639         estimate D2E/DX2                !
 ! A23   A(7,8,10)             117.3064         estimate D2E/DX2                !
 ! A24   A(9,8,10)             122.9922         estimate D2E/DX2                !
 ! A25   A(6,9,8)              117.3944         estimate D2E/DX2                !
 ! A26   A(6,9,32)             115.0236         estimate D2E/DX2                !
 ! A27   A(8,9,32)             127.5648         estimate D2E/DX2                !
 ! A28   A(8,10,18)            118.042          estimate D2E/DX2                !
 ! A29   A(8,10,23)            124.5436         estimate D2E/DX2                !
 ! A30   A(18,10,23)           117.4097         estimate D2E/DX2                !
 ! A31   A(12,11,18)           115.5202         estimate D2E/DX2                !
 ! A32   A(12,11,22)           122.7205         estimate D2E/DX2                !
 ! A33   A(18,11,22)           121.7534         estimate D2E/DX2                !
 ! A34   A(7,12,11)            120.8614         estimate D2E/DX2                !
 ! A35   A(7,12,13)            121.162          estimate D2E/DX2                !
 ! A36   A(11,12,13)           117.9699         estimate D2E/DX2                !
 ! A37   A(12,13,14)           120.9948         estimate D2E/DX2                !
 ! A38   A(12,13,16)           117.8401         estimate D2E/DX2                !
 ! A39   A(14,13,16)           121.1642         estimate D2E/DX2                !
 ! A40   A(4,14,13)            119.5003         estimate D2E/DX2                !
 ! A41   A(4,14,15)            118.9169         estimate D2E/DX2                !
 ! A42   A(13,14,15)           121.5811         estimate D2E/DX2                !
 ! A43   A(10,18,11)           126.0753         estimate D2E/DX2                !
 ! A44   A(10,18,24)           115.7508         estimate D2E/DX2                !
 ! A45   A(11,18,24)           118.1737         estimate D2E/DX2                !
 ! A46   A(1,19,5)             125.0856         estimate D2E/DX2                !
 ! A47   A(1,19,28)            116.2868         estimate D2E/DX2                !
 ! A48   A(5,19,28)            118.6276         estimate D2E/DX2                !
 ! A49   A(18,24,25)           109.8574         estimate D2E/DX2                !
 ! A50   A(18,24,26)           109.8979         estimate D2E/DX2                !
 ! A51   A(18,24,27)           107.5355         estimate D2E/DX2                !
 ! A52   A(25,24,26)           108.1108         estimate D2E/DX2                !
 ! A53   A(25,24,27)           110.8301         estimate D2E/DX2                !
 ! A54   A(26,24,27)           110.6124         estimate D2E/DX2                !
 ! A55   A(19,28,29)           109.6906         estimate D2E/DX2                !
 ! A56   A(19,28,30)           109.8136         estimate D2E/DX2                !
 ! A57   A(19,28,31)           107.7461         estimate D2E/DX2                !
 ! A58   A(29,28,30)           108.2991         estimate D2E/DX2                !
 ! A59   A(29,28,31)           110.6959         estimate D2E/DX2                !
 ! A60   A(30,28,31)           110.5924         estimate D2E/DX2                !
 ! A61   A(9,32,33)            130.859          estimate D2E/DX2                !
 ! A62   A(9,32,34)            118.8127         estimate D2E/DX2                !
 ! A63   A(33,32,34)           110.0715         estimate D2E/DX2                !
 ! A64   A(32,33,35)           113.5168         estimate D2E/DX2                !
 ! A65   A(32,33,36)           122.8302         estimate D2E/DX2                !
 ! A66   A(35,33,36)           123.6504         estimate D2E/DX2                !
 ! A67   A(32,34,37)            92.5987         estimate D2E/DX2                !
 ! A68   A(33,35,37)           114.4538         estimate D2E/DX2                !
 ! A69   A(33,35,38)           126.481          estimate D2E/DX2                !
 ! A70   A(37,35,38)           119.0652         estimate D2E/DX2                !
 ! A71   A(34,37,35)           109.354          estimate D2E/DX2                !
 ! A72   A(34,37,39)           122.9544         estimate D2E/DX2                !
 ! A73   A(35,37,39)           127.6757         estimate D2E/DX2                !
 ! A74   A(35,38,40)           117.5123         estimate D2E/DX2                !
 ! A75   A(37,39,41)           127.6113         estimate D2E/DX2                !
 ! A76   A(37,39,42)           123.085          estimate D2E/DX2                !
 ! A77   A(41,39,42)           109.3037         estimate D2E/DX2                !
 ! A78   A(38,40,43)           106.0173         estimate D2E/DX2                !
 ! A79   A(38,40,44)           111.1736         estimate D2E/DX2                !
 ! A80   A(38,40,45)           111.1956         estimate D2E/DX2                !
 ! A81   A(43,40,44)           109.3562         estimate D2E/DX2                !
 ! A82   A(43,40,45)           109.7142         estimate D2E/DX2                !
 ! A83   A(44,40,45)           109.3218         estimate D2E/DX2                !
 ! A84   A(39,41,46)           114.1923         estimate D2E/DX2                !
 ! A85   A(39,41,47)           119.2103         estimate D2E/DX2                !
 ! A86   A(46,41,47)           126.5971         estimate D2E/DX2                !
 ! A87   A(39,42,48)            91.8196         estimate D2E/DX2                !
 ! A88   A(41,46,48)           111.894          estimate D2E/DX2                !
 ! A89   A(41,46,49)           124.4442         estimate D2E/DX2                !
 ! A90   A(48,46,49)           123.6616         estimate D2E/DX2                !
 ! A91   A(41,47,50)           117.9343         estimate D2E/DX2                !
 ! A92   A(42,48,46)           112.7904         estimate D2E/DX2                !
 ! A93   A(42,48,51)           119.7987         estimate D2E/DX2                !
 ! A94   A(46,48,51)           127.4108         estimate D2E/DX2                !
 ! A95   A(47,50,52)           111.2777         estimate D2E/DX2                !
 ! A96   A(47,50,53)           106.006          estimate D2E/DX2                !
 ! A97   A(47,50,54)           111.2614         estimate D2E/DX2                !
 ! A98   A(52,50,53)           109.3551         estimate D2E/DX2                !
 ! A99   A(52,50,54)           109.4259         estimate D2E/DX2                !
 ! A100  A(53,50,54)           109.4395         estimate D2E/DX2                !
 ! D1    D(19,1,2,3)             0.1578         estimate D2E/DX2                !
 ! D2    D(19,1,2,6)          -178.6792         estimate D2E/DX2                !
 ! D3    D(20,1,2,3)          -179.8231         estimate D2E/DX2                !
 ! D4    D(20,1,2,6)             1.3399         estimate D2E/DX2                !
 ! D5    D(2,1,19,5)            -0.124          estimate D2E/DX2                !
 ! D6    D(2,1,19,28)          179.8267         estimate D2E/DX2                !
 ! D7    D(20,1,19,5)          179.8575         estimate D2E/DX2                !
 ! D8    D(20,1,19,28)          -0.1919         estimate D2E/DX2                !
 ! D9    D(1,2,3,4)              0.0571         estimate D2E/DX2                !
 ! D10   D(1,2,3,7)            179.5453         estimate D2E/DX2                !
 ! D11   D(6,2,3,4)            178.8851         estimate D2E/DX2                !
 ! D12   D(6,2,3,7)             -1.6266         estimate D2E/DX2                !
 ! D13   D(1,2,6,9)            178.625          estimate D2E/DX2                !
 ! D14   D(1,2,6,17)             1.3881         estimate D2E/DX2                !
 ! D15   D(3,2,6,9)             -0.2173         estimate D2E/DX2                !
 ! D16   D(3,2,6,17)          -177.4541         estimate D2E/DX2                !
 ! D17   D(2,3,4,5)             -0.3074         estimate D2E/DX2                !
 ! D18   D(2,3,4,14)           179.3968         estimate D2E/DX2                !
 ! D19   D(7,3,4,5)           -179.7837         estimate D2E/DX2                !
 ! D20   D(7,3,4,14)            -0.0795         estimate D2E/DX2                !
 ! D21   D(2,3,7,8)              1.0523         estimate D2E/DX2                !
 ! D22   D(2,3,7,12)          -178.712          estimate D2E/DX2                !
 ! D23   D(4,3,7,8)           -179.4626         estimate D2E/DX2                !
 ! D24   D(4,3,7,12)             0.7731         estimate D2E/DX2                !
 ! D25   D(3,4,5,19)             0.3343         estimate D2E/DX2                !
 ! D26   D(3,4,5,21)          -179.7799         estimate D2E/DX2                !
 ! D27   D(14,4,5,19)         -179.3729         estimate D2E/DX2                !
 ! D28   D(14,4,5,21)            0.5129         estimate D2E/DX2                !
 ! D29   D(3,4,14,13)           -0.4559         estimate D2E/DX2                !
 ! D30   D(3,4,14,15)         -179.9937         estimate D2E/DX2                !
 ! D31   D(5,4,14,13)          179.252          estimate D2E/DX2                !
 ! D32   D(5,4,14,15)           -0.2858         estimate D2E/DX2                !
 ! D33   D(4,5,19,1)            -0.1141         estimate D2E/DX2                !
 ! D34   D(4,5,19,28)          179.9364         estimate D2E/DX2                !
 ! D35   D(21,5,19,1)          179.9992         estimate D2E/DX2                !
 ! D36   D(21,5,19,28)           0.0496         estimate D2E/DX2                !
 ! D37   D(2,6,9,8)              2.5984         estimate D2E/DX2                !
 ! D38   D(2,6,9,32)          -176.0103         estimate D2E/DX2                !
 ! D39   D(17,6,9,8)           179.77           estimate D2E/DX2                !
 ! D40   D(17,6,9,32)            1.1613         estimate D2E/DX2                !
 ! D41   D(3,7,8,9)              1.3551         estimate D2E/DX2                !
 ! D42   D(3,7,8,10)          -174.5099         estimate D2E/DX2                !
 ! D43   D(12,7,8,9)          -178.8921         estimate D2E/DX2                !
 ! D44   D(12,7,8,10)            5.2428         estimate D2E/DX2                !
 ! D45   D(3,7,12,11)          178.0768         estimate D2E/DX2                !
 ! D46   D(3,7,12,13)           -0.9621         estimate D2E/DX2                !
 ! D47   D(8,7,12,11)           -1.685          estimate D2E/DX2                !
 ! D48   D(8,7,12,13)          179.2761         estimate D2E/DX2                !
 ! D49   D(7,8,9,6)             -3.0809         estimate D2E/DX2                !
 ! D50   D(7,8,9,32)           175.3285         estimate D2E/DX2                !
 ! D51   D(10,8,9,6)           172.5381         estimate D2E/DX2                !
 ! D52   D(10,8,9,32)           -9.0525         estimate D2E/DX2                !
 ! D53   D(7,8,10,18)           -4.7549         estimate D2E/DX2                !
 ! D54   D(7,8,10,23)          174.4235         estimate D2E/DX2                !
 ! D55   D(9,8,10,18)          179.5335         estimate D2E/DX2                !
 ! D56   D(9,8,10,23)           -1.2882         estimate D2E/DX2                !
 ! D57   D(6,9,32,33)          148.4276         estimate D2E/DX2                !
 ! D58   D(6,9,32,34)          -25.1132         estimate D2E/DX2                !
 ! D59   D(8,9,32,33)          -30.0139         Frozen                          !
 ! D60   D(8,9,32,34)          156.4453         estimate D2E/DX2                !
 ! D61   D(8,10,18,11)           0.7189         estimate D2E/DX2                !
 ! D62   D(8,10,18,24)        -179.4089         estimate D2E/DX2                !
 ! D63   D(23,10,18,11)       -178.5188         estimate D2E/DX2                !
 ! D64   D(23,10,18,24)          1.3535         estimate D2E/DX2                !
 ! D65   D(18,11,12,7)          -2.3856         estimate D2E/DX2                !
 ! D66   D(18,11,12,13)        176.6833         estimate D2E/DX2                !
 ! D67   D(22,11,12,7)         178.4862         estimate D2E/DX2                !
 ! D68   D(22,11,12,13)         -2.445          estimate D2E/DX2                !
 ! D69   D(12,11,18,10)          2.8444         estimate D2E/DX2                !
 ! D70   D(12,11,18,24)       -177.0251         estimate D2E/DX2                !
 ! D71   D(22,11,18,10)       -178.0181         estimate D2E/DX2                !
 ! D72   D(22,11,18,24)          2.1124         estimate D2E/DX2                !
 ! D73   D(7,12,13,14)           0.461          estimate D2E/DX2                !
 ! D74   D(7,12,13,16)        -179.8781         estimate D2E/DX2                !
 ! D75   D(11,12,13,14)       -178.6049         estimate D2E/DX2                !
 ! D76   D(11,12,13,16)          1.056          estimate D2E/DX2                !
 ! D77   D(12,13,14,4)           0.2708         estimate D2E/DX2                !
 ! D78   D(12,13,14,15)        179.7958         estimate D2E/DX2                !
 ! D79   D(16,13,14,4)        -179.3788         estimate D2E/DX2                !
 ! D80   D(16,13,14,15)          0.1463         estimate D2E/DX2                !
 ! D81   D(10,18,24,25)        -59.609          estimate D2E/DX2                !
 ! D82   D(10,18,24,26)         59.2209         estimate D2E/DX2                !
 ! D83   D(10,18,24,27)        179.6858         estimate D2E/DX2                !
 ! D84   D(11,18,24,25)        120.2739         estimate D2E/DX2                !
 ! D85   D(11,18,24,26)       -120.8962         estimate D2E/DX2                !
 ! D86   D(11,18,24,27)         -0.4313         estimate D2E/DX2                !
 ! D87   D(1,19,28,29)         -58.1407         estimate D2E/DX2                !
 ! D88   D(1,19,28,30)          60.7668         estimate D2E/DX2                !
 ! D89   D(1,19,28,31)        -178.7139         estimate D2E/DX2                !
 ! D90   D(5,19,28,29)         121.8132         estimate D2E/DX2                !
 ! D91   D(5,19,28,30)        -119.2792         estimate D2E/DX2                !
 ! D92   D(5,19,28,31)           1.2401         estimate D2E/DX2                !
 ! D93   D(9,32,33,35)        -174.2491         estimate D2E/DX2                !
 ! D94   D(9,32,33,36)           6.3238         estimate D2E/DX2                !
 ! D95   D(34,32,33,35)         -0.273          estimate D2E/DX2                !
 ! D96   D(34,32,33,36)       -179.7001         estimate D2E/DX2                !
 ! D97   D(9,32,34,37)         175.3565         estimate D2E/DX2                !
 ! D98   D(33,32,34,37)          0.5538         estimate D2E/DX2                !
 ! D99   D(32,33,35,37)         -0.2597         estimate D2E/DX2                !
 ! D100  D(32,33,35,38)        179.7249         estimate D2E/DX2                !
 ! D101  D(36,33,35,37)        179.162          estimate D2E/DX2                !
 ! D102  D(36,33,35,38)         -0.8534         estimate D2E/DX2                !
 ! D103  D(32,34,37,35)         -0.6849         estimate D2E/DX2                !
 ! D104  D(32,34,37,39)        177.9638         estimate D2E/DX2                !
 ! D105  D(33,35,37,34)          0.6653         estimate D2E/DX2                !
 ! D106  D(33,35,37,39)       -177.902          estimate D2E/DX2                !
 ! D107  D(38,35,37,34)       -179.3205         estimate D2E/DX2                !
 ! D108  D(38,35,37,39)          2.1121         estimate D2E/DX2                !
 ! D109  D(33,35,38,40)          6.5798         estimate D2E/DX2                !
 ! D110  D(37,35,38,40)       -173.4363         estimate D2E/DX2                !
 ! D111  D(34,37,39,41)          2.8111         estimate D2E/DX2                !
 ! D112  D(34,37,39,42)       -177.1524         estimate D2E/DX2                !
 ! D113  D(35,37,39,41)       -178.7998         estimate D2E/DX2                !
 ! D114  D(35,37,39,42)          1.2367         estimate D2E/DX2                !
 ! D115  D(35,38,40,43)        175.4395         estimate D2E/DX2                !
 ! D116  D(35,38,40,44)        -65.8107         estimate D2E/DX2                !
 ! D117  D(35,38,40,45)         56.2474         estimate D2E/DX2                !
 ! D118  D(37,39,41,46)       -179.9317         estimate D2E/DX2                !
 ! D119  D(37,39,41,47)         -0.1234         estimate D2E/DX2                !
 ! D120  D(42,39,41,46)          0.0359         estimate D2E/DX2                !
 ! D121  D(42,39,41,47)        179.8442         estimate D2E/DX2                !
 ! D122  D(37,39,42,48)        179.9599         estimate D2E/DX2                !
 ! D123  D(41,39,42,48)         -0.0095         estimate D2E/DX2                !
 ! D124  D(39,41,46,48)         -0.0517         estimate D2E/DX2                !
 ! D125  D(39,41,46,49)       -179.9091         estimate D2E/DX2                !
 ! D126  D(47,41,46,48)       -179.8433         estimate D2E/DX2                !
 ! D127  D(47,41,46,49)          0.2993         estimate D2E/DX2                !
 ! D128  D(39,41,47,50)        178.3947         estimate D2E/DX2                !
 ! D129  D(46,41,47,50)         -1.8231         estimate D2E/DX2                !
 ! D130  D(39,42,48,46)         -0.0197         estimate D2E/DX2                !
 ! D131  D(39,42,48,51)        179.8589         estimate D2E/DX2                !
 ! D132  D(41,46,48,42)          0.0432         estimate D2E/DX2                !
 ! D133  D(41,46,48,51)       -179.8242         estimate D2E/DX2                !
 ! D134  D(49,46,48,42)        179.9019         estimate D2E/DX2                !
 ! D135  D(49,46,48,51)          0.0345         estimate D2E/DX2                !
 ! D136  D(41,47,50,52)         62.0225         estimate D2E/DX2                !
 ! D137  D(41,47,50,53)       -179.1794         estimate D2E/DX2                !
 ! D138  D(41,47,50,54)        -60.2886         estimate D2E/DX2                !
 --------------------------------------------------------------------------------
 Trust Radius=3.00D-01 FncErr=1.00D-07 GrdErr=1.00D-06 EigMax=2.50D+02 EigMin=1.00D-04
 Number of steps in this run=    307 maximum allowed number of steps=    324.
 GradGradGradGradGradGradGradGradGradGradGradGradGradGradGradGradGradGrad

 Stoichiometry    C26H18N2O6S2
 Framework group  C1[X(C26H18N2O6S2)]
 Deg. of freedom   156
 Full point group                 C1      NOp   1
 Largest Abelian subgroup         C1      NOp   1
 Largest concise Abelian subgroup C1      NOp   1
                         Standard orientation:                         
 ---------------------------------------------------------------------
 Center     Atomic      Atomic             Coordinates (Angstroms)
 Number     Number       Type             X           Y           Z
 ---------------------------------------------------------------------
      1          6           0        2.528124   -3.011578    0.319836
      2          6           0        2.238159   -1.561359    0.168524
      3          6           0        3.292756   -0.623382    0.073768
      4          6           0        4.637255   -1.053323    0.120559
      5          6           0        4.963201   -2.495981    0.276788
      6          6           0        0.934173   -1.135415    0.145435
      7          6           0        2.969185    0.755166   -0.080159
      8          6           0        1.606534    1.191967   -0.116114
      9          6           0        0.560769    0.240435    0.032477
     10          6           0        1.358149    2.630596   -0.405001
     11          6           0        3.812067    3.108855   -0.405671
     12          6           0        4.053020    1.664571   -0.200131
     13          6           0        5.369321    1.224725   -0.148162
     14          6           0        5.669900   -0.132868    0.014888
     15          1           0        6.693175   -0.486808    0.053419
     16          1           0        6.155083    1.965934   -0.243568
     17          1           0        0.165843   -1.890408    0.263822
     18          7           0        2.472428    3.484634   -0.521879
     19          7           0        3.877176   -3.383497    0.365295
     20          8           0        1.650618   -3.859698    0.402518
     21          8           0        6.115886   -2.898299    0.324555
     22          8           0        4.720270    3.926652   -0.486572
     23          8           0        0.249467    3.125608   -0.563440
     24          6           0        2.169434    4.894247   -0.793622
     25          1           0        1.617314    4.980670   -1.730667
     26          1           0        1.546427    5.301810    0.006661
     27          1           0        3.114613    5.426981   -0.851543
     28          6           0        4.151250   -4.816632    0.518761
     29          1           0        3.683002   -5.184861    1.434035
     30          1           0        3.731593   -5.366133   -0.325937
     31          1           0        5.229521   -4.945037    0.560517
     32          6           0       -0.875852    0.500486    0.117322
     33          6           0       -1.569732    1.588347    0.610557
     34         16           0       -2.000196   -0.785349   -0.324068
     35          6           0       -2.966117    1.402662    0.630022
     36          1           0       -1.082781    2.492591    0.937946
     37          6           0       -3.392032    0.162088    0.144589
     38          8           0       -3.894689    2.296034    1.065308
     39          6           0       -4.740749   -0.306577   -0.001805
     40          6           0       -3.439618    3.599024    1.417940
     41          6           0       -5.163152   -1.551812   -0.464283
     42         16           0       -6.148026    0.672798    0.401380
     43          1           0       -4.333226    4.175365    1.656172
     44          1           0       -2.783856    3.565342    2.296429
     45          1           0       -2.906007    4.071486    0.584837
     46          6           0       -6.577361   -1.713972   -0.494557
     47          8           0       -4.234026   -2.470908   -0.837224
     48          6           0       -7.228903   -0.593999   -0.054645
     49          1           0       -7.083256   -2.612047   -0.822151
     50          6           0       -4.694240   -3.745584   -1.272232
     51          1           0       -8.297413   -0.445089    0.028421
     52          1           0       -5.316104   -3.658598   -2.171615
     53          1           0       -3.800747   -4.324062   -1.505523
     54          1           0       -5.262312   -4.253543   -0.483800
 ---------------------------------------------------------------------
 Rotational constants (GHZ):           0.1531452           0.0595661           0.0440652
 Standard basis: 6-311+G(d,p) (5D, 7F)
 There are   952 symmetry adapted cartesian basis functions of A   symmetry.
 There are   916 symmetry adapted basis functions of A   symmetry.
   916 basis functions,  1468 primitive gaussians,   952 cartesian basis functions
   134 alpha electrons      134 beta electrons
       nuclear repulsion energy      4085.9361873904 Hartrees.
 NAtoms=   54 NActive=   54 NUniq=   54 SFac= 1.00D+00 NAtFMM=   60 NAOKFM=F Big=F
 Integral buffers will be    131072 words long.
 Raffenetti 2 integral format.
 Two-electron integral symmetry is turned on.
 One-electron integrals computed using PRISM.
 NBasis=   916 RedAO= T EigKep=  1.56D-06  NBF=   916
 NBsUse=   901 1.00D-06 EigRej=  8.90D-07 NBFU=   901
 ExpMin= 4.05D-02 ExpMax= 9.34D+04 ExpMxC= 3.17D+03 IAcc=3 IRadAn=         5 AccDes= 0.00D+00
 Harris functional with IExCor=  402 and IRadAn=       5 diagonalized for initial guess.
 HarFok:  IExCor=  402 AccDes= 0.00D+00 IRadAn=         5 IDoV= 1 UseB2=F ITyADJ=14
 ICtDFT=  3500011 ScaDFX=  1.000000  1.000000  1.000000  1.000000
 FoFCou: FMM=F IPFlag=           0 FMFlag=      100000 FMFlg1=           0
         NFxFlg=           0 DoJE=T BraDBF=F KetDBF=T FulRan=T
         wScrn=  0.000000 ICntrl=       500 IOpCl=  0 I1Cent=   200000004 NGrid=           0
         NMat0=    1 NMatS0=      1 NMatT0=    0 NMatD0=    1 NMtDS0=    0 NMtDT0=    0
 Petite list used in FoFCou.
 Requested convergence on RMS density matrix=1.00D-08 within 128 cycles.
 Requested convergence on MAX density matrix=1.00D-06.
 Requested convergence on             energy=1.00D-06.
 No special actions if energy rises.
 SCF Done:  E(RB3LYP) =  -2359.33706223     A.U. after   17 cycles
            NFock= 17  Conv=0.66D-08     -V/T= 2.0032

 **********************************************************************

            Population analysis using the SCF Density.

 **********************************************************************

 Orbital symmetries:
       Occupied  (A) (A) (A) (A) (A) (A) (A) (A) (A) (A) (A) (A)
                 (A) (A) (A) (A) (A) (A) (A) (A) (A) (A) (A) (A)
                 (A) (A) (A) (A) (A) (A) (A) (A) (A) (A) (A) (A)
                 (A) (A) (A) (A) (A) (A) (A) (A) (A) (A) (A) (A)
                 (A) (A) (A) (A) (A) (A) (A) (A) (A) (A) (A) (A)
                 (A) (A) (A) (A) (A) (A) (A) (A) (A) (A) (A) (A)
                 (A) (A) (A) (A) (A) (A) (A) (A) (A) (A) (A) (A)
                 (A) (A) (A) (A) (A) (A) (A) (A) (A) (A) (A) (A)
                 (A) (A) (A) (A) (A) (A) (A) (A) (A) (A) (A) (A)
                 (A) (A) (A) (A) (A) (A) (A) (A) (A) (A) (A) (A)
                 (A) (A) (A) (A) (A) (A) (A) (A) (A) (A) (A) (A)
                 (A) (A)
       Virtual   (A) (A) (A) (A) (A) (A) (A) (A) (A) (A) (A) (A)
                 (A) (A) (A) (A) (A) (A) (A) (A) (A) (A) (A) (A)
                 (A) (A) (A) (A) (A) (A) (A) (A) (A) (A) (A) (A)
                 (A) (A) (A) (A) (A) (A) (A) (A) (A) (A) (A) (A)
                 (A) (A) (A) (A) (A) (A) (A) (A) (A) (A) (A) (A)
                 (A) (A) (A) (A) (A) (A) (A) (A) (A) (A) (A) (A)
                 (A) (A) (A) (A) (A) (A) (A) (A) (A) (A) (A) (A)
                 (A) (A) (A) (A) (A) (A) (A) (A) (A) (A) (A) (A)
                 (A) (A) (A) (A) (A) (A) (A) (A) (A) (A) (A) (A)
                 (A) (A) (A) (A) (A) (A) (A) (A) (A) (A) (A) (A)
                 (A) (A) (A) (A) (A) (A) (A) (A) (A) (A) (A) (A)
                 (A) (A) (A) (A) (A) (A) (A) (A) (A) (A) (A) (A)
                 (A) (A) (A) (A) (A) (A) (A) (A) (A) (A) (A) (A)
                 (A) (A) (A) (A) (A) (A) (A) (A) (A) (A) (A) (A)
                 (A) (A) (A) (A) (A) (A) (A) (A) (A) (A) (A) (A)
                 (A) (A) (A) (A) (A) (A) (A) (A) (A) (A) (A) (A)
                 (A) (A) (A) (A) (A) (A) (A) (A) (A) (A) (A) (A)
                 (A) (A) (A) (A) (A) (A) (A) (A) (A) (A) (A) (A)
                 (A) (A) (A) (A) (A) (A) (A) (A) (A) (A) (A) (A)
                 (A) (A) (A) (A) (A) (A) (A) (A) (A) (A) (A) (A)
                 (A) (A) (A) (A) (A) (A) (A) (A) (A) (A) (A) (A)
                 (A) (A) (A) (A) (A) (A) (A) (A) (A) (A) (A) (A)
                 (A) (A) (A) (A) (A) (A) (A) (A) (A) (A) (A) (A)
                 (A) (A) (A) (A) (A) (A) (A) (A) (A) (A) (A) (A)
                 (A) (A) (A) (A) (A) (A) (A) (A) (A) (A) (A) (A)
                 (A) (A) (A) (A) (A) (A) (A) (A) (A) (A) (A) (A)
                 (A) (A) (A) (A) (A) (A) (A) (A) (A) (A) (A) (A)
                 (A) (A) (A) (A) (A) (A) (A) (A) (A) (A) (A) (A)
                 (A) (A) (A) (A) (A) (A) (A) (A) (A) (A) (A) (A)
                 (A) (A) (A) (A) (A) (A) (A) (A) (A) (A) (A) (A)
                 (A) (A) (A) (A) (A) (A) (A) (A) (A) (A) (A) (A)
                 (A) (A) (A) (A) (A) (A) (A) (A) (A) (A) (A) (A)
                 (A) (A) (A) (A) (A) (A) (A) (A) (A) (A) (A) (A)
                 (A) (A) (A) (A) (A) (A) (A) (A) (A) (A) (A) (A)
                 (A) (A) (A) (A) (A) (A) (A) (A) (A) (A) (A) (A)
                 (A) (A) (A) (A) (A) (A) (A) (A) (A) (A) (A) (A)
                 (A) (A) (A) (A) (A) (A) (A) (A) (A) (A) (A) (A)
                 (A) (A) (A) (A) (A) (A) (A) (A) (A) (A) (A) (A)
                 (A) (A) (A) (A) (A) (A) (A) (A) (A) (A) (A) (A)
                 (A) (A) (A) (A) (A) (A) (A) (A) (A) (A) (A) (A)
                 (A) (A) (A) (A) (A) (A) (A) (A) (A) (A) (A) (A)
                 (A) (A) (A) (A) (A) (A) (A) (A) (A) (A) (A) (A)
                 (A) (A) (A) (A) (A) (A) (A) (A) (A) (A) (A) (A)
                 (A) (A) (A) (A) (A) (A) (A) (A) (A) (A) (A) (A)
                 (A) (A) (A) (A) (A) (A) (A) (A) (A) (A) (A) (A)
                 (A) (A) (A) (A) (A) (A) (A) (A) (A) (A) (A) (A)
                 (A) (A) (A) (A) (A) (A) (A) (A) (A) (A) (A) (A)
                 (A) (A) (A) (A) (A) (A) (A) (A) (A) (A) (A) (A)
                 (A) (A) (A) (A) (A) (A) (A) (A) (A) (A) (A) (A)
                 (A) (A) (A) (A) (A) (A) (A) (A) (A) (A) (A) (A)
                 (A) (A) (A) (A) (A) (A) (A) (A) (A) (A) (A) (A)
                 (A) (A) (A) (A) (A) (A) (A) (A) (A) (A) (A) (A)
                 (A) (A) (A) (A) (A) (A) (A) (A) (A) (A) (A) (A)
                 (A) (A) (A) (A) (A) (A) (A) (A) (A) (A) (A) (A)
                 (A) (A) (A) (A) (A) (A) (A) (A) (A) (A) (A) (A)
                 (A) (A) (A) (A) (A) (A) (A) (A) (A) (A) (A) (A)
                 (A) (A) (A) (A) (A) (A) (A) (A) (A) (A) (A) (A)
                 (A) (A) (A) (A) (A) (A) (A) (A) (A) (A) (A) (A)
                 (A) (A) (A) (A) (A) (A) (A) (A) (A) (A) (A) (A)
                 (A) (A) (A) (A) (A) (A) (A) (A) (A) (A) (A) (A)
                 (A) (A) (A) (A) (A) (A) (A) (A) (A) (A) (A) (A)
                 (A) (A) (A) (A) (A) (A) (A) (A) (A) (A) (A) (A)
                 (A) (A) (A) (A) (A) (A) (A) (A) (A) (A) (A) (A)
                 (A) (A) (A) (A) (A) (A) (A) (A) (A) (A) (A)
 The electronic state is 1-A.
 Alpha  occ. eigenvalues --  -88.88757 -88.88595 -19.17564 -19.17090 -19.12253
 Alpha  occ. eigenvalues --  -19.12245 -19.11573 -19.11509 -14.38512 -14.38022
 Alpha  occ. eigenvalues --  -10.30906 -10.30779 -10.30578 -10.30146 -10.25292
 Alpha  occ. eigenvalues --  -10.24833 -10.24121 -10.23910 -10.23600 -10.22849
 Alpha  occ. eigenvalues --  -10.22778 -10.22446 -10.22307 -10.22264 -10.22158
 Alpha  occ. eigenvalues --  -10.22101 -10.22042 -10.21721 -10.21472 -10.21345
 Alpha  occ. eigenvalues --  -10.20902 -10.20830 -10.20742 -10.20601 -10.19378
 Alpha  occ. eigenvalues --  -10.18880  -7.97300  -7.97159  -5.93611  -5.93478
 Alpha  occ. eigenvalues --   -5.93221  -5.93088  -5.92867  -5.92702  -1.09083
 Alpha  occ. eigenvalues --   -1.08626  -1.08266  -1.07895  -1.06382  -1.05871
 Alpha  occ. eigenvalues --   -0.96049  -0.95469  -0.92125  -0.90535  -0.88951
 Alpha  occ. eigenvalues --   -0.86421  -0.83972  -0.80433  -0.78232  -0.77823
 Alpha  occ. eigenvalues --   -0.76564  -0.75487  -0.74994  -0.73416  -0.72279
 Alpha  occ. eigenvalues --   -0.71755  -0.70510  -0.68862  -0.67037  -0.65619
 Alpha  occ. eigenvalues --   -0.65510  -0.64511  -0.61246  -0.59983  -0.58516
 Alpha  occ. eigenvalues --   -0.57272  -0.56785  -0.56613  -0.55251  -0.54952
 Alpha  occ. eigenvalues --   -0.53333  -0.51512  -0.50352  -0.49845  -0.49582
 Alpha  occ. eigenvalues --   -0.49292  -0.48986  -0.48645  -0.48457  -0.48386
 Alpha  occ. eigenvalues --   -0.48214  -0.47003  -0.46391  -0.46217  -0.45857
 Alpha  occ. eigenvalues --   -0.45721  -0.44821  -0.44299  -0.44026  -0.43314
 Alpha  occ. eigenvalues --   -0.42890  -0.42559  -0.42419  -0.41851  -0.41829
 Alpha  occ. eigenvalues --   -0.41592  -0.41030  -0.40951  -0.40347  -0.39893
 Alpha  occ. eigenvalues --   -0.39356  -0.39058  -0.38916  -0.37855  -0.37399
 Alpha  occ. eigenvalues --   -0.36600  -0.36007  -0.34537  -0.34262  -0.33745
 Alpha  occ. eigenvalues --   -0.33575  -0.31890  -0.30850  -0.30431  -0.29676
 Alpha  occ. eigenvalues --   -0.29198  -0.28687  -0.28571  -0.27933  -0.27237
 Alpha  occ. eigenvalues --   -0.26053  -0.24951  -0.24715  -0.19687
 Alpha virt. eigenvalues --   -0.12959  -0.07707  -0.06458  -0.04513  -0.03676
 Alpha virt. eigenvalues --   -0.00845  -0.00507  -0.00311  -0.00041   0.00370
 Alpha virt. eigenvalues --    0.00790   0.01173   0.01423   0.01624   0.01883
 Alpha virt. eigenvalues --    0.02051   0.02176   0.02437   0.02763   0.03196
 Alpha virt. eigenvalues --    0.03634   0.03653   0.03957   0.04265   0.04431
 Alpha virt. eigenvalues --    0.04795   0.04909   0.05074   0.05529   0.05845
 Alpha virt. eigenvalues --    0.06194   0.06369   0.06484   0.06638   0.06994
 Alpha virt. eigenvalues --    0.07101   0.07360   0.07671   0.07791   0.08226
 Alpha virt. eigenvalues --    0.08377   0.08520   0.08911   0.09288   0.09530
 Alpha virt. eigenvalues --    0.09761   0.09894   0.10077   0.10360   0.10644
 Alpha virt. eigenvalues --    0.10722   0.11152   0.11594   0.11806   0.12008
 Alpha virt. eigenvalues --    0.12410   0.12712   0.12894   0.13203   0.13255
 Alpha virt. eigenvalues --    0.13487   0.13778   0.14066   0.14255   0.14319
 Alpha virt. eigenvalues --    0.14616   0.14762   0.15052   0.15251   0.15468
 Alpha virt. eigenvalues --    0.15534   0.15802   0.15916   0.16252   0.16390
 Alpha virt. eigenvalues --    0.16601   0.16824   0.17311   0.17495   0.17598
 Alpha virt. eigenvalues --    0.17807   0.18004   0.18407   0.18449   0.18622
 Alpha virt. eigenvalues --    0.18799   0.19068   0.19409   0.19539   0.19688
 Alpha virt. eigenvalues --    0.19752   0.19926   0.20126   0.20249   0.20471
 Alpha virt. eigenvalues --    0.20646   0.20710   0.20954   0.21307   0.21515
 Alpha virt. eigenvalues --    0.21752   0.21955   0.22225   0.22463   0.22540
 Alpha virt. eigenvalues --    0.22563   0.23019   0.23197   0.23411   0.23558
 Alpha virt. eigenvalues --    0.23725   0.23807   0.23967   0.24185   0.24360
 Alpha virt. eigenvalues --    0.24643   0.24868   0.24890   0.25394   0.25620
 Alpha virt. eigenvalues --    0.25738   0.26046   0.26056   0.26135   0.26475
 Alpha virt. eigenvalues --    0.26602   0.26840   0.26967   0.27102   0.27379
 Alpha virt. eigenvalues --    0.27610   0.27732   0.27975   0.28295   0.28534
 Alpha virt. eigenvalues --    0.28610   0.28737   0.28936   0.29213   0.29466
 Alpha virt. eigenvalues --    0.29723   0.29936   0.30069   0.30277   0.30862
 Alpha virt. eigenvalues --    0.31168   0.31584   0.31819   0.32130   0.32275
 Alpha virt. eigenvalues --    0.32366   0.32542   0.32983   0.33244   0.33486
 Alpha virt. eigenvalues --    0.33743   0.34015   0.34121   0.34487   0.34601
 Alpha virt. eigenvalues --    0.34976   0.35546   0.35575   0.35795   0.36029
 Alpha virt. eigenvalues --    0.36493   0.37191   0.37259   0.37602   0.38121
 Alpha virt. eigenvalues --    0.38369   0.38606   0.38913   0.39295   0.39499
 Alpha virt. eigenvalues --    0.40121   0.40555   0.40843   0.41589   0.41853
 Alpha virt. eigenvalues --    0.42051   0.42350   0.42875   0.43154   0.43341
 Alpha virt. eigenvalues --    0.43693   0.43913   0.44881   0.45247   0.45308
 Alpha virt. eigenvalues --    0.45589   0.45814   0.46310   0.46533   0.47070
 Alpha virt. eigenvalues --    0.47107   0.47914   0.48254   0.48860   0.49263
 Alpha virt. eigenvalues --    0.49627   0.50063   0.50313   0.50579   0.51090
 Alpha virt. eigenvalues --    0.51796   0.52715   0.52751   0.53489   0.53810
 Alpha virt. eigenvalues --    0.54318   0.54917   0.54966   0.55085   0.56012
 Alpha virt. eigenvalues --    0.56161   0.56519   0.56611   0.56901   0.57144
 Alpha virt. eigenvalues --    0.57890   0.58447   0.58513   0.59126   0.59385
 Alpha virt. eigenvalues --    0.59958   0.59983   0.60778   0.60914   0.61004
 Alpha virt. eigenvalues --    0.61458   0.61861   0.62298   0.62676   0.63170
 Alpha virt. eigenvalues --    0.63661   0.64100   0.64137   0.64931   0.65020
 Alpha virt. eigenvalues --    0.65285   0.65335   0.65762   0.65902   0.66263
 Alpha virt. eigenvalues --    0.66487   0.66770   0.67267   0.67518   0.68671
 Alpha virt. eigenvalues --    0.69056   0.69307   0.69577   0.70074   0.70379
 Alpha virt. eigenvalues --    0.70792   0.71297   0.71596   0.71767   0.72464
 Alpha virt. eigenvalues --    0.72741   0.72851   0.73474   0.73725   0.74040
 Alpha virt. eigenvalues --    0.74651   0.74688   0.74931   0.75278   0.75775
 Alpha virt. eigenvalues --    0.76105   0.76376   0.76667   0.77031   0.77605
 Alpha virt. eigenvalues --    0.77675   0.78363   0.78870   0.79460   0.79804
 Alpha virt. eigenvalues --    0.79995   0.80323   0.80952   0.81960   0.82329
 Alpha virt. eigenvalues --    0.83141   0.83641   0.83859   0.84503   0.85788
 Alpha virt. eigenvalues --    0.86365   0.86885   0.87584   0.88394   0.88819
 Alpha virt. eigenvalues --    0.89037   0.89355   0.90223   0.90301   0.91122
 Alpha virt. eigenvalues --    0.91420   0.92328   0.92446   0.92875   0.93438
 Alpha virt. eigenvalues --    0.93748   0.94190   0.94546   0.94932   0.95185
 Alpha virt. eigenvalues --    0.95788   0.96215   0.96253   0.96765   0.97084
 Alpha virt. eigenvalues --    0.97727   0.98075   0.98798   0.99472   1.00374
 Alpha virt. eigenvalues --    1.00878   1.01295   1.01382   1.01557   1.02253
 Alpha virt. eigenvalues --    1.03066   1.03456   1.03859   1.04025   1.04355
 Alpha virt. eigenvalues --    1.04607   1.05254   1.05809   1.06144   1.06296
 Alpha virt. eigenvalues --    1.06564   1.07008   1.07317   1.07799   1.08235
 Alpha virt. eigenvalues --    1.08486   1.08948   1.09469   1.09515   1.10492
 Alpha virt. eigenvalues --    1.11625   1.12008   1.12954   1.14014   1.15069
 Alpha virt. eigenvalues --    1.15354   1.15675   1.16933   1.17372   1.18027
 Alpha virt. eigenvalues --    1.18527   1.18792   1.19347   1.20852   1.21481
 Alpha virt. eigenvalues --    1.22348   1.23118   1.23810   1.24309   1.24329
 Alpha virt. eigenvalues --    1.25509   1.25899   1.26653   1.26888   1.27357
 Alpha virt. eigenvalues --    1.28713   1.29408   1.30225   1.30461   1.31598
 Alpha virt. eigenvalues --    1.31857   1.32329   1.33288   1.34216   1.34731
 Alpha virt. eigenvalues --    1.35118   1.36109   1.37636   1.38156   1.39303
 Alpha virt. eigenvalues --    1.39778   1.41168   1.41914   1.42011   1.42228
 Alpha virt. eigenvalues --    1.42795   1.43415   1.43681   1.43786   1.44433
 Alpha virt. eigenvalues --    1.44856   1.45121   1.45548   1.45967   1.46245
 Alpha virt. eigenvalues --    1.46557   1.46849   1.47734   1.48666   1.49116
 Alpha virt. eigenvalues --    1.49483   1.50767   1.51492   1.51817   1.52599
 Alpha virt. eigenvalues --    1.53418   1.53685   1.53817   1.54460   1.54879
 Alpha virt. eigenvalues --    1.55240   1.55460   1.55761   1.56339   1.56688
 Alpha virt. eigenvalues --    1.57396   1.58434   1.59840   1.60924   1.61373
 Alpha virt. eigenvalues --    1.62308   1.62533   1.63110   1.63462   1.63906
 Alpha virt. eigenvalues --    1.65279   1.66055   1.66443   1.66765   1.67382
 Alpha virt. eigenvalues --    1.67896   1.68399   1.69042   1.69452   1.69725
 Alpha virt. eigenvalues --    1.69966   1.70828   1.71417   1.71548   1.71826
 Alpha virt. eigenvalues --    1.72483   1.73148   1.74375   1.74996   1.75610
 Alpha virt. eigenvalues --    1.75774   1.76509   1.77558   1.77874   1.78746
 Alpha virt. eigenvalues --    1.78828   1.79181   1.79624   1.80608   1.81971
 Alpha virt. eigenvalues --    1.83697   1.84400   1.84878   1.85229   1.86031
 Alpha virt. eigenvalues --    1.86213   1.86894   1.87295   1.87690   1.88652
 Alpha virt. eigenvalues --    1.89609   1.89806   1.90382   1.91191   1.92164
 Alpha virt. eigenvalues --    1.92358   1.92918   1.93377   1.94843   1.95147
 Alpha virt. eigenvalues --    1.96206   1.96808   1.97501   1.98289   1.98923
 Alpha virt. eigenvalues --    1.99460   2.00129   2.00849   2.01919   2.02200
 Alpha virt. eigenvalues --    2.02793   2.03279   2.03774   2.04397   2.04676
 Alpha virt. eigenvalues --    2.05723   2.06168   2.06661   2.07282   2.07381
 Alpha virt. eigenvalues --    2.08507   2.09020   2.10324   2.11065   2.11540
 Alpha virt. eigenvalues --    2.11836   2.13426   2.13851   2.14712   2.15023
 Alpha virt. eigenvalues --    2.16208   2.16587   2.18062   2.18754   2.19009
 Alpha virt. eigenvalues --    2.19467   2.20021   2.20968   2.21486   2.22892
 Alpha virt. eigenvalues --    2.24116   2.25690   2.26396   2.26667   2.28744
 Alpha virt. eigenvalues --    2.31168   2.32760   2.33308   2.35411   2.37169
 Alpha virt. eigenvalues --    2.37950   2.39222   2.39858   2.41527   2.42372
 Alpha virt. eigenvalues --    2.42759   2.43551   2.44263   2.44528   2.45821
 Alpha virt. eigenvalues --    2.46540   2.47275   2.48343   2.48679   2.49175
 Alpha virt. eigenvalues --    2.50220   2.51488   2.51878   2.52383   2.52496
 Alpha virt. eigenvalues --    2.53188   2.53382   2.53799   2.54147   2.55458
 Alpha virt. eigenvalues --    2.56667   2.57442   2.58821   2.59134   2.60100
 Alpha virt. eigenvalues --    2.62679   2.63256   2.63464   2.65016   2.66821
 Alpha virt. eigenvalues --    2.67184   2.67312   2.67590   2.67998   2.68848
 Alpha virt. eigenvalues --    2.68944   2.70357   2.70503   2.71217   2.71494
 Alpha virt. eigenvalues --    2.71898   2.72971   2.73663   2.73967   2.75737
 Alpha virt. eigenvalues --    2.76180   2.76576   2.77435   2.78349   2.80846
 Alpha virt. eigenvalues --    2.81599   2.82005   2.83003   2.83248   2.84011
 Alpha virt. eigenvalues --    2.84238   2.84613   2.85993   2.86190   2.87059
 Alpha virt. eigenvalues --    2.87951   2.88707   2.89135   2.89316   2.90213
 Alpha virt. eigenvalues --    2.91595   2.92167   2.92916   2.93404   2.94444
 Alpha virt. eigenvalues --    2.94788   2.95646   2.96190   2.97639   2.98925
 Alpha virt. eigenvalues --    2.99626   3.02033   3.02951   3.04124   3.05097
 Alpha virt. eigenvalues --    3.06362   3.06626   3.08023   3.09138   3.11067
 Alpha virt. eigenvalues --    3.11855   3.12992   3.13904   3.14551   3.15213
 Alpha virt. eigenvalues --    3.16071   3.17966   3.18625   3.20277   3.21212
 Alpha virt. eigenvalues --    3.22836   3.23368   3.23744   3.24820   3.26439
 Alpha virt. eigenvalues --    3.28506   3.28823   3.30354   3.31564   3.34083
 Alpha virt. eigenvalues --    3.34588   3.34969   3.35113   3.35958   3.37170
 Alpha virt. eigenvalues --    3.38602   3.39597   3.40965   3.42515   3.43684
 Alpha virt. eigenvalues --    3.44294   3.45568   3.45908   3.48350   3.49179
 Alpha virt. eigenvalues --    3.51240   3.53454   3.55406   3.57908   3.59859
 Alpha virt. eigenvalues --    3.60519   3.62281   3.65271   3.66258   3.66680
 Alpha virt. eigenvalues --    3.69616   3.70245   3.72208   3.72854   3.75370
 Alpha virt. eigenvalues --    3.75665   3.76389   3.80690   3.82284   3.84202
 Alpha virt. eigenvalues --    3.85540   3.86463   3.89998   3.91390   3.92987
 Alpha virt. eigenvalues --    3.93319   3.94619   3.97069   4.01665   4.02511
 Alpha virt. eigenvalues --    4.04780   4.07923   4.09948   4.12858   4.13704
 Alpha virt. eigenvalues --    4.19575   4.23424   4.25313   4.27337   4.35526
 Alpha virt. eigenvalues --    4.40219   4.40447   4.52442   4.70043   4.84356
 Alpha virt. eigenvalues --    4.85931   4.87501   4.90548   5.00923   5.02574
 Alpha virt. eigenvalues --    5.04019   5.05573   5.06077   5.09636   5.11425
 Alpha virt. eigenvalues --    5.13222   5.25151   5.27055   5.29285   5.31046
 Alpha virt. eigenvalues --    5.41749   5.43119   5.75620   5.76340   5.79777
 Alpha virt. eigenvalues --    5.80264   5.82214   5.84772   8.02032   8.04400
 Alpha virt. eigenvalues --   17.28645  17.31537  17.49142  17.51982  17.57402
 Alpha virt. eigenvalues --   17.62889  23.48687  23.56218  23.71220  23.78537
 Alpha virt. eigenvalues --   23.81819  23.82439  23.83986  23.86725  23.86783
 Alpha virt. eigenvalues --   23.88121  23.88621  23.89842  23.90791  23.93051
 Alpha virt. eigenvalues --   23.94728  23.95438  23.96150  23.98286  24.00607
 Alpha virt. eigenvalues --   24.00931  24.01972  24.05201  24.11880  24.13231
 Alpha virt. eigenvalues --   24.13959  24.14202  35.56147  35.59035  49.95594
 Alpha virt. eigenvalues --   49.97331  50.02123  50.04043  50.05837  50.07493
 Alpha virt. eigenvalues --  189.19270 189.22280
          Condensed to atoms (all electrons):
 Mulliken charges:
               1
     1  C    0.261469
     2  C   -0.057837
     3  C    0.160066
     4  C    0.189336
     5  C    0.233538
     6  C   -0.166909
     7  C    0.224131
     8  C    0.383498
     9  C    0.341497
    10  C   -0.432861
    11  C    0.218287
    12  C    0.133332
    13  C   -0.474606
    14  C   -0.592703
    15  H    0.158987
    16  H    0.161714
    17  H    0.175494
    18  N   -0.133732
    19  N   -0.134635
    20  O   -0.283794
    21  O   -0.269407
    22  O   -0.277746
    23  O   -0.235640
    24  C   -0.186765
    25  H    0.176554
    26  H    0.168973
    27  H    0.183402
    28  C   -0.197637
    29  H    0.173541
    30  H    0.173772
    31  H    0.182477
    32  C    0.053652
    33  C   -0.461919
    34  S   -0.638330
    35  C   -0.219492
    36  H    0.150115
    37  C    0.702720
    38  O   -0.128153
    39  C    0.836147
    40  C   -0.246136
    41  C   -0.022277
    42  S   -0.263974
    43  H    0.164457
    44  H    0.144715
    45  H    0.165448
    46  C   -0.609059
    47  O   -0.123040
    48  C   -0.277796
    49  H    0.133905
    50  C   -0.242365
    51  H    0.163019
    52  H    0.144974
    53  H    0.170825
    54  H    0.146767
 Sum of Mulliken charges =  -0.00000
 Mulliken charges with hydrogens summed into heavy atoms:
               1
     1  C    0.261469
     2  C   -0.057837
     3  C    0.160066
     4  C    0.189336
     5  C    0.233538
     6  C    0.008585
     7  C    0.224131
     8  C    0.383498
     9  C    0.341497
    10  C   -0.432861
    11  C    0.218287
    12  C    0.133332
    13  C   -0.312892
    14  C   -0.433716
    18  N   -0.133732
    19  N   -0.134635
    20  O   -0.283794
    21  O   -0.269407
    22  O   -0.277746
    23  O   -0.235640
    24  C    0.342164
    28  C    0.332153
    32  C    0.053652
    33  C   -0.311803
    34  S   -0.638330
    35  C   -0.219492
    37  C    0.702720
    38  O   -0.128153
    39  C    0.836147
    40  C    0.228485
    41  C   -0.022277
    42  S   -0.263974
    46  C   -0.475154
    47  O   -0.123040
    48  C   -0.114777
    50  C    0.220202
 Electronic spatial extent (au):  <R**2>=          22452.7021
 Charge=             -0.0000 electrons
 Dipole moment (field-independent basis, Debye):
    X=             -5.2752    Y=             -0.6734    Z=              0.1838  Tot=              5.3212
 Quadrupole moment (field-independent basis, Debye-Ang):
   XX=           -216.6119   YY=           -210.9545   ZZ=           -220.6098
   XY=              4.6443   XZ=              2.8055   YZ=             10.9588
 Traceless Quadrupole moment (field-independent basis, Debye-Ang):
   XX=             -0.5532   YY=              5.1042   ZZ=             -4.5511
   XY=              4.6443   XZ=              2.8055   YZ=             10.9588
 Octapole moment (field-independent basis, Debye-Ang**2):
  XXX=           -399.0928  YYY=            -20.2968  ZZZ=             -1.4518  XYY=           -139.2261
  XXY=            -86.5812  XXZ=            -23.2817  XZZ=              3.6988  YZZ=             -0.2161
  YYZ=             -0.0874  XYZ=            -35.5016
 Hexadecapole moment (field-independent basis, Debye-Ang**3):
 XXXX=         -20839.9332 YYYY=          -7776.3974 ZZZZ=           -659.2607 XXXY=            576.6666
 XXXZ=            110.1186 YYYX=           -253.6520 YYYZ=            133.1106 ZZZX=              5.5940
 ZZZY=              6.7733 XXYY=          -4980.2801 XXZZ=          -3782.0826 YYZZ=          -1406.3145
 XXYZ=            228.1611 YYXZ=             56.2921 ZZXY=            -16.1959
 N-N= 4.085936187390D+03 E-N=-1.371171207301D+04  KE= 2.351864504157D+03
 Calling FoFJK, ICntrl=      2127 FMM=F ISym2X=0 I1Cent= 0 IOpClX= 0 NMat=1 NMatS=1 NMatT=0.
 ***** Axes restored to original set *****
 -------------------------------------------------------------------
 Center     Atomic                   Forces (Hartrees/Bohr)
 Number     Number              X              Y              Z
 -------------------------------------------------------------------
      1        6           0.004351227   -0.005248674   -0.000692822
      2        6           0.003034823    0.000794642    0.000196849
      3        6          -0.001420087    0.000005586   -0.000209686
      4        6           0.001273317    0.001505362    0.000235881
      5        6          -0.005813258   -0.001684754   -0.000061557
      6        6          -0.002953014   -0.000244050   -0.000595119
      7        6          -0.000454389   -0.000008359   -0.000056091
      8        6          -0.000048793    0.000860814    0.000808466
      9        6           0.003104203   -0.000027372    0.000208113
     10        6           0.002020912    0.000843728    0.000901009
     11        6          -0.004247543    0.004153301    0.000518948
     12        6           0.000287946   -0.000089929    0.000267692
     13        6          -0.000499580   -0.001479406   -0.000274842
     14        6           0.000749205    0.001057743    0.000174218
     15        1           0.000629211    0.000748325    0.000063010
     16        1           0.000596651   -0.001126360   -0.000194186
     17        1          -0.001188875    0.000707689    0.000243161
     18        7          -0.000163132   -0.001570658   -0.000324451
     19        7           0.000932570    0.001274235    0.000076958
     20        8          -0.006005277    0.006133966    0.000916516
     21        8           0.007365223    0.002037701    0.000111749
     22        8           0.005910107   -0.005240305   -0.000806253
     23        8          -0.008296348   -0.001145333    0.001545130
     24        6           0.000762822    0.002131676   -0.000394254
     25        1          -0.000614476    0.000004045   -0.000405353
     26        1          -0.001263209   -0.000454068    0.001131810
     27        1           0.000972302    0.000032854    0.000022944
     28        6          -0.000450508   -0.001930935   -0.000671262
     29        1          -0.000683251    0.000379432    0.000991885
     30        1          -0.000462568    0.000391526   -0.000495259
     31        1           0.000938303   -0.000354234   -0.000011191
     32        6          -0.002643105   -0.000527384   -0.000967433
     33        6           0.004742472    0.000431274   -0.002485453
     34       16           0.001043778    0.001293589    0.000059102
     35        6          -0.001682364   -0.001512494   -0.000328632
     36        1           0.002481521   -0.003004838   -0.000170856
     37        6          -0.000204649    0.000913521    0.000234796
     38        8          -0.001508138   -0.001233085    0.000977566
     39        6           0.000448024   -0.001217177    0.000413433
     40        6          -0.001156776    0.002832179   -0.000606802
     41        6          -0.000432990    0.000756850   -0.000051642
     42       16           0.000640461   -0.000977236    0.000222489
     43        1          -0.000534764   -0.000589362    0.000128279
     44        1           0.001036214   -0.000367352    0.000710162
     45        1           0.000956122   -0.000874396   -0.000769499
     46        6          -0.001504340   -0.000128343   -0.000055508
     47        8           0.002183881    0.001472394   -0.000676991
     48        6           0.000407307    0.000122483    0.000066138
     49        1          -0.000234347    0.001062880   -0.000327263
     50        6           0.000918375   -0.002736013    0.001092784
     51        1          -0.001940559    0.000035721    0.000064118
     52        1          -0.001046707    0.000462204   -0.000877455
     53        1           0.000634562    0.000569959   -0.000313709
     54        1          -0.000968493    0.000756436    0.000440362
 -------------------------------------------------------------------
 Cartesian Forces:  Max     0.008296348 RMS     0.001883170

 GradGradGradGradGradGradGradGradGradGradGradGradGradGradGradGradGradGrad
 Berny optimization.
 FormGI is forming the generalized inverse of G from B-inverse, IUseBI=4.
 Internal  Forces:  Max     0.011985527 RMS     0.001813828
 Search for a local minimum.
 Step number   1 out of a maximum of  307
 All quantities printed in internal units (Hartrees-Bohrs-Radians)
 Mixed Optimization -- RFO/linear search
 Second derivative matrix not updated -- first step.
 ITU=  0
     Eigenvalues ---    0.00803   0.00803   0.01176   0.01203   0.01245
     Eigenvalues ---    0.01292   0.01308   0.01311   0.01368   0.01383
     Eigenvalues ---    0.01419   0.01429   0.01458   0.01496   0.01515
     Eigenvalues ---    0.01568   0.01576   0.01577   0.01622   0.01651
     Eigenvalues ---    0.01694   0.01711   0.01714   0.01719   0.01754
     Eigenvalues ---    0.01783   0.01803   0.01847   0.01964   0.02040
     Eigenvalues ---    0.02046   0.02067   0.02078   0.02083   0.02135
     Eigenvalues ---    0.02149   0.02163   0.02178   0.02197   0.02220
     Eigenvalues ---    0.02233   0.02253   0.07556   0.07572   0.07690
     Eigenvalues ---    0.07700   0.10060   0.10076   0.10630   0.10637
     Eigenvalues ---    0.15983   0.15999   0.15999   0.16000   0.16000
     Eigenvalues ---    0.16000   0.16000   0.16000   0.16000   0.16000
     Eigenvalues ---    0.16000   0.16000   0.16000   0.16000   0.16000
     Eigenvalues ---    0.16000   0.16000   0.16000   0.22530   0.22583
     Eigenvalues ---    0.23518   0.23582   0.24516   0.24747   0.24865
     Eigenvalues ---    0.24931   0.24952   0.24986   0.24987   0.24988
     Eigenvalues ---    0.24991   0.24994   0.24997   0.24997   0.24998
     Eigenvalues ---    0.24998   0.25000   0.25000   0.25000   0.25000
     Eigenvalues ---    0.25000   0.25000   0.25000   0.25000   0.25000
     Eigenvalues ---    0.25000   0.28799   0.28920   0.30158   0.32118
     Eigenvalues ---    0.32582   0.32774   0.33111   0.33787   0.34028
     Eigenvalues ---    0.34042   0.34070   0.34087   0.34354   0.34466
     Eigenvalues ---    0.34577   0.34629   0.34693   0.34847   0.34850
     Eigenvalues ---    0.35198   0.35218   0.35468   0.35553   0.35582
     Eigenvalues ---    0.35750   0.35806   0.36078   0.36083   0.36244
     Eigenvalues ---    0.36396   0.36662   0.39352   0.40194   0.40236
     Eigenvalues ---    0.40651   0.40712   0.41524   0.41789   0.41965
     Eigenvalues ---    0.42300   0.42717   0.43455   0.43899   0.44092
     Eigenvalues ---    0.44583   0.44594   0.45014   0.45406   0.46251
     Eigenvalues ---    0.47305   0.47595   0.49310   0.49659   0.52930
     Eigenvalues ---    0.53134   0.93281   0.93432   0.93989   0.94585
     Eigenvalues --- 1000.000001000.000001000.000001000.000001000.00000
     Eigenvalues --- 1000.000001000.000001000.000001000.000001000.00000
     Eigenvalues --- 1000.000001000.000001000.000001000.000001000.00000
     Eigenvalues --- 1000.000001000.000001000.000001000.000001000.00000
     Eigenvalues --- 1000.000001000.000001000.000001000.000001000.00000
     Eigenvalues --- 1000.000001000.000001000.000001000.000001000.00000
     Eigenvalues --- 1000.000001000.000001000.000001000.000001000.00000
     Eigenvalues --- 1000.000001000.000001000.000001000.000001000.00000
     Eigenvalues --- 1000.000001000.000001000.000001000.000001000.00000
     Eigenvalues --- 1000.000001000.000001000.000001000.000001000.00000
     Eigenvalues --- 1000.000001000.000001000.000001000.000001000.00000
     Eigenvalues --- 1000.000001000.000001000.000001000.000001000.00000
     Eigenvalues --- 1000.000001000.000001000.000001000.000001000.00000
     Eigenvalues --- 1000.000001000.000001000.000001000.000001000.00000
     Eigenvalues --- 1000.000001000.000001000.000001000.000001000.00000
     Eigenvalues --- 1000.000001000.000001000.000001000.000001000.00000
     Eigenvalues --- 1000.000001000.000001000.000001000.000001000.00000
     Eigenvalues --- 1000.000001000.000001000.000001000.000001000.00000
     Eigenvalues --- 1000.000001000.000001000.000001000.000001000.00000
     Eigenvalues --- 1000.000001000.000001000.000001000.000001000.00000
     Eigenvalues --- 1000.000001000.000001000.000001000.000001000.00000
     Eigenvalues --- 1000.000001000.000001000.000001000.000001000.00000
     Eigenvalues --- 1000.000001000.000001000.000001000.000001000.00000
     Eigenvalues --- 1000.000001000.000001000.000001000.000001000.00000
     Eigenvalues --- 1000.000001000.000001000.000001000.000001000.00000
     Eigenvalues --- 1000.000001000.000001000.000001000.000001000.00000
     Eigenvalues --- 1000.000001000.000001000.000001000.000001000.00000
     Eigenvalues --- 1000.000001000.000001000.000001000.000001000.00000
     Eigenvalues --- 1000.000001000.00000
 RFO step:  Lambda=-4.52963376D-03 EMin= 8.02933640D-03
 Linear search not attempted -- first point.
 Iteration  1 RMS(Cart)=  0.15176527 RMS(Int)=  0.00226684
 Iteration  2 RMS(Cart)=  0.00946691 RMS(Int)=  0.00026179
 Iteration  3 RMS(Cart)=  0.00002098 RMS(Int)=  0.00026171
 Iteration  4 RMS(Cart)=  0.00000001 RMS(Int)=  0.00026171
 Iteration  1 RMS(Cart)=  0.00004678 RMS(Int)=  0.00000780
 Iteration  2 RMS(Cart)=  0.00002661 RMS(Int)=  0.00000871
 Iteration  3 RMS(Cart)=  0.00001513 RMS(Int)=  0.00000988
 Iteration  4 RMS(Cart)=  0.00000861 RMS(Int)=  0.00001069
 Iteration  5 RMS(Cart)=  0.00000490 RMS(Int)=  0.00001119
 Iteration  6 RMS(Cart)=  0.00000278 RMS(Int)=  0.00001148
 Iteration  7 RMS(Cart)=  0.00000158 RMS(Int)=  0.00001165
 Iteration  8 RMS(Cart)=  0.00000090 RMS(Int)=  0.00001175
 Variable       Old X    -DE/DX   Delta X   Delta X   Delta X     New X
                                 (Linear)    (Quad)   (Total)
    R1        2.80935  -0.00060   0.00000  -0.00189  -0.00188   2.80747
    R2        2.64584  -0.00182   0.00000  -0.00390  -0.00388   2.64196
    R3        2.31147  -0.00863   0.00000  -0.00914  -0.00914   2.30233
    R4        2.67311  -0.00212   0.00000  -0.00592  -0.00609   2.66703
    R5        2.59267  -0.00487   0.00000  -0.01043  -0.01042   2.58225
    R6        2.66894  -0.00191   0.00000  -0.00447  -0.00450   2.66444
    R7        2.69164  -0.00104   0.00000  -0.00202  -0.00218   2.68946
    R8        2.81049  -0.00042   0.00000  -0.00110  -0.00110   2.80939
    R9        2.62173  -0.00191   0.00000  -0.00430  -0.00427   2.61745
   R10        2.65570  -0.00138   0.00000  -0.00290  -0.00289   2.65281
   R11        2.30889  -0.00763   0.00000  -0.00803  -0.00803   2.30086
   R12        2.70248  -0.00076   0.00000  -0.00203  -0.00188   2.70060
   R13        2.04786  -0.00136   0.00000  -0.00378  -0.00378   2.04407
   R14        2.70495   0.00191   0.00000   0.00637   0.00634   2.71129
   R15        2.68322  -0.00046   0.00000  -0.00039  -0.00047   2.68275
   R16        2.68655   0.00591   0.00000   0.01479   0.01491   2.70145
   R17        2.81233   0.00083   0.00000   0.00284   0.00288   2.81521
   R18        2.76359   0.00142   0.00000   0.00382   0.00382   2.76742
   R19        2.66221  -0.00133   0.00000  -0.00331  -0.00325   2.65895
   R20        2.31391  -0.00782   0.00000  -0.00833  -0.00833   2.30557
   R21        2.79415  -0.00243   0.00000  -0.00725  -0.00728   2.78687
   R22        2.63842  -0.00319   0.00000  -0.00740  -0.00738   2.63104
   R23        2.31456  -0.00794   0.00000  -0.00847  -0.00847   2.30609
   R24        2.62448  -0.00093   0.00000  -0.00185  -0.00184   2.62264
   R25        2.64561  -0.00374   0.00000  -0.00838  -0.00836   2.63725
   R26        2.04921  -0.00122   0.00000  -0.00341  -0.00341   2.04580
   R27        2.04741  -0.00084   0.00000  -0.00232  -0.00232   2.04509
   R28        2.77259   0.00168   0.00000   0.00459   0.00459   2.77719
   R29        2.77252   0.00162   0.00000   0.00445   0.00445   2.77697
   R30        2.06176  -0.00067   0.00000  -0.00189  -0.00189   2.05987
   R31        2.06551  -0.00171   0.00000  -0.00490  -0.00490   2.06061
   R32        2.05322  -0.00082   0.00000  -0.00231  -0.00231   2.05092
   R33        2.06368  -0.00125   0.00000  -0.00356  -0.00356   2.06011
   R34        2.06281  -0.00076   0.00000  -0.00217  -0.00217   2.06064
   R35        2.05355  -0.00089   0.00000  -0.00251  -0.00251   2.05104
   R36        2.61042   0.00181   0.00000   0.00374   0.00378   2.61420
   R37        3.33383   0.00016   0.00000   0.00095   0.00099   3.33481
   R38        2.66227  -0.00287   0.00000  -0.00664  -0.00664   2.65563
   R39        2.03702  -0.00363   0.00000  -0.00988  -0.00988   2.02714
   R40        3.30269  -0.00188   0.00000  -0.00603  -0.00606   3.29663
   R41        2.64297  -0.00236   0.00000  -0.00535  -0.00539   2.63758
   R42        2.57019  -0.00112   0.00000  -0.00209  -0.00209   2.56810
   R43        2.71234  -0.00090   0.00000  -0.00221  -0.00221   2.71013
   R44        2.69193   0.00094   0.00000   0.00224   0.00224   2.69416
   R45        2.63406  -0.00163   0.00000  -0.00351  -0.00351   2.63056
   R46        3.32837  -0.00052   0.00000  -0.00158  -0.00158   3.32679
   R47        2.05925  -0.00078   0.00000  -0.00220  -0.00220   2.05704
   R48        2.07259  -0.00120   0.00000  -0.00347  -0.00347   2.06912
   R49        2.07183  -0.00141   0.00000  -0.00408  -0.00408   2.06775
   R50        2.69059  -0.00200   0.00000  -0.00489  -0.00489   2.68570
   R51        2.56829  -0.00162   0.00000  -0.00303  -0.00303   2.56526
   R52        3.26274  -0.00155   0.00000  -0.00452  -0.00452   3.25822
   R53        2.58580  -0.00088   0.00000  -0.00176  -0.00176   2.58404
   R54        2.04386  -0.00109   0.00000  -0.00301  -0.00301   2.04085
   R55        2.68968   0.00081   0.00000   0.00190   0.00190   2.69158
   R56        2.04474  -0.00192   0.00000  -0.00529  -0.00529   2.03944
   R57        2.07282  -0.00130   0.00000  -0.00376  -0.00376   2.06906
   R58        2.05919  -0.00089   0.00000  -0.00252  -0.00252   2.05667
   R59        2.07212  -0.00115   0.00000  -0.00333  -0.00333   2.06879
    A1        2.03797   0.00047   0.00000   0.00138   0.00138   2.03935
    A2        2.14521  -0.00043   0.00000  -0.00146  -0.00146   2.14375
    A3        2.10001  -0.00004   0.00000   0.00008   0.00008   2.10009
    A4        2.10395   0.00051   0.00000   0.00268   0.00266   2.10660
    A5        2.08282  -0.00098   0.00000  -0.00187  -0.00185   2.08097
    A6        2.09624   0.00046   0.00000  -0.00104  -0.00110   2.09514
    A7        2.10093  -0.00067   0.00000  -0.00308  -0.00299   2.09793
    A8        2.07104  -0.00013   0.00000  -0.00154  -0.00167   2.06937
    A9        2.11118   0.00080   0.00000   0.00459   0.00462   2.11580
   A10        2.10296   0.00026   0.00000   0.00110   0.00106   2.10403
   A11        2.09911   0.00044   0.00000   0.00124   0.00121   2.10032
   A12        2.08110  -0.00071   0.00000  -0.00234  -0.00227   2.07883
   A13        2.03739   0.00050   0.00000   0.00209   0.00207   2.03946
   A14        2.12972   0.00026   0.00000   0.00094   0.00096   2.13068
   A15        2.11607  -0.00076   0.00000  -0.00303  -0.00302   2.11305
   A16        2.15098   0.00318   0.00000   0.01192   0.01214   2.16312
   A17        2.04399  -0.00196   0.00000  -0.00862  -0.00875   2.03524
   A18        2.08722  -0.00124   0.00000  -0.00408  -0.00429   2.08293
   A19        2.11101   0.00096   0.00000   0.00456   0.00466   2.11567
   A20        2.04385  -0.00203   0.00000  -0.00868  -0.00866   2.03519
   A21        2.12832   0.00107   0.00000   0.00411   0.00399   2.13231
   A22        2.08678  -0.00199   0.00000  -0.00573  -0.00569   2.08109
   A23        2.04738  -0.00414   0.00000  -0.01702  -0.01731   2.03007
   A24        2.14662   0.00609   0.00000   0.02031   0.01998   2.16660
   A25        2.04892  -0.00254   0.00000  -0.00920  -0.00960   2.03932
   A26        2.00754  -0.00945   0.00000  -0.03840  -0.03922   1.96832
   A27        2.22643   0.01199   0.00000   0.04586   0.04459   2.27101
   A28        2.06022   0.00244   0.00000   0.00958   0.00925   2.06947
   A29        2.17370   0.00186   0.00000   0.00704   0.00670   2.18040
   A30        2.04919  -0.00430   0.00000  -0.01719  -0.01751   2.03168
   A31        2.01621  -0.00024   0.00000  -0.00255  -0.00278   2.01343
   A32        2.14188   0.00025   0.00000   0.00163   0.00156   2.14344
   A33        2.12500  -0.00003   0.00000   0.00053   0.00046   2.12546
   A34        2.10943   0.00071   0.00000   0.00247   0.00230   2.11173
   A35        2.11468   0.00078   0.00000   0.00394   0.00395   2.11863
   A36        2.05896  -0.00149   0.00000  -0.00645  -0.00629   2.05267
   A37        2.11176   0.00033   0.00000   0.00130   0.00125   2.11301
   A38        2.05670   0.00025   0.00000   0.00185   0.00187   2.05857
   A39        2.11471  -0.00058   0.00000  -0.00317  -0.00315   2.11156
   A40        2.08567  -0.00032   0.00000  -0.00252  -0.00255   2.08313
   A41        2.07549   0.00068   0.00000   0.00443   0.00444   2.07993
   A42        2.12199  -0.00036   0.00000  -0.00193  -0.00192   2.12007
   A43        2.20043   0.00008   0.00000  -0.00113  -0.00116   2.19927
   A44        2.02023   0.00043   0.00000   0.00238   0.00238   2.02261
   A45        2.06252  -0.00050   0.00000  -0.00126  -0.00126   2.06126
   A46        2.18316  -0.00106   0.00000  -0.00419  -0.00419   2.17897
   A47        2.02959   0.00070   0.00000   0.00277   0.00276   2.03235
   A48        2.07044   0.00036   0.00000   0.00142   0.00142   2.07186
   A49        1.91737  -0.00008   0.00000  -0.00029  -0.00029   1.91708
   A50        1.91808   0.00010   0.00000   0.00083   0.00083   1.91891
   A51        1.87685   0.00065   0.00000   0.00356   0.00356   1.88041
   A52        1.88689   0.00015   0.00000   0.00176   0.00176   1.88865
   A53        1.93435  -0.00038   0.00000  -0.00275  -0.00275   1.93160
[...]
 Alpha  occ. eigenvalues --   -0.57280  -0.56780  -0.56631  -0.55210  -0.55043
 Alpha  occ. eigenvalues --   -0.53386  -0.51509  -0.50327  -0.49830  -0.49560
 Alpha  occ. eigenvalues --   -0.49252  -0.49040  -0.48672  -0.48570  -0.48389
 Alpha  occ. eigenvalues --   -0.48188  -0.46932  -0.46501  -0.46218  -0.45871
 Alpha  occ. eigenvalues --   -0.45720  -0.44770  -0.44373  -0.44015  -0.43482
 Alpha  occ. eigenvalues --   -0.42922  -0.42628  -0.42400  -0.41947  -0.41917
 Alpha  occ. eigenvalues --   -0.41683  -0.41035  -0.41001  -0.40380  -0.39939
 Alpha  occ. eigenvalues --   -0.39421  -0.39152  -0.39016  -0.37835  -0.37419
 Alpha  occ. eigenvalues --   -0.36630  -0.36032  -0.34544  -0.34245  -0.33783
 Alpha  occ. eigenvalues --   -0.33638  -0.31898  -0.30848  -0.30379  -0.29613
 Alpha  occ. eigenvalues --   -0.29178  -0.28715  -0.28544  -0.27863  -0.27228
 Alpha  occ. eigenvalues --   -0.25977  -0.24898  -0.24768  -0.19604
 Alpha virt. eigenvalues --   -0.12879  -0.07596  -0.06299  -0.04369  -0.03691
 Alpha virt. eigenvalues --   -0.00858  -0.00488  -0.00332  -0.00048   0.00378
 Alpha virt. eigenvalues --    0.00827   0.01225   0.01443   0.01705   0.01895
 Alpha virt. eigenvalues --    0.02070   0.02184   0.02400   0.02723   0.03173
 Alpha virt. eigenvalues --    0.03638   0.03642   0.04008   0.04284   0.04499
 Alpha virt. eigenvalues --    0.04787   0.04904   0.05045   0.05538   0.05823
 Alpha virt. eigenvalues --    0.06187   0.06397   0.06469   0.06647   0.06948
 Alpha virt. eigenvalues --    0.07103   0.07390   0.07654   0.07839   0.08225
 Alpha virt. eigenvalues --    0.08403   0.08516   0.08966   0.09240   0.09427
 Alpha virt. eigenvalues --    0.09687   0.09957   0.10068   0.10321   0.10610
 Alpha virt. eigenvalues --    0.10699   0.11111   0.11595   0.11727   0.12001
 Alpha virt. eigenvalues --    0.12414   0.12597   0.12876   0.13154   0.13290
 Alpha virt. eigenvalues --    0.13445   0.13853   0.14160   0.14218   0.14428
 Alpha virt. eigenvalues --    0.14626   0.14742   0.14961   0.15181   0.15441
 Alpha virt. eigenvalues --    0.15568   0.15797   0.15970   0.16251   0.16441
 Alpha virt. eigenvalues --    0.16535   0.16709   0.17227   0.17453   0.17637
 Alpha virt. eigenvalues --    0.17867   0.18010   0.18382   0.18459   0.18726
 Alpha virt. eigenvalues --    0.18886   0.19046   0.19413   0.19552   0.19775
 Alpha virt. eigenvalues --    0.19805   0.19910   0.20041   0.20175   0.20575
 Alpha virt. eigenvalues --    0.20688   0.20779   0.21000   0.21316   0.21488
 Alpha virt. eigenvalues --    0.21748   0.21867   0.22253   0.22420   0.22582
 Alpha virt. eigenvalues --    0.22655   0.23066   0.23246   0.23421   0.23590
 Alpha virt. eigenvalues --    0.23832   0.23870   0.24085   0.24184   0.24330
 Alpha virt. eigenvalues --    0.24631   0.24873   0.24911   0.25530   0.25657
 Alpha virt. eigenvalues --    0.25805   0.25934   0.26024   0.26134   0.26534
 Alpha virt. eigenvalues --    0.26626   0.26866   0.27034   0.27241   0.27441
 Alpha virt. eigenvalues --    0.27627   0.27860   0.28045   0.28432   0.28537
 Alpha virt. eigenvalues --    0.28576   0.28848   0.28990   0.29261   0.29507
 Alpha virt. eigenvalues --    0.29809   0.29943   0.30155   0.30571   0.30975
 Alpha virt. eigenvalues --    0.31203   0.31495   0.31897   0.32072   0.32168
 Alpha virt. eigenvalues --    0.32280   0.32449   0.33105   0.33197   0.33542
 Alpha virt. eigenvalues --    0.33830   0.33959   0.34075   0.34434   0.34626
 Alpha virt. eigenvalues --    0.34888   0.35306   0.35718   0.35963   0.36240
 Alpha virt. eigenvalues --    0.36430   0.36893   0.37222   0.37553   0.38263
 Alpha virt. eigenvalues --    0.38350   0.38710   0.38987   0.39296   0.39356
 Alpha virt. eigenvalues --    0.40140   0.40600   0.40755   0.41496   0.41785
 Alpha virt. eigenvalues --    0.42131   0.42317   0.42967   0.43365   0.43566
 Alpha virt. eigenvalues --    0.43790   0.44124   0.44652   0.45165   0.45443
 Alpha virt. eigenvalues --    0.45515   0.45698   0.46451   0.46905   0.47137
 Alpha virt. eigenvalues --    0.47368   0.47788   0.48226   0.48827   0.49276
 Alpha virt. eigenvalues --    0.49746   0.50071   0.50239   0.50466   0.51169
 Alpha virt. eigenvalues --    0.51823   0.52547   0.52798   0.53531   0.54055
 Alpha virt. eigenvalues --    0.54273   0.54863   0.55096   0.55313   0.55737
 Alpha virt. eigenvalues --    0.56244   0.56366   0.56596   0.56819   0.57292
 Alpha virt. eigenvalues --    0.57806   0.58507   0.58659   0.58807   0.59316
 Alpha virt. eigenvalues --    0.59993   0.60202   0.60882   0.61004   0.61169
 Alpha virt. eigenvalues --    0.61527   0.61821   0.62640   0.62858   0.63250
 Alpha virt. eigenvalues --    0.63625   0.63950   0.64142   0.65075   0.65123
 Alpha virt. eigenvalues --    0.65334   0.65475   0.65802   0.65945   0.66462
 Alpha virt. eigenvalues --    0.66812   0.66954   0.67531   0.67656   0.68845
 Alpha virt. eigenvalues --    0.69141   0.69490   0.69871   0.70135   0.70312
 Alpha virt. eigenvalues --    0.70964   0.71427   0.71627   0.71935   0.72390
 Alpha virt. eigenvalues --    0.72687   0.72768   0.73404   0.73830   0.73996
 Alpha virt. eigenvalues --    0.74429   0.74895   0.75049   0.75237   0.75897
 Alpha virt. eigenvalues --    0.76151   0.76364   0.76578   0.76758   0.77350
 Alpha virt. eigenvalues --    0.77584   0.78425   0.78668   0.78914   0.79533
 Alpha virt. eigenvalues --    0.80211   0.80281   0.80907   0.81221   0.82079
 Alpha virt. eigenvalues --    0.82884   0.83480   0.83768   0.84109   0.85919
 Alpha virt. eigenvalues --    0.86150   0.86549   0.87176   0.88128   0.88722
 Alpha virt. eigenvalues --    0.89180   0.89218   0.89913   0.90267   0.91128
 Alpha virt. eigenvalues --    0.91418   0.92153   0.92542   0.92655   0.93517
 Alpha virt. eigenvalues --    0.94018   0.94216   0.94535   0.94766   0.95353
 Alpha virt. eigenvalues --    0.95707   0.95905   0.96183   0.96853   0.97438
 Alpha virt. eigenvalues --    0.97490   0.98280   0.98497   0.99032   1.00236
 Alpha virt. eigenvalues --    1.00503   1.01134   1.01293   1.01728   1.02314
 Alpha virt. eigenvalues --    1.03117   1.03464   1.04005   1.04106   1.04303
 Alpha virt. eigenvalues --    1.04802   1.05215   1.05481   1.05846   1.06449
 Alpha virt. eigenvalues --    1.06928   1.07396   1.07542   1.07738   1.08345
 Alpha virt. eigenvalues --    1.08750   1.09117   1.09427   1.09892   1.10525
 Alpha virt. eigenvalues --    1.11434   1.12284   1.12837   1.14483   1.14849
 Alpha virt. eigenvalues --    1.15315   1.15616   1.16899   1.17434   1.18089
 Alpha virt. eigenvalues --    1.18520   1.19147   1.19970   1.21071   1.22162
 Alpha virt. eigenvalues --    1.22557   1.23032   1.23874   1.24098   1.24643
 Alpha virt. eigenvalues --    1.25770   1.25961   1.26205   1.26978   1.27273
 Alpha virt. eigenvalues --    1.28827   1.29559   1.30329   1.30898   1.31522
 Alpha virt. eigenvalues --    1.31669   1.33153   1.33378   1.34711   1.34999
 Alpha virt. eigenvalues --    1.35104   1.36012   1.37484   1.38218   1.38438
 Alpha virt. eigenvalues --    1.39560   1.40792   1.41778   1.41939   1.42129
 Alpha virt. eigenvalues --    1.42910   1.43389   1.43605   1.43911   1.44472
 Alpha virt. eigenvalues --    1.44765   1.45308   1.45610   1.45922   1.46001
 Alpha virt. eigenvalues --    1.46345   1.46752   1.47635   1.48567   1.49261
 Alpha virt. eigenvalues --    1.49887   1.50946   1.51566   1.51769   1.52317
 Alpha virt. eigenvalues --    1.53309   1.53411   1.53786   1.54321   1.54797
 Alpha virt. eigenvalues --    1.55006   1.55435   1.56023   1.56749   1.56835
 Alpha virt. eigenvalues --    1.57701   1.58057   1.59660   1.60827   1.61080
 Alpha virt. eigenvalues --    1.62299   1.62721   1.62887   1.63535   1.63891
 Alpha virt. eigenvalues --    1.65591   1.65960   1.66207   1.66824   1.67587
 Alpha virt. eigenvalues --    1.68184   1.68629   1.69162   1.69661   1.69967
 Alpha virt. eigenvalues --    1.70051   1.71395   1.71606   1.71762   1.72075
 Alpha virt. eigenvalues --    1.72514   1.73853   1.74454   1.74946   1.75442
 Alpha virt. eigenvalues --    1.75955   1.76860   1.77465   1.77759   1.78749
 Alpha virt. eigenvalues --    1.78957   1.79367   1.79566   1.80846   1.82262
 Alpha virt. eigenvalues --    1.83218   1.84277   1.84699   1.85060   1.86430
 Alpha virt. eigenvalues --    1.86752   1.86995   1.87265   1.87947   1.88854
 Alpha virt. eigenvalues --    1.89806   1.90077   1.90485   1.91217   1.92013
 Alpha virt. eigenvalues --    1.92124   1.93075   1.93278   1.94844   1.95024
 Alpha virt. eigenvalues --    1.96481   1.97051   1.98031   1.98344   1.98560
 Alpha virt. eigenvalues --    1.99854   2.00101   2.00828   2.01910   2.02420
 Alpha virt. eigenvalues --    2.02831   2.03128   2.03737   2.04490   2.04799
 Alpha virt. eigenvalues --    2.06068   2.06187   2.06798   2.07424   2.07588
 Alpha virt. eigenvalues --    2.08259   2.09103   2.10051   2.11130   2.11608
 Alpha virt. eigenvalues --    2.11952   2.13422   2.13908   2.14844   2.15133
 Alpha virt. eigenvalues --    2.16582   2.16691   2.17844   2.18077   2.19146
 Alpha virt. eigenvalues --    2.19321   2.19874   2.21284   2.21573   2.22636
 Alpha virt. eigenvalues --    2.24088   2.25222   2.26451   2.26882   2.28888
 Alpha virt. eigenvalues --    2.31584   2.32494   2.33534   2.35546   2.37522
 Alpha virt. eigenvalues --    2.38334   2.39153   2.39800   2.41672   2.42672
 Alpha virt. eigenvalues --    2.43085   2.43451   2.44344   2.44840   2.46193
 Alpha virt. eigenvalues --    2.46471   2.47393   2.48557   2.48792   2.49467
 Alpha virt. eigenvalues --    2.50516   2.51676   2.51869   2.52429   2.52490
 Alpha virt. eigenvalues --    2.52921   2.53480   2.54124   2.54317   2.55612
 Alpha virt. eigenvalues --    2.56748   2.57582   2.59081   2.59264   2.60595
 Alpha virt. eigenvalues --    2.62907   2.63481   2.63511   2.65055   2.66633
 Alpha virt. eigenvalues --    2.67221   2.67555   2.67657   2.67773   2.68978
 Alpha virt. eigenvalues --    2.69350   2.70397   2.70875   2.71582   2.71783
 Alpha virt. eigenvalues --    2.72052   2.73000   2.73765   2.74082   2.75740
 Alpha virt. eigenvalues --    2.76512   2.76752   2.77544   2.78919   2.81160
 Alpha virt. eigenvalues --    2.81622   2.82438   2.83108   2.83203   2.84120
 Alpha virt. eigenvalues --    2.84210   2.84740   2.85724   2.86590   2.87272
 Alpha virt. eigenvalues --    2.88156   2.88540   2.89305   2.89740   2.90725
 Alpha virt. eigenvalues --    2.91639   2.92106   2.92781   2.93667   2.94746
 Alpha virt. eigenvalues --    2.95227   2.95471   2.96465   2.98027   2.98642
 Alpha virt. eigenvalues --    3.00165   3.02288   3.02829   3.03963   3.05422
 Alpha virt. eigenvalues --    3.06039   3.06641   3.07811   3.09226   3.10529
 Alpha virt. eigenvalues --    3.11759   3.13436   3.14423   3.14540   3.15220
 Alpha virt. eigenvalues --    3.16825   3.17962   3.19126   3.20586   3.21459
 Alpha virt. eigenvalues --    3.23115   3.23607   3.23950   3.25322   3.26616
 Alpha virt. eigenvalues --    3.29004   3.29129   3.30775   3.31981   3.34709
 Alpha virt. eigenvalues --    3.35265   3.35585   3.35715   3.37140   3.37428
 Alpha virt. eigenvalues --    3.39093   3.40091   3.41100   3.43365   3.44202
 Alpha virt. eigenvalues --    3.44620   3.45608   3.46344   3.48588   3.49728
 Alpha virt. eigenvalues --    3.51559   3.53861   3.55658   3.58445   3.60498
 Alpha virt. eigenvalues --    3.60900   3.62699   3.65612   3.66302   3.67049
 Alpha virt. eigenvalues --    3.69402   3.70469   3.72658   3.73689   3.75559
 Alpha virt. eigenvalues --    3.76353   3.76875   3.80825   3.82526   3.84380
 Alpha virt. eigenvalues --    3.85620   3.86383   3.90150   3.91387   3.93095
 Alpha virt. eigenvalues --    3.93495   3.95238   3.96942   4.01638   4.02734
 Alpha virt. eigenvalues --    4.04398   4.07979   4.10096   4.12704   4.13959
 Alpha virt. eigenvalues --    4.19621   4.23446   4.25367   4.27521   4.35600
 Alpha virt. eigenvalues --    4.40084   4.40639   4.52509   4.70031   4.84719
 Alpha virt. eigenvalues --    4.85566   4.87397   4.90225   5.01028   5.02532
 Alpha virt. eigenvalues --    5.04126   5.05690   5.06229   5.10357   5.11648
 Alpha virt. eigenvalues --    5.12948   5.25289   5.27111   5.28774   5.30025
 Alpha virt. eigenvalues --    5.41609   5.42959   5.75992   5.76736   5.80080
 Alpha virt. eigenvalues --    5.80337   5.82466   5.84378   8.02227   8.04554
 Alpha virt. eigenvalues --   17.28704  17.31796  17.49213  17.52122  17.57421
 Alpha virt. eigenvalues --   17.62817  23.48773  23.56593  23.71563  23.79160
 Alpha virt. eigenvalues --   23.82555  23.83294  23.84936  23.87367  23.87567
 Alpha virt. eigenvalues --   23.88556  23.89198  23.90145  23.91135  23.93605
 Alpha virt. eigenvalues --   23.95030  23.96074  23.96385  23.99038  24.01340
 Alpha virt. eigenvalues --   24.01401  24.02661  24.05686  24.12572  24.14065
 Alpha virt. eigenvalues --   24.14555  24.14938  35.56096  35.58655  49.95730
 Alpha virt. eigenvalues --   49.97372  50.02557  50.04338  50.06295  50.07641
 Alpha virt. eigenvalues --  189.19462 189.22425
          Condensed to atoms (all electrons):
 Mulliken charges:
               1
     1  C    0.281072
     2  C   -0.089539
     3  C    0.178733
     4  C    0.203540
     5  C    0.226666
     6  C   -0.130637
     7  C    0.222526
     8  C    0.478506
     9  C    0.326194
    10  C   -0.617682
    11  C    0.223705
    12  C    0.133355
    13  C   -0.479358
    14  C   -0.586033
    15  H    0.158113
    16  H    0.160541
    17  H    0.173538
    18  N   -0.096283
    19  N   -0.141372
    20  O   -0.283751
    21  O   -0.268555
    22  O   -0.278849
    23  O   -0.228761
    24  C   -0.177502
    25  H    0.177145
    26  H    0.166683
    27  H    0.182769
    28  C   -0.198660
    29  H    0.173900
    30  H    0.173374
    31  H    0.181853
    32  C    0.050378
    33  C   -0.492892
    34  S   -0.636237
    35  C   -0.211602
    36  H    0.138848
    37  C    0.715430
    38  O   -0.127874
    39  C    0.854321
    40  C   -0.241075
    41  C   -0.014117
    42  S   -0.252643
    43  H    0.165918
    44  H    0.145312
    45  H    0.163433
    46  C   -0.616672
    47  O   -0.128361
    48  C   -0.275300
    49  H    0.133163
    50  C   -0.240795
    51  H    0.162400
    52  H    0.145646
    53  H    0.170449
    54  H    0.147038
 Sum of Mulliken charges =  -0.00000
 Mulliken charges with hydrogens summed into heavy atoms:
               1
     1  C    0.281072
     2  C   -0.089539
     3  C    0.178733
     4  C    0.203540
     5  C    0.226666
     6  C    0.042902
     7  C    0.222526
     8  C    0.478506
     9  C    0.326194
    10  C   -0.617682
    11  C    0.223705
    12  C    0.133355
    13  C   -0.318817
    14  C   -0.427920
    18  N   -0.096283
    19  N   -0.141372
    20  O   -0.283751
    21  O   -0.268555
    22  O   -0.278849
    23  O   -0.228761
    24  C    0.349096
    28  C    0.330468
    32  C    0.050378
    33  C   -0.354044
    34  S   -0.636237
    35  C   -0.211602
    37  C    0.715430
    38  O   -0.127874
    39  C    0.854321
    40  C    0.233588
    41  C   -0.014117
    42  S   -0.252643
    46  C   -0.483508
    47  O   -0.128361
    48  C   -0.112901
    50  C    0.222338
 Electronic spatial extent (au):  <R**2>=          22414.7455
 Charge=             -0.0000 electrons
 Dipole moment (field-independent basis, Debye):
    X=             -5.1756    Y=             -0.6265    Z=              0.3314  Tot=              5.2239
 Quadrupole moment (field-independent basis, Debye-Ang):
   XX=           -215.9430   YY=           -211.3774   ZZ=           -219.7206
   XY=              4.4483   XZ=              1.9434   YZ=             12.3213
 Traceless Quadrupole moment (field-independent basis, Debye-Ang):
   XX=             -0.2626   YY=              4.3029   ZZ=             -4.0403
   XY=              4.4483   XZ=              1.9434   YZ=             12.3213
 Octapole moment (field-independent basis, Debye-Ang**2):
  XXX=           -392.6753  YYY=            -20.0119  ZZZ=             -2.2096  XYY=           -133.7221
  XXY=            -86.8755  XXZ=            -29.9705  XZZ=              0.2714  YZZ=             -0.5815
  YYZ=             -0.5335  XYZ=            -42.6271
 Hexadecapole moment (field-independent basis, Debye-Ang**3):
 XXXX=         -20831.4711 YYYY=          -7652.6532 ZZZZ=           -767.9082 XXXY=            584.2771
 XXXZ=             93.2123 YYYX=           -283.4929 YYYZ=            131.7456 ZZZX=              7.7487
 ZZZY=             14.7229 XXYY=          -4935.9517 XXZZ=          -3777.2006 YYZZ=          -1383.9180
 XXYZ=            249.8885 YYXZ=             44.8220 ZZXY=            -11.3953
 N-N= 4.088556442332D+03 E-N=-1.371713999680D+04  KE= 2.352059309360D+03
 Unable to Open any file for archive entry.
 1\1\GINC-CX3-5-13\FOpt\RB3LYP\6-311+G(d,p)\C26H18N2O6S2\NS5018\26-Nov-
 2020\0\\# opt=modredundant b3lyp/6-311+g(d,p)\\NDI_-30.pdb\\0,1\C,-2.6
 064349713,-3.0051161074,-0.4276397187\C,-2.2783394421,-1.5690151231,-0
 .2255858115\C,-3.3087710282,-0.6093103093,-0.0957066071\C,-4.661436747
 3,-0.9981638404,-0.1658625012\C,-5.0256714316,-2.4244169737,-0.3804031
 997\C,-0.9671172329,-1.1757779088,-0.2032843315\C,-2.950556003,0.75054
 58502,0.1199478054\C,-1.5789882712,1.1461767059,0.1823050676\C,-0.5605
 342653,0.1832681456,-0.0390803845\C,-1.292847341,2.5423215794,0.608750
 8643\C,-3.7218231347,3.1144558683,0.5238498398\C,-4.0059408993,1.68588
 53632,0.2667232311\C,-5.3321667412,1.2856123499,0.1829007042\C,-5.6674
 380971,-0.0538228827,-0.0329055771\H,-6.7001471637,-0.3719373529,-0.09
 32453661\H,-6.100209913,2.0404951497,0.2943856455\H,-0.218409255,-1.94
 0875312,-0.3629843029\N,-2.3758971246,3.4378258721,0.7022964938\N,-3.9
 638288555,-3.3381581248,-0.492422868\O,-1.7543784,-3.8679901932,-0.534
 6071972\O,-6.183070011,-2.7921323479,-0.4536524968\O,-4.6000011643,3.9
 567593294,0.6007307978\O,-0.1847827537,2.9574787297,0.9023842546\C,-2.
 0373386601,4.8177790514,1.0780667715\H,-1.5830050863,4.8324649385,2.06
 91262971\H,-1.320973069,5.228903841,0.366846046\H,-2.9554735104,5.3965
 713703,1.0712670196\C,-4.2770237857,-4.7596332508,-0.6966592642\H,-3.8
 314489902,-5.1041065022,-1.6301307769\H,-3.861877955,-5.3489542219,0.1
 212651454\H,-5.3569944747,-4.862042507,-0.7297069845\C,0.8671955627,0.
 4321839663,-0.2003488826\C,1.5379165459,1.5232169131,-0.7154950018\S,2
 .0120884875,-0.8339983055,0.2283290355\C,2.9310009155,1.3490605275,-0.
 7732449276\H,1.0374735609,2.4188128528,-1.0405572282\C,3.3811603324,0.
 1195217503,-0.2848718782\O,3.8388139023,2.2441348922,-1.2417984394\C,4
 .7364039119,-0.3382671049,-0.1754938194\C,3.3680849186,3.5351524272,-1
 .6231418559\C,5.1808597441,-1.5713132423,0.2934762722\S,6.1225324036,0
 .6435789931,-0.6373242041\H,4.2532013647,4.1044362611,-1.9009716788\H,
 2.6940805984,3.4685262326,-2.4833128629\H,2.8580007406,4.0276951216,-0
 .7898340533\C,6.5940199873,-1.7231839864,0.2823918508\O,4.2728415773,-
 2.4902402561,0.7080253041\C,7.2236554086,-0.6065924805,-0.1942990314\H
 ,7.1182724684,-2.6094975563,0.6082856544\C,4.7499538899,-3.7531312261,
 1.1653754208\H,8.2848719766,-0.4500927263,-0.3132951509\H,5.3903332412
 ,-3.6358257495,2.0452723987\H,3.864541334,-4.325914952,1.4342815322\H,
 5.2966229061,-4.2763535385,0.37458295\\Version=ES64L-G16RevC.01\State=
 1-A\HF=-2359.3381314\RMSD=2.263e-09\RMSF=3.399e-04\Dipole=2.032995,-0.
 2458768,-0.1747813\Quadrupole=-0.1644729,3.8619267,-3.6974538,-3.50421
 42,1.2456703,-8.8572799\PG=C01 [X(C26H18N2O6S2)]\\@
 The archive entry for this job was punched.


 THERE'S SMALL CHOICE IN A BOWL OF ROTTEN APPLES.
                     SHAKESPEARE
 Job cpu time:       1 days 23 hours 27 minutes 20.7 seconds.
 Elapsed time:       0 days  3 hours  0 minutes 10.4 seconds.
 File lengths (MBytes):  RWF=    496 Int=      0 D2E=      0 Chk=     61 Scr=      1
 Normal termination of Gaussian 16 at Thu Nov 26 08:42:56 2020.
