 Entering Gaussian System, Link 0=g16
 Input=NDI_35.gjf
 Output=NDI_35.log
 Initial command:
 /apps/gaussian/g16-c01-avx/g16/l1.exe "/tmp/pbs.2610758[43].pbs/Gau-804871.inp" -scrdir="/tmp/pbs.2610758[43].pbs/"
 Entering Link 1 = /apps/gaussian/g16-c01-avx/g16/l1.exe PID=    804872.
  
 Copyright (c) 1988-2019, Gaussian, Inc.  All Rights Reserved.
  
 This is part of the Gaussian(R) 16 program.  It is based on
 the Gaussian(R) 09 system (copyright 2009, Gaussian, Inc.),
 the Gaussian(R) 03 system (copyright 2003, Gaussian, Inc.),
 the Gaussian(R) 98 system (copyright 1998, Gaussian, Inc.),
 the Gaussian(R) 94 system (copyright 1995, Gaussian, Inc.),
 the Gaussian 92(TM) system (copyright 1992, Gaussian, Inc.),
 the Gaussian 90(TM) system (copyright 1990, Gaussian, Inc.),
 the Gaussian 88(TM) system (copyright 1988, Gaussian, Inc.),
 the Gaussian 86(TM) system (copyright 1986, Carnegie Mellon
 University), and the Gaussian 82(TM) system (copyright 1983,
 Carnegie Mellon University). Gaussian is a federally registered
 trademark of Gaussian, Inc.
  
 This software contains proprietary and confidential information,
 including trade secrets, belonging to Gaussian, Inc.
  
 This software is provided under written license and may be
 used, copied, transmitted, or stored only in accord with that
 written license.
  
 The following legend is applicable only to US Government
 contracts under FAR:
  
                    RESTRICTED RIGHTS LEGEND
  
 Use, reproduction and disclosure by the US Government is
 subject to restrictions as set forth in subparagraphs (a)
 and (c) of the Commercial Computer Software - Restricted
 Rights clause in FAR 52.227-19.
  
 Gaussian, Inc.
 340 Quinnipiac St., Bldg. 40, Wallingford CT 06492
  
  
 ---------------------------------------------------------------
 Warning -- This program may not be used in any manner that
 competes with the business of Gaussian, Inc. or will provide
 assistance to any competitor of Gaussian, Inc.  The licensee
 of this program is prohibited from giving any competitor of
 Gaussian, Inc. access to this program.  By using this program,
 the user acknowledges that Gaussian, Inc. is engaged in the
 business of creating and licensing software in the field of
 computational chemistry and represents and warrants to the
 licensee that it is not a competitor of Gaussian, Inc. and that
 it will not use this program in any manner prohibited above.
 ---------------------------------------------------------------
  

 Cite this work as:
 Gaussian 16, Revision C.01,
 M. J. Frisch, G. W. Trucks, H. B. Schlegel, G. E. Scuseria, 
 M. A. Robb, J. R. Cheeseman, G. Scalmani, V. Barone, 
 G. A. Petersson, H. Nakatsuji, X. Li, M. Caricato, A. V. Marenich, 
 J. Bloino, B. G. Janesko, R. Gomperts, B. Mennucci, H. P. Hratchian, 
 J. V. Ortiz, A. F. Izmaylov, J. L. Sonnenberg, D. Williams-Young, 
 F. Ding, F. Lipparini, F. Egidi, J. Goings, B. Peng, A. Petrone, 
 T. Henderson, D. Ranasinghe, V. G. Zakrzewski, J. Gao, N. Rega, 
 G. Zheng, W. Liang, M. Hada, M. Ehara, K. Toyota, R. Fukuda, 
 J. Hasegawa, M. Ishida, T. Nakajima, Y. Honda, O. Kitao, H. Nakai, 
 T. Vreven, K. Throssell, J. A. Montgomery, Jr., J. E. Peralta, 
 F. Ogliaro, M. J. Bearpark, J. J. Heyd, E. N. Brothers, K. N. Kudin, 
 V. N. Staroverov, T. A. Keith, R. Kobayashi, J. Normand, 
 K. Raghavachari, A. P. Rendell, J. C. Burant, S. S. Iyengar, 
 J. Tomasi, M. Cossi, J. M. Millam, M. Klene, C. Adamo, R. Cammi, 
 J. W. Ochterski, R. L. Martin, K. Morokuma, O. Farkas, 
 J. B. Foresman, and D. J. Fox, Gaussian, Inc., Wallingford CT, 2019.
 
 ******************************************
 Gaussian 16:  ES64L-G16RevC.01  3-Jul-2019
                26-Nov-2020 
 ******************************************
 %mem=10GB
 %nprocshared=16
 Will use up to   16 processors via shared memory.
 -------------------------------------
 # opt=modredundant b3lyp/6-311+g(d,p)
 -------------------------------------
 1/18=120,19=15,26=3,38=1/1,3;
 2/9=110,12=2,17=6,18=5,40=1/2;
 3/5=4,6=6,7=111,11=2,25=1,30=1,71=1,74=-5/1,2,3;
 4//1;
 5/5=2,38=5/2;
 6/7=2,8=2,9=2,10=2,28=1/1;
 7//1,2,3,16;
 1/18=20,19=15,26=3/3(2);
 2/9=110/2;
 99//99;
 2/9=110/2;
 3/5=4,6=6,7=111,11=2,25=1,30=1,71=1,74=-5/1,2,3;
 4/5=5,16=3,69=1/1;
 5/5=2,38=5/2;
 7//1,2,3,16;
 1/18=20,19=15,26=3/3(-5);
 2/9=110/2;
 6/7=2,8=2,9=2,10=2,19=2,28=1/1;
 99/9=1/99;
 ----------
 NDI_35.pdb
 ----------
 Symbolic Z-matrix:
 Charge =  0 Multiplicity = 1
 C                    -2.563    -2.994    -0.409 
 C                    -2.257    -1.551    -0.224 
 C                    -3.301    -0.607    -0.083 
 C                    -4.65     -1.024    -0.115 
 C                    -4.992    -2.459    -0.304 
 C                    -0.949    -1.137    -0.215 
 C                    -2.962     0.764     0.102 
 C                    -1.595     1.188     0.123 
 C                    -0.561     0.232    -0.072 
 C                    -1.328     2.616     0.446 
 C                    -3.777     3.115     0.508 
 C                    -4.035     1.679     0.268 
 C                    -5.356     1.252     0.23 
 C                    -5.672    -0.098     0.036 
 H                    -6.699    -0.442     0.008 
 H                    -6.133     1.997     0.361 
 H                    -0.19     -1.895    -0.369 
 N                    -2.432     3.476     0.608 
 N                    -3.916    -3.353    -0.438 
 O                    -1.695    -3.847    -0.532 
 O                    -6.149    -2.85     -0.34 
 O                    -4.676     3.938     0.629 
 O                    -0.212     3.097     0.596 
 C                    -2.111     4.875     0.912 
 H                    -1.54      4.931     1.84 
 H                    -1.5       5.299     0.111 
 H                    -3.05      5.414     1.003 
 C                    -4.206    -4.779    -0.625 
 H                    -3.759    -5.126    -1.559 
 H                    -3.775    -5.355     0.196 
 H                    -5.286    -4.897    -0.649 
 C                     0.876     0.482    -0.178 
 C                     1.68      1.413     0.45 
 S                     1.805    -0.402    -1.389 
 C                     3.009     1.417    -0.019 
 H                     1.321     2.064     1.231 
 C                     3.27      0.48     -1.024 
 O                     4.015     2.225     0.409 
 C                     4.524     0.213    -1.67 
 C                     3.752     3.066     1.529 
 C                     4.777    -0.705    -2.688 
 S                     6.017     1.05     -1.254 
 H                     4.695     3.562     1.759 
 H                     2.994     3.821     1.288 
 H                     3.422     2.481     2.395 
 C                     6.133    -0.735    -3.121 
 O                     3.758    -1.467    -3.163 
 C                     6.909     0.159    -2.434 
 H                     6.513    -1.383    -3.899 
 C                     4.04     -2.371    -4.226 
 H                     7.967     0.345    -2.56 
 H                     4.779    -3.124    -3.923 
 H                     3.097    -2.863    -4.461 
 H                     4.405    -1.839    -5.113 
 
 The following ModRedundant input section has been read:
 D       8       9      32      33 F                                           
 

 GradGradGradGradGradGradGradGradGradGradGradGradGradGradGradGradGradGrad
 Berny optimization.
 Initialization pass.
                           ----------------------------
                           !    Initial Parameters    !
                           ! (Angstroms and Degrees)  !
 --------------------------                            --------------------------
 ! Name  Definition              Value          Derivative Info.                !
 --------------------------------------------------------------------------------
 ! R1    R(1,2)                  1.4866         estimate D2E/DX2                !
 ! R2    R(1,19)                 1.4001         estimate D2E/DX2                !
 ! R3    R(1,20)                 1.2232         estimate D2E/DX2                !
 ! R4    R(2,3)                  1.4146         estimate D2E/DX2                !
 ! R5    R(2,6)                  1.372          estimate D2E/DX2                !
 ! R6    R(3,4)                  1.4123         estimate D2E/DX2                !
 ! R7    R(3,7)                  1.4244         estimate D2E/DX2                !
 ! R8    R(4,5)                  1.4872         estimate D2E/DX2                !
 ! R9    R(4,14)                 1.3874         estimate D2E/DX2                !
 ! R10   R(5,19)                 1.4053         estimate D2E/DX2                !
 ! R11   R(5,21)                 1.2218         estimate D2E/DX2                !
 ! R12   R(6,9)                  1.4301         estimate D2E/DX2                !
 ! R13   R(6,17)                 1.0837         estimate D2E/DX2                !
 ! R14   R(7,8)                  1.4314         estimate D2E/DX2                !
 ! R15   R(7,12)                 1.4199         estimate D2E/DX2                !
 ! R16   R(8,9)                  1.4217         estimate D2E/DX2                !
 ! R17   R(8,10)                 1.4882         estimate D2E/DX2                !
 ! R18   R(9,32)                 1.4624         estimate D2E/DX2                !
 ! R19   R(10,18)                1.4088         estimate D2E/DX2                !
 ! R20   R(10,23)                1.2245         estimate D2E/DX2                !
 ! R21   R(11,12)                1.4786         estimate D2E/DX2                !
 ! R22   R(11,18)                1.3962         estimate D2E/DX2                !
 ! R23   R(11,22)                1.2248         estimate D2E/DX2                !
 ! R24   R(12,13)                1.3888         estimate D2E/DX2                !
 ! R25   R(13,14)                1.4            estimate D2E/DX2                !
 ! R26   R(13,16)                1.0844         estimate D2E/DX2                !
 ! R27   R(14,15)                1.0834         estimate D2E/DX2                !
 ! R28   R(18,24)                1.4672         estimate D2E/DX2                !
 ! R29   R(19,28)                1.4672         estimate D2E/DX2                !
 ! R30   R(24,25)                1.091          estimate D2E/DX2                !
 ! R31   R(24,26)                1.093          estimate D2E/DX2                !
 ! R32   R(24,27)                1.0865         estimate D2E/DX2                !
 ! R33   R(28,29)                1.0921         estimate D2E/DX2                !
 ! R34   R(28,30)                1.0916         estimate D2E/DX2                !
 ! R35   R(28,31)                1.0867         estimate D2E/DX2                !
 ! R36   R(32,33)                1.3811         estimate D2E/DX2                !
 ! R37   R(32,34)                1.7638         estimate D2E/DX2                !
 ! R38   R(33,35)                1.4093         estimate D2E/DX2                !
 ! R39   R(33,36)                1.0783         estimate D2E/DX2                !
 ! R40   R(34,37)                1.7485         estimate D2E/DX2                !
 ! R41   R(35,37)                1.3986         estimate D2E/DX2                !
 ! R42   R(35,38)                1.3594         estimate D2E/DX2                !
 ! R43   R(37,39)                1.4357         estimate D2E/DX2                !
 ! R44   R(38,40)                1.4251         estimate D2E/DX2                !
 ! R45   R(39,41)                1.3939         estimate D2E/DX2                !
 ! R46   R(39,42)                1.7614         estimate D2E/DX2                !
 ! R47   R(40,43)                1.09           estimate D2E/DX2                !
 ! R48   R(40,44)                1.0967         estimate D2E/DX2                !
 ! R49   R(40,45)                1.0959         estimate D2E/DX2                !
 ! R50   R(41,46)                1.4238         estimate D2E/DX2                !
 ! R51   R(41,47)                1.3582         estimate D2E/DX2                !
 ! R52   R(42,48)                1.7268         estimate D2E/DX2                !
 ! R53   R(46,48)                1.3687         estimate D2E/DX2                !
 ! R54   R(46,49)                1.0815         estimate D2E/DX2                !
 ! R55   R(47,50)                1.4236         estimate D2E/DX2                !
 ! R56   R(48,51)                1.0816         estimate D2E/DX2                !
 ! R57   R(50,52)                1.0977         estimate D2E/DX2                !
 ! R58   R(50,53)                1.0893         estimate D2E/DX2                !
 ! R59   R(50,54)                1.0968         estimate D2E/DX2                !
 ! A1    A(2,1,19)             116.767          estimate D2E/DX2                !
 ! A2    A(2,1,20)             122.9113         estimate D2E/DX2                !
 ! A3    A(19,1,20)            120.3217         estimate D2E/DX2                !
 ! A4    A(1,2,3)              120.5473         estimate D2E/DX2                !
 ! A5    A(1,2,6)              119.3369         estimate D2E/DX2                !
 ! A6    A(3,2,6)              120.1056         estimate D2E/DX2                !
 ! A7    A(2,3,4)              120.3743         estimate D2E/DX2                !
 ! A8    A(2,3,7)              118.662          estimate D2E/DX2                !
 ! A9    A(4,3,7)              120.9617         estimate D2E/DX2                !
 ! A10   A(3,4,5)              120.4909         estimate D2E/DX2                !
 ! A11   A(3,4,14)             120.2702         estimate D2E/DX2                !
 ! A12   A(5,4,14)             119.2382         estimate D2E/DX2                !
 ! A13   A(4,5,19)             116.7341         estimate D2E/DX2                !
 ! A14   A(4,5,21)             122.024          estimate D2E/DX2                !
 ! A15   A(19,5,21)            121.2418         estimate D2E/DX2                !
 ! A16   A(2,6,9)              123.2421         estimate D2E/DX2                !
 ! A17   A(2,6,17)             117.1119         estimate D2E/DX2                !
 ! A18   A(9,6,17)             119.589          estimate D2E/DX2                !
 ! A19   A(3,7,8)              120.9519         estimate D2E/DX2                !
 ! A20   A(3,7,12)             117.1037         estimate D2E/DX2                !
 ! A21   A(8,7,12)             121.944          estimate D2E/DX2                !
 ! A22   A(7,8,9)              119.5639         estimate D2E/DX2                !
 ! A23   A(7,8,10)             117.3064         estimate D2E/DX2                !
 ! A24   A(9,8,10)             122.9922         estimate D2E/DX2                !
 ! A25   A(6,9,8)              117.3944         estimate D2E/DX2                !
 ! A26   A(6,9,32)             115.0236         estimate D2E/DX2                !
 ! A27   A(8,9,32)             127.5648         estimate D2E/DX2                !
 ! A28   A(8,10,18)            118.042          estimate D2E/DX2                !
 ! A29   A(8,10,23)            124.5436         estimate D2E/DX2                !
 ! A30   A(18,10,23)           117.4097         estimate D2E/DX2                !
 ! A31   A(12,11,18)           115.5202         estimate D2E/DX2                !
 ! A32   A(12,11,22)           122.7205         estimate D2E/DX2                !
 ! A33   A(18,11,22)           121.7534         estimate D2E/DX2                !
 ! A34   A(7,12,11)            120.8614         estimate D2E/DX2                !
 ! A35   A(7,12,13)            121.162          estimate D2E/DX2                !
 ! A36   A(11,12,13)           117.9699         estimate D2E/DX2                !
 ! A37   A(12,13,14)           120.9948         estimate D2E/DX2                !
 ! A38   A(12,13,16)           117.8401         estimate D2E/DX2                !
 ! A39   A(14,13,16)           121.1642         estimate D2E/DX2                !
 ! A40   A(4,14,13)            119.5003         estimate D2E/DX2                !
 ! A41   A(4,14,15)            118.9169         estimate D2E/DX2                !
 ! A42   A(13,14,15)           121.5811         estimate D2E/DX2                !
 ! A43   A(10,18,11)           126.0753         estimate D2E/DX2                !
 ! A44   A(10,18,24)           115.7508         estimate D2E/DX2                !
 ! A45   A(11,18,24)           118.1737         estimate D2E/DX2                !
 ! A46   A(1,19,5)             125.0856         estimate D2E/DX2                !
 ! A47   A(1,19,28)            116.2868         estimate D2E/DX2                !
 ! A48   A(5,19,28)            118.6276         estimate D2E/DX2                !
 ! A49   A(18,24,25)           109.8574         estimate D2E/DX2                !
 ! A50   A(18,24,26)           109.8979         estimate D2E/DX2                !
 ! A51   A(18,24,27)           107.5355         estimate D2E/DX2                !
 ! A52   A(25,24,26)           108.1108         estimate D2E/DX2                !
 ! A53   A(25,24,27)           110.8301         estimate D2E/DX2                !
 ! A54   A(26,24,27)           110.6124         estimate D2E/DX2                !
 ! A55   A(19,28,29)           109.6906         estimate D2E/DX2                !
 ! A56   A(19,28,30)           109.8136         estimate D2E/DX2                !
 ! A57   A(19,28,31)           107.7461         estimate D2E/DX2                !
 ! A58   A(29,28,30)           108.2991         estimate D2E/DX2                !
 ! A59   A(29,28,31)           110.6959         estimate D2E/DX2                !
 ! A60   A(30,28,31)           110.5924         estimate D2E/DX2                !
 ! A61   A(9,32,33)            130.8649         estimate D2E/DX2                !
 ! A62   A(9,32,34)            118.7919         estimate D2E/DX2                !
 ! A63   A(33,32,34)           110.0854         estimate D2E/DX2                !
 ! A64   A(32,33,35)           113.5496         estimate D2E/DX2                !
 ! A65   A(32,33,36)           122.8542         estimate D2E/DX2                !
 ! A66   A(35,33,36)           123.5931         estimate D2E/DX2                !
 ! A67   A(32,34,37)            92.5885         estimate D2E/DX2                !
 ! A68   A(33,35,37)           114.4061         estimate D2E/DX2                !
 ! A69   A(33,35,38)           126.4944         estimate D2E/DX2                !
 ! A70   A(37,35,38)           119.0995         estimate D2E/DX2                !
 ! A71   A(34,37,35)           109.3649         estimate D2E/DX2                !
 ! A72   A(34,37,39)           122.9624         estimate D2E/DX2                !
 ! A73   A(35,37,39)           127.6567         estimate D2E/DX2                !
 ! A74   A(35,38,40)           117.4919         estimate D2E/DX2                !
 ! A75   A(37,39,41)           127.5625         estimate D2E/DX2                !
 ! A76   A(37,39,42)           123.0732         estimate D2E/DX2                !
 ! A77   A(41,39,42)           109.3643         estimate D2E/DX2                !
 ! A78   A(38,40,43)           105.9447         estimate D2E/DX2                !
 ! A79   A(38,40,44)           111.1698         estimate D2E/DX2                !
 ! A80   A(38,40,45)           111.1976         estimate D2E/DX2                !
 ! A81   A(43,40,44)           109.3329         estimate D2E/DX2                !
 ! A82   A(43,40,45)           109.6732         estimate D2E/DX2                !
 ! A83   A(44,40,45)           109.4518         estimate D2E/DX2                !
 ! A84   A(39,41,46)           114.132          estimate D2E/DX2                !
 ! A85   A(39,41,47)           119.2569         estimate D2E/DX2                !
 ! A86   A(46,41,47)           126.6108         estimate D2E/DX2                !
 ! A87   A(39,42,48)            91.7918         estimate D2E/DX2                !
 ! A88   A(41,46,48)           111.9352         estimate D2E/DX2                !
 ! A89   A(41,46,49)           124.4755         estimate D2E/DX2                !
 ! A90   A(48,46,49)           123.5893         estimate D2E/DX2                !
 ! A91   A(41,47,50)           117.9557         estimate D2E/DX2                !
 ! A92   A(42,48,46)           112.7767         estimate D2E/DX2                !
 ! A93   A(42,48,51)           119.7463         estimate D2E/DX2                !
 ! A94   A(46,48,51)           127.4769         estimate D2E/DX2                !
 ! A95   A(47,50,52)           111.275          estimate D2E/DX2                !
 ! A96   A(47,50,53)           106.0464         estimate D2E/DX2                !
 ! A97   A(47,50,54)           111.2086         estimate D2E/DX2                !
 ! A98   A(52,50,53)           109.4223         estimate D2E/DX2                !
 ! A99   A(52,50,54)           109.3852         estimate D2E/DX2                !
 ! A100  A(53,50,54)           109.4328         estimate D2E/DX2                !
 ! D1    D(19,1,2,3)             0.1578         estimate D2E/DX2                !
 ! D2    D(19,1,2,6)          -178.6792         estimate D2E/DX2                !
 ! D3    D(20,1,2,3)          -179.8231         estimate D2E/DX2                !
 ! D4    D(20,1,2,6)             1.3399         estimate D2E/DX2                !
 ! D5    D(2,1,19,5)            -0.124          estimate D2E/DX2                !
 ! D6    D(2,1,19,28)          179.8267         estimate D2E/DX2                !
 ! D7    D(20,1,19,5)          179.8575         estimate D2E/DX2                !
 ! D8    D(20,1,19,28)          -0.1919         estimate D2E/DX2                !
 ! D9    D(1,2,3,4)              0.0571         estimate D2E/DX2                !
 ! D10   D(1,2,3,7)            179.5453         estimate D2E/DX2                !
 ! D11   D(6,2,3,4)            178.8851         estimate D2E/DX2                !
 ! D12   D(6,2,3,7)             -1.6266         estimate D2E/DX2                !
 ! D13   D(1,2,6,9)            178.625          estimate D2E/DX2                !
 ! D14   D(1,2,6,17)             1.3881         estimate D2E/DX2                !
 ! D15   D(3,2,6,9)             -0.2173         estimate D2E/DX2                !
 ! D16   D(3,2,6,17)          -177.4541         estimate D2E/DX2                !
 ! D17   D(2,3,4,5)             -0.3074         estimate D2E/DX2                !
 ! D18   D(2,3,4,14)           179.3968         estimate D2E/DX2                !
 ! D19   D(7,3,4,5)           -179.7837         estimate D2E/DX2                !
 ! D20   D(7,3,4,14)            -0.0795         estimate D2E/DX2                !
 ! D21   D(2,3,7,8)              1.0523         estimate D2E/DX2                !
 ! D22   D(2,3,7,12)          -178.712          estimate D2E/DX2                !
 ! D23   D(4,3,7,8)           -179.4626         estimate D2E/DX2                !
 ! D24   D(4,3,7,12)             0.7731         estimate D2E/DX2                !
 ! D25   D(3,4,5,19)             0.3343         estimate D2E/DX2                !
 ! D26   D(3,4,5,21)          -179.7799         estimate D2E/DX2                !
 ! D27   D(14,4,5,19)         -179.3729         estimate D2E/DX2                !
 ! D28   D(14,4,5,21)            0.5129         estimate D2E/DX2                !
 ! D29   D(3,4,14,13)           -0.4559         estimate D2E/DX2                !
 ! D30   D(3,4,14,15)         -179.9937         estimate D2E/DX2                !
 ! D31   D(5,4,14,13)          179.252          estimate D2E/DX2                !
 ! D32   D(5,4,14,15)           -0.2858         estimate D2E/DX2                !
 ! D33   D(4,5,19,1)            -0.1141         estimate D2E/DX2                !
 ! D34   D(4,5,19,28)          179.9364         estimate D2E/DX2                !
 ! D35   D(21,5,19,1)          179.9992         estimate D2E/DX2                !
 ! D36   D(21,5,19,28)           0.0496         estimate D2E/DX2                !
 ! D37   D(2,6,9,8)              2.5984         estimate D2E/DX2                !
 ! D38   D(2,6,9,32)          -176.0103         estimate D2E/DX2                !
 ! D39   D(17,6,9,8)           179.77           estimate D2E/DX2                !
 ! D40   D(17,6,9,32)            1.1613         estimate D2E/DX2                !
 ! D41   D(3,7,8,9)              1.3551         estimate D2E/DX2                !
 ! D42   D(3,7,8,10)          -174.5099         estimate D2E/DX2                !
 ! D43   D(12,7,8,9)          -178.8921         estimate D2E/DX2                !
 ! D44   D(12,7,8,10)            5.2428         estimate D2E/DX2                !
 ! D45   D(3,7,12,11)          178.0768         estimate D2E/DX2                !
 ! D46   D(3,7,12,13)           -0.9621         estimate D2E/DX2                !
 ! D47   D(8,7,12,11)           -1.685          estimate D2E/DX2                !
 ! D48   D(8,7,12,13)          179.2761         estimate D2E/DX2                !
 ! D49   D(7,8,9,6)             -3.0809         estimate D2E/DX2                !
 ! D50   D(7,8,9,32)           175.3285         estimate D2E/DX2                !
 ! D51   D(10,8,9,6)           172.5381         estimate D2E/DX2                !
 ! D52   D(10,8,9,32)           -9.0525         estimate D2E/DX2                !
 ! D53   D(7,8,10,18)           -4.7549         estimate D2E/DX2                !
 ! D54   D(7,8,10,23)          174.4235         estimate D2E/DX2                !
 ! D55   D(9,8,10,18)          179.5335         estimate D2E/DX2                !
 ! D56   D(9,8,10,23)           -1.2882         estimate D2E/DX2                !
 ! D57   D(6,9,32,33)         -146.5757         estimate D2E/DX2                !
 ! D58   D(6,9,32,34)           39.8952         estimate D2E/DX2                !
 ! D59   D(8,9,32,33)           34.9827         Frozen                          !
 ! D60   D(8,9,32,34)         -138.5464         estimate D2E/DX2                !
 ! D61   D(8,10,18,11)           0.7189         estimate D2E/DX2                !
 ! D62   D(8,10,18,24)        -179.4089         estimate D2E/DX2                !
 ! D63   D(23,10,18,11)       -178.5188         estimate D2E/DX2                !
 ! D64   D(23,10,18,24)          1.3535         estimate D2E/DX2                !
 ! D65   D(18,11,12,7)          -2.3856         estimate D2E/DX2                !
 ! D66   D(18,11,12,13)        176.6833         estimate D2E/DX2                !
 ! D67   D(22,11,12,7)         178.4862         estimate D2E/DX2                !
 ! D68   D(22,11,12,13)         -2.445          estimate D2E/DX2                !
 ! D69   D(12,11,18,10)          2.8444         estimate D2E/DX2                !
 ! D70   D(12,11,18,24)       -177.0251         estimate D2E/DX2                !
 ! D71   D(22,11,18,10)       -178.0181         estimate D2E/DX2                !
 ! D72   D(22,11,18,24)          2.1124         estimate D2E/DX2                !
 ! D73   D(7,12,13,14)           0.461          estimate D2E/DX2                !
 ! D74   D(7,12,13,16)        -179.8781         estimate D2E/DX2                !
 ! D75   D(11,12,13,14)       -178.6049         estimate D2E/DX2                !
 ! D76   D(11,12,13,16)          1.056          estimate D2E/DX2                !
 ! D77   D(12,13,14,4)           0.2708         estimate D2E/DX2                !
 ! D78   D(12,13,14,15)        179.7958         estimate D2E/DX2                !
 ! D79   D(16,13,14,4)        -179.3788         estimate D2E/DX2                !
 ! D80   D(16,13,14,15)          0.1463         estimate D2E/DX2                !
 ! D81   D(10,18,24,25)        -59.609          estimate D2E/DX2                !
 ! D82   D(10,18,24,26)         59.2209         estimate D2E/DX2                !
 ! D83   D(10,18,24,27)        179.6858         estimate D2E/DX2                !
 ! D84   D(11,18,24,25)        120.2739         estimate D2E/DX2                !
 ! D85   D(11,18,24,26)       -120.8962         estimate D2E/DX2                !
 ! D86   D(11,18,24,27)         -0.4313         estimate D2E/DX2                !
 ! D87   D(1,19,28,29)         -58.1407         estimate D2E/DX2                !
 ! D88   D(1,19,28,30)          60.7668         estimate D2E/DX2                !
 ! D89   D(1,19,28,31)        -178.7139         estimate D2E/DX2                !
 ! D90   D(5,19,28,29)         121.8132         estimate D2E/DX2                !
 ! D91   D(5,19,28,30)        -119.2792         estimate D2E/DX2                !
 ! D92   D(5,19,28,31)           1.2401         estimate D2E/DX2                !
 ! D93   D(9,32,33,35)        -174.2615         estimate D2E/DX2                !
 ! D94   D(9,32,33,36)           6.3538         estimate D2E/DX2                !
 ! D95   D(34,32,33,35)         -0.2979         estimate D2E/DX2                !
 ! D96   D(34,32,33,36)       -179.6827         estimate D2E/DX2                !
 ! D97   D(9,32,34,37)         175.3695         estimate D2E/DX2                !
 ! D98   D(33,32,34,37)          0.5762         estimate D2E/DX2                !
 ! D99   D(32,33,35,37)         -0.245          estimate D2E/DX2                !
 ! D100  D(32,33,35,38)        179.7335         estimate D2E/DX2                !
 ! D101  D(36,33,35,37)        179.1346         estimate D2E/DX2                !
 ! D102  D(36,33,35,38)         -0.8869         estimate D2E/DX2                !
 ! D103  D(32,34,37,35)         -0.6993         estimate D2E/DX2                !
 ! D104  D(32,34,37,39)        177.9449         estimate D2E/DX2                !
 ! D105  D(33,35,37,34)          0.668          estimate D2E/DX2                !
 ! D106  D(33,35,37,39)       -177.8952         estimate D2E/DX2                !
 ! D107  D(38,35,37,34)       -179.3122         estimate D2E/DX2                !
 ! D108  D(38,35,37,39)          2.1246         estimate D2E/DX2                !
 ! D109  D(33,35,38,40)          6.5737         estimate D2E/DX2                !
 ! D110  D(37,35,38,40)       -173.4487         estimate D2E/DX2                !
 ! D111  D(34,37,39,41)          2.8489         estimate D2E/DX2                !
 ! D112  D(34,37,39,42)       -177.1834         estimate D2E/DX2                !
 ! D113  D(35,37,39,41)       -178.7667         estimate D2E/DX2                !
 ! D114  D(35,37,39,42)          1.201          estimate D2E/DX2                !
 ! D115  D(35,38,40,43)        175.4551         estimate D2E/DX2                !
 ! D116  D(35,38,40,44)        -65.8685         estimate D2E/DX2                !
 ! D117  D(35,38,40,45)         56.355          estimate D2E/DX2                !
 ! D118  D(37,39,41,46)        179.9934         estimate D2E/DX2                !
 ! D119  D(37,39,41,47)         -0.1879         estimate D2E/DX2                !
 ! D120  D(42,39,41,46)          0.0222         estimate D2E/DX2                !
 ! D121  D(42,39,41,47)        179.8409         estimate D2E/DX2                !
 ! D122  D(37,39,42,48)       -179.9761         estimate D2E/DX2                !
 ! D123  D(41,39,42,48)         -0.0033         estimate D2E/DX2                !
 ! D124  D(39,41,46,48)         -0.0355         estimate D2E/DX2                !
 ! D125  D(39,41,46,49)        179.9857         estimate D2E/DX2                !
 ! D126  D(47,41,46,48)       -179.8384         estimate D2E/DX2                !
 ! D127  D(47,41,46,49)          0.1827         estimate D2E/DX2                !
 ! D128  D(39,41,47,50)        178.424          estimate D2E/DX2                !
 ! D129  D(46,41,47,50)         -1.7821         estimate D2E/DX2                !
 ! D130  D(39,42,48,46)         -0.0169         estimate D2E/DX2                !
 ! D131  D(39,42,48,51)        179.8877         estimate D2E/DX2                !
 ! D132  D(41,46,48,42)          0.0322         estimate D2E/DX2                !
 ! D133  D(41,46,48,51)       -179.8634         estimate D2E/DX2                !
 ! D134  D(49,46,48,42)       -179.9887         estimate D2E/DX2                !
 ! D135  D(49,46,48,51)          0.1157         estimate D2E/DX2                !
 ! D136  D(41,47,50,52)         61.965          estimate D2E/DX2                !
 ! D137  D(41,47,50,53)       -179.1331         estimate D2E/DX2                !
 ! D138  D(41,47,50,54)        -60.2548         estimate D2E/DX2                !
 --------------------------------------------------------------------------------
 Trust Radius=3.00D-01 FncErr=1.00D-07 GrdErr=1.00D-06 EigMax=2.50D+02 EigMin=1.00D-04
 Number of steps in this run=    307 maximum allowed number of steps=    324.
 GradGradGradGradGradGradGradGradGradGradGradGradGradGradGradGradGradGrad

 Stoichiometry    C26H18N2O6S2
 Framework group  C1[X(C26H18N2O6S2)]
 Deg. of freedom   156
 Full point group                 C1      NOp   1
 Largest Abelian subgroup         C1      NOp   1
 Largest concise Abelian subgroup C1      NOp   1
                         Standard orientation:                         
 ---------------------------------------------------------------------
 Center     Atomic      Atomic             Coordinates (Angstroms)
 Number     Number       Type             X           Y           Z
 ---------------------------------------------------------------------
      1          6           0       -2.709913   -2.917218    0.692177
      2          6           0       -2.333785   -1.500053    0.446649
      3          6           0       -3.310506   -0.554290    0.056136
      4          6           0       -4.658313   -0.944497   -0.104700
      5          6           0       -5.068364   -2.355149    0.127308
      6          6           0       -1.022136   -1.120081    0.579080
      7          6           0       -2.907555    0.794835   -0.158993
      8          6           0       -1.539545    1.187722   -0.007026
      9          6           0       -0.563574    0.212442    0.335651
     10          6           0       -1.228249    2.637977   -0.128088
     11          6           0       -3.601116    3.151783   -0.724705
     12          6           0       -3.919525    1.722081   -0.522643
     13          6           0       -5.239554    1.320164   -0.680118
     14          6           0       -5.616701   -0.012481   -0.475645
     15          1           0       -6.644152   -0.335742   -0.592670
     16          1           0       -5.968044    2.072801   -0.960752
     17          1           0       -0.308033   -1.892578    0.839206
     18          7           0       -2.274065    3.512428   -0.483425
     19          7           0       -4.057754   -3.251813    0.514128
     20          8           0       -1.902000   -3.769596    1.034071
     21          8           0       -6.225315   -2.724092   -0.007497
     22          8           0       -4.441331    3.975560   -1.064709
     23          8           0       -0.125624    3.130651    0.073920
     24          6           0       -1.908572    4.928443   -0.601644
     25          1           0       -1.516079    5.290564    0.349765
     26          1           0       -1.129601    5.049620   -1.358756
     27          1           0       -2.804179    5.475287   -0.883375
     28          6           0       -4.416534   -4.653818    0.755382
     29          1           0       -3.832719   -5.301421    0.097853
     30          1           0       -4.189841   -4.921138    1.789175
     31          1           0       -5.479357   -4.762636    0.556724
     32          6           0        0.883147    0.397897    0.441994
     33          6           0        1.626282    1.479032    0.873804
     34         16           0        1.949268   -0.853418   -0.197237
     35          6           0        3.015351    1.310949    0.705126
     36          1           0        1.180199    2.359823    1.307230
     37          6           0        3.384864    0.086066    0.140115
     38          8           0        3.983912    2.206591    1.033455
     39          6           0        4.712373   -0.396270   -0.117165
     40          6           0        3.583866    3.380217    1.735890
     41          6           0        5.077901   -1.607616   -0.702047
     42         16           0        6.162548    0.517925    0.287699
     43          1           0        4.503362    3.915800    1.972201
     44          1           0        2.943418    4.015846    1.112615
     45          1           0        3.055910    3.126972    2.662286
     46          6           0        6.484179   -1.795722   -0.820886
     47          8           0        4.108798   -2.475814   -1.091536
     48          6           0        7.186157   -0.729102   -0.328007
     49          1           0        6.950515   -2.672875   -1.248346
     50          6           0        4.512118   -3.689539   -1.716768
     51          1           0        8.260314   -0.607012   -0.294586
     52          1           0        5.122659   -4.302066   -1.040758
     53          1           0        3.593851   -4.223056   -1.959013
     54          1           0        5.074188   -3.493607   -2.638020
 ---------------------------------------------------------------------
 Rotational constants (GHZ):           0.1526804           0.0592490           0.0446945
 Standard basis: 6-311+G(d,p) (5D, 7F)
 There are   952 symmetry adapted cartesian basis functions of A   symmetry.
 There are   916 symmetry adapted basis functions of A   symmetry.
   916 basis functions,  1468 primitive gaussians,   952 cartesian basis functions
   134 alpha electrons      134 beta electrons
       nuclear repulsion energy      4087.9842804510 Hartrees.
 NAtoms=   54 NActive=   54 NUniq=   54 SFac= 1.00D+00 NAtFMM=   60 NAOKFM=F Big=F
 Integral buffers will be    131072 words long.
 Raffenetti 2 integral format.
 Two-electron integral symmetry is turned on.
 One-electron integrals computed using PRISM.
 NBasis=   916 RedAO= T EigKep=  1.45D-06  NBF=   916
 NBsUse=   901 1.00D-06 EigRej=  9.60D-07 NBFU=   901
 ExpMin= 4.05D-02 ExpMax= 9.34D+04 ExpMxC= 3.17D+03 IAcc=3 IRadAn=         5 AccDes= 0.00D+00
 Harris functional with IExCor=  402 and IRadAn=       5 diagonalized for initial guess.
 HarFok:  IExCor=  402 AccDes= 0.00D+00 IRadAn=         5 IDoV= 1 UseB2=F ITyADJ=14
 ICtDFT=  3500011 ScaDFX=  1.000000  1.000000  1.000000  1.000000
 FoFCou: FMM=F IPFlag=           0 FMFlag=      100000 FMFlg1=           0
         NFxFlg=           0 DoJE=T BraDBF=F KetDBF=T FulRan=T
         wScrn=  0.000000 ICntrl=       500 IOpCl=  0 I1Cent=   200000004 NGrid=           0
         NMat0=    1 NMatS0=      1 NMatT0=    0 NMatD0=    1 NMtDS0=    0 NMtDT0=    0
 Petite list used in FoFCou.
 Requested convergence on RMS density matrix=1.00D-08 within 128 cycles.
 Requested convergence on MAX density matrix=1.00D-06.
 Requested convergence on             energy=1.00D-06.
 No special actions if energy rises.
 SCF Done:  E(RB3LYP) =  -2359.33198103     A.U. after   17 cycles
            NFock= 17  Conv=0.81D-08     -V/T= 2.0032

 **********************************************************************

            Population analysis using the SCF Density.

 **********************************************************************

 Orbital symmetries:
       Occupied  (A) (A) (A) (A) (A) (A) (A) (A) (A) (A) (A) (A)
                 (A) (A) (A) (A) (A) (A) (A) (A) (A) (A) (A) (A)
                 (A) (A) (A) (A) (A) (A) (A) (A) (A) (A) (A) (A)
                 (A) (A) (A) (A) (A) (A) (A) (A) (A) (A) (A) (A)
                 (A) (A) (A) (A) (A) (A) (A) (A) (A) (A) (A) (A)
                 (A) (A) (A) (A) (A) (A) (A) (A) (A) (A) (A) (A)
                 (A) (A) (A) (A) (A) (A) (A) (A) (A) (A) (A) (A)
                 (A) (A) (A) (A) (A) (A) (A) (A) (A) (A) (A) (A)
                 (A) (A) (A) (A) (A) (A) (A) (A) (A) (A) (A) (A)
                 (A) (A) (A) (A) (A) (A) (A) (A) (A) (A) (A) (A)
                 (A) (A) (A) (A) (A) (A) (A) (A) (A) (A) (A) (A)
                 (A) (A)
       Virtual   (A) (A) (A) (A) (A) (A) (A) (A) (A) (A) (A) (A)
                 (A) (A) (A) (A) (A) (A) (A) (A) (A) (A) (A) (A)
                 (A) (A) (A) (A) (A) (A) (A) (A) (A) (A) (A) (A)
                 (A) (A) (A) (A) (A) (A) (A) (A) (A) (A) (A) (A)
                 (A) (A) (A) (A) (A) (A) (A) (A) (A) (A) (A) (A)
                 (A) (A) (A) (A) (A) (A) (A) (A) (A) (A) (A) (A)
                 (A) (A) (A) (A) (A) (A) (A) (A) (A) (A) (A) (A)
                 (A) (A) (A) (A) (A) (A) (A) (A) (A) (A) (A) (A)
                 (A) (A) (A) (A) (A) (A) (A) (A) (A) (A) (A) (A)
                 (A) (A) (A) (A) (A) (A) (A) (A) (A) (A) (A) (A)
                 (A) (A) (A) (A) (A) (A) (A) (A) (A) (A) (A) (A)
                 (A) (A) (A) (A) (A) (A) (A) (A) (A) (A) (A) (A)
                 (A) (A) (A) (A) (A) (A) (A) (A) (A) (A) (A) (A)
                 (A) (A) (A) (A) (A) (A) (A) (A) (A) (A) (A) (A)
                 (A) (A) (A) (A) (A) (A) (A) (A) (A) (A) (A) (A)
                 (A) (A) (A) (A) (A) (A) (A) (A) (A) (A) (A) (A)
                 (A) (A) (A) (A) (A) (A) (A) (A) (A) (A) (A) (A)
                 (A) (A) (A) (A) (A) (A) (A) (A) (A) (A) (A) (A)
                 (A) (A) (A) (A) (A) (A) (A) (A) (A) (A) (A) (A)
                 (A) (A) (A) (A) (A) (A) (A) (A) (A) (A) (A) (A)
                 (A) (A) (A) (A) (A) (A) (A) (A) (A) (A) (A) (A)
                 (A) (A) (A) (A) (A) (A) (A) (A) (A) (A) (A) (A)
                 (A) (A) (A) (A) (A) (A) (A) (A) (A) (A) (A) (A)
                 (A) (A) (A) (A) (A) (A) (A) (A) (A) (A) (A) (A)
                 (A) (A) (A) (A) (A) (A) (A) (A) (A) (A) (A) (A)
                 (A) (A) (A) (A) (A) (A) (A) (A) (A) (A) (A) (A)
                 (A) (A) (A) (A) (A) (A) (A) (A) (A) (A) (A) (A)
                 (A) (A) (A) (A) (A) (A) (A) (A) (A) (A) (A) (A)
                 (A) (A) (A) (A) (A) (A) (A) (A) (A) (A) (A) (A)
                 (A) (A) (A) (A) (A) (A) (A) (A) (A) (A) (A) (A)
                 (A) (A) (A) (A) (A) (A) (A) (A) (A) (A) (A) (A)
                 (A) (A) (A) (A) (A) (A) (A) (A) (A) (A) (A) (A)
                 (A) (A) (A) (A) (A) (A) (A) (A) (A) (A) (A) (A)
                 (A) (A) (A) (A) (A) (A) (A) (A) (A) (A) (A) (A)
                 (A) (A) (A) (A) (A) (A) (A) (A) (A) (A) (A) (A)
                 (A) (A) (A) (A) (A) (A) (A) (A) (A) (A) (A) (A)
                 (A) (A) (A) (A) (A) (A) (A) (A) (A) (A) (A) (A)
                 (A) (A) (A) (A) (A) (A) (A) (A) (A) (A) (A) (A)
                 (A) (A) (A) (A) (A) (A) (A) (A) (A) (A) (A) (A)
                 (A) (A) (A) (A) (A) (A) (A) (A) (A) (A) (A) (A)
                 (A) (A) (A) (A) (A) (A) (A) (A) (A) (A) (A) (A)
                 (A) (A) (A) (A) (A) (A) (A) (A) (A) (A) (A) (A)
                 (A) (A) (A) (A) (A) (A) (A) (A) (A) (A) (A) (A)
                 (A) (A) (A) (A) (A) (A) (A) (A) (A) (A) (A) (A)
                 (A) (A) (A) (A) (A) (A) (A) (A) (A) (A) (A) (A)
                 (A) (A) (A) (A) (A) (A) (A) (A) (A) (A) (A) (A)
                 (A) (A) (A) (A) (A) (A) (A) (A) (A) (A) (A) (A)
                 (A) (A) (A) (A) (A) (A) (A) (A) (A) (A) (A) (A)
                 (A) (A) (A) (A) (A) (A) (A) (A) (A) (A) (A) (A)
                 (A) (A) (A) (A) (A) (A) (A) (A) (A) (A) (A) (A)
                 (A) (A) (A) (A) (A) (A) (A) (A) (A) (A) (A) (A)
                 (A) (A) (A) (A) (A) (A) (A) (A) (A) (A) (A) (A)
                 (A) (A) (A) (A) (A) (A) (A) (A) (A) (A) (A) (A)
                 (A) (A) (A) (A) (A) (A) (A) (A) (A) (A) (A) (A)
                 (A) (A) (A) (A) (A) (A) (A) (A) (A) (A) (A) (A)
                 (A) (A) (A) (A) (A) (A) (A) (A) (A) (A) (A) (A)
                 (A) (A) (A) (A) (A) (A) (A) (A) (A) (A) (A) (A)
                 (A) (A) (A) (A) (A) (A) (A) (A) (A) (A) (A) (A)
                 (A) (A) (A) (A) (A) (A) (A) (A) (A) (A) (A) (A)
                 (A) (A) (A) (A) (A) (A) (A) (A) (A) (A) (A) (A)
                 (A) (A) (A) (A) (A) (A) (A) (A) (A) (A) (A) (A)
                 (A) (A) (A) (A) (A) (A) (A) (A) (A) (A) (A) (A)
                 (A) (A) (A) (A) (A) (A) (A) (A) (A) (A) (A) (A)
                 (A) (A) (A) (A) (A) (A) (A) (A) (A) (A) (A)
 The electronic state is 1-A.
 Alpha  occ. eigenvalues --  -88.88519 -88.88378 -19.17359 -19.16755 -19.12377
 Alpha  occ. eigenvalues --  -19.12342 -19.11828 -19.11682 -14.38616 -14.38212
 Alpha  occ. eigenvalues --  -10.31033 -10.30876 -10.30876 -10.30323 -10.25002
 Alpha  occ. eigenvalues --  -10.24379 -10.24028 -10.23970 -10.23350 -10.22974
 Alpha  occ. eigenvalues --  -10.22764 -10.22508 -10.22468 -10.22242 -10.22223
 Alpha  occ. eigenvalues --  -10.21949 -10.21937 -10.21893 -10.21404 -10.21194
 Alpha  occ. eigenvalues --  -10.21027 -10.20979 -10.20951 -10.20733 -10.19145
 Alpha  occ. eigenvalues --  -10.18369  -7.97060  -7.96929  -5.93371  -5.93251
 Alpha  occ. eigenvalues --   -5.92982  -5.92863  -5.92628  -5.92469  -1.08906
 Alpha  occ. eigenvalues --   -1.08373  -1.08305  -1.08161  -1.06488  -1.06111
 Alpha  occ. eigenvalues --   -0.96160  -0.95688  -0.92259  -0.90272  -0.88722
 Alpha  occ. eigenvalues --   -0.86490  -0.84142  -0.80380  -0.78345  -0.77699
 Alpha  occ. eigenvalues --   -0.76390  -0.75233  -0.75119  -0.73227  -0.72369
 Alpha  occ. eigenvalues --   -0.71749  -0.70372  -0.68801  -0.67152  -0.65768
 Alpha  occ. eigenvalues --   -0.65521  -0.64660  -0.61117  -0.59807  -0.58531
 Alpha  occ. eigenvalues --   -0.57340  -0.56763  -0.56417  -0.55276  -0.54771
 Alpha  occ. eigenvalues --   -0.53383  -0.51577  -0.50353  -0.50009  -0.49659
 Alpha  occ. eigenvalues --   -0.49504  -0.48817  -0.48624  -0.48508  -0.48218
 Alpha  occ. eigenvalues --   -0.48139  -0.47189  -0.46436  -0.46177  -0.45913
 Alpha  occ. eigenvalues --   -0.45634  -0.45004  -0.44361  -0.44171  -0.43351
 Alpha  occ. eigenvalues --   -0.42738  -0.42494  -0.42265  -0.41843  -0.41680
 Alpha  occ. eigenvalues --   -0.41597  -0.41139  -0.41104  -0.40461  -0.39594
 Alpha  occ. eigenvalues --   -0.39499  -0.39013  -0.38872  -0.37678  -0.37375
 Alpha  occ. eigenvalues --   -0.36427  -0.35758  -0.34391  -0.34027  -0.33645
 Alpha  occ. eigenvalues --   -0.33462  -0.31987  -0.30947  -0.30422  -0.29759
 Alpha  occ. eigenvalues --   -0.29247  -0.28847  -0.28656  -0.28143  -0.27195
 Alpha  occ. eigenvalues --   -0.26104  -0.24792  -0.24380  -0.19485
 Alpha virt. eigenvalues --   -0.13091  -0.07422  -0.06590  -0.04680  -0.03896
 Alpha virt. eigenvalues --   -0.00780  -0.00500  -0.00374   0.00050   0.00419
 Alpha virt. eigenvalues --    0.00766   0.01153   0.01375   0.01441   0.01778
 Alpha virt. eigenvalues --    0.02152   0.02189   0.02496   0.02835   0.03231
 Alpha virt. eigenvalues --    0.03581   0.03686   0.03936   0.04344   0.04460
 Alpha virt. eigenvalues --    0.04746   0.04922   0.05095   0.05578   0.05979
 Alpha virt. eigenvalues --    0.06049   0.06229   0.06454   0.06549   0.06844
 Alpha virt. eigenvalues --    0.07140   0.07425   0.07545   0.07866   0.08300
 Alpha virt. eigenvalues --    0.08366   0.08633   0.08976   0.09257   0.09561
 Alpha virt. eigenvalues --    0.09665   0.09939   0.10057   0.10442   0.10761
 Alpha virt. eigenvalues --    0.10904   0.11165   0.11726   0.11837   0.11999
 Alpha virt. eigenvalues --    0.12535   0.12658   0.12965   0.13021   0.13383
 Alpha virt. eigenvalues --    0.13644   0.13772   0.14219   0.14325   0.14533
 Alpha virt. eigenvalues --    0.14576   0.14639   0.14933   0.15138   0.15319
 Alpha virt. eigenvalues --    0.15442   0.15810   0.15982   0.16196   0.16421
 Alpha virt. eigenvalues --    0.16661   0.16970   0.17108   0.17541   0.17737
 Alpha virt. eigenvalues --    0.17818   0.17994   0.18326   0.18407   0.18582
 Alpha virt. eigenvalues --    0.18907   0.19026   0.19205   0.19494   0.19612
 Alpha virt. eigenvalues --    0.19771   0.19871   0.20103   0.20174   0.20330
 Alpha virt. eigenvalues --    0.20624   0.20839   0.21077   0.21096   0.21353
 Alpha virt. eigenvalues --    0.21509   0.22031   0.22114   0.22244   0.22658
 Alpha virt. eigenvalues --    0.22847   0.22954   0.23100   0.23331   0.23409
 Alpha virt. eigenvalues --    0.23624   0.23676   0.23865   0.24094   0.24177
 Alpha virt. eigenvalues --    0.24543   0.24883   0.24972   0.25435   0.25572
 Alpha virt. eigenvalues --    0.25672   0.25883   0.26183   0.26312   0.26399
 Alpha virt. eigenvalues --    0.26573   0.26821   0.26926   0.27106   0.27479
 Alpha virt. eigenvalues --    0.27556   0.27703   0.27970   0.28291   0.28482
 Alpha virt. eigenvalues --    0.28613   0.28728   0.28959   0.29130   0.29465
 Alpha virt. eigenvalues --    0.29595   0.29895   0.29989   0.30275   0.30525
 Alpha virt. eigenvalues --    0.31220   0.31425   0.31447   0.32005   0.32199
 Alpha virt. eigenvalues --    0.32441   0.32791   0.32875   0.33016   0.33446
 Alpha virt. eigenvalues --    0.33759   0.33984   0.34035   0.34551   0.34691
 Alpha virt. eigenvalues --    0.34894   0.35064   0.35318   0.35819   0.36017
 Alpha virt. eigenvalues --    0.36741   0.36851   0.37253   0.37413   0.38031
 Alpha virt. eigenvalues --    0.38384   0.38394   0.38762   0.39312   0.39445
 Alpha virt. eigenvalues --    0.39884   0.40305   0.40817   0.40996   0.41360
 Alpha virt. eigenvalues --    0.41916   0.42405   0.42591   0.43164   0.43462
 Alpha virt. eigenvalues --    0.43948   0.44263   0.44546   0.44861   0.45191
 Alpha virt. eigenvalues --    0.45429   0.45688   0.45850   0.46195   0.46595
 Alpha virt. eigenvalues --    0.47053   0.47318   0.47937   0.48790   0.49408
 Alpha virt. eigenvalues --    0.49883   0.50118   0.50244   0.50684   0.51051
 Alpha virt. eigenvalues --    0.51787   0.52765   0.53138   0.53576   0.53987
 Alpha virt. eigenvalues --    0.54515   0.54911   0.54966   0.55366   0.55819
 Alpha virt. eigenvalues --    0.56062   0.56529   0.56746   0.57118   0.57183
 Alpha virt. eigenvalues --    0.57920   0.58189   0.58318   0.58822   0.59265
 Alpha virt. eigenvalues --    0.59676   0.60131   0.60451   0.60645   0.61059
 Alpha virt. eigenvalues --    0.61515   0.61813   0.62181   0.62948   0.63469
 Alpha virt. eigenvalues --    0.63760   0.64417   0.64491   0.64569   0.64957
 Alpha virt. eigenvalues --    0.65262   0.65457   0.65607   0.66129   0.66332
 Alpha virt. eigenvalues --    0.66604   0.67112   0.67454   0.68152   0.68371
 Alpha virt. eigenvalues --    0.69027   0.69572   0.69770   0.70229   0.70504
 Alpha virt. eigenvalues --    0.70772   0.71467   0.71923   0.72048   0.72291
 Alpha virt. eigenvalues --    0.72857   0.73200   0.73377   0.73952   0.74240
 Alpha virt. eigenvalues --    0.74494   0.74686   0.74890   0.75168   0.75617
 Alpha virt. eigenvalues --    0.76084   0.76419   0.76978   0.77320   0.77357
 Alpha virt. eigenvalues --    0.78027   0.78233   0.78480   0.78956   0.80001
 Alpha virt. eigenvalues --    0.80141   0.80906   0.81190   0.81776   0.82302
 Alpha virt. eigenvalues --    0.83067   0.83777   0.84207   0.84402   0.86128
 Alpha virt. eigenvalues --    0.86727   0.87189   0.87440   0.88279   0.88515
 Alpha virt. eigenvalues --    0.88900   0.89507   0.89830   0.90986   0.91151
 Alpha virt. eigenvalues --    0.91466   0.91986   0.92286   0.92937   0.93238
 Alpha virt. eigenvalues --    0.93595   0.93943   0.94298   0.94590   0.95502
 Alpha virt. eigenvalues --    0.95731   0.95910   0.96290   0.96969   0.97075
 Alpha virt. eigenvalues --    0.97702   0.98191   0.98620   0.98999   0.99899
 Alpha virt. eigenvalues --    1.00588   1.01094   1.01490   1.01772   1.02187
 Alpha virt. eigenvalues --    1.02780   1.03221   1.03449   1.04095   1.04477
 Alpha virt. eigenvalues --    1.04898   1.05150   1.05418   1.05937   1.06177
 Alpha virt. eigenvalues --    1.06641   1.06966   1.07427   1.07842   1.08197
 Alpha virt. eigenvalues --    1.08751   1.09186   1.09577   1.10352   1.10468
 Alpha virt. eigenvalues --    1.10960   1.12099   1.12592   1.13683   1.14906
 Alpha virt. eigenvalues --    1.15020   1.15782   1.16694   1.17525   1.18021
 Alpha virt. eigenvalues --    1.18458   1.18715   1.19359   1.20265   1.20581
 Alpha virt. eigenvalues --    1.22071   1.22958   1.23562   1.24502   1.24734
 Alpha virt. eigenvalues --    1.25470   1.26034   1.26364   1.26775   1.27358
 Alpha virt. eigenvalues --    1.28470   1.29810   1.29958   1.30653   1.31273
 Alpha virt. eigenvalues --    1.31987   1.32115   1.33729   1.34269   1.35007
 Alpha virt. eigenvalues --    1.35896   1.35993   1.36826   1.38158   1.39971
 Alpha virt. eigenvalues --    1.40895   1.41316   1.41965   1.42070   1.42590
 Alpha virt. eigenvalues --    1.42871   1.43357   1.43971   1.44191   1.44639
 Alpha virt. eigenvalues --    1.44915   1.45106   1.45549   1.45744   1.46060
 Alpha virt. eigenvalues --    1.46663   1.47150   1.47627   1.48065   1.49064
 Alpha virt. eigenvalues --    1.49833   1.51081   1.51485   1.52162   1.52834
 Alpha virt. eigenvalues --    1.52981   1.53789   1.54593   1.55142   1.55271
 Alpha virt. eigenvalues --    1.55545   1.55633   1.56031   1.56178   1.56971
 Alpha virt. eigenvalues --    1.57355   1.58705   1.60172   1.61089   1.62052
 Alpha virt. eigenvalues --    1.62316   1.62751   1.63455   1.63720   1.64137
 Alpha virt. eigenvalues --    1.65084   1.66017   1.66460   1.66767   1.67397
 Alpha virt. eigenvalues --    1.67972   1.68558   1.69092   1.69444   1.69865
 Alpha virt. eigenvalues --    1.70128   1.70884   1.71110   1.71124   1.71790
 Alpha virt. eigenvalues --    1.73316   1.74179   1.74471   1.75250   1.75627
 Alpha virt. eigenvalues --    1.76525   1.76721   1.77325   1.77814   1.78830
 Alpha virt. eigenvalues --    1.79064   1.79633   1.79941   1.80357   1.82326
 Alpha virt. eigenvalues --    1.83533   1.84345   1.85126   1.85840   1.86010
 Alpha virt. eigenvalues --    1.86724   1.86886   1.87417   1.87585   1.88648
 Alpha virt. eigenvalues --    1.89135   1.89948   1.90089   1.90863   1.91751
 Alpha virt. eigenvalues --    1.92538   1.92852   1.94008   1.94708   1.95250
 Alpha virt. eigenvalues --    1.96007   1.96615   1.97348   1.97628   1.99125
 Alpha virt. eigenvalues --    1.99773   2.00351   2.00970   2.01846   2.02344
 Alpha virt. eigenvalues --    2.03046   2.03508   2.03916   2.04392   2.04899
 Alpha virt. eigenvalues --    2.05854   2.06460   2.06786   2.07398   2.07459
 Alpha virt. eigenvalues --    2.08178   2.09028   2.10151   2.11178   2.11560
 Alpha virt. eigenvalues --    2.12174   2.13463   2.14520   2.14945   2.15117
 Alpha virt. eigenvalues --    2.15856   2.16303   2.17548   2.18940   2.19168
 Alpha virt. eigenvalues --    2.19591   2.19845   2.21050   2.21788   2.22438
 Alpha virt. eigenvalues --    2.23994   2.26039   2.26352   2.27602   2.29076
 Alpha virt. eigenvalues --    2.31118   2.32280   2.32896   2.34933   2.37294
 Alpha virt. eigenvalues --    2.38042   2.39057   2.39643   2.41302   2.42533
 Alpha virt. eigenvalues --    2.43149   2.43909   2.44085   2.44940   2.45891
 Alpha virt. eigenvalues --    2.46744   2.47310   2.48491   2.48946   2.49341
 Alpha virt. eigenvalues --    2.49962   2.51524   2.52149   2.52480   2.52655
 Alpha virt. eigenvalues --    2.52944   2.53197   2.53695   2.54334   2.55749
 Alpha virt. eigenvalues --    2.56606   2.57759   2.58648   2.59071   2.59886
 Alpha virt. eigenvalues --    2.62626   2.63056   2.63405   2.65080   2.66712
 Alpha virt. eigenvalues --    2.67129   2.67399   2.67669   2.68255   2.68760
 Alpha virt. eigenvalues --    2.68821   2.69973   2.70415   2.70957   2.71276
 Alpha virt. eigenvalues --    2.72137   2.72611   2.72933   2.74021   2.75638
 Alpha virt. eigenvalues --    2.76333   2.76640   2.77028   2.78451   2.80929
 Alpha virt. eigenvalues --    2.82366   2.82737   2.83218   2.83363   2.83604
 Alpha virt. eigenvalues --    2.84304   2.84706   2.86116   2.86432   2.86928
 Alpha virt. eigenvalues --    2.88303   2.88514   2.89177   2.89796   2.90920
 Alpha virt. eigenvalues --    2.91101   2.92705   2.93539   2.93868   2.94229
 Alpha virt. eigenvalues --    2.95240   2.95601   2.96370   2.98815   2.99741
 Alpha virt. eigenvalues --    3.01071   3.02388   3.03115   3.04390   3.04997
 Alpha virt. eigenvalues --    3.06106   3.08062   3.08417   3.09045   3.11210
 Alpha virt. eigenvalues --    3.12036   3.12858   3.13916   3.14441   3.15184
 Alpha virt. eigenvalues --    3.16770   3.17577   3.19242   3.19886   3.21531
 Alpha virt. eigenvalues --    3.23084   3.23535   3.23838   3.24486   3.26393
 Alpha virt. eigenvalues --    3.28512   3.29053   3.30544   3.31814   3.33980
 Alpha virt. eigenvalues --    3.34509   3.34781   3.35092   3.35481   3.37364
 Alpha virt. eigenvalues --    3.38053   3.39794   3.41100   3.42353   3.43564
 Alpha virt. eigenvalues --    3.44237   3.45653   3.45901   3.48576   3.48977
 Alpha virt. eigenvalues --    3.50993   3.53178   3.55414   3.57776   3.59697
 Alpha virt. eigenvalues --    3.60174   3.61352   3.64980   3.66075   3.66931
 Alpha virt. eigenvalues --    3.69843   3.69952   3.72168   3.72610   3.75441
 Alpha virt. eigenvalues --    3.75689   3.76864   3.80955   3.82298   3.84446
 Alpha virt. eigenvalues --    3.85498   3.86398   3.90572   3.91193   3.92864
 Alpha virt. eigenvalues --    3.93229   3.94192   3.96820   4.01544   4.02396
 Alpha virt. eigenvalues --    4.04665   4.08103   4.10089   4.12723   4.13895
 Alpha virt. eigenvalues --    4.19834   4.23574   4.25300   4.27335   4.35307
 Alpha virt. eigenvalues --    4.40046   4.40208   4.52297   4.69409   4.84136
 Alpha virt. eigenvalues --    4.85550   4.87460   4.90467   5.01088   5.03061
 Alpha virt. eigenvalues --    5.03926   5.05526   5.05670   5.08452   5.11340
 Alpha virt. eigenvalues --    5.13322   5.25071   5.27014   5.29252   5.34625
 Alpha virt. eigenvalues --    5.42044   5.43223   5.75516   5.76714   5.79960
 Alpha virt. eigenvalues --    5.80571   5.81966   5.85340   8.02077   8.03914
 Alpha virt. eigenvalues --   17.28872  17.32142  17.49189  17.52094  17.57020
 Alpha virt. eigenvalues --   17.62435  23.48762  23.56542  23.71589  23.78751
 Alpha virt. eigenvalues --   23.82002  23.82366  23.83815  23.86522  23.86698
 Alpha virt. eigenvalues --   23.88091  23.88572  23.89959  23.91181  23.92951
 Alpha virt. eigenvalues --   23.94590  23.95288  23.96046  23.97912  24.00387
 Alpha virt. eigenvalues --   24.01371  24.02204  24.04921  24.12575  24.13088
 Alpha virt. eigenvalues --   24.14006  24.14156  35.56108  35.59062  49.95800
 Alpha virt. eigenvalues --   49.97705  50.01984  50.03892  50.05690  50.07323
 Alpha virt. eigenvalues --  189.19250 189.21730
          Condensed to atoms (all electrons):
 Mulliken charges:
               1
     1  C    0.330420
     2  C   -0.101921
     3  C    0.138081
     4  C    0.241936
     5  C    0.231316
     6  C   -0.807537
     7  C    0.194905
     8  C    0.166110
     9  C    0.822614
    10  C   -0.337656
    11  C    0.186870
    12  C    0.207727
    13  C   -0.484176
    14  C   -0.579099
    15  H    0.159678
    16  H    0.162291
    17  H    0.173889
    18  N   -0.157163
    19  N   -0.131880
    20  O   -0.278216
    21  O   -0.274182
    22  O   -0.277832
    23  O   -0.220784
    24  C   -0.205485
    25  H    0.170385
    26  H    0.174282
    27  H    0.184622
    28  C   -0.197681
    29  H    0.173869
    30  H    0.174503
    31  H    0.182417
    32  C   -0.101891
    33  C   -0.405100
    34  S   -0.569274
    35  C   -0.123937
    36  H    0.154484
    37  C    0.762303
    38  O   -0.125786
    39  C    0.816894
    40  C   -0.241140
    41  C    0.077170
    42  S   -0.258564
    43  H    0.163486
    44  H    0.162095
    45  H    0.147680
    46  C   -0.602926
    47  O   -0.127589
    48  C   -0.263273
    49  H    0.132783
    50  C   -0.241474
    51  H    0.161726
    52  H    0.145892
    53  H    0.168607
    54  H    0.145533
 Sum of Mulliken charges =  -0.00000
 Mulliken charges with hydrogens summed into heavy atoms:
               1
     1  C    0.330420
     2  C   -0.101921
     3  C    0.138081
     4  C    0.241936
     5  C    0.231316
     6  C   -0.633649
     7  C    0.194905
     8  C    0.166110
     9  C    0.822614
    10  C   -0.337656
    11  C    0.186870
    12  C    0.207727
    13  C   -0.321885
    14  C   -0.419421
    18  N   -0.157163
    19  N   -0.131880
    20  O   -0.278216
    21  O   -0.274182
    22  O   -0.277832
    23  O   -0.220784
    24  C    0.323804
    28  C    0.333107
    32  C   -0.101891
    33  C   -0.250616
    34  S   -0.569274
    35  C   -0.123937
    37  C    0.762303
    38  O   -0.125786
    39  C    0.816894
    40  C    0.232121
    41  C    0.077170
    42  S   -0.258564
    46  C   -0.470143
    47  O   -0.127589
    48  C   -0.101547
    50  C    0.218557
 Electronic spatial extent (au):  <R**2>=          22355.4119
 Charge=              0.0000 electrons
 Dipole moment (field-independent basis, Debye):
    X=              4.5073    Y=             -0.6405    Z=              0.0427  Tot=              4.5528
 Quadrupole moment (field-independent basis, Debye-Ang):
   XX=           -217.6706   YY=           -212.3917   ZZ=           -219.0635
   XY=             -4.5698   XZ=             -7.5331   YZ=             15.3208
 Traceless Quadrupole moment (field-independent basis, Debye-Ang):
   XX=             -1.2953   YY=              3.9836   ZZ=             -2.6882
   XY=             -4.5698   XZ=             -7.5331   YZ=             15.3208
 Octapole moment (field-independent basis, Debye-Ang**2):
  XXX=            357.6610  YYY=            -24.1065  ZZZ=              2.9479  XYY=            123.3481
  XXY=            -76.2086  XXZ=             -8.3332  XZZ=             11.8535  YZZ=             -1.2460
  YYZ=             -0.7038  XYZ=             40.8190
 Hexadecapole moment (field-independent basis, Debye-Ang**3):
 XXXX=         -20825.7043 YYYY=          -7580.0674 ZZZZ=           -941.2393 XXXY=           -558.1187
 XXXZ=           -272.0765 YYYX=            263.4679 YYYZ=            227.8395 ZZZX=            -15.8806
 ZZZY=             39.9915 XXYY=          -4883.1205 XXZZ=          -3744.3865 YYZZ=          -1423.7782
 XXYZ=            270.3047 YYXZ=           -167.8150 ZZXY=             38.9727
 N-N= 4.087984280451D+03 E-N=-1.371589176242D+04  KE= 2.351890866821D+03
 Calling FoFJK, ICntrl=      2127 FMM=F ISym2X=0 I1Cent= 0 IOpClX= 0 NMat=1 NMatS=1 NMatT=0.
 ***** Axes restored to original set *****
 -------------------------------------------------------------------
 Center     Atomic                   Forces (Hartrees/Bohr)
 Number     Number              X              Y              Z
 -------------------------------------------------------------------
      1        6           0.004518824   -0.005820922    0.000329479
      2        6           0.001876556    0.000938074   -0.001085473
      3        6          -0.000530530   -0.000318400   -0.000057717
      4        6           0.000746665    0.001608871    0.000590330
      5        6          -0.005792093   -0.002065467   -0.000188567
      6        6          -0.001699840    0.000819621   -0.008231334
      7        6          -0.000435470   -0.000303902    0.001453589
      8        6           0.000753210   -0.000541566    0.008735727
      9        6           0.000891429   -0.002776728    0.000160078
     10        6          -0.000222505    0.001692745   -0.001861649
     11        6          -0.004564461    0.004550944   -0.000012859
     12        6           0.000113839   -0.000071818    0.000292252
     13        6          -0.000228987   -0.001092191   -0.000414254
     14        6           0.001067038    0.000635525    0.000092003
     15        1           0.000620593    0.000739689    0.000014011
     16        1           0.000599358   -0.001100936   -0.000316615
     17        1           0.000400826    0.000886928    0.002689128
     18        7           0.000426127   -0.001414819   -0.002083782
     19        7           0.000749458    0.001428083   -0.000077986
     20        8          -0.006288926    0.006479262    0.000696666
     21        8           0.007412319    0.002199855    0.000183167
     22        8           0.006122300   -0.005565997   -0.000407492
     23        8          -0.015043749    0.004125121   -0.001778152
     24        6           0.000866185    0.002410195   -0.000986802
     25        1          -0.000691852    0.000046654   -0.000249066
     26        1          -0.001289199   -0.000584297    0.001186440
     27        1           0.000987178    0.000007768    0.000131331
     28        6          -0.000478773   -0.001982411   -0.000674480
     29        1          -0.000684112    0.000386087    0.000999388
     30        1          -0.000451250    0.000401072   -0.000510779
     31        1           0.000943679   -0.000367903   -0.000024178
     32        6          -0.000445953    0.007910287   -0.001783567
     33        6           0.008932226   -0.002670286    0.003895165
     34       16          -0.001598939   -0.001993205    0.001358008
     35        6          -0.001063267   -0.005311086   -0.001332868
     36        1           0.004480862   -0.004799369   -0.003591075
     37        6          -0.000097229    0.001169950    0.002876925
     38        8          -0.000610539   -0.001541589    0.001342433
     39        6           0.000062738   -0.000376481   -0.002755839
     40        6          -0.000411927    0.002824368    0.001054040
     41        6           0.000936232    0.001452562    0.001786002
     42       16          -0.000033241   -0.000532611   -0.001540698
     43        1          -0.000647924   -0.000666387   -0.000141472
     44        1           0.000701226   -0.001423464   -0.000022923
     45        1           0.000912957    0.000241892   -0.000758781
     46        6          -0.000935379    0.000098224    0.000422886
     47        8           0.001144705    0.000462583   -0.000373828
     48        6           0.000101121   -0.000204297   -0.000042615
     49        1          -0.000109324    0.000704486    0.000722619
     50        6           0.001338440   -0.001767783   -0.001649510
     51        1          -0.001574383   -0.000247136    0.000424488
     52        1          -0.001491752    0.001187178    0.000048232
     53        1           0.000493255    0.000309655    0.000344805
     54        1          -0.000777740   -0.000176626    0.001125166
 -------------------------------------------------------------------
 Cartesian Forces:  Max     0.015043749 RMS     0.002650386

 GradGradGradGradGradGradGradGradGradGradGradGradGradGradGradGradGradGrad
 Berny optimization.
 FormGI is forming the generalized inverse of G from B-inverse, IUseBI=4.
 Internal  Forces:  Max     0.038043904 RMS     0.004707271
 Search for a local minimum.
 Step number   1 out of a maximum of  307
 All quantities printed in internal units (Hartrees-Bohrs-Radians)
 Mixed Optimization -- RFO/linear search
 Second derivative matrix not updated -- first step.
 ITU=  0
     Eigenvalues ---    0.00803   0.00803   0.01176   0.01203   0.01245
     Eigenvalues ---    0.01292   0.01308   0.01311   0.01360   0.01379
     Eigenvalues ---    0.01419   0.01429   0.01457   0.01496   0.01515
     Eigenvalues ---    0.01568   0.01574   0.01577   0.01617   0.01652
     Eigenvalues ---    0.01692   0.01709   0.01711   0.01719   0.01754
     Eigenvalues ---    0.01783   0.01803   0.01847   0.01964   0.02040
     Eigenvalues ---    0.02043   0.02066   0.02076   0.02082   0.02135
     Eigenvalues ---    0.02149   0.02163   0.02177   0.02197   0.02228
     Eigenvalues ---    0.02245   0.02250   0.07556   0.07572   0.07690
     Eigenvalues ---    0.07700   0.10065   0.10069   0.10631   0.10638
     Eigenvalues ---    0.15983   0.15999   0.15999   0.16000   0.16000
     Eigenvalues ---    0.16000   0.16000   0.16000   0.16000   0.16000
     Eigenvalues ---    0.16000   0.16000   0.16000   0.16000   0.16000
     Eigenvalues ---    0.16000   0.16000   0.16000   0.22530   0.22583
     Eigenvalues ---    0.23518   0.23582   0.24516   0.24747   0.24864
     Eigenvalues ---    0.24931   0.24952   0.24986   0.24987   0.24988
     Eigenvalues ---    0.24991   0.24994   0.24997   0.24997   0.24998
     Eigenvalues ---    0.24998   0.25000   0.25000   0.25000   0.25000
     Eigenvalues ---    0.25000   0.25000   0.25000   0.25000   0.25000
     Eigenvalues ---    0.25000   0.28830   0.28908   0.30085   0.32093
     Eigenvalues ---    0.32582   0.32774   0.33111   0.33787   0.33938
     Eigenvalues ---    0.34036   0.34054   0.34135   0.34354   0.34466
     Eigenvalues ---    0.34577   0.34629   0.34693   0.34809   0.34896
     Eigenvalues ---    0.35198   0.35218   0.35468   0.35553   0.35582
     Eigenvalues ---    0.35803   0.35817   0.36078   0.36083   0.36205
     Eigenvalues ---    0.36396   0.36662   0.39352   0.40187   0.40194
     Eigenvalues ---    0.40651   0.40716   0.41524   0.41705   0.41919
     Eigenvalues ---    0.42300   0.42649   0.43455   0.43896   0.44092
     Eigenvalues ---    0.44570   0.44594   0.45014   0.45406   0.46251
     Eigenvalues ---    0.47305   0.47626   0.49310   0.49597   0.53060
     Eigenvalues ---    0.53319   0.93281   0.93432   0.93989   0.94585
     Eigenvalues --- 1000.000001000.000001000.000001000.000001000.00000
     Eigenvalues --- 1000.000001000.000001000.000001000.000001000.00000
     Eigenvalues --- 1000.000001000.000001000.000001000.000001000.00000
     Eigenvalues --- 1000.000001000.000001000.000001000.000001000.00000
     Eigenvalues --- 1000.000001000.000001000.000001000.000001000.00000
     Eigenvalues --- 1000.000001000.000001000.000001000.000001000.00000
     Eigenvalues --- 1000.000001000.000001000.000001000.000001000.00000
     Eigenvalues --- 1000.000001000.000001000.000001000.000001000.00000
     Eigenvalues --- 1000.000001000.000001000.000001000.000001000.00000
     Eigenvalues --- 1000.000001000.000001000.000001000.000001000.00000
     Eigenvalues --- 1000.000001000.000001000.000001000.000001000.00000
     Eigenvalues --- 1000.000001000.000001000.000001000.000001000.00000
     Eigenvalues --- 1000.000001000.000001000.000001000.000001000.00000
     Eigenvalues --- 1000.000001000.000001000.000001000.000001000.00000
     Eigenvalues --- 1000.000001000.000001000.000001000.000001000.00000
     Eigenvalues --- 1000.000001000.000001000.000001000.000001000.00000
     Eigenvalues --- 1000.000001000.000001000.000001000.000001000.00000
     Eigenvalues --- 1000.000001000.000001000.000001000.000001000.00000
     Eigenvalues --- 1000.000001000.000001000.000001000.000001000.00000
     Eigenvalues --- 1000.000001000.000001000.000001000.000001000.00000
     Eigenvalues --- 1000.000001000.000001000.000001000.000001000.00000
     Eigenvalues --- 1000.000001000.000001000.000001000.000001000.00000
     Eigenvalues --- 1000.000001000.000001000.000001000.000001000.00000
     Eigenvalues --- 1000.000001000.000001000.000001000.000001000.00000
     Eigenvalues --- 1000.000001000.000001000.000001000.000001000.00000
     Eigenvalues --- 1000.000001000.000001000.000001000.000001000.00000
     Eigenvalues --- 1000.000001000.000001000.000001000.000001000.00000
     Eigenvalues --- 1000.000001000.000001000.000001000.000001000.00000
     Eigenvalues --- 1000.000001000.00000
 RFO step:  Lambda=-2.45507353D-02 EMin= 8.02933640D-03
 Linear search not attempted -- first point.
 Iteration  1 RMS(Cart)=  0.30483063 RMS(Int)=  0.00725922
 Iteration  2 RMS(Cart)=  0.05391265 RMS(Int)=  0.00073667
 Iteration  3 RMS(Cart)=  0.00072856 RMS(Int)=  0.00071659
 Iteration  4 RMS(Cart)=  0.00000184 RMS(Int)=  0.00071659
 Iteration  5 RMS(Cart)=  0.00000000 RMS(Int)=  0.00071659
 Iteration  1 RMS(Cart)=  0.00002875 RMS(Int)=  0.00000509
 Iteration  2 RMS(Cart)=  0.00001637 RMS(Int)=  0.00000568
 Iteration  3 RMS(Cart)=  0.00000932 RMS(Int)=  0.00000645
 Iteration  4 RMS(Cart)=  0.00000530 RMS(Int)=  0.00000698
 Iteration  5 RMS(Cart)=  0.00000302 RMS(Int)=  0.00000730
 Iteration  6 RMS(Cart)=  0.00000172 RMS(Int)=  0.00000750
 Iteration  7 RMS(Cart)=  0.00000098 RMS(Int)=  0.00000761
 Variable       Old X    -DE/DX   Delta X   Delta X   Delta X     New X
                                 (Linear)    (Quad)   (Total)
    R1        2.80935  -0.00029   0.00000  -0.00124  -0.00123   2.80812
    R2        2.64584  -0.00250   0.00000  -0.00536  -0.00537   2.64047
    R3        2.31147  -0.00905   0.00000  -0.00939  -0.00939   2.30208
    R4        2.67311  -0.00510   0.00000  -0.01284  -0.01302   2.66009
    R5        2.59267  -0.00719   0.00000  -0.01570  -0.01593   2.57675
    R6        2.66894  -0.00058   0.00000  -0.00110  -0.00108   2.66786
    R7        2.69164   0.00107   0.00000   0.00455   0.00459   2.69623
    R8        2.81049  -0.00039   0.00000  -0.00065  -0.00066   2.80983
    R9        2.62173  -0.00379   0.00000  -0.00851  -0.00859   2.61313
   R10        2.65570  -0.00240   0.00000  -0.00493  -0.00495   2.65075
   R11        2.30889  -0.00773   0.00000  -0.00796  -0.00796   2.30093
   R12        2.70248  -0.00173   0.00000  -0.00515  -0.00516   2.69731
   R13        2.04786  -0.00072   0.00000  -0.00190  -0.00190   2.04596
   R14        2.70495   0.00856   0.00000   0.02433   0.02477   2.72972
   R15        2.68322   0.00179   0.00000   0.00609   0.00615   2.68937
   R16        2.68655   0.01779   0.00000   0.04141   0.04171   2.72826
   R17        2.81233   0.00664   0.00000   0.01928   0.01952   2.83185
   R18        2.76359   0.00813   0.00000   0.02078   0.02078   2.78437
   R19        2.66221  -0.00265   0.00000  -0.00675  -0.00674   2.65547
   R20        2.31391  -0.01231   0.00000  -0.01284  -0.01284   2.30107
   R21        2.79415  -0.00521   0.00000  -0.01492  -0.01521   2.77894
   R22        2.63842  -0.00665   0.00000  -0.01530  -0.01553   2.62289
   R23        2.31456  -0.00827   0.00000  -0.00864  -0.00864   2.30592
   R24        2.62448  -0.00154   0.00000  -0.00309  -0.00309   2.62139
   R25        2.64561  -0.00531   0.00000  -0.01204  -0.01212   2.63349
   R26        2.04921  -0.00122   0.00000  -0.00323  -0.00323   2.04598
   R27        2.04741  -0.00082   0.00000  -0.00217  -0.00217   2.04525
   R28        2.77259   0.00178   0.00000   0.00463   0.00463   2.77722
   R29        2.77252   0.00168   0.00000   0.00435   0.00435   2.77688
   R30        2.06176  -0.00057   0.00000  -0.00154  -0.00154   2.06022
   R31        2.06551  -0.00182   0.00000  -0.00492  -0.00492   2.06059
   R32        2.05322  -0.00084   0.00000  -0.00223  -0.00223   2.05100
   R33        2.06368  -0.00126   0.00000  -0.00340  -0.00340   2.06028
   R34        2.06281  -0.00077   0.00000  -0.00209  -0.00209   2.06073
   R35        2.05355  -0.00090   0.00000  -0.00238  -0.00238   2.05117
   R36        2.60999   0.00261   0.00000   0.00549   0.00565   2.61564
   R37        3.33311   0.00032   0.00000   0.00173   0.00183   3.33495
   R38        2.66325  -0.00150   0.00000  -0.00337  -0.00335   2.65990
   R39        2.03761  -0.00699   0.00000  -0.01808  -0.01808   2.01953
   R40        3.30425  -0.00249   0.00000  -0.00793  -0.00806   3.29620
   R41        2.64299  -0.00454   0.00000  -0.00992  -0.01008   2.63291
   R42        2.56897   0.00009   0.00000   0.00016   0.00016   2.56913
   R43        2.71301  -0.00024   0.00000  -0.00056  -0.00056   2.71245
   R44        2.69301   0.00058   0.00000   0.00130   0.00130   2.69431
   R45        2.63416  -0.00202   0.00000  -0.00417  -0.00417   2.62999
   R46        3.32864  -0.00083   0.00000  -0.00245  -0.00245   3.32619
   R47        2.05986  -0.00089   0.00000  -0.00240  -0.00240   2.05746
   R48        2.07239  -0.00146   0.00000  -0.00400  -0.00400   2.06840
   R49        2.07102  -0.00100   0.00000  -0.00274  -0.00274   2.06828
   R50        2.69054  -0.00168   0.00000  -0.00394  -0.00394   2.68660
   R51        2.56657  -0.00036   0.00000  -0.00065  -0.00065   2.56592
   R52        3.26324  -0.00154   0.00000  -0.00423  -0.00423   3.25901
   R53        2.58650  -0.00141   0.00000  -0.00267  -0.00267   2.58383
   R54        2.04369  -0.00098   0.00000  -0.00256  -0.00256   2.04113
   R55        2.69026   0.00030   0.00000   0.00067   0.00067   2.69093
   R56        2.04391  -0.00163   0.00000  -0.00427  -0.00427   2.03964
   R57        2.07435  -0.00180   0.00000  -0.00496  -0.00496   2.06939
   R58        2.05845  -0.00064   0.00000  -0.00172  -0.00172   2.05673
   R59        2.07269  -0.00125   0.00000  -0.00344  -0.00344   2.06925
    A1        2.03797   0.00069   0.00000   0.00132   0.00130   2.03927
    A2        2.14521  -0.00057   0.00000  -0.00148  -0.00148   2.14372
    A3        2.10001  -0.00012   0.00000   0.00016   0.00016   2.10016
    A4        2.10395   0.00200   0.00000   0.00925   0.00929   2.11324
    A5        2.08282  -0.00191   0.00000  -0.00330  -0.00330   2.07952
    A6        2.09624  -0.00009   0.00000  -0.00580  -0.00587   2.09036
    A7        2.10093  -0.00264   0.00000  -0.01136  -0.01146   2.08946
    A8        2.07104   0.00045   0.00000  -0.00014  -0.00012   2.07092
    A9        2.11118   0.00220   0.00000   0.01158   0.01162   2.12280
   A10        2.10296   0.00132   0.00000   0.00559   0.00560   2.10857
   A11        2.09911   0.00100   0.00000   0.00298   0.00293   2.10204
   A12        2.08110  -0.00232   0.00000  -0.00853  -0.00853   2.07257
   A13        2.03739   0.00043   0.00000   0.00212   0.00209   2.03948
   A14        2.12972   0.00012   0.00000   0.00017   0.00018   2.12990
   A15        2.11607  -0.00055   0.00000  -0.00228  -0.00227   2.11380
   A16        2.15098   0.00801   0.00000   0.02732   0.02711   2.17809
   A17        2.04399  -0.00286   0.00000  -0.00655  -0.00706   2.03692
   A18        2.08722  -0.00504   0.00000  -0.01853  -0.01906   2.06816
   A19        2.11101   0.00361   0.00000   0.01365   0.01369   2.12469
   A20        2.04385  -0.00614   0.00000  -0.02408  -0.02441   2.01943
   A21        2.12832   0.00253   0.00000   0.01051   0.01061   2.13894
   A22        2.08678  -0.00818   0.00000  -0.02390  -0.02453   2.06225
   A23        2.04738  -0.01135   0.00000  -0.03716  -0.03797   2.00942
   A24        2.14662   0.01976   0.00000   0.06706   0.06476   2.21138
   A25        2.04892  -0.00374   0.00000  -0.01098  -0.01038   2.03854
   A26        2.00754  -0.03433   0.00000  -0.12584  -0.12648   1.88106
   A27        2.22643   0.03804   0.00000   0.13784   0.13704   2.36347
   A28        2.06022   0.00584   0.00000   0.02286   0.02306   2.08328
   A29        2.17370   0.00811   0.00000   0.02892   0.02847   2.20217
   A30        2.04919  -0.01393   0.00000  -0.05129  -0.05175   1.99744
   A31        2.01621  -0.00107   0.00000  -0.00614  -0.00657   2.00963
   A32        2.14188   0.00064   0.00000   0.00358   0.00370   2.14558
   A33        2.12500   0.00044   0.00000   0.00284   0.00296   2.12796
   A34        2.10943   0.00248   0.00000   0.01018   0.01003   2.11945
   A35        2.11468   0.00289   0.00000   0.01249   0.01258   2.12726
   A36        2.05896  -0.00536   0.00000  -0.02241  -0.02249   2.03647
   A37        2.11176   0.00094   0.00000   0.00347   0.00342   2.11518
   A38        2.05670  -0.00007   0.00000   0.00045   0.00047   2.05716
   A39        2.11471  -0.00087   0.00000  -0.00389  -0.00387   2.11084
   A40        2.08567  -0.00087   0.00000  -0.00599  -0.00614   2.07954
   A41        2.07549   0.00095   0.00000   0.00582   0.00584   2.08133
   A42        2.12199  -0.00007   0.00000   0.00029   0.00031   2.12230
   A43        2.20043   0.00175   0.00000   0.00381   0.00379   2.20422
   A44        2.02023  -0.00040   0.00000  -0.00018  -0.00017   2.02007
   A45        2.06252  -0.00135   0.00000  -0.00363  -0.00362   2.05890
   A46        2.18316  -0.00180   0.00000  -0.00689  -0.00692   2.17623
   A47        2.02959   0.00104   0.00000   0.00397   0.00399   2.03357
   A48        2.07044   0.00075   0.00000   0.00292   0.00293   2.07338
   A49        1.91737  -0.00004   0.00000  -0.00017  -0.00017   1.91721
   A50        1.91808  -0.00001   0.00000   0.00028   0.00027   1.91835
   A51        1.87685   0.00066   0.00000   0.00323   0.00323   1.88007
   A52        1.88689   0.00022   0.00000   0.00192   0.00192   1.88881
   A53        1.93435  -0.00048   0.00000  -0.00324  -0.00324   1.93111
[...]
 Alpha  occ. eigenvalues --   -0.57283  -0.56772  -0.56578  -0.55199  -0.55010
 Alpha  occ. eigenvalues --   -0.53399  -0.51531  -0.50299  -0.49848  -0.49586
 Alpha  occ. eigenvalues --   -0.49276  -0.48985  -0.48653  -0.48531  -0.48396
 Alpha  occ. eigenvalues --   -0.48185  -0.46936  -0.46493  -0.46234  -0.45846
 Alpha  occ. eigenvalues --   -0.45713  -0.44805  -0.44389  -0.44051  -0.43533
 Alpha  occ. eigenvalues --   -0.42876  -0.42601  -0.42378  -0.41963  -0.41858
 Alpha  occ. eigenvalues --   -0.41712  -0.41068  -0.41021  -0.40392  -0.39896
 Alpha  occ. eigenvalues --   -0.39454  -0.39116  -0.39022  -0.37804  -0.37428
 Alpha  occ. eigenvalues --   -0.36591  -0.35952  -0.34498  -0.34189  -0.33787
 Alpha  occ. eigenvalues --   -0.33603  -0.31932  -0.30870  -0.30366  -0.29639
 Alpha  occ. eigenvalues --   -0.29191  -0.28744  -0.28560  -0.27895  -0.27234
 Alpha  occ. eigenvalues --   -0.25990  -0.24856  -0.24722  -0.19555
 Alpha virt. eigenvalues --   -0.12910  -0.07503  -0.06322  -0.04416  -0.03721
 Alpha virt. eigenvalues --   -0.00858  -0.00478  -0.00330  -0.00025   0.00390
 Alpha virt. eigenvalues --    0.00821   0.01203   0.01457   0.01664   0.01867
 Alpha virt. eigenvalues --    0.02106   0.02183   0.02378   0.02734   0.03182
 Alpha virt. eigenvalues --    0.03634   0.03649   0.04040   0.04288   0.04525
 Alpha virt. eigenvalues --    0.04758   0.04915   0.05022   0.05543   0.05855
 Alpha virt. eigenvalues --    0.06186   0.06380   0.06442   0.06603   0.06899
 Alpha virt. eigenvalues --    0.07118   0.07400   0.07639   0.07854   0.08235
 Alpha virt. eigenvalues --    0.08414   0.08522   0.08986   0.09217   0.09395
 Alpha virt. eigenvalues --    0.09704   0.10011   0.10068   0.10285   0.10556
 Alpha virt. eigenvalues --    0.10728   0.11072   0.11651   0.11711   0.11953
 Alpha virt. eigenvalues --    0.12438   0.12573   0.12912   0.13092   0.13318
 Alpha virt. eigenvalues --    0.13441   0.13846   0.14189   0.14290   0.14456
 Alpha virt. eigenvalues --    0.14598   0.14727   0.14960   0.15131   0.15395
 Alpha virt. eigenvalues --    0.15529   0.15778   0.15981   0.16283   0.16433
 Alpha virt. eigenvalues --    0.16494   0.16730   0.17218   0.17403   0.17696
 Alpha virt. eigenvalues --    0.17882   0.18027   0.18375   0.18480   0.18691
 Alpha virt. eigenvalues --    0.18865   0.19047   0.19428   0.19481   0.19727
 Alpha virt. eigenvalues --    0.19789   0.19902   0.20048   0.20180   0.20548
 Alpha virt. eigenvalues --    0.20691   0.20802   0.21004   0.21283   0.21489
 Alpha virt. eigenvalues --    0.21636   0.21857   0.22204   0.22412   0.22607
 Alpha virt. eigenvalues --    0.22719   0.23036   0.23317   0.23409   0.23513
 Alpha virt. eigenvalues --    0.23804   0.23810   0.23989   0.24142   0.24288
 Alpha virt. eigenvalues --    0.24619   0.24858   0.24933   0.25539   0.25627
 Alpha virt. eigenvalues --    0.25784   0.25946   0.26027   0.26126   0.26515
 Alpha virt. eigenvalues --    0.26631   0.26788   0.27025   0.27236   0.27463
 Alpha virt. eigenvalues --    0.27625   0.27827   0.27991   0.28393   0.28530
 Alpha virt. eigenvalues --    0.28596   0.28906   0.29000   0.29228   0.29507
 Alpha virt. eigenvalues --    0.29859   0.29942   0.30212   0.30481   0.30949
 Alpha virt. eigenvalues --    0.31097   0.31428   0.31875   0.31896   0.32122
 Alpha virt. eigenvalues --    0.32263   0.32453   0.33035   0.33078   0.33559
 Alpha virt. eigenvalues --    0.33753   0.33898   0.33993   0.34361   0.34674
 Alpha virt. eigenvalues --    0.34898   0.35255   0.35706   0.35881   0.36213
 Alpha virt. eigenvalues --    0.36524   0.36732   0.37116   0.37489   0.38211
 Alpha virt. eigenvalues --    0.38311   0.38782   0.38927   0.39317   0.39430
 Alpha virt. eigenvalues --    0.40122   0.40539   0.40822   0.41297   0.41758
 Alpha virt. eigenvalues --    0.42191   0.42283   0.42890   0.43367   0.43549
 Alpha virt. eigenvalues --    0.43772   0.44163   0.44735   0.45158   0.45435
 Alpha virt. eigenvalues --    0.45557   0.45697   0.46401   0.46886   0.47159
 Alpha virt. eigenvalues --    0.47309   0.47674   0.48157   0.48807   0.49461
 Alpha virt. eigenvalues --    0.49833   0.50022   0.50239   0.50527   0.51154
 Alpha virt. eigenvalues --    0.51812   0.52527   0.52901   0.53658   0.54062
 Alpha virt. eigenvalues --    0.54273   0.54955   0.55128   0.55365   0.55668
 Alpha virt. eigenvalues --    0.56272   0.56374   0.56624   0.56840   0.57310
 Alpha virt. eigenvalues --    0.57860   0.58444   0.58699   0.58895   0.59340
 Alpha virt. eigenvalues --    0.60098   0.60101   0.60905   0.61028   0.61195
 Alpha virt. eigenvalues --    0.61455   0.61896   0.62637   0.63000   0.63211
 Alpha virt. eigenvalues --    0.63618   0.63983   0.64177   0.64944   0.65127
 Alpha virt. eigenvalues --    0.65378   0.65570   0.65728   0.65849   0.66476
 Alpha virt. eigenvalues --    0.66931   0.67044   0.67514   0.67627   0.68871
 Alpha virt. eigenvalues --    0.69219   0.69413   0.69866   0.70132   0.70299
 Alpha virt. eigenvalues --    0.71023   0.71420   0.71653   0.71897   0.72405
 Alpha virt. eigenvalues --    0.72667   0.72845   0.73369   0.73849   0.73898
 Alpha virt. eigenvalues --    0.74415   0.74898   0.75067   0.75248   0.75849
 Alpha virt. eigenvalues --    0.76187   0.76372   0.76674   0.76766   0.77318
 Alpha virt. eigenvalues --    0.77595   0.78450   0.78594   0.78944   0.79716
 Alpha virt. eigenvalues --    0.80167   0.80317   0.80917   0.81241   0.82148
 Alpha virt. eigenvalues --    0.82762   0.83323   0.83774   0.84085   0.85965
 Alpha virt. eigenvalues --    0.86153   0.86692   0.87210   0.87979   0.88706
 Alpha virt. eigenvalues --    0.89101   0.89277   0.89870   0.90023   0.91175
 Alpha virt. eigenvalues --    0.91485   0.92037   0.92486   0.92577   0.93439
 Alpha virt. eigenvalues --    0.94069   0.94188   0.94483   0.94968   0.95250
 Alpha virt. eigenvalues --    0.95744   0.95881   0.96268   0.96861   0.97364
 Alpha virt. eigenvalues --    0.97447   0.98226   0.98474   0.99036   1.00251
 Alpha virt. eigenvalues --    1.00605   1.01141   1.01221   1.01770   1.02244
 Alpha virt. eigenvalues --    1.03130   1.03401   1.04049   1.04162   1.04387
 Alpha virt. eigenvalues --    1.04797   1.05190   1.05492   1.05749   1.06536
 Alpha virt. eigenvalues --    1.06867   1.07412   1.07607   1.07670   1.08284
 Alpha virt. eigenvalues --    1.08994   1.09112   1.09548   1.09712   1.10531
 Alpha virt. eigenvalues --    1.11404   1.12169   1.12727   1.14277   1.14909
 Alpha virt. eigenvalues --    1.15419   1.15640   1.16804   1.17413   1.17931
 Alpha virt. eigenvalues --    1.18481   1.19186   1.20031   1.21095   1.22026
 Alpha virt. eigenvalues --    1.22499   1.22944   1.23912   1.24049   1.24559
 Alpha virt. eigenvalues --    1.25801   1.26035   1.26112   1.27055   1.27296
 Alpha virt. eigenvalues --    1.28709   1.29562   1.30461   1.30707   1.31407
 Alpha virt. eigenvalues --    1.31672   1.33135   1.33624   1.34880   1.35089
 Alpha virt. eigenvalues --    1.35337   1.36189   1.37578   1.38265   1.38544
 Alpha virt. eigenvalues --    1.39610   1.40850   1.41874   1.41994   1.42239
 Alpha virt. eigenvalues --    1.42833   1.43348   1.43646   1.43946   1.44417
 Alpha virt. eigenvalues --    1.44661   1.45143   1.45574   1.45945   1.46053
 Alpha virt. eigenvalues --    1.46319   1.46562   1.47675   1.48457   1.49344
 Alpha virt. eigenvalues --    1.49979   1.51012   1.51584   1.51851   1.52390
 Alpha virt. eigenvalues --    1.53363   1.53458   1.53740   1.54374   1.54789
 Alpha virt. eigenvalues --    1.54983   1.55397   1.55934   1.56674   1.56853
 Alpha virt. eigenvalues --    1.57554   1.58187   1.59635   1.60817   1.61101
 Alpha virt. eigenvalues --    1.62329   1.62819   1.62921   1.63579   1.63930
 Alpha virt. eigenvalues --    1.65643   1.66007   1.66262   1.66855   1.67611
 Alpha virt. eigenvalues --    1.68182   1.68683   1.69142   1.69670   1.69986
 Alpha virt. eigenvalues --    1.70144   1.71303   1.71569   1.71687   1.72124
 Alpha virt. eigenvalues --    1.72484   1.73930   1.74359   1.74898   1.75480
 Alpha virt. eigenvalues --    1.75958   1.76847   1.77428   1.77772   1.78818
 Alpha virt. eigenvalues --    1.79053   1.79345   1.79631   1.80926   1.82177
 Alpha virt. eigenvalues --    1.83314   1.84292   1.84855   1.85090   1.86358
 Alpha virt. eigenvalues --    1.86739   1.87039   1.87277   1.87877   1.88803
 Alpha virt. eigenvalues --    1.89895   1.89968   1.90438   1.91267   1.91976
 Alpha virt. eigenvalues --    1.92202   1.92899   1.93357   1.94768   1.95048
 Alpha virt. eigenvalues --    1.96396   1.97001   1.97956   1.98377   1.98628
 Alpha virt. eigenvalues --    1.99753   2.00213   2.00867   2.01910   2.02410
 Alpha virt. eigenvalues --    2.02952   2.03194   2.03776   2.04499   2.04787
 Alpha virt. eigenvalues --    2.06022   2.06301   2.06845   2.07342   2.07559
 Alpha virt. eigenvalues --    2.08369   2.09027   2.10043   2.11218   2.11672
 Alpha virt. eigenvalues --    2.11984   2.13423   2.13956   2.14929   2.15250
 Alpha virt. eigenvalues --    2.16533   2.16628   2.17610   2.18099   2.19150
 Alpha virt. eigenvalues --    2.19212   2.19760   2.21098   2.21553   2.22670
 Alpha virt. eigenvalues --    2.24128   2.25495   2.26408   2.26886   2.28685
 Alpha virt. eigenvalues --    2.31514   2.32538   2.33466   2.35512   2.37514
 Alpha virt. eigenvalues --    2.38160   2.39256   2.39738   2.41687   2.42729
 Alpha virt. eigenvalues --    2.43104   2.43523   2.44337   2.44841   2.46243
 Alpha virt. eigenvalues --    2.46446   2.47331   2.48605   2.48798   2.49467
 Alpha virt. eigenvalues --    2.50545   2.51688   2.51926   2.52434   2.52488
 Alpha virt. eigenvalues --    2.53040   2.53412   2.53975   2.54294   2.55490
 Alpha virt. eigenvalues --    2.56714   2.57550   2.59070   2.59228   2.60421
 Alpha virt. eigenvalues --    2.62925   2.63467   2.63510   2.65084   2.66645
 Alpha virt. eigenvalues --    2.67281   2.67539   2.67642   2.67911   2.69051
 Alpha virt. eigenvalues --    2.69341   2.70439   2.70839   2.71658   2.71705
 Alpha virt. eigenvalues --    2.72041   2.72928   2.73683   2.74016   2.75842
 Alpha virt. eigenvalues --    2.76380   2.76652   2.77576   2.78945   2.80866
 Alpha virt. eigenvalues --    2.81769   2.82606   2.83116   2.83257   2.84123
 Alpha virt. eigenvalues --    2.84342   2.84751   2.85749   2.86628   2.87298
 Alpha virt. eigenvalues --    2.88114   2.88636   2.89358   2.89643   2.90771
 Alpha virt. eigenvalues --    2.91694   2.92133   2.92895   2.93777   2.94814
 Alpha virt. eigenvalues --    2.95213   2.95440   2.96582   2.98205   2.98890
 Alpha virt. eigenvalues --    3.00195   3.02240   3.02905   3.04092   3.05434
 Alpha virt. eigenvalues --    3.06237   3.06613   3.07859   3.09162   3.10514
 Alpha virt. eigenvalues --    3.11735   3.13304   3.14377   3.14596   3.15219
 Alpha virt. eigenvalues --    3.16710   3.17953   3.19293   3.20614   3.21458
 Alpha virt. eigenvalues --    3.23188   3.23666   3.23968   3.25275   3.26669
 Alpha virt. eigenvalues --    3.29012   3.29170   3.30863   3.32020   3.34681
 Alpha virt. eigenvalues --    3.35257   3.35546   3.35753   3.36895   3.37538
 Alpha virt. eigenvalues --    3.38967   3.40057   3.41167   3.43374   3.44177
 Alpha virt. eigenvalues --    3.44707   3.45674   3.46488   3.48639   3.49749
 Alpha virt. eigenvalues --    3.51545   3.53884   3.55685   3.58412   3.60462
 Alpha virt. eigenvalues --    3.60917   3.62689   3.65608   3.66287   3.67035
 Alpha virt. eigenvalues --    3.69587   3.70572   3.72637   3.73572   3.75528
 Alpha virt. eigenvalues --    3.76397   3.76914   3.80930   3.82532   3.84369
 Alpha virt. eigenvalues --    3.85588   3.86443   3.90204   3.91396   3.93101
 Alpha virt. eigenvalues --    3.93479   3.95086   3.96977   4.01572   4.02730
 Alpha virt. eigenvalues --    4.04461   4.08034   4.10142   4.12723   4.13966
 Alpha virt. eigenvalues --    4.19500   4.23419   4.25342   4.27510   4.35606
 Alpha virt. eigenvalues --    4.40160   4.40456   4.52199   4.69511   4.84700
 Alpha virt. eigenvalues --    4.85772   4.87347   4.90267   5.01111   5.02652
 Alpha virt. eigenvalues --    5.04092   5.05665   5.06099   5.10097   5.11678
 Alpha virt. eigenvalues --    5.13110   5.25275   5.27111   5.28991   5.30206
 Alpha virt. eigenvalues --    5.41651   5.43000   5.76008   5.76731   5.80125
 Alpha virt. eigenvalues --    5.80409   5.82420   5.84604   8.02253   8.04507
 Alpha virt. eigenvalues --   17.28783  17.32134  17.49219  17.52143  17.57428
 Alpha virt. eigenvalues --   17.62585  23.48776  23.56561  23.71672  23.79225
 Alpha virt. eigenvalues --   23.82516  23.83243  23.84879  23.87370  23.87576
 Alpha virt. eigenvalues --   23.88560  23.89180  23.90176  23.91136  23.93628
 Alpha virt. eigenvalues --   23.95018  23.96164  23.96397  23.99141  24.01277
 Alpha virt. eigenvalues --   24.01600  24.02773  24.05686  24.12631  24.13953
 Alpha virt. eigenvalues --   24.14624  24.14883  35.56109  35.58748  49.95772
 Alpha virt. eigenvalues --   49.97353  50.02499  50.04335  50.06286  50.07727
 Alpha virt. eigenvalues --  189.19480 189.22355
          Condensed to atoms (all electrons):
 Mulliken charges:
               1
     1  C    0.285864
     2  C   -0.094635
     3  C    0.166338
     4  C    0.205225
     5  C    0.226602
     6  C   -0.237797
     7  C    0.217465
     8  C    0.430058
     9  C    0.387551
    10  C   -0.524548
    11  C    0.220088
    12  C    0.140548
    13  C   -0.478252
    14  C   -0.585769
    15  H    0.158298
    16  H    0.160597
    17  H    0.176473
    18  N   -0.109651
    19  N   -0.141857
    20  O   -0.282442
    21  O   -0.268641
    22  O   -0.278093
    23  O   -0.220585
    24  C   -0.185008
    25  H    0.167605
    26  H    0.176823
    27  H    0.182629
    28  C   -0.198357
    29  H    0.173389
    30  H    0.174110
    31  H    0.181966
    32  C    0.080211
    33  C   -0.512829
    34  S   -0.609905
    35  C   -0.199116
    36  H    0.136932
    37  C    0.715703
    38  O   -0.128679
    39  C    0.833385
    40  C   -0.240982
    41  C   -0.025627
    42  S   -0.256832
    43  H    0.165579
    44  H    0.162805
    45  H    0.145074
    46  C   -0.608238
    47  O   -0.128631
    48  C   -0.271276
    49  H    0.132866
    50  C   -0.240695
    51  H    0.162008
    52  H    0.146905
    53  H    0.169792
    54  H    0.145556
 Sum of Mulliken charges =  -0.00000
 Mulliken charges with hydrogens summed into heavy atoms:
               1
     1  C    0.285864
     2  C   -0.094635
     3  C    0.166338
     4  C    0.205225
     5  C    0.226602
     6  C   -0.061324
     7  C    0.217465
     8  C    0.430058
     9  C    0.387551
    10  C   -0.524548
    11  C    0.220088
    12  C    0.140548
    13  C   -0.317655
    14  C   -0.427471
    18  N   -0.109651
    19  N   -0.141857
    20  O   -0.282442
    21  O   -0.268641
    22  O   -0.278093
    23  O   -0.220585
    24  C    0.342049
    28  C    0.331108
    32  C    0.080211
    33  C   -0.375897
    34  S   -0.609905
    35  C   -0.199116
    37  C    0.715703
    38  O   -0.128679
    39  C    0.833385
    40  C    0.232476
    41  C   -0.025627
    42  S   -0.256832
    46  C   -0.475372
    47  O   -0.128631
    48  C   -0.109268
    50  C    0.221559
 Electronic spatial extent (au):  <R**2>=          22405.7926
 Charge=              0.0000 electrons
 Dipole moment (field-independent basis, Debye):
    X=              4.9664    Y=             -0.6072    Z=              0.2863  Tot=              5.0115
 Quadrupole moment (field-independent basis, Debye-Ang):
   XX=           -216.4270   YY=           -212.2758   ZZ=           -218.6508
   XY=             -4.2707   XZ=             -2.7951   YZ=             13.3286
 Traceless Quadrupole moment (field-independent basis, Debye-Ang):
   XX=             -0.6424   YY=              3.5087   ZZ=             -2.8663
   XY=             -4.2707   XZ=             -2.7951   YZ=             13.3286
 Octapole moment (field-independent basis, Debye-Ang**2):
  XXX=            386.5513  YYY=            -20.7226  ZZZ=             -1.7619  XYY=            128.6035
  XXY=            -85.2415  XXZ=            -30.9082  XZZ=              3.4472  YZZ=              0.0515
  YYZ=             -0.7727  XYZ=             44.9272
 Hexadecapole moment (field-independent basis, Debye-Ang**3):
 XXXX=         -20862.1867 YYYY=          -7578.4435 ZZZZ=           -858.6227 XXXY=           -574.7897
 XXXZ=           -122.5508 YYYX=            292.4875 YYYZ=            143.6396 ZZZX=             -9.6144
 ZZZY=             21.8634 XXYY=          -4929.6439 XXZZ=          -3777.1883 YYZZ=          -1370.2984
 XXYZ=            271.7060 YYXZ=            -61.2883 ZZXY=             12.3435
 N-N= 4.088318178450D+03 E-N=-1.371668455114D+04  KE= 2.352059013912D+03
 Unable to Open any file for archive entry.
 1\1\GINC-CX3-5-19\FOpt\RB3LYP\6-311+G(d,p)\C26H18N2O6S2\NS5018\26-Nov-
 2020\0\\# opt=modredundant b3lyp/6-311+g(d,p)\\NDI_35.pdb\\0,1\C,-2.59
 9068959,-2.9000337685,-0.7444581873\C,-2.2903885065,-1.4704764681,-0.4
 757599164\C,-3.3063432075,-0.5862085898,-0.0451615405\C,-4.6246623535,
 -1.0482663389,0.1424575721\C,-4.9659597762,-2.4749804871,-0.1046834376
 \C,-1.003918052,-1.0220914694,-0.6164863708\C,-2.9732572958,0.77852773
 23,0.1802921205\C,-1.6351476814,1.2447838774,-0.0004306639\C,-0.614904
 8144,0.325734458,-0.3530764098\C,-1.4058095932,2.7128879888,0.07867495
 23\C,-3.764469571,3.0860493683,0.8099062197\C,-4.0184272276,1.64574200
 12,0.5872038782\C,-5.3081765153,1.1699094173,0.7760655155\C,-5.6182926
 827,-0.1752334582,0.5565464192\H,-6.6237260989,-0.5501444238,0.6976462
 044\H,-6.0690089927,1.8716725769,1.0936008259\H,-0.2517805339,-1.74744
 60581,-0.8985250179\N,-2.473716641,3.5239007175,0.5096994678\N,-3.9217
 59424,-3.3083483163,-0.5402773569\O,-1.760086308,-3.6960765032,-1.1241
 744037\O,-6.0915343713,-2.9076452822,0.0566097718\O,-4.6258579423,3.85
 17736779,1.2075461534\O,-0.3604116742,3.2617678105,-0.2237594131\C,-2.
 1875508792,4.9622047049,0.6079830176\H,-1.3573296187,5.1283326503,1.29
 46393576\H,-1.9059170917,5.3516627902,-0.3705256376\H,-3.0847279529,5.
 453466397,0.970909014\C,-4.21490502,-4.724108371,-0.8051957641\H,-3.97
 64056185,-4.9608299808,-1.8422866939\H,-3.6034479952,-5.3540771324,-0.
 1586902718\H,-5.2696354733,-4.8888716237,-0.6094620951\C,0.8187565737,
 0.5888733447,-0.4203133052\C,1.6156790741,1.4061307542,0.3544291782\S,
 1.8033068738,-0.3117260466,-1.565320674\C,2.9829615041,1.3147166982,0.
 0405298002\H,1.2221302572,2.0504853671,1.1220056551\C,3.279513551,0.43
 08496614,-0.9998764693\O,3.9969881255,1.9914592557,0.6400329023\C,4.56
 38790892,0.1520266142,-1.5759585635\C,3.6577750226,2.9822076488,1.6078
 267151\C,4.8594490181,-0.7456934506,-2.597656477\S,6.0438905357,0.9501
 484496,-1.05545308\H,4.5984275151,3.4419651563,1.905406571\H,2.9958827
 128,3.7396660796,1.1772389555\H,3.1822503123,2.5287758018,2.4835963447
 \C,6.235048163,-0.7912271241,-2.952794062\O,3.8572991915,-1.4732970553
 ,-3.1527206619\C,6.9849725868,0.0713290067,-2.2018359438\H,6.649431402
 7,-1.4272479845,-3.721167371\C,4.1877602229,-2.4043185743,-4.179943399
 5\H,8.0499246243,0.2373429362,-2.257708269\H,4.8818367385,-3.166190464
 3,-3.8113882213\H,3.2499977939,-2.8763550245,-4.4666315581\H,4.6204669
 83,-1.8954989472,-5.0471253756\\Version=ES64L-G16RevC.01\State=1-A\HF=
 -2359.3382921\RMSD=5.467e-09\RMSF=1.356e-04\Dipole=1.9330506,-0.150597
 8,-0.3580074\Quadrupole=-1.3961166,-4.5124879,5.9086045,-0.2695699,-2.
 3335906,9.1790969\PG=C01 [X(C26H18N2O6S2)]\\@
 The archive entry for this job was punched.


 IT IS BETTER TO THINK YOU ARE HALF DRY THAN TO KNOW YOU
 ARE ALL WET.  -- SNOOPY
 Job cpu time:       2 days 20 hours 35 minutes  9.5 seconds.
 Elapsed time:       0 days  4 hours 19 minutes 49.9 seconds.
 File lengths (MBytes):  RWF=    506 Int=      0 D2E=      0 Chk=     77 Scr=      1
 Normal termination of Gaussian 16 at Thu Nov 26 11:31:20 2020.
