 Entering Gaussian System, Link 0=g16
 Input=NDI_-10.gjf
 Output=NDI_-10.log
 Initial command:
 /apps/gaussian/g16-c01-avx/g16/l1.exe "/tmp/pbs.2610758[34].pbs/Gau-735343.inp" -scrdir="/tmp/pbs.2610758[34].pbs/"
 Entering Link 1 = /apps/gaussian/g16-c01-avx/g16/l1.exe PID=    735370.
  
 Copyright (c) 1988-2019, Gaussian, Inc.  All Rights Reserved.
  
 This is part of the Gaussian(R) 16 program.  It is based on
 the Gaussian(R) 09 system (copyright 2009, Gaussian, Inc.),
 the Gaussian(R) 03 system (copyright 2003, Gaussian, Inc.),
 the Gaussian(R) 98 system (copyright 1998, Gaussian, Inc.),
 the Gaussian(R) 94 system (copyright 1995, Gaussian, Inc.),
 the Gaussian 92(TM) system (copyright 1992, Gaussian, Inc.),
 the Gaussian 90(TM) system (copyright 1990, Gaussian, Inc.),
 the Gaussian 88(TM) system (copyright 1988, Gaussian, Inc.),
 the Gaussian 86(TM) system (copyright 1986, Carnegie Mellon
 University), and the Gaussian 82(TM) system (copyright 1983,
 Carnegie Mellon University). Gaussian is a federally registered
 trademark of Gaussian, Inc.
  
 This software contains proprietary and confidential information,
 including trade secrets, belonging to Gaussian, Inc.
  
 This software is provided under written license and may be
 used, copied, transmitted, or stored only in accord with that
 written license.
  
 The following legend is applicable only to US Government
 contracts under FAR:
  
                    RESTRICTED RIGHTS LEGEND
  
 Use, reproduction and disclosure by the US Government is
 subject to restrictions as set forth in subparagraphs (a)
 and (c) of the Commercial Computer Software - Restricted
 Rights clause in FAR 52.227-19.
  
 Gaussian, Inc.
 340 Quinnipiac St., Bldg. 40, Wallingford CT 06492
  
  
 ---------------------------------------------------------------
 Warning -- This program may not be used in any manner that
 competes with the business of Gaussian, Inc. or will provide
 assistance to any competitor of Gaussian, Inc.  The licensee
 of this program is prohibited from giving any competitor of
 Gaussian, Inc. access to this program.  By using this program,
 the user acknowledges that Gaussian, Inc. is engaged in the
 business of creating and licensing software in the field of
 computational chemistry and represents and warrants to the
 licensee that it is not a competitor of Gaussian, Inc. and that
 it will not use this program in any manner prohibited above.
 ---------------------------------------------------------------
  

 Cite this work as:
 Gaussian 16, Revision C.01,
 M. J. Frisch, G. W. Trucks, H. B. Schlegel, G. E. Scuseria, 
 M. A. Robb, J. R. Cheeseman, G. Scalmani, V. Barone, 
 G. A. Petersson, H. Nakatsuji, X. Li, M. Caricato, A. V. Marenich, 
 J. Bloino, B. G. Janesko, R. Gomperts, B. Mennucci, H. P. Hratchian, 
 J. V. Ortiz, A. F. Izmaylov, J. L. Sonnenberg, D. Williams-Young, 
 F. Ding, F. Lipparini, F. Egidi, J. Goings, B. Peng, A. Petrone, 
 T. Henderson, D. Ranasinghe, V. G. Zakrzewski, J. Gao, N. Rega, 
 G. Zheng, W. Liang, M. Hada, M. Ehara, K. Toyota, R. Fukuda, 
 J. Hasegawa, M. Ishida, T. Nakajima, Y. Honda, O. Kitao, H. Nakai, 
 T. Vreven, K. Throssell, J. A. Montgomery, Jr., J. E. Peralta, 
 F. Ogliaro, M. J. Bearpark, J. J. Heyd, E. N. Brothers, K. N. Kudin, 
 V. N. Staroverov, T. A. Keith, R. Kobayashi, J. Normand, 
 K. Raghavachari, A. P. Rendell, J. C. Burant, S. S. Iyengar, 
 J. Tomasi, M. Cossi, J. M. Millam, M. Klene, C. Adamo, R. Cammi, 
 J. W. Ochterski, R. L. Martin, K. Morokuma, O. Farkas, 
 J. B. Foresman, and D. J. Fox, Gaussian, Inc., Wallingford CT, 2019.
 
 ******************************************
 Gaussian 16:  ES64L-G16RevC.01  3-Jul-2019
                26-Nov-2020 
 ******************************************
 %mem=10GB
 %nprocshared=16
 Will use up to   16 processors via shared memory.
 -------------------------------------
 # opt=modredundant b3lyp/6-311+g(d,p)
 -------------------------------------
 1/18=120,19=15,26=3,38=1/1,3;
 2/9=110,12=2,17=6,18=5,40=1/2;
 3/5=4,6=6,7=111,11=2,25=1,30=1,71=1,74=-5/1,2,3;
 4//1;
 5/5=2,38=5/2;
 6/7=2,8=2,9=2,10=2,28=1/1;
 7//1,2,3,16;
 1/18=20,19=15,26=3/3(2);
 2/9=110/2;
 99//99;
 2/9=110/2;
 3/5=4,6=6,7=111,11=2,25=1,30=1,71=1,74=-5/1,2,3;
 4/5=5,16=3,69=1/1;
 5/5=2,38=5/2;
 7//1,2,3,16;
 1/18=20,19=15,26=3/3(-5);
 2/9=110/2;
 6/7=2,8=2,9=2,10=2,19=2,28=1/1;
 99/9=1/99;
 -----------
 NDI_-10.pdb
 -----------
 Symbolic Z-matrix:
 Charge =  0 Multiplicity = 1
 C                    -2.563    -2.994    -0.409 
 C                    -2.257    -1.551    -0.224 
 C                    -3.301    -0.607    -0.083 
 C                    -4.65     -1.024    -0.115 
 C                    -4.992    -2.459    -0.304 
 C                    -0.949    -1.137    -0.215 
 C                    -2.962     0.764     0.102 
 C                    -1.595     1.188     0.123 
 C                    -0.561     0.232    -0.072 
 C                    -1.328     2.616     0.446 
 C                    -3.777     3.115     0.508 
 C                    -4.035     1.679     0.268 
 C                    -5.356     1.252     0.23 
 C                    -5.672    -0.098     0.036 
 H                    -6.699    -0.442     0.008 
 H                    -6.133     1.997     0.361 
 H                    -0.19     -1.895    -0.369 
 N                    -2.432     3.476     0.608 
 N                    -3.916    -3.353    -0.438 
 O                    -1.695    -3.847    -0.532 
 O                    -6.149    -2.85     -0.34 
 O                    -4.676     3.938     0.629 
 O                    -0.212     3.097     0.596 
 C                    -2.111     4.875     0.912 
 H                    -1.54      4.931     1.84 
 H                    -1.5       5.299     0.111 
 H                    -3.05      5.414     1.003 
 C                    -4.206    -4.779    -0.625 
 H                    -3.759    -5.126    -1.559 
 H                    -3.775    -5.355     0.196 
 H                    -5.286    -4.897    -0.649 
 C                     0.876     0.482    -0.178 
 C                     1.581     1.663    -0.303 
 S                     1.969    -0.894    -0.326 
 C                     2.963     1.475    -0.506 
 H                     1.113     2.632    -0.24 
 C                     3.366     0.137    -0.537 
 O                     3.897     2.45     -0.666 
 C                     4.699    -0.375    -0.683 
 C                     3.476     3.8      -0.486 
 C                     5.096    -1.71     -0.738 
 S                     6.116     0.661    -0.823 
 H                     4.376     4.409    -0.575 
 H                     2.758     4.098    -1.259 
 H                     3.027     3.947     0.504 
 C                     6.5      -1.895    -0.887 
 O                     4.156    -2.687    -0.644 
 C                     7.169    -0.702    -0.947 
 H                     6.987    -2.858    -0.948 
 C                     4.588    -4.04     -0.738 
 H                     8.233    -0.55     -1.061 
 H                     5.278    -4.295     0.077 
 H                     3.689    -4.649    -0.654 
 H                     5.074    -4.236    -1.701 
 
 The following ModRedundant input section has been read:
 D       8       9      32      33 F                                           
 

 GradGradGradGradGradGradGradGradGradGradGradGradGradGradGradGradGradGrad
 Berny optimization.
 Initialization pass.
                           ----------------------------
                           !    Initial Parameters    !
                           ! (Angstroms and Degrees)  !
 --------------------------                            --------------------------
 ! Name  Definition              Value          Derivative Info.                !
 --------------------------------------------------------------------------------
 ! R1    R(1,2)                  1.4866         estimate D2E/DX2                !
 ! R2    R(1,19)                 1.4001         estimate D2E/DX2                !
 ! R3    R(1,20)                 1.2232         estimate D2E/DX2                !
 ! R4    R(2,3)                  1.4146         estimate D2E/DX2                !
 ! R5    R(2,6)                  1.372          estimate D2E/DX2                !
 ! R6    R(3,4)                  1.4123         estimate D2E/DX2                !
 ! R7    R(3,7)                  1.4244         estimate D2E/DX2                !
 ! R8    R(4,5)                  1.4872         estimate D2E/DX2                !
 ! R9    R(4,14)                 1.3874         estimate D2E/DX2                !
 ! R10   R(5,19)                 1.4053         estimate D2E/DX2                !
 ! R11   R(5,21)                 1.2218         estimate D2E/DX2                !
 ! R12   R(6,9)                  1.4301         estimate D2E/DX2                !
 ! R13   R(6,17)                 1.0837         estimate D2E/DX2                !
 ! R14   R(7,8)                  1.4314         estimate D2E/DX2                !
 ! R15   R(7,12)                 1.4199         estimate D2E/DX2                !
 ! R16   R(8,9)                  1.4217         estimate D2E/DX2                !
 ! R17   R(8,10)                 1.4882         estimate D2E/DX2                !
 ! R18   R(9,32)                 1.4624         estimate D2E/DX2                !
 ! R19   R(10,18)                1.4088         estimate D2E/DX2                !
 ! R20   R(10,23)                1.2245         estimate D2E/DX2                !
 ! R21   R(11,12)                1.4786         estimate D2E/DX2                !
 ! R22   R(11,18)                1.3962         estimate D2E/DX2                !
 ! R23   R(11,22)                1.2248         estimate D2E/DX2                !
 ! R24   R(12,13)                1.3888         estimate D2E/DX2                !
 ! R25   R(13,14)                1.4            estimate D2E/DX2                !
 ! R26   R(13,16)                1.0844         estimate D2E/DX2                !
 ! R27   R(14,15)                1.0834         estimate D2E/DX2                !
 ! R28   R(18,24)                1.4672         estimate D2E/DX2                !
 ! R29   R(19,28)                1.4672         estimate D2E/DX2                !
 ! R30   R(24,25)                1.091          estimate D2E/DX2                !
 ! R31   R(24,26)                1.093          estimate D2E/DX2                !
 ! R32   R(24,27)                1.0865         estimate D2E/DX2                !
 ! R33   R(28,29)                1.0921         estimate D2E/DX2                !
 ! R34   R(28,30)                1.0916         estimate D2E/DX2                !
 ! R35   R(28,31)                1.0867         estimate D2E/DX2                !
 ! R36   R(32,33)                1.3811         estimate D2E/DX2                !
 ! R37   R(32,34)                1.7635         estimate D2E/DX2                !
 ! R38   R(33,35)                1.4094         estimate D2E/DX2                !
 ! R39   R(33,36)                1.0779         estimate D2E/DX2                !
 ! R40   R(34,37)                1.749          estimate D2E/DX2                !
 ! R41   R(35,37)                1.3977         estimate D2E/DX2                !
 ! R42   R(35,38)                1.3596         estimate D2E/DX2                !
 ! R43   R(37,39)                1.4354         estimate D2E/DX2                !
 ! R44   R(38,40)                1.4255         estimate D2E/DX2                !
 ! R45   R(39,41)                1.3939         estimate D2E/DX2                !
 ! R46   R(39,42)                1.7609         estimate D2E/DX2                !
 ! R47   R(40,43)                1.0903         estimate D2E/DX2                !
 ! R48   R(40,44)                1.0963         estimate D2E/DX2                !
 ! R49   R(40,45)                1.097          estimate D2E/DX2                !
 ! R50   R(41,46)                1.424          estimate D2E/DX2                !
 ! R51   R(41,47)                1.359          estimate D2E/DX2                !
 ! R52   R(42,48)                1.7268         estimate D2E/DX2                !
 ! R53   R(46,48)                1.3691         estimate D2E/DX2                !
 ! R54   R(46,49)                1.0809         estimate D2E/DX2                !
 ! R55   R(47,50)                1.4234         estimate D2E/DX2                !
 ! R56   R(48,51)                1.0808         estimate D2E/DX2                !
 ! R57   R(50,52)                1.0979         estimate D2E/DX2                !
 ! R58   R(50,53)                1.0891         estimate D2E/DX2                !
 ! R59   R(50,54)                1.0963         estimate D2E/DX2                !
 ! A1    A(2,1,19)             116.767          estimate D2E/DX2                !
 ! A2    A(2,1,20)             122.9113         estimate D2E/DX2                !
 ! A3    A(19,1,20)            120.3217         estimate D2E/DX2                !
 ! A4    A(1,2,3)              120.5473         estimate D2E/DX2                !
 ! A5    A(1,2,6)              119.3369         estimate D2E/DX2                !
 ! A6    A(3,2,6)              120.1056         estimate D2E/DX2                !
 ! A7    A(2,3,4)              120.3743         estimate D2E/DX2                !
 ! A8    A(2,3,7)              118.662          estimate D2E/DX2                !
 ! A9    A(4,3,7)              120.9617         estimate D2E/DX2                !
 ! A10   A(3,4,5)              120.4909         estimate D2E/DX2                !
 ! A11   A(3,4,14)             120.2702         estimate D2E/DX2                !
 ! A12   A(5,4,14)             119.2382         estimate D2E/DX2                !
 ! A13   A(4,5,19)             116.7341         estimate D2E/DX2                !
 ! A14   A(4,5,21)             122.024          estimate D2E/DX2                !
 ! A15   A(19,5,21)            121.2418         estimate D2E/DX2                !
 ! A16   A(2,6,9)              123.2421         estimate D2E/DX2                !
 ! A17   A(2,6,17)             117.1119         estimate D2E/DX2                !
 ! A18   A(9,6,17)             119.589          estimate D2E/DX2                !
 ! A19   A(3,7,8)              120.9519         estimate D2E/DX2                !
 ! A20   A(3,7,12)             117.1037         estimate D2E/DX2                !
 ! A21   A(8,7,12)             121.944          estimate D2E/DX2                !
 ! A22   A(7,8,9)              119.5639         estimate D2E/DX2                !
 ! A23   A(7,8,10)             117.3064         estimate D2E/DX2                !
 ! A24   A(9,8,10)             122.9922         estimate D2E/DX2                !
 ! A25   A(6,9,8)              117.3944         estimate D2E/DX2                !
 ! A26   A(6,9,32)             115.0236         estimate D2E/DX2                !
 ! A27   A(8,9,32)             127.5648         estimate D2E/DX2                !
 ! A28   A(8,10,18)            118.042          estimate D2E/DX2                !
 ! A29   A(8,10,23)            124.5436         estimate D2E/DX2                !
 ! A30   A(18,10,23)           117.4097         estimate D2E/DX2                !
 ! A31   A(12,11,18)           115.5202         estimate D2E/DX2                !
 ! A32   A(12,11,22)           122.7205         estimate D2E/DX2                !
 ! A33   A(18,11,22)           121.7534         estimate D2E/DX2                !
 ! A34   A(7,12,11)            120.8614         estimate D2E/DX2                !
 ! A35   A(7,12,13)            121.162          estimate D2E/DX2                !
 ! A36   A(11,12,13)           117.9699         estimate D2E/DX2                !
 ! A37   A(12,13,14)           120.9948         estimate D2E/DX2                !
 ! A38   A(12,13,16)           117.8401         estimate D2E/DX2                !
 ! A39   A(14,13,16)           121.1642         estimate D2E/DX2                !
 ! A40   A(4,14,13)            119.5003         estimate D2E/DX2                !
 ! A41   A(4,14,15)            118.9169         estimate D2E/DX2                !
 ! A42   A(13,14,15)           121.5811         estimate D2E/DX2                !
 ! A43   A(10,18,11)           126.0753         estimate D2E/DX2                !
 ! A44   A(10,18,24)           115.7508         estimate D2E/DX2                !
 ! A45   A(11,18,24)           118.1737         estimate D2E/DX2                !
 ! A46   A(1,19,5)             125.0856         estimate D2E/DX2                !
 ! A47   A(1,19,28)            116.2868         estimate D2E/DX2                !
 ! A48   A(5,19,28)            118.6276         estimate D2E/DX2                !
 ! A49   A(18,24,25)           109.8574         estimate D2E/DX2                !
 ! A50   A(18,24,26)           109.8979         estimate D2E/DX2                !
 ! A51   A(18,24,27)           107.5355         estimate D2E/DX2                !
 ! A52   A(25,24,26)           108.1108         estimate D2E/DX2                !
 ! A53   A(25,24,27)           110.8301         estimate D2E/DX2                !
 ! A54   A(26,24,27)           110.6124         estimate D2E/DX2                !
 ! A55   A(19,28,29)           109.6906         estimate D2E/DX2                !
 ! A56   A(19,28,30)           109.8136         estimate D2E/DX2                !
 ! A57   A(19,28,31)           107.7461         estimate D2E/DX2                !
 ! A58   A(29,28,30)           108.2991         estimate D2E/DX2                !
 ! A59   A(29,28,31)           110.6959         estimate D2E/DX2                !
 ! A60   A(30,28,31)           110.5924         estimate D2E/DX2                !
 ! A61   A(9,32,33)            130.8689         estimate D2E/DX2                !
 ! A62   A(9,32,34)            118.7972         estimate D2E/DX2                !
 ! A63   A(33,32,34)           110.0747         estimate D2E/DX2                !
 ! A64   A(32,33,35)           113.5473         estimate D2E/DX2                !
 ! A65   A(32,33,36)           122.8053         estimate D2E/DX2                !
 ! A66   A(35,33,36)           123.6445         estimate D2E/DX2                !
 ! A67   A(32,34,37)            92.5921         estimate D2E/DX2                !
 ! A68   A(33,35,37)           114.4312         estimate D2E/DX2                !
 ! A69   A(33,35,38)           126.5043         estimate D2E/DX2                !
 ! A70   A(37,35,38)           119.0645         estimate D2E/DX2                !
 ! A71   A(34,37,35)           109.3486         estimate D2E/DX2                !
 ! A72   A(34,37,39)           122.9401         estimate D2E/DX2                !
 ! A73   A(35,37,39)           127.6961         estimate D2E/DX2                !
 ! A74   A(35,38,40)           117.476          estimate D2E/DX2                !
 ! A75   A(37,39,41)           127.6003         estimate D2E/DX2                !
 ! A76   A(37,39,42)           123.0607         estimate D2E/DX2                !
 ! A77   A(41,39,42)           109.339          estimate D2E/DX2                !
 ! A78   A(38,40,43)           105.9544         estimate D2E/DX2                !
 ! A79   A(38,40,44)           111.2115         estimate D2E/DX2                !
 ! A80   A(38,40,45)           111.2075         estimate D2E/DX2                !
 ! A81   A(43,40,44)           109.3433         estimate D2E/DX2                !
 ! A82   A(43,40,45)           109.675          estimate D2E/DX2                !
 ! A83   A(44,40,45)           109.3813         estimate D2E/DX2                !
 ! A84   A(39,41,46)           114.1666         estimate D2E/DX2                !
 ! A85   A(39,41,47)           119.262          estimate D2E/DX2                !
 ! A86   A(46,41,47)           126.5708         estimate D2E/DX2                !
 ! A87   A(39,42,48)            91.8354         estimate D2E/DX2                !
 ! A88   A(41,46,48)           111.9115         estimate D2E/DX2                !
 ! A89   A(41,46,49)           124.4657         estimate D2E/DX2                !
 ! A90   A(48,46,49)           123.6228         estimate D2E/DX2                !
 ! A91   A(41,47,50)           117.9597         estimate D2E/DX2                !
 ! A92   A(42,48,46)           112.7475         estimate D2E/DX2                !
 ! A93   A(42,48,51)           119.7926         estimate D2E/DX2                !
 ! A94   A(46,48,51)           127.4597         estimate D2E/DX2                !
 ! A95   A(47,50,52)           111.2536         estimate D2E/DX2                !
 ! A96   A(47,50,53)           106.0159         estimate D2E/DX2                !
 ! A97   A(47,50,54)           111.2524         estimate D2E/DX2                !
 ! A98   A(52,50,53)           109.3689         estimate D2E/DX2                !
 ! A99   A(52,50,54)           109.3856         estimate D2E/DX2                !
 ! A100  A(53,50,54)           109.4932         estimate D2E/DX2                !
 ! D1    D(19,1,2,3)             0.1578         estimate D2E/DX2                !
 ! D2    D(19,1,2,6)          -178.6792         estimate D2E/DX2                !
 ! D3    D(20,1,2,3)          -179.8231         estimate D2E/DX2                !
 ! D4    D(20,1,2,6)             1.3399         estimate D2E/DX2                !
 ! D5    D(2,1,19,5)            -0.124          estimate D2E/DX2                !
 ! D6    D(2,1,19,28)          179.8267         estimate D2E/DX2                !
 ! D7    D(20,1,19,5)          179.8575         estimate D2E/DX2                !
 ! D8    D(20,1,19,28)          -0.1919         estimate D2E/DX2                !
 ! D9    D(1,2,3,4)              0.0571         estimate D2E/DX2                !
 ! D10   D(1,2,3,7)            179.5453         estimate D2E/DX2                !
 ! D11   D(6,2,3,4)            178.8851         estimate D2E/DX2                !
 ! D12   D(6,2,3,7)             -1.6266         estimate D2E/DX2                !
 ! D13   D(1,2,6,9)            178.625          estimate D2E/DX2                !
 ! D14   D(1,2,6,17)             1.3881         estimate D2E/DX2                !
 ! D15   D(3,2,6,9)             -0.2173         estimate D2E/DX2                !
 ! D16   D(3,2,6,17)          -177.4541         estimate D2E/DX2                !
 ! D17   D(2,3,4,5)             -0.3074         estimate D2E/DX2                !
 ! D18   D(2,3,4,14)           179.3968         estimate D2E/DX2                !
 ! D19   D(7,3,4,5)           -179.7837         estimate D2E/DX2                !
 ! D20   D(7,3,4,14)            -0.0795         estimate D2E/DX2                !
 ! D21   D(2,3,7,8)              1.0523         estimate D2E/DX2                !
 ! D22   D(2,3,7,12)          -178.712          estimate D2E/DX2                !
 ! D23   D(4,3,7,8)           -179.4626         estimate D2E/DX2                !
 ! D24   D(4,3,7,12)             0.7731         estimate D2E/DX2                !
 ! D25   D(3,4,5,19)             0.3343         estimate D2E/DX2                !
 ! D26   D(3,4,5,21)          -179.7799         estimate D2E/DX2                !
 ! D27   D(14,4,5,19)         -179.3729         estimate D2E/DX2                !
 ! D28   D(14,4,5,21)            0.5129         estimate D2E/DX2                !
 ! D29   D(3,4,14,13)           -0.4559         estimate D2E/DX2                !
 ! D30   D(3,4,14,15)         -179.9937         estimate D2E/DX2                !
 ! D31   D(5,4,14,13)          179.252          estimate D2E/DX2                !
 ! D32   D(5,4,14,15)           -0.2858         estimate D2E/DX2                !
 ! D33   D(4,5,19,1)            -0.1141         estimate D2E/DX2                !
 ! D34   D(4,5,19,28)          179.9364         estimate D2E/DX2                !
 ! D35   D(21,5,19,1)          179.9992         estimate D2E/DX2                !
 ! D36   D(21,5,19,28)           0.0496         estimate D2E/DX2                !
 ! D37   D(2,6,9,8)              2.5984         estimate D2E/DX2                !
 ! D38   D(2,6,9,32)          -176.0103         estimate D2E/DX2                !
 ! D39   D(17,6,9,8)           179.77           estimate D2E/DX2                !
 ! D40   D(17,6,9,32)            1.1613         estimate D2E/DX2                !
 ! D41   D(3,7,8,9)              1.3551         estimate D2E/DX2                !
 ! D42   D(3,7,8,10)          -174.5099         estimate D2E/DX2                !
 ! D43   D(12,7,8,9)          -178.8921         estimate D2E/DX2                !
 ! D44   D(12,7,8,10)            5.2428         estimate D2E/DX2                !
 ! D45   D(3,7,12,11)          178.0768         estimate D2E/DX2                !
 ! D46   D(3,7,12,13)           -0.9621         estimate D2E/DX2                !
 ! D47   D(8,7,12,11)           -1.685          estimate D2E/DX2                !
 ! D48   D(8,7,12,13)          179.2761         estimate D2E/DX2                !
 ! D49   D(7,8,9,6)             -3.0809         estimate D2E/DX2                !
 ! D50   D(7,8,9,32)           175.3285         estimate D2E/DX2                !
 ! D51   D(10,8,9,6)           172.5381         estimate D2E/DX2                !
 ! D52   D(10,8,9,32)           -9.0525         estimate D2E/DX2                !
 ! D53   D(7,8,10,18)           -4.7549         estimate D2E/DX2                !
 ! D54   D(7,8,10,23)          174.4235         estimate D2E/DX2                !
 ! D55   D(9,8,10,18)          179.5335         estimate D2E/DX2                !
 ! D56   D(9,8,10,23)           -1.2882         estimate D2E/DX2                !
 ! D57   D(6,9,32,33)          168.4132         estimate D2E/DX2                !
 ! D58   D(6,9,32,34)           -5.0979         estimate D2E/DX2                !
 ! D59   D(8,9,32,33)          -10.0283         Frozen                          !
 ! D60   D(8,9,32,34)          176.4606         estimate D2E/DX2                !
 ! D61   D(8,10,18,11)           0.7189         estimate D2E/DX2                !
 ! D62   D(8,10,18,24)        -179.4089         estimate D2E/DX2                !
 ! D63   D(23,10,18,11)       -178.5188         estimate D2E/DX2                !
 ! D64   D(23,10,18,24)          1.3535         estimate D2E/DX2                !
 ! D65   D(18,11,12,7)          -2.3856         estimate D2E/DX2                !
 ! D66   D(18,11,12,13)        176.6833         estimate D2E/DX2                !
 ! D67   D(22,11,12,7)         178.4862         estimate D2E/DX2                !
 ! D68   D(22,11,12,13)         -2.445          estimate D2E/DX2                !
 ! D69   D(12,11,18,10)          2.8444         estimate D2E/DX2                !
 ! D70   D(12,11,18,24)       -177.0251         estimate D2E/DX2                !
 ! D71   D(22,11,18,10)       -178.0181         estimate D2E/DX2                !
 ! D72   D(22,11,18,24)          2.1124         estimate D2E/DX2                !
 ! D73   D(7,12,13,14)           0.461          estimate D2E/DX2                !
 ! D74   D(7,12,13,16)        -179.8781         estimate D2E/DX2                !
 ! D75   D(11,12,13,14)       -178.6049         estimate D2E/DX2                !
 ! D76   D(11,12,13,16)          1.056          estimate D2E/DX2                !
 ! D77   D(12,13,14,4)           0.2708         estimate D2E/DX2                !
 ! D78   D(12,13,14,15)        179.7958         estimate D2E/DX2                !
 ! D79   D(16,13,14,4)        -179.3788         estimate D2E/DX2                !
 ! D80   D(16,13,14,15)          0.1463         estimate D2E/DX2                !
 ! D81   D(10,18,24,25)        -59.609          estimate D2E/DX2                !
 ! D82   D(10,18,24,26)         59.2209         estimate D2E/DX2                !
 ! D83   D(10,18,24,27)        179.6858         estimate D2E/DX2                !
 ! D84   D(11,18,24,25)        120.2739         estimate D2E/DX2                !
 ! D85   D(11,18,24,26)       -120.8962         estimate D2E/DX2                !
 ! D86   D(11,18,24,27)         -0.4313         estimate D2E/DX2                !
 ! D87   D(1,19,28,29)         -58.1407         estimate D2E/DX2                !
 ! D88   D(1,19,28,30)          60.7668         estimate D2E/DX2                !
 ! D89   D(1,19,28,31)        -178.7139         estimate D2E/DX2                !
 ! D90   D(5,19,28,29)         121.8132         estimate D2E/DX2                !
 ! D91   D(5,19,28,30)        -119.2792         estimate D2E/DX2                !
 ! D92   D(5,19,28,31)           1.2401         estimate D2E/DX2                !
 ! D93   D(9,32,33,35)        -174.2232         estimate D2E/DX2                !
 ! D94   D(9,32,33,36)           6.3684         estimate D2E/DX2                !
 ! D95   D(34,32,33,35)         -0.2758         estimate D2E/DX2                !
 ! D96   D(34,32,33,36)       -179.6842         estimate D2E/DX2                !
 ! D97   D(9,32,34,37)         175.363          estimate D2E/DX2                !
 ! D98   D(33,32,34,37)          0.5834         estimate D2E/DX2                !
 ! D99   D(32,33,35,37)         -0.296          estimate D2E/DX2                !
 ! D100  D(32,33,35,38)        179.7771         estimate D2E/DX2                !
 ! D101  D(36,33,35,37)        179.1067         estimate D2E/DX2                !
 ! D102  D(36,33,35,38)         -0.8202         estimate D2E/DX2                !
 ! D103  D(32,34,37,35)         -0.7338         estimate D2E/DX2                !
 ! D104  D(32,34,37,39)        177.9462         estimate D2E/DX2                !
 ! D105  D(33,35,37,34)          0.7221         estimate D2E/DX2                !
 ! D106  D(33,35,37,39)       -177.8779         estimate D2E/DX2                !
 ! D107  D(38,35,37,34)       -179.3451         estimate D2E/DX2                !
 ! D108  D(38,35,37,39)          2.0549         estimate D2E/DX2                !
 ! D109  D(33,35,38,40)          6.5051         estimate D2E/DX2                !
 ! D110  D(37,35,38,40)       -173.4187         estimate D2E/DX2                !
 ! D111  D(34,37,39,41)          2.8447         estimate D2E/DX2                !
 ! D112  D(34,37,39,42)       -177.1627         estimate D2E/DX2                !
 ! D113  D(35,37,39,41)       -178.7293         estimate D2E/DX2                !
 ! D114  D(35,37,39,42)          1.2633         estimate D2E/DX2                !
 ! D115  D(35,38,40,43)        175.4745         estimate D2E/DX2                !
 ! D116  D(35,38,40,44)        -65.8083         estimate D2E/DX2                !
 ! D117  D(35,38,40,45)         56.361          estimate D2E/DX2                !
 ! D118  D(37,39,41,46)       -179.9419         estimate D2E/DX2                !
 ! D119  D(37,39,41,47)         -0.1959         estimate D2E/DX2                !
 ! D120  D(42,39,41,46)          0.0647         estimate D2E/DX2                !
 ! D121  D(42,39,41,47)        179.8106         estimate D2E/DX2                !
 ! D122  D(37,39,42,48)        179.9818         estimate D2E/DX2                !
 ! D123  D(41,39,42,48)         -0.0244         estimate D2E/DX2                !
 ! D124  D(39,41,46,48)         -0.0832         estimate D2E/DX2                !
 ! D125  D(39,41,46,49)       -179.9808         estimate D2E/DX2                !
 ! D126  D(47,41,46,48)       -179.8072         estimate D2E/DX2                !
 ! D127  D(47,41,46,49)          0.2951         estimate D2E/DX2                !
 ! D128  D(39,41,47,50)        178.4132         estimate D2E/DX2                !
 ! D129  D(46,41,47,50)         -1.8755         estimate D2E/DX2                !
 ! D130  D(39,42,48,46)         -0.0221         estimate D2E/DX2                !
 ! D131  D(39,42,48,51)        179.8167         estimate D2E/DX2                !
 ! D132  D(41,46,48,42)          0.0623         estimate D2E/DX2                !
 ! D133  D(41,46,48,51)       -179.7615         estimate D2E/DX2                !
 ! D134  D(49,46,48,42)        179.9609         estimate D2E/DX2                !
 ! D135  D(49,46,48,51)          0.1371         estimate D2E/DX2                !
 ! D136  D(41,47,50,52)         62.0103         estimate D2E/DX2                !
 ! D137  D(41,47,50,53)       -179.1821         estimate D2E/DX2                !
 ! D138  D(41,47,50,54)        -60.2258         estimate D2E/DX2                !
 --------------------------------------------------------------------------------
 Trust Radius=3.00D-01 FncErr=1.00D-07 GrdErr=1.00D-06 EigMax=2.50D+02 EigMin=1.00D-04
 Number of steps in this run=    307 maximum allowed number of steps=    324.
 GradGradGradGradGradGradGradGradGradGradGradGradGradGradGradGradGradGrad

 Stoichiometry    C26H18N2O6S2
 Framework group  C1[X(C26H18N2O6S2)]
 Deg. of freedom   156
 Full point group                 C1      NOp   1
 Largest Abelian subgroup         C1      NOp   1
 Largest concise Abelian subgroup C1      NOp   1
                         Standard orientation:                         
 ---------------------------------------------------------------------
 Center     Atomic      Atomic             Coordinates (Angstroms)
 Number     Number       Type             X           Y           Z
 ---------------------------------------------------------------------
      1          6           0       -2.483273   -3.037997   -0.007024
      2          6           0       -2.213712   -1.576302    0.022904
      3          6           0       -3.279049   -0.647454   -0.034108
      4          6           0       -4.615083   -1.097451   -0.119143
      5          6           0       -4.920321   -2.552553   -0.156796
      6          6           0       -0.916665   -1.133048    0.082375
      7          6           0       -2.975566    0.743581    0.007198
      8          6           0       -1.620814    1.199624    0.081886
      9          6           0       -0.560963    0.252093    0.086163
     10          6           0       -1.400920    2.662200    0.247173
     11          6           0       -3.853956    3.106236    0.057717
     12          6           0       -4.071387    1.645982   -0.023770
     13          6           0       -5.378891    1.186006   -0.111348
     14          6           0       -5.659033   -0.184728   -0.162351
     15          1           0       -6.675491   -0.554086   -0.227437
     16          1           0       -6.174458    1.922559   -0.133192
     17          1           0       -0.137017   -1.885716    0.081661
     18          7           0       -2.526532    3.508795    0.216586
     19          7           0       -3.824364   -3.430169   -0.096508
     20          8           0       -1.596096   -3.878577    0.043017
     21          8           0       -6.065040   -2.972634   -0.234106
     22          8           0       -4.771442    3.916061    0.006973
     23          8           0       -0.307451    3.184408    0.423076
     24          6           0       -2.250885    4.941586    0.370810
     25          1           0       -1.756608    5.123142    1.326367
     26          1           0       -1.584062    5.280043   -0.426367
     27          1           0       -3.201777    5.464992    0.322085
     28          6           0       -4.078061   -4.874853   -0.129258
     29          1           0       -3.553041   -5.321530   -0.976257
     30          1           0       -3.705732   -5.336771    0.787028
     31          1           0       -5.150902   -5.020723   -0.222183
     32          6           0        0.876184    0.521772    0.061934
     33          6           0        1.571918    1.695508   -0.151861
     34         16           0        1.997107   -0.835449    0.168749
     35          6           0        2.968260    1.517477   -0.222655
     36          1           0        1.086550    2.653521   -0.244505
     37          6           0        3.391575    0.195598   -0.058168
     38          8           0        3.897984    2.488035   -0.428104
     39          6           0        4.739171   -0.298233   -0.036657
     40          6           0        3.444669    3.839423   -0.448029
     41          6           0        5.158378   -1.620183    0.103251
     42         16           0        6.147837    0.746848   -0.192388
     43          1           0        4.340084    4.454556   -0.541014
     44          1           0        2.786437    4.024401   -1.304984
     45          1           0        2.916053    4.094357    0.478731
     46          6           0        6.572295   -1.788175    0.087223
     47          8           0        4.227967   -2.600857    0.243177
     48          6           0        7.226791   -0.595527   -0.066517
     49          1           0        7.076355   -2.739537    0.182582
     50          6           0        4.685428   -3.944551    0.349414
     51          1           0        8.294207   -0.433001   -0.115539
     52          1           0        5.311785   -4.082445    1.240487
     53          1           0        3.791409   -4.560264    0.437529
     54          1           0        5.249470   -4.243957   -0.541762
 ---------------------------------------------------------------------
 Rotational constants (GHZ):           0.1525792           0.0606295           0.0435954
 Standard basis: 6-311+G(d,p) (5D, 7F)
 There are   952 symmetry adapted cartesian basis functions of A   symmetry.
 There are   916 symmetry adapted basis functions of A   symmetry.
   916 basis functions,  1468 primitive gaussians,   952 cartesian basis functions
   134 alpha electrons      134 beta electrons
       nuclear repulsion energy      4091.5384104988 Hartrees.
 NAtoms=   54 NActive=   54 NUniq=   54 SFac= 1.00D+00 NAtFMM=   60 NAOKFM=F Big=F
 Integral buffers will be    131072 words long.
 Raffenetti 2 integral format.
 Two-electron integral symmetry is turned on.
 One-electron integrals computed using PRISM.
 NBasis=   916 RedAO= T EigKep=  1.18D-06  NBF=   916
 NBsUse=   901 1.00D-06 EigRej=  7.40D-07 NBFU=   901
 ExpMin= 4.05D-02 ExpMax= 9.34D+04 ExpMxC= 3.17D+03 IAcc=3 IRadAn=         5 AccDes= 0.00D+00
 Harris functional with IExCor=  402 and IRadAn=       5 diagonalized for initial guess.
 HarFok:  IExCor=  402 AccDes= 0.00D+00 IRadAn=         5 IDoV= 1 UseB2=F ITyADJ=14
 ICtDFT=  3500011 ScaDFX=  1.000000  1.000000  1.000000  1.000000
 FoFCou: FMM=F IPFlag=           0 FMFlag=      100000 FMFlg1=           0
         NFxFlg=           0 DoJE=T BraDBF=F KetDBF=T FulRan=T
         wScrn=  0.000000 ICntrl=       500 IOpCl=  0 I1Cent=   200000004 NGrid=           0
         NMat0=    1 NMatS0=      1 NMatT0=    0 NMatD0=    1 NMtDS0=    0 NMtDT0=    0
 Petite list used in FoFCou.
 Requested convergence on RMS density matrix=1.00D-08 within 128 cycles.
 Requested convergence on MAX density matrix=1.00D-06.
 Requested convergence on             energy=1.00D-06.
 No special actions if energy rises.
 SCF Done:  E(RB3LYP) =  -2359.32678231     A.U. after   17 cycles
            NFock= 17  Conv=0.57D-08     -V/T= 2.0031

 **********************************************************************

            Population analysis using the SCF Density.

 **********************************************************************

 Orbital symmetries:
       Occupied  (A) (A) (A) (A) (A) (A) (A) (A) (A) (A) (A) (A)
                 (A) (A) (A) (A) (A) (A) (A) (A) (A) (A) (A) (A)
                 (A) (A) (A) (A) (A) (A) (A) (A) (A) (A) (A) (A)
                 (A) (A) (A) (A) (A) (A) (A) (A) (A) (A) (A) (A)
                 (A) (A) (A) (A) (A) (A) (A) (A) (A) (A) (A) (A)
                 (A) (A) (A) (A) (A) (A) (A) (A) (A) (A) (A) (A)
                 (A) (A) (A) (A) (A) (A) (A) (A) (A) (A) (A) (A)
                 (A) (A) (A) (A) (A) (A) (A) (A) (A) (A) (A) (A)
                 (A) (A) (A) (A) (A) (A) (A) (A) (A) (A) (A) (A)
                 (A) (A) (A) (A) (A) (A) (A) (A) (A) (A) (A) (A)
                 (A) (A) (A) (A) (A) (A) (A) (A) (A) (A) (A) (A)
                 (A) (A)
       Virtual   (A) (A) (A) (A) (A) (A) (A) (A) (A) (A) (A) (A)
                 (A) (A) (A) (A) (A) (A) (A) (A) (A) (A) (A) (A)
                 (A) (A) (A) (A) (A) (A) (A) (A) (A) (A) (A) (A)
                 (A) (A) (A) (A) (A) (A) (A) (A) (A) (A) (A) (A)
                 (A) (A) (A) (A) (A) (A) (A) (A) (A) (A) (A) (A)
                 (A) (A) (A) (A) (A) (A) (A) (A) (A) (A) (A) (A)
                 (A) (A) (A) (A) (A) (A) (A) (A) (A) (A) (A) (A)
                 (A) (A) (A) (A) (A) (A) (A) (A) (A) (A) (A) (A)
                 (A) (A) (A) (A) (A) (A) (A) (A) (A) (A) (A) (A)
                 (A) (A) (A) (A) (A) (A) (A) (A) (A) (A) (A) (A)
                 (A) (A) (A) (A) (A) (A) (A) (A) (A) (A) (A) (A)
                 (A) (A) (A) (A) (A) (A) (A) (A) (A) (A) (A) (A)
                 (A) (A) (A) (A) (A) (A) (A) (A) (A) (A) (A) (A)
                 (A) (A) (A) (A) (A) (A) (A) (A) (A) (A) (A) (A)
                 (A) (A) (A) (A) (A) (A) (A) (A) (A) (A) (A) (A)
                 (A) (A) (A) (A) (A) (A) (A) (A) (A) (A) (A) (A)
                 (A) (A) (A) (A) (A) (A) (A) (A) (A) (A) (A) (A)
                 (A) (A) (A) (A) (A) (A) (A) (A) (A) (A) (A) (A)
                 (A) (A) (A) (A) (A) (A) (A) (A) (A) (A) (A) (A)
                 (A) (A) (A) (A) (A) (A) (A) (A) (A) (A) (A) (A)
                 (A) (A) (A) (A) (A) (A) (A) (A) (A) (A) (A) (A)
                 (A) (A) (A) (A) (A) (A) (A) (A) (A) (A) (A) (A)
                 (A) (A) (A) (A) (A) (A) (A) (A) (A) (A) (A) (A)
                 (A) (A) (A) (A) (A) (A) (A) (A) (A) (A) (A) (A)
                 (A) (A) (A) (A) (A) (A) (A) (A) (A) (A) (A) (A)
                 (A) (A) (A) (A) (A) (A) (A) (A) (A) (A) (A) (A)
                 (A) (A) (A) (A) (A) (A) (A) (A) (A) (A) (A) (A)
                 (A) (A) (A) (A) (A) (A) (A) (A) (A) (A) (A) (A)
                 (A) (A) (A) (A) (A) (A) (A) (A) (A) (A) (A) (A)
                 (A) (A) (A) (A) (A) (A) (A) (A) (A) (A) (A) (A)
                 (A) (A) (A) (A) (A) (A) (A) (A) (A) (A) (A) (A)
                 (A) (A) (A) (A) (A) (A) (A) (A) (A) (A) (A) (A)
                 (A) (A) (A) (A) (A) (A) (A) (A) (A) (A) (A) (A)
                 (A) (A) (A) (A) (A) (A) (A) (A) (A) (A) (A) (A)
                 (A) (A) (A) (A) (A) (A) (A) (A) (A) (A) (A) (A)
                 (A) (A) (A) (A) (A) (A) (A) (A) (A) (A) (A) (A)
                 (A) (A) (A) (A) (A) (A) (A) (A) (A) (A) (A) (A)
                 (A) (A) (A) (A) (A) (A) (A) (A) (A) (A) (A) (A)
                 (A) (A) (A) (A) (A) (A) (A) (A) (A) (A) (A) (A)
                 (A) (A) (A) (A) (A) (A) (A) (A) (A) (A) (A) (A)
                 (A) (A) (A) (A) (A) (A) (A) (A) (A) (A) (A) (A)
                 (A) (A) (A) (A) (A) (A) (A) (A) (A) (A) (A) (A)
                 (A) (A) (A) (A) (A) (A) (A) (A) (A) (A) (A) (A)
                 (A) (A) (A) (A) (A) (A) (A) (A) (A) (A) (A) (A)
                 (A) (A) (A) (A) (A) (A) (A) (A) (A) (A) (A) (A)
                 (A) (A) (A) (A) (A) (A) (A) (A) (A) (A) (A) (A)
                 (A) (A) (A) (A) (A) (A) (A) (A) (A) (A) (A) (A)
                 (A) (A) (A) (A) (A) (A) (A) (A) (A) (A) (A) (A)
                 (A) (A) (A) (A) (A) (A) (A) (A) (A) (A) (A) (A)
                 (A) (A) (A) (A) (A) (A) (A) (A) (A) (A) (A) (A)
                 (A) (A) (A) (A) (A) (A) (A) (A) (A) (A) (A) (A)
                 (A) (A) (A) (A) (A) (A) (A) (A) (A) (A) (A) (A)
                 (A) (A) (A) (A) (A) (A) (A) (A) (A) (A) (A) (A)
                 (A) (A) (A) (A) (A) (A) (A) (A) (A) (A) (A) (A)
                 (A) (A) (A) (A) (A) (A) (A) (A) (A) (A) (A) (A)
                 (A) (A) (A) (A) (A) (A) (A) (A) (A) (A) (A) (A)
                 (A) (A) (A) (A) (A) (A) (A) (A) (A) (A) (A) (A)
                 (A) (A) (A) (A) (A) (A) (A) (A) (A) (A) (A) (A)
                 (A) (A) (A) (A) (A) (A) (A) (A) (A) (A) (A) (A)
                 (A) (A) (A) (A) (A) (A) (A) (A) (A) (A) (A) (A)
                 (A) (A) (A) (A) (A) (A) (A) (A) (A) (A) (A) (A)
                 (A) (A) (A) (A) (A) (A) (A) (A) (A) (A) (A) (A)
                 (A) (A) (A) (A) (A) (A) (A) (A) (A) (A) (A) (A)
                 (A) (A) (A) (A) (A) (A) (A) (A) (A) (A) (A)
 The electronic state is 1-A.
 Alpha  occ. eigenvalues --  -88.88823 -88.88447 -19.17608 -19.16941 -19.12239
 Alpha  occ. eigenvalues --  -19.12229 -19.11904 -19.11488 -14.38494 -14.38191
 Alpha  occ. eigenvalues --  -10.30949 -10.30875 -10.30773 -10.30146 -10.25395
 Alpha  occ. eigenvalues --  -10.24514 -10.24126 -10.23951 -10.23409 -10.22889
 Alpha  occ. eigenvalues --  -10.22739 -10.22360 -10.22250 -10.22239 -10.22196
 Alpha  occ. eigenvalues --  -10.22107 -10.21980 -10.21629 -10.21573 -10.21419
 Alpha  occ. eigenvalues --  -10.20890 -10.20757 -10.20743 -10.20625 -10.19446
 Alpha  occ. eigenvalues --  -10.17646  -7.97364  -7.97030  -5.93675  -5.93353
 Alpha  occ. eigenvalues --   -5.93285  -5.92957  -5.92932  -5.92564  -1.09119
 Alpha  occ. eigenvalues --   -1.08461  -1.08366  -1.08247  -1.06365  -1.06129
 Alpha  occ. eigenvalues --   -0.96037  -0.95707  -0.92106  -0.90506  -0.88944
 Alpha  occ. eigenvalues --   -0.86380  -0.83952  -0.80407  -0.78213  -0.77811
 Alpha  occ. eigenvalues --   -0.76554  -0.75363  -0.75017  -0.73441  -0.72297
 Alpha  occ. eigenvalues --   -0.71690  -0.70544  -0.68811  -0.67156  -0.65639
 Alpha  occ. eigenvalues --   -0.65546  -0.64589  -0.61240  -0.59924  -0.58529
 Alpha  occ. eigenvalues --   -0.57272  -0.56887  -0.56582  -0.55515  -0.54912
 Alpha  occ. eigenvalues --   -0.53266  -0.51488  -0.51218  -0.49917  -0.49557
 Alpha  occ. eigenvalues --   -0.49434  -0.48987  -0.48573  -0.48497  -0.48284
 Alpha  occ. eigenvalues --   -0.48253  -0.47471  -0.46311  -0.46145  -0.45843
 Alpha  occ. eigenvalues --   -0.45698  -0.44931  -0.44247  -0.44070  -0.43011
 Alpha  occ. eigenvalues --   -0.42856  -0.42634  -0.42407  -0.41835  -0.41732
 Alpha  occ. eigenvalues --   -0.41567  -0.41091  -0.41026  -0.40433  -0.39883
 Alpha  occ. eigenvalues --   -0.39404  -0.39065  -0.38621  -0.37615  -0.37267
 Alpha  occ. eigenvalues --   -0.36489  -0.36260  -0.34555  -0.34262  -0.33526
 Alpha  occ. eigenvalues --   -0.33430  -0.31933  -0.30747  -0.30481  -0.29641
 Alpha  occ. eigenvalues --   -0.29197  -0.28822  -0.28543  -0.27729  -0.27221
 Alpha  occ. eigenvalues --   -0.26129  -0.24983  -0.24695  -0.19738
 Alpha virt. eigenvalues --   -0.12856  -0.07875  -0.06500  -0.04543  -0.03426
 Alpha virt. eigenvalues --   -0.00807  -0.00464  -0.00282  -0.00055   0.00416
 Alpha virt. eigenvalues --    0.00892   0.01046   0.01365   0.01783   0.01936
 Alpha virt. eigenvalues --    0.01979   0.02208   0.02535   0.02882   0.03333
 Alpha virt. eigenvalues --    0.03692   0.03715   0.03846   0.04224   0.04274
 Alpha virt. eigenvalues --    0.04753   0.05004   0.05185   0.05604   0.05815
 Alpha virt. eigenvalues --    0.06216   0.06350   0.06494   0.06876   0.07025
 Alpha virt. eigenvalues --    0.07242   0.07660   0.07824   0.07930   0.08347
 Alpha virt. eigenvalues --    0.08426   0.08576   0.08641   0.09205   0.09520
 Alpha virt. eigenvalues --    0.09767   0.10014   0.10346   0.10580   0.10879
 Alpha virt. eigenvalues --    0.11005   0.11346   0.11528   0.12085   0.12203
 Alpha virt. eigenvalues --    0.12467   0.12732   0.13021   0.13180   0.13409
 Alpha virt. eigenvalues --    0.13531   0.13672   0.13794   0.14312   0.14436
 Alpha virt. eigenvalues --    0.14653   0.15069   0.15337   0.15367   0.15450
 Alpha virt. eigenvalues --    0.15730   0.15787   0.15960   0.16209   0.16374
 Alpha virt. eigenvalues --    0.16726   0.16979   0.17294   0.17611   0.17873
 Alpha virt. eigenvalues --    0.17958   0.18111   0.18331   0.18573   0.18635
 Alpha virt. eigenvalues --    0.18836   0.19166   0.19298   0.19447   0.19724
 Alpha virt. eigenvalues --    0.19946   0.20170   0.20274   0.20310   0.20472
 Alpha virt. eigenvalues --    0.20657   0.20833   0.21043   0.21511   0.21703
 Alpha virt. eigenvalues --    0.21930   0.22098   0.22337   0.22598   0.22799
 Alpha virt. eigenvalues --    0.22920   0.23050   0.23283   0.23394   0.23492
 Alpha virt. eigenvalues --    0.23793   0.23998   0.24366   0.24513   0.24715
 Alpha virt. eigenvalues --    0.24941   0.24981   0.25166   0.25321   0.25468
 Alpha virt. eigenvalues --    0.25722   0.25861   0.26069   0.26212   0.26564
 Alpha virt. eigenvalues --    0.26606   0.26781   0.27039   0.27259   0.27325
 Alpha virt. eigenvalues --    0.27583   0.27899   0.28164   0.28417   0.28538
 Alpha virt. eigenvalues --    0.28667   0.28950   0.29130   0.29218   0.29471
 Alpha virt. eigenvalues --    0.29687   0.30178   0.30467   0.30799   0.31018
 Alpha virt. eigenvalues --    0.31586   0.31709   0.31863   0.32454   0.32623
 Alpha virt. eigenvalues --    0.32719   0.32770   0.33040   0.33491   0.33733
 Alpha virt. eigenvalues --    0.33976   0.34399   0.34780   0.34831   0.35059
 Alpha virt. eigenvalues --    0.35175   0.35567   0.35650   0.36289   0.36542
 Alpha virt. eigenvalues --    0.37167   0.37292   0.37433   0.37627   0.38236
 Alpha virt. eigenvalues --    0.38617   0.38740   0.39269   0.39857   0.40238
 Alpha virt. eigenvalues --    0.40616   0.40992   0.41289   0.41665   0.42300
 Alpha virt. eigenvalues --    0.42837   0.42870   0.43238   0.43724   0.43886
 Alpha virt. eigenvalues --    0.44033   0.44399   0.44705   0.45403   0.45794
 Alpha virt. eigenvalues --    0.45979   0.46490   0.46675   0.46866   0.47311
 Alpha virt. eigenvalues --    0.47900   0.48127   0.49079   0.49299   0.49725
 Alpha virt. eigenvalues --    0.50243   0.50373   0.51011   0.51075   0.51594
 Alpha virt. eigenvalues --    0.52153   0.52557   0.53498   0.53616   0.54058
 Alpha virt. eigenvalues --    0.54900   0.54945   0.55149   0.55503   0.55856
 Alpha virt. eigenvalues --    0.56337   0.56559   0.56771   0.56875   0.57201
 Alpha virt. eigenvalues --    0.57653   0.58287   0.58655   0.58896   0.59598
 Alpha virt. eigenvalues --    0.59908   0.60102   0.60760   0.61023   0.61340
 Alpha virt. eigenvalues --    0.61469   0.61748   0.62159   0.62939   0.63113
 Alpha virt. eigenvalues --    0.63390   0.63573   0.64452   0.64603   0.64864
 Alpha virt. eigenvalues --    0.64954   0.65242   0.65653   0.65828   0.66192
 Alpha virt. eigenvalues --    0.66639   0.67044   0.67427   0.67671   0.68243
 Alpha virt. eigenvalues --    0.68399   0.69097   0.69671   0.69877   0.70391
 Alpha virt. eigenvalues --    0.70607   0.71037   0.71635   0.72041   0.72287
 Alpha virt. eigenvalues --    0.72521   0.73057   0.73373   0.73726   0.74324
 Alpha virt. eigenvalues --    0.74651   0.74775   0.75213   0.75513   0.75698
 Alpha virt. eigenvalues --    0.75881   0.76243   0.77068   0.77542   0.77792
 Alpha virt. eigenvalues --    0.78187   0.78473   0.78628   0.79473   0.80073
 Alpha virt. eigenvalues --    0.80518   0.81246   0.81369   0.82359   0.83266
 Alpha virt. eigenvalues --    0.83587   0.84381   0.84431   0.85415   0.86017
 Alpha virt. eigenvalues --    0.87212   0.87513   0.87765   0.88608   0.89024
 Alpha virt. eigenvalues --    0.89386   0.90335   0.90886   0.91482   0.91774
 Alpha virt. eigenvalues --    0.92395   0.92974   0.93109   0.93287   0.93752
 Alpha virt. eigenvalues --    0.93769   0.94569   0.94891   0.95292   0.95940
 Alpha virt. eigenvalues --    0.96007   0.96695   0.96961   0.97135   0.97679
 Alpha virt. eigenvalues --    0.98104   0.98639   0.99733   1.00076   1.00388
 Alpha virt. eigenvalues --    1.00844   1.01239   1.01608   1.01895   1.02371
 Alpha virt. eigenvalues --    1.02625   1.03706   1.03799   1.04683   1.04850
 Alpha virt. eigenvalues --    1.05164   1.05453   1.05932   1.06309   1.06927
 Alpha virt. eigenvalues --    1.07193   1.07425   1.08096   1.08476   1.08767
 Alpha virt. eigenvalues --    1.09287   1.09672   1.10257   1.10571   1.11342
 Alpha virt. eigenvalues --    1.12133   1.12620   1.13809   1.14868   1.15007
 Alpha virt. eigenvalues --    1.15482   1.16527   1.16852   1.17340   1.18110
 Alpha virt. eigenvalues --    1.18677   1.19198   1.20270   1.21174   1.21469
 Alpha virt. eigenvalues --    1.22580   1.23469   1.23700   1.24833   1.25172
 Alpha virt. eigenvalues --    1.25354   1.25918   1.26154   1.26945   1.27615
 Alpha virt. eigenvalues --    1.28930   1.29556   1.30128   1.30611   1.32094
 Alpha virt. eigenvalues --    1.32620   1.33487   1.33819   1.34461   1.34810
 Alpha virt. eigenvalues --    1.35435   1.36877   1.37750   1.38888   1.39903
 Alpha virt. eigenvalues --    1.40359   1.41782   1.42024   1.42359   1.42498
 Alpha virt. eigenvalues --    1.43097   1.43403   1.43799   1.44010   1.44674
 Alpha virt. eigenvalues --    1.44948   1.45172   1.45843   1.46054   1.46606
 Alpha virt. eigenvalues --    1.46868   1.47619   1.48055   1.48964   1.49119
 Alpha virt. eigenvalues --    1.49373   1.51138   1.51610   1.51895   1.53265
 Alpha virt. eigenvalues --    1.53318   1.53660   1.54471   1.54537   1.55003
 Alpha virt. eigenvalues --    1.55561   1.55665   1.55977   1.56803   1.57276
 Alpha virt. eigenvalues --    1.57440   1.58914   1.60556   1.60715   1.61370
 Alpha virt. eigenvalues --    1.62270   1.62665   1.63168   1.63617   1.63791
 Alpha virt. eigenvalues --    1.65199   1.66294   1.66639   1.66939   1.67477
 Alpha virt. eigenvalues --    1.67952   1.68312   1.69263   1.69536   1.69777
 Alpha virt. eigenvalues --    1.70055   1.70915   1.71056   1.71920   1.72186
 Alpha virt. eigenvalues --    1.72784   1.73772   1.74322   1.75310   1.75678
 Alpha virt. eigenvalues --    1.76107   1.77216   1.77782   1.78243   1.78639
 Alpha virt. eigenvalues --    1.79125   1.79442   1.80261   1.81963   1.82305
 Alpha virt. eigenvalues --    1.84035   1.84565   1.85203   1.85738   1.86608
 Alpha virt. eigenvalues --    1.87122   1.87492   1.87809   1.88477   1.88571
 Alpha virt. eigenvalues --    1.89285   1.90142   1.90775   1.91510   1.92486
 Alpha virt. eigenvalues --    1.92689   1.93371   1.93980   1.94525   1.95341
 Alpha virt. eigenvalues --    1.96116   1.96769   1.97591   1.98495   1.99076
 Alpha virt. eigenvalues --    1.99696   2.00565   2.01116   2.01896   2.02203
 Alpha virt. eigenvalues --    2.02955   2.03178   2.04033   2.04744   2.05309
 Alpha virt. eigenvalues --    2.05810   2.06342   2.06741   2.08376   2.08720
 Alpha virt. eigenvalues --    2.09521   2.10087   2.10523   2.10969   2.11578
 Alpha virt. eigenvalues --    2.13240   2.13710   2.14265   2.14757   2.15717
 Alpha virt. eigenvalues --    2.16612   2.16640   2.18459   2.19062   2.19562
 Alpha virt. eigenvalues --    2.20397   2.21217   2.21688   2.22460   2.23299
 Alpha virt. eigenvalues --    2.24884   2.26009   2.26739   2.27030   2.30072
 Alpha virt. eigenvalues --    2.32081   2.32810   2.33784   2.35309   2.37355
 Alpha virt. eigenvalues --    2.38694   2.39711   2.40199   2.41709   2.42552
 Alpha virt. eigenvalues --    2.42940   2.43738   2.44573   2.45020   2.45690
 Alpha virt. eigenvalues --    2.46470   2.47853   2.47935   2.48909   2.49345
 Alpha virt. eigenvalues --    2.50555   2.51400   2.51588   2.52346   2.53131
 Alpha virt. eigenvalues --    2.53277   2.53380   2.53754   2.54483   2.56677
 Alpha virt. eigenvalues --    2.56879   2.57997   2.58876   2.59117   2.60811
 Alpha virt. eigenvalues --    2.62855   2.63000   2.63964   2.65251   2.66272
 Alpha virt. eigenvalues --    2.67220   2.67505   2.67586   2.67958   2.68733
 Alpha virt. eigenvalues --    2.69827   2.70081   2.70280   2.71041   2.71796
 Alpha virt. eigenvalues --    2.72261   2.73183   2.73748   2.74190   2.75766
 Alpha virt. eigenvalues --    2.76032   2.76567   2.77636   2.79355   2.80703
 Alpha virt. eigenvalues --    2.81451   2.82613   2.82959   2.83306   2.83807
 Alpha virt. eigenvalues --    2.84673   2.84846   2.85503   2.86236   2.86599
 Alpha virt. eigenvalues --    2.88123   2.88324   2.89004   2.89336   2.90312
 Alpha virt. eigenvalues --    2.91358   2.92100   2.92522   2.93535   2.94759
 Alpha virt. eigenvalues --    2.94807   2.95320   2.95775   2.97297   2.99539
 Alpha virt. eigenvalues --    3.01408   3.02805   3.03615   3.04634   3.05052
 Alpha virt. eigenvalues --    3.06181   3.08118   3.09164   3.09859   3.11698
 Alpha virt. eigenvalues --    3.12673   3.13603   3.14323   3.15264   3.16490
 Alpha virt. eigenvalues --    3.17700   3.18293   3.19027   3.20692   3.22235
 Alpha virt. eigenvalues --    3.22775   3.23454   3.24102   3.25548   3.26636
 Alpha virt. eigenvalues --    3.28568   3.29495   3.30408   3.31843   3.34095
 Alpha virt. eigenvalues --    3.34357   3.34640   3.35049   3.37733   3.38387
 Alpha virt. eigenvalues --    3.39146   3.40328   3.41082   3.42468   3.44611
 Alpha virt. eigenvalues --    3.44768   3.45723   3.46190   3.48999   3.49379
 Alpha virt. eigenvalues --    3.51736   3.53446   3.55607   3.57967   3.59997
 Alpha virt. eigenvalues --    3.60811   3.63220   3.65730   3.66355   3.66653
 Alpha virt. eigenvalues --    3.69441   3.70586   3.72179   3.72680   3.75475
 Alpha virt. eigenvalues --    3.75899   3.76548   3.80945   3.82666   3.84397
 Alpha virt. eigenvalues --    3.85513   3.86388   3.90506   3.91491   3.93194
 Alpha virt. eigenvalues --    3.93367   3.94457   3.97237   4.01945   4.02972
 Alpha virt. eigenvalues --    4.04528   4.08239   4.10108   4.13114   4.14342
 Alpha virt. eigenvalues --    4.20637   4.23873   4.25496   4.28267   4.35601
 Alpha virt. eigenvalues --    4.40514   4.41190   4.53707   4.72719   4.84526
 Alpha virt. eigenvalues --    4.87514   4.87973   4.90558   5.00691   5.02481
 Alpha virt. eigenvalues --    5.04033   5.05568   5.06205   5.08401   5.11434
 Alpha virt. eigenvalues --    5.13275   5.25273   5.27270   5.29712   5.34529
 Alpha virt. eigenvalues --    5.42126   5.43502   5.75925   5.76386   5.80021
 Alpha virt. eigenvalues --    5.80253   5.82516   5.84740   8.02315   8.05377
 Alpha virt. eigenvalues --   17.28492  17.30439  17.49457  17.52281  17.58810
 Alpha virt. eigenvalues --   17.64289  23.48901  23.56633  23.71396  23.78207
 Alpha virt. eigenvalues --   23.82167  23.82706  23.84051  23.86739  23.86824
 Alpha virt. eigenvalues --   23.88231  23.89035  23.89989  23.91103  23.93082
 Alpha virt. eigenvalues --   23.94699  23.95405  23.96132  23.98411  24.00844
 Alpha virt. eigenvalues --   24.01391  24.01953  24.05346  24.12957  24.13486
 Alpha virt. eigenvalues --   24.14062  24.14338  35.56235  35.59015  49.95709
 Alpha virt. eigenvalues --   49.97868  50.02305  50.04257  50.05980  50.07672
 Alpha virt. eigenvalues --  189.19673 189.23375
          Condensed to atoms (all electrons):
 Mulliken charges:
               1
     1  C    0.300108
     2  C    0.053138
     3  C    0.144848
     4  C    0.248638
     5  C    0.303615
     6  C    0.000291
     7  C    0.165715
     8  C    0.252418
     9  C    0.179497
    10  C   -0.297994
    11  C    0.218766
    12  C    0.136146
    13  C   -0.499063
    14  C   -0.695997
    15  H    0.159197
    16  H    0.162038
    17  H    0.167977
    18  N   -0.169721
    19  N   -0.134913
    20  O   -0.287688
    21  O   -0.268049
    22  O   -0.278055
    23  O   -0.233853
    24  C   -0.178672
    25  H    0.176379
    26  H    0.170874
    27  H    0.185678
    28  C   -0.196748
    29  H    0.173233
    30  H    0.173703
    31  H    0.182704
    32  C    0.059891
    33  C   -0.012008
    34  S   -0.681550
    35  C   -0.373796
    36  H    0.177405
    37  C    0.384713
    38  O   -0.132360
    39  C    0.825470
    40  C   -0.244087
    41  C   -0.029103
    42  S   -0.242470
    43  H    0.163536
    44  H    0.147178
    45  H    0.161882
    46  C   -0.609528
    47  O   -0.122387
    48  C   -0.306578
    49  H    0.134266
    50  C   -0.242708
    51  H    0.163675
    52  H    0.145093
    53  H    0.172896
    54  H    0.146362
 Sum of Mulliken charges =  -0.00000
 Mulliken charges with hydrogens summed into heavy atoms:
               1
     1  C    0.300108
     2  C    0.053138
     3  C    0.144848
     4  C    0.248638
     5  C    0.303615
     6  C    0.168268
     7  C    0.165715
     8  C    0.252418
     9  C    0.179497
    10  C   -0.297994
    11  C    0.218766
    12  C    0.136146
    13  C   -0.337025
    14  C   -0.536800
    18  N   -0.169721
    19  N   -0.134913
    20  O   -0.287688
    21  O   -0.268049
    22  O   -0.278055
    23  O   -0.233853
    24  C    0.354258
    28  C    0.332891
    32  C    0.059891
    33  C    0.165398
    34  S   -0.681550
    35  C   -0.373796
    37  C    0.384713
    38  O   -0.132360
    39  C    0.825470
    40  C    0.228510
    41  C   -0.029103
    42  S   -0.242470
    46  C   -0.475262
    47  O   -0.122387
    48  C   -0.142903
    50  C    0.221643
 Electronic spatial extent (au):  <R**2>=          22440.6482
 Charge=             -0.0000 electrons
 Dipole moment (field-independent basis, Debye):
    X=              5.4642    Y=             -0.6347    Z=             -0.0894  Tot=              5.5017
 Quadrupole moment (field-independent basis, Debye-Ang):
   XX=           -216.5747   YY=           -207.7833   ZZ=           -223.6145
   XY=             -5.3393   XZ=             -0.6672   YZ=             -2.6342
 Traceless Quadrupole moment (field-independent basis, Debye-Ang):
   XX=             -0.5839   YY=              8.2076   ZZ=             -7.6237
   XY=             -5.3393   XZ=             -0.6672   YZ=             -2.6342
 Octapole moment (field-independent basis, Debye-Ang**2):
  XXX=            405.9967  YYY=            -18.7581  ZZZ=              1.8815  XYY=            151.3901
  XXY=            -90.7091  XXZ=             13.0744  XZZ=            -15.2005  YZZ=             -0.4730
  YYZ=              0.7495  XYZ=            -11.1982
 Hexadecapole moment (field-independent basis, Debye-Ang**3):
 XXXX=         -20762.8944 YYYY=          -8020.7535 ZZZZ=           -327.6329 XXXY=           -593.8169
 XXXZ=            -25.1630 YYYX=            216.8342 YYYZ=            -21.8783 ZZZX=              0.4070
 ZZZY=              3.7035 XXYY=          -4992.5167 XXZZ=          -3770.8380 YYZZ=          -1461.9254
 XXYZ=            -64.7644 YYXZ=            -16.2610 ZZXY=             21.2227
 N-N= 4.091538410499D+03 E-N=-1.372300025985D+04  KE= 2.351979785567D+03
 Calling FoFJK, ICntrl=      2127 FMM=F ISym2X=0 I1Cent= 0 IOpClX= 0 NMat=1 NMatS=1 NMatT=0.
 ***** Axes restored to original set *****
 -------------------------------------------------------------------
 Center     Atomic                   Forces (Hartrees/Bohr)
 Number     Number              X              Y              Z
 -------------------------------------------------------------------
      1        6           0.004185222   -0.005304786   -0.000387357
      2        6           0.005451592    0.000374404   -0.000319986
      3        6          -0.002898085    0.000786571   -0.000030310
      4        6           0.002546817    0.001407945    0.000289749
      5        6          -0.005877423   -0.001501891   -0.000046952
      6        6          -0.005819003   -0.000526548   -0.002440785
      7        6          -0.001125643    0.000187209    0.000535989
      8        6          -0.000301053    0.005015384    0.004087046
      9        6           0.009734991    0.000522763   -0.000474794
     10        6          -0.008405773   -0.004298398   -0.000584454
     11        6          -0.005460642    0.002814092    0.000087294
     12        6           0.001492694    0.000412762    0.000303267
     13        6          -0.001418425   -0.002461352   -0.000440181
     14        6           0.000203186    0.002272735    0.000338803
     15        1           0.000642489    0.000780590    0.000049957
     16        1           0.000580197   -0.001148696   -0.000226557
     17        1          -0.002553151   -0.000224880    0.001145535
     18        7           0.002349115   -0.001783874   -0.000843671
     19        7           0.001141225    0.001192214    0.000004879
     20        8          -0.005843244    0.006064650    0.000800296
     21        8           0.007446107    0.002009835    0.000126318
     22        8           0.006138543   -0.004831978   -0.000610338
     23        8          -0.025386405    0.012888341    0.013158290
     24        6           0.000793917    0.002240153   -0.000495199
     25        1          -0.000697063    0.000025421   -0.000291437
     26        1          -0.001380520   -0.000407018    0.001073184
     27        1           0.000977481    0.000021587    0.000029720
     28        6          -0.000432937   -0.001913527   -0.000663412
     29        1          -0.000692428    0.000379473    0.000981673
     30        1          -0.000463188    0.000389776   -0.000490073
     31        1           0.000937948   -0.000349242   -0.000015616
     32        6          -0.009146018   -0.000039685   -0.001105195
     33        6           0.022731773    0.000653425   -0.009904569
     34       16           0.004811950   -0.000550723    0.000851061
     35        6          -0.002990658   -0.004712305   -0.000227280
     36        1           0.010581906   -0.009802991   -0.005295888
     37        6           0.001137051   -0.000202815    0.000494671
     38        8          -0.001760593   -0.001231495    0.001086676
     39        6          -0.000637055   -0.001290026   -0.000258923
     40        6          -0.000633521    0.003153386    0.000600940
     41        6          -0.000135447   -0.000164801    0.000463228
     42       16           0.000909575   -0.000857590   -0.000437005
     43        1          -0.000727793   -0.000830046    0.000022705
     44        1           0.000802592   -0.000747077    0.000745265
     45        1           0.000900669   -0.000622745   -0.001734648
     46        6          -0.001475848    0.000632316   -0.000023060
     47        8           0.002559726    0.002093650   -0.000504749
     48        6          -0.001229377   -0.000207634    0.000259540
     49        1          -0.000046287    0.000653707   -0.000001854
     50        6           0.001649431   -0.002915274    0.000635400
     51        1          -0.001100519    0.000086562    0.000198349
     52        1          -0.001499388    0.000833730   -0.001034876
     53        1           0.000345069    0.000468666   -0.000095109
     54        1          -0.000913777    0.000566049    0.000614444
 -------------------------------------------------------------------
 Cartesian Forces:  Max     0.025386405 RMS     0.004101385

 GradGradGradGradGradGradGradGradGradGradGradGradGradGradGradGradGradGrad
 Berny optimization.
 FormGI is forming the generalized inverse of G from B-inverse, IUseBI=4.
 Internal  Forces:  Max     0.087085040 RMS     0.010370280
 Search for a local minimum.
 Step number   1 out of a maximum of  307
 All quantities printed in internal units (Hartrees-Bohrs-Radians)
 Mixed Optimization -- RFO/linear search
 Second derivative matrix not updated -- first step.
 ITU=  0
     Eigenvalues ---    0.00803   0.00803   0.01176   0.01203   0.01245
     Eigenvalues ---    0.01292   0.01308   0.01311   0.01354   0.01382
     Eigenvalues ---    0.01419   0.01429   0.01458   0.01496   0.01516
     Eigenvalues ---    0.01568   0.01575   0.01577   0.01621   0.01652
     Eigenvalues ---    0.01694   0.01711   0.01714   0.01719   0.01754
     Eigenvalues ---    0.01783   0.01803   0.01847   0.01962   0.02040
     Eigenvalues ---    0.02047   0.02068   0.02073   0.02079   0.02135
     Eigenvalues ---    0.02149   0.02163   0.02178   0.02197   0.02226
     Eigenvalues ---    0.02234   0.02246   0.07556   0.07572   0.07690
     Eigenvalues ---    0.07700   0.10064   0.10065   0.10632   0.10635
     Eigenvalues ---    0.15983   0.15999   0.15999   0.16000   0.16000
     Eigenvalues ---    0.16000   0.16000   0.16000   0.16000   0.16000
     Eigenvalues ---    0.16000   0.16000   0.16000   0.16000   0.16000
     Eigenvalues ---    0.16000   0.16000   0.16000   0.22531   0.22583
     Eigenvalues ---    0.23518   0.23582   0.24516   0.24747   0.24864
     Eigenvalues ---    0.24931   0.24952   0.24985   0.24987   0.24988
     Eigenvalues ---    0.24992   0.24994   0.24997   0.24997   0.24998
     Eigenvalues ---    0.24998   0.25000   0.25000   0.25000   0.25000
     Eigenvalues ---    0.25000   0.25000   0.25000   0.25000   0.25000
     Eigenvalues ---    0.25000   0.28856   0.28953   0.30041   0.32093
     Eigenvalues ---    0.32582   0.32774   0.33111   0.33787   0.33917
     Eigenvalues ---    0.34021   0.34089   0.34095   0.34354   0.34466
     Eigenvalues ---    0.34577   0.34629   0.34693   0.34775   0.34917
     Eigenvalues ---    0.35198   0.35218   0.35468   0.35553   0.35582
     Eigenvalues ---    0.35891   0.35894   0.36078   0.36083   0.36244
     Eigenvalues ---    0.36396   0.36662   0.39352   0.40194   0.40224
     Eigenvalues ---    0.40651   0.40691   0.41524   0.41638   0.41952
     Eigenvalues ---    0.42300   0.42645   0.43455   0.44004   0.44092
     Eigenvalues ---    0.44576   0.44594   0.45014   0.45406   0.46251
     Eigenvalues ---    0.47305   0.47654   0.49310   0.49537   0.53023
     Eigenvalues ---    0.53144   0.93281   0.93432   0.93989   0.94585
     Eigenvalues --- 1000.000001000.000001000.000001000.000001000.00000
     Eigenvalues --- 1000.000001000.000001000.000001000.000001000.00000
     Eigenvalues --- 1000.000001000.000001000.000001000.000001000.00000
     Eigenvalues --- 1000.000001000.000001000.000001000.000001000.00000
     Eigenvalues --- 1000.000001000.000001000.000001000.000001000.00000
     Eigenvalues --- 1000.000001000.000001000.000001000.000001000.00000
     Eigenvalues --- 1000.000001000.000001000.000001000.000001000.00000
     Eigenvalues --- 1000.000001000.000001000.000001000.000001000.00000
     Eigenvalues --- 1000.000001000.000001000.000001000.000001000.00000
     Eigenvalues --- 1000.000001000.000001000.000001000.000001000.00000
     Eigenvalues --- 1000.000001000.000001000.000001000.000001000.00000
     Eigenvalues --- 1000.000001000.000001000.000001000.000001000.00000
     Eigenvalues --- 1000.000001000.000001000.000001000.000001000.00000
     Eigenvalues --- 1000.000001000.000001000.000001000.000001000.00000
     Eigenvalues --- 1000.000001000.000001000.000001000.000001000.00000
     Eigenvalues --- 1000.000001000.000001000.000001000.000001000.00000
     Eigenvalues --- 1000.000001000.000001000.000001000.000001000.00000
     Eigenvalues --- 1000.000001000.000001000.000001000.000001000.00000
     Eigenvalues --- 1000.000001000.000001000.000001000.000001000.00000
     Eigenvalues --- 1000.000001000.000001000.000001000.000001000.00000
     Eigenvalues --- 1000.000001000.000001000.000001000.000001000.00000
     Eigenvalues --- 1000.000001000.000001000.000001000.000001000.00000
     Eigenvalues --- 1000.000001000.000001000.000001000.000001000.00000
     Eigenvalues --- 1000.000001000.000001000.000001000.000001000.00000
     Eigenvalues --- 1000.000001000.000001000.000001000.000001000.00000
     Eigenvalues --- 1000.000001000.000001000.000001000.000001000.00000
     Eigenvalues --- 1000.000001000.000001000.000001000.000001000.00000
     Eigenvalues --- 1000.000001000.000001000.000001000.000001000.00000
     Eigenvalues --- 1000.000001000.00000
 RFO step:  Lambda=-9.18512427D-02 EMin= 8.02933640D-03
 Linear search not attempted -- first point.
 Maximum step size (   0.300) exceeded in Quadratic search.
    -- Step size scaled by   0.614
 Iteration  1 RMS(Cart)=  0.31986393 RMS(Int)=  0.00799684
 Iteration  2 RMS(Cart)=  0.08990176 RMS(Int)=  0.00061670
 Iteration  3 RMS(Cart)=  0.00186266 RMS(Int)=  0.00037569
 Iteration  4 RMS(Cart)=  0.00000078 RMS(Int)=  0.00037569
 Iteration  1 RMS(Cart)=  0.00004802 RMS(Int)=  0.00000863
 Iteration  2 RMS(Cart)=  0.00002724 RMS(Int)=  0.00000963
 Iteration  3 RMS(Cart)=  0.00001546 RMS(Int)=  0.00001093
 Iteration  4 RMS(Cart)=  0.00000877 RMS(Int)=  0.00001182
 Iteration  5 RMS(Cart)=  0.00000498 RMS(Int)=  0.00001237
 Iteration  6 RMS(Cart)=  0.00000282 RMS(Int)=  0.00001269
 Iteration  7 RMS(Cart)=  0.00000160 RMS(Int)=  0.00001288
 Iteration  8 RMS(Cart)=  0.00000091 RMS(Int)=  0.00001298
 Variable       Old X    -DE/DX   Delta X   Delta X   Delta X     New X
                                 (Linear)    (Quad)   (Total)
    R1        2.80935  -0.00031   0.00000  -0.00088  -0.00088   2.80847
    R2        2.64584  -0.00444   0.00000  -0.00509  -0.00507   2.64077
    R3        2.31147  -0.00846   0.00000  -0.00503  -0.00503   2.30643
    R4        2.67311  -0.00966   0.00000  -0.01372  -0.01386   2.65925
    R5        2.59267  -0.01609   0.00000  -0.01896  -0.01898   2.57370
    R6        2.66894   0.00067   0.00000   0.00082   0.00079   2.66973
    R7        2.69164   0.00283   0.00000   0.00503   0.00497   2.69661
    R8        2.81049  -0.00067   0.00000  -0.00053  -0.00053   2.80996
    R9        2.62173  -0.00605   0.00000  -0.00748  -0.00750   2.61422
   R10        2.65570  -0.00393   0.00000  -0.00426  -0.00425   2.65145
   R11        2.30889  -0.00770   0.00000  -0.00456  -0.00456   2.30433
   R12        2.70248   0.00207   0.00000   0.00175   0.00185   2.70433
   R13        2.04786  -0.00179   0.00000  -0.00246  -0.00246   2.04539
   R14        2.70495   0.02312   0.00000   0.03338   0.03349   2.73844
   R15        2.68322   0.00593   0.00000   0.00916   0.00915   2.69237
   R16        2.68655   0.04711   0.00000   0.05853   0.05860   2.74515
   R17        2.81233   0.01601   0.00000   0.02404   0.02416   2.83649
   R18        2.76359   0.02221   0.00000   0.02975   0.02975   2.79335
   R19        2.66221  -0.00534   0.00000  -0.00725  -0.00722   2.65498
   R20        2.31391  -0.01646   0.00000  -0.00986  -0.00986   2.30405
   R21        2.79415  -0.01259   0.00000  -0.01866  -0.01877   2.77538
   R22        2.63842  -0.01365   0.00000  -0.01698  -0.01706   2.62136
   R23        2.31456  -0.00781   0.00000  -0.00468  -0.00468   2.30988
   R24        2.62448  -0.00114   0.00000  -0.00117  -0.00116   2.62332
   R25        2.64561  -0.01047   0.00000  -0.01264  -0.01265   2.63296
   R26        2.04921  -0.00123   0.00000  -0.00170  -0.00170   2.04752
   R27        2.04741  -0.00086   0.00000  -0.00118  -0.00118   2.04623
   R28        2.77259   0.00179   0.00000   0.00243   0.00243   2.77503
   R29        2.77252   0.00160   0.00000   0.00218   0.00218   2.77470
   R30        2.06176  -0.00061   0.00000  -0.00086  -0.00086   2.06090
   R31        2.06551  -0.00172   0.00000  -0.00242  -0.00242   2.06310
   R32        2.05322  -0.00083   0.00000  -0.00115  -0.00115   2.05207
   R33        2.06368  -0.00124   0.00000  -0.00175  -0.00175   2.06193
   R34        2.06281  -0.00076   0.00000  -0.00106  -0.00106   2.06175
   R35        2.05355  -0.00089   0.00000  -0.00124  -0.00124   2.05231
   R36        2.60988   0.01247   0.00000   0.01367   0.01372   2.62361
   R37        3.33253   0.00805   0.00000   0.01354   0.01359   3.34612
   R38        2.66343  -0.00217   0.00000  -0.00257  -0.00258   2.66085
   R39        2.03701  -0.01372   0.00000  -0.01855  -0.01855   2.01846
   R40        3.30518  -0.00760   0.00000  -0.01226  -0.01229   3.29289
   R41        2.64130  -0.00715   0.00000  -0.00853  -0.00859   2.63272
   R42        2.56932  -0.00126   0.00000  -0.00124  -0.00124   2.56808
   R43        2.71250  -0.00141   0.00000  -0.00175  -0.00175   2.71075
   R44        2.69386   0.00076   0.00000   0.00091   0.00091   2.69478
   R45        2.63402  -0.00112   0.00000  -0.00122  -0.00122   2.63280
   R46        3.32763  -0.00041   0.00000  -0.00054  -0.00054   3.32708
   R47        2.06041  -0.00107   0.00000  -0.00149  -0.00149   2.05892
   R48        2.07169  -0.00125   0.00000  -0.00178  -0.00178   2.06991
   R49        2.07294  -0.00202   0.00000  -0.00287  -0.00287   2.07008
   R50        2.69088  -0.00233   0.00000  -0.00288  -0.00288   2.68801
   R51        2.56820  -0.00226   0.00000  -0.00223  -0.00223   2.56597
   R52        3.26324  -0.00173   0.00000  -0.00250  -0.00250   3.26074
   R53        2.58721  -0.00136   0.00000  -0.00145  -0.00144   2.58576
   R54        2.04253  -0.00060   0.00000  -0.00082  -0.00082   2.04171
   R55        2.68984   0.00086   0.00000   0.00103   0.00103   2.69087
   R56        2.04247  -0.00109   0.00000  -0.00149  -0.00149   2.04099
   R57        2.07470  -0.00190   0.00000  -0.00271  -0.00271   2.07199
   R58        2.05810  -0.00055   0.00000  -0.00077  -0.00077   2.05733
   R59        2.07180  -0.00105   0.00000  -0.00148  -0.00148   2.07031
    A1        2.03797   0.00109   0.00000   0.00067   0.00066   2.03862
    A2        2.14521  -0.00081   0.00000  -0.00080  -0.00080   2.14441
    A3        2.10001  -0.00029   0.00000   0.00013   0.00014   2.10015
    A4        2.10395   0.00467   0.00000   0.01026   0.01028   2.11423
    A5        2.08282  -0.00643   0.00000  -0.00745  -0.00736   2.07546
    A6        2.09624   0.00174   0.00000  -0.00293  -0.00306   2.09318
    A7        2.10093  -0.00617   0.00000  -0.01232  -0.01226   2.08867
    A8        2.07104  -0.00008   0.00000  -0.00249  -0.00265   2.06839
    A9        2.11118   0.00625   0.00000   0.01479   0.01489   2.12607
   A10        2.10296   0.00317   0.00000   0.00627   0.00624   2.10920
   A11        2.09911   0.00242   0.00000   0.00358   0.00353   2.10264
   A12        2.08110  -0.00559   0.00000  -0.00985  -0.00977   2.07133
   A13        2.03739   0.00043   0.00000   0.00120   0.00117   2.03856
   A14        2.12972   0.00035   0.00000   0.00041   0.00043   2.13015
   A15        2.11607  -0.00078   0.00000  -0.00162  -0.00160   2.11447
   A16        2.15098   0.02009   0.00000   0.03477   0.03486   2.18584
   A17        2.04399  -0.01212   0.00000  -0.02266  -0.02266   2.02133
   A18        2.08722  -0.00805   0.00000  -0.01255  -0.01266   2.07456
   A19        2.11101   0.00823   0.00000   0.01572   0.01566   2.12667
   A20        2.04385  -0.01554   0.00000  -0.03002  -0.03000   2.01385
   A21        2.12832   0.00731   0.00000   0.01430   0.01433   2.14266
   A22        2.08678  -0.01603   0.00000  -0.02336  -0.02339   2.06339
   A23        2.04738  -0.02885   0.00000  -0.05022  -0.04999   1.99739
   A24        2.14662   0.04476   0.00000   0.07272   0.07249   2.21911
   A25        2.04892  -0.01419   0.00000  -0.02257  -0.02246   2.02646
   A26        2.00754  -0.07294   0.00000  -0.13295  -0.13301   1.87453
   A27        2.22643   0.08709   0.00000   0.15472   0.15421   2.38064
   A28        2.06022   0.01376   0.00000   0.02601   0.02606   2.08628
   A29        2.17370   0.02127   0.00000   0.03747   0.03732   2.21101
   A30        2.04919  -0.03507   0.00000  -0.06377  -0.06389   1.98529
   A31        2.01621  -0.00387   0.00000  -0.01004  -0.01031   2.00590
   A32        2.14188   0.00261   0.00000   0.00616   0.00625   2.14813
   A33        2.12500   0.00123   0.00000   0.00368   0.00377   2.12877
   A34        2.10943   0.00557   0.00000   0.01051   0.01033   2.11976
   A35        2.11468   0.00785   0.00000   0.01598   0.01604   2.13072
   A36        2.05896  -0.01343   0.00000  -0.02652  -0.02641   2.03255
   A37        2.11176   0.00194   0.00000   0.00356   0.00350   2.11526
   A38        2.05670  -0.00052   0.00000  -0.00070  -0.00067   2.05603
   A39        2.11471  -0.00142   0.00000  -0.00287  -0.00285   2.11187
   A40        2.08567  -0.00292   0.00000  -0.00794  -0.00803   2.07764
   A41        2.07549   0.00201   0.00000   0.00530   0.00535   2.08084
   A42        2.12199   0.00091   0.00000   0.00263   0.00267   2.12466
   A43        2.20043   0.00569   0.00000   0.00723   0.00713   2.20756
   A44        2.02023  -0.00201   0.00000  -0.00212  -0.00207   2.01816
   A45        2.06252  -0.00368   0.00000  -0.00512  -0.00507   2.05745
   A46        2.18316  -0.00319   0.00000  -0.00609  -0.00609   2.17707
   A47        2.02959   0.00177   0.00000   0.00336   0.00336   2.03294
   A48        2.07044   0.00142   0.00000   0.00273   0.00273   2.07317
   A49        1.91737  -0.00004   0.00000  -0.00004  -0.00004   1.91733
   A50        1.91808   0.00014   0.00000   0.00041   0.00041   1.91849
   A51        1.87685   0.00059   0.00000   0.00131   0.00131   1.87815
[...]
 Alpha  occ. eigenvalues --   -0.57295  -0.56850  -0.56714  -0.55356  -0.55035
 Alpha  occ. eigenvalues --   -0.53341  -0.51456  -0.50433  -0.49789  -0.49510
 Alpha  occ. eigenvalues --   -0.49233  -0.49198  -0.48717  -0.48650  -0.48405
 Alpha  occ. eigenvalues --   -0.48180  -0.46988  -0.46529  -0.46151  -0.45989
 Alpha  occ. eigenvalues --   -0.45713  -0.44692  -0.44342  -0.43949  -0.43211
 Alpha  occ. eigenvalues --   -0.43086  -0.42686  -0.42504  -0.42073  -0.41894
 Alpha  occ. eigenvalues --   -0.41606  -0.40993  -0.40972  -0.40384  -0.40009
 Alpha  occ. eigenvalues --   -0.39367  -0.39225  -0.38946  -0.37879  -0.37393
 Alpha  occ. eigenvalues --   -0.36703  -0.36305  -0.34700  -0.34393  -0.33729
 Alpha  occ. eigenvalues --   -0.33597  -0.31817  -0.30797  -0.30429  -0.29593
 Alpha  occ. eigenvalues --   -0.29145  -0.28597  -0.28509  -0.27779  -0.27251
 Alpha  occ. eigenvalues --   -0.26009  -0.25017  -0.24936  -0.19767
 Alpha virt. eigenvalues --   -0.12775  -0.07951  -0.06232  -0.04241  -0.03594
 Alpha virt. eigenvalues --   -0.00864  -0.00456  -0.00306  -0.00125   0.00368
 Alpha virt. eigenvalues --    0.00814   0.01298   0.01383   0.01820   0.01914
 Alpha virt. eigenvalues --    0.02015   0.02164   0.02507   0.02805   0.03176
 Alpha virt. eigenvalues --    0.03615   0.03672   0.03877   0.04262   0.04362
 Alpha virt. eigenvalues --    0.04730   0.04972   0.05114   0.05568   0.05765
 Alpha virt. eigenvalues --    0.06185   0.06391   0.06558   0.06809   0.06941
 Alpha virt. eigenvalues --    0.07175   0.07499   0.07748   0.07868   0.08174
 Alpha virt. eigenvalues --    0.08354   0.08562   0.08722   0.09223   0.09497
 Alpha virt. eigenvalues --    0.09723   0.09872   0.10196   0.10368   0.10712
 Alpha virt. eigenvalues --    0.10840   0.11263   0.11521   0.11872   0.12221
 Alpha virt. eigenvalues --    0.12331   0.12611   0.12725   0.13143   0.13306
 Alpha virt. eigenvalues --    0.13475   0.13691   0.13876   0.14141   0.14418
 Alpha virt. eigenvalues --    0.14750   0.14907   0.15152   0.15373   0.15498
 Alpha virt. eigenvalues --    0.15653   0.15808   0.16015   0.16184   0.16446
 Alpha virt. eigenvalues --    0.16605   0.16843   0.17311   0.17523   0.17675
 Alpha virt. eigenvalues --    0.17786   0.18103   0.18234   0.18467   0.18764
 Alpha virt. eigenvalues --    0.18812   0.19039   0.19376   0.19423   0.19738
 Alpha virt. eigenvalues --    0.19799   0.20062   0.20277   0.20450   0.20549
 Alpha virt. eigenvalues --    0.20699   0.20891   0.20962   0.21259   0.21544
 Alpha virt. eigenvalues --    0.21962   0.22169   0.22321   0.22427   0.22565
 Alpha virt. eigenvalues --    0.22771   0.22941   0.23209   0.23461   0.23710
 Alpha virt. eigenvalues --    0.23847   0.24131   0.24305   0.24387   0.24588
 Alpha virt. eigenvalues --    0.24938   0.24963   0.25020   0.25430   0.25530
 Alpha virt. eigenvalues --    0.25719   0.26014   0.26201   0.26373   0.26398
 Alpha virt. eigenvalues --    0.26522   0.26898   0.27067   0.27268   0.27491
 Alpha virt. eigenvalues --    0.27726   0.27823   0.27988   0.28424   0.28524
 Alpha virt. eigenvalues --    0.28646   0.28891   0.29058   0.29381   0.29444
 Alpha virt. eigenvalues --    0.29657   0.30098   0.30126   0.30665   0.30918
 Alpha virt. eigenvalues --    0.31297   0.31707   0.31869   0.32388   0.32525
 Alpha virt. eigenvalues --    0.32650   0.32957   0.33133   0.33528   0.33659
 Alpha virt. eigenvalues --    0.33883   0.34122   0.34592   0.34726   0.34910
 Alpha virt. eigenvalues --    0.35049   0.35374   0.35677   0.36108   0.36350
 Alpha virt. eigenvalues --    0.36832   0.37221   0.37571   0.37700   0.38373
 Alpha virt. eigenvalues --    0.38543   0.38685   0.38925   0.39319   0.40001
 Alpha virt. eigenvalues --    0.40113   0.40493   0.41096   0.41257   0.41785
 Alpha virt. eigenvalues --    0.42200   0.42650   0.42905   0.43678   0.43810
 Alpha virt. eigenvalues --    0.43915   0.44051   0.44409   0.45289   0.45560
 Alpha virt. eigenvalues --    0.45792   0.46012   0.46658   0.46860   0.47232
 Alpha virt. eigenvalues --    0.47417   0.48179   0.48578   0.48998   0.49527
 Alpha virt. eigenvalues --    0.49707   0.50291   0.50441   0.50517   0.51592
 Alpha virt. eigenvalues --    0.52016   0.52398   0.53239   0.53599   0.53935
 Alpha virt. eigenvalues --    0.54222   0.54686   0.54988   0.55157   0.55793
 Alpha virt. eigenvalues --    0.56266   0.56311   0.56568   0.56888   0.57087
 Alpha virt. eigenvalues --    0.57808   0.57912   0.58434   0.59048   0.59174
 Alpha virt. eigenvalues --    0.59979   0.60331   0.60902   0.61085   0.61330
 Alpha virt. eigenvalues --    0.61478   0.61825   0.62045   0.62479   0.63279
 Alpha virt. eigenvalues --    0.63428   0.63904   0.64210   0.64657   0.65076
 Alpha virt. eigenvalues --    0.65242   0.65404   0.65861   0.66061   0.66304
 Alpha virt. eigenvalues --    0.66647   0.67120   0.67719   0.67802   0.68479
 Alpha virt. eigenvalues --    0.69010   0.69614   0.69840   0.70111   0.70236
 Alpha virt. eigenvalues --    0.70515   0.71163   0.71505   0.72082   0.72171
 Alpha virt. eigenvalues --    0.72327   0.72931   0.73329   0.73758   0.74093
 Alpha virt. eigenvalues --    0.74547   0.74870   0.75203   0.75222   0.75743
 Alpha virt. eigenvalues --    0.75900   0.76392   0.76498   0.76872   0.77483
 Alpha virt. eigenvalues --    0.77551   0.78221   0.78548   0.78900   0.79310
 Alpha virt. eigenvalues --    0.80001   0.80460   0.80865   0.81348   0.82119
 Alpha virt. eigenvalues --    0.83222   0.83812   0.84052   0.84451   0.85463
 Alpha virt. eigenvalues --    0.86367   0.86836   0.87497   0.88655   0.88747
 Alpha virt. eigenvalues --    0.89051   0.89998   0.90098   0.90386   0.91273
 Alpha virt. eigenvalues --    0.91638   0.92495   0.92746   0.93075   0.93670
 Alpha virt. eigenvalues --    0.93956   0.94199   0.94612   0.95008   0.95399
 Alpha virt. eigenvalues --    0.95448   0.96038   0.96619   0.97069   0.97367
 Alpha virt. eigenvalues --    0.98024   0.98802   0.99408   0.99863   0.99979
 Alpha virt. eigenvalues --    1.00182   1.01235   1.01546   1.01998   1.02449
 Alpha virt. eigenvalues --    1.03331   1.03516   1.03853   1.04064   1.04404
 Alpha virt. eigenvalues --    1.04899   1.05479   1.05971   1.06062   1.06584
 Alpha virt. eigenvalues --    1.07087   1.07319   1.07489   1.07781   1.08347
 Alpha virt. eigenvalues --    1.08808   1.09108   1.10193   1.10601   1.10742
 Alpha virt. eigenvalues --    1.11311   1.12986   1.13294   1.14400   1.15366
 Alpha virt. eigenvalues --    1.15380   1.16446   1.17039   1.17653   1.18549
 Alpha virt. eigenvalues --    1.18767   1.19303   1.19478   1.20842   1.22208
 Alpha virt. eigenvalues --    1.22462   1.23385   1.23970   1.24612   1.25007
 Alpha virt. eigenvalues --    1.25528   1.25746   1.26293   1.26735   1.27191
 Alpha virt. eigenvalues --    1.27772   1.29261   1.29779   1.30999   1.31524
 Alpha virt. eigenvalues --    1.32382   1.32919   1.33517   1.34399   1.34768
 Alpha virt. eigenvalues --    1.35471   1.35576   1.37258   1.37779   1.38188
 Alpha virt. eigenvalues --    1.39823   1.40522   1.41516   1.41811   1.42306
 Alpha virt. eigenvalues --    1.42961   1.43038   1.43452   1.44005   1.44693
 Alpha virt. eigenvalues --    1.45043   1.45571   1.45693   1.45896   1.46260
 Alpha virt. eigenvalues --    1.46832   1.47504   1.47698   1.48792   1.49044
 Alpha virt. eigenvalues --    1.49644   1.50661   1.51503   1.52107   1.52430
 Alpha virt. eigenvalues --    1.53030   1.53445   1.53945   1.54502   1.54816
 Alpha virt. eigenvalues --    1.55389   1.55610   1.56224   1.56674   1.57357
 Alpha virt. eigenvalues --    1.57886   1.58287   1.59998   1.60934   1.61103
 Alpha virt. eigenvalues --    1.62225   1.62589   1.62737   1.63575   1.63805
 Alpha virt. eigenvalues --    1.65363   1.65666   1.66189   1.66453   1.67409
 Alpha virt. eigenvalues --    1.68288   1.68427   1.69013   1.69481   1.69813
 Alpha virt. eigenvalues --    1.70028   1.70739   1.71639   1.72086   1.72259
 Alpha virt. eigenvalues --    1.72920   1.73873   1.74448   1.75216   1.75593
 Alpha virt. eigenvalues --    1.75951   1.76919   1.77383   1.78281   1.78587
 Alpha virt. eigenvalues --    1.78689   1.79688   1.79874   1.80521   1.82629
 Alpha virt. eigenvalues --    1.83517   1.84139   1.84836   1.85175   1.85793
 Alpha virt. eigenvalues --    1.86478   1.87120   1.87367   1.88580   1.89077
 Alpha virt. eigenvalues --    1.89397   1.90226   1.90626   1.91002   1.91717
 Alpha virt. eigenvalues --    1.92382   1.93132   1.93944   1.94898   1.94962
 Alpha virt. eigenvalues --    1.96356   1.96861   1.97145   1.97995   1.99070
 Alpha virt. eigenvalues --    2.00025   2.00075   2.00774   2.01905   2.01968
 Alpha virt. eigenvalues --    2.02548   2.03497   2.03719   2.04031   2.04958
 Alpha virt. eigenvalues --    2.05468   2.06314   2.06460   2.07432   2.07841
 Alpha virt. eigenvalues --    2.08475   2.09534   2.10289   2.10615   2.11485
 Alpha virt. eigenvalues --    2.12178   2.13440   2.13937   2.14805   2.15122
 Alpha virt. eigenvalues --    2.16322   2.17005   2.18185   2.18717   2.19193
 Alpha virt. eigenvalues --    2.19670   2.21077   2.21633   2.22306   2.22528
 Alpha virt. eigenvalues --    2.24174   2.24764   2.26578   2.26682   2.29200
 Alpha virt. eigenvalues --    2.31872   2.32451   2.34350   2.35776   2.37755
 Alpha virt. eigenvalues --    2.38795   2.38972   2.40302   2.41621   2.42651
 Alpha virt. eigenvalues --    2.43205   2.43595   2.44698   2.45055   2.46014
 Alpha virt. eigenvalues --    2.46494   2.47680   2.48039   2.48568   2.49488
 Alpha virt. eigenvalues --    2.50629   2.51079   2.51946   2.52510   2.52515
 Alpha virt. eigenvalues --    2.52898   2.53693   2.54191   2.54917   2.56265
 Alpha virt. eigenvalues --    2.56973   2.57950   2.59059   2.59262   2.60937
 Alpha virt. eigenvalues --    2.62812   2.63380   2.63692   2.64996   2.66496
 Alpha virt. eigenvalues --    2.66760   2.67164   2.67616   2.68094   2.68538
 Alpha virt. eigenvalues --    2.68947   2.70013   2.71148   2.71395   2.71730
 Alpha virt. eigenvalues --    2.72278   2.73270   2.73735   2.73985   2.75932
 Alpha virt. eigenvalues --    2.76792   2.77000   2.77508   2.78483   2.81024
 Alpha virt. eigenvalues --    2.81302   2.82252   2.82887   2.83106   2.83611
 Alpha virt. eigenvalues --    2.84278   2.84488   2.85395   2.85937   2.86893
 Alpha virt. eigenvalues --    2.88294   2.88723   2.89024   2.89497   2.90550
 Alpha virt. eigenvalues --    2.91827   2.91920   2.92560   2.93121   2.94600
 Alpha virt. eigenvalues --    2.95137   2.95747   2.96263   2.97394   2.99135
 Alpha virt. eigenvalues --    3.00234   3.02286   3.02698   3.03562   3.04584
 Alpha virt. eigenvalues --    3.05445   3.06678   3.07716   3.09480   3.10825
 Alpha virt. eigenvalues --    3.11604   3.13477   3.14317   3.14661   3.15294
 Alpha virt. eigenvalues --    3.17182   3.17532   3.18345   3.20668   3.21858
 Alpha virt. eigenvalues --    3.22887   3.23442   3.23925   3.25105   3.26572
 Alpha virt. eigenvalues --    3.28771   3.29293   3.30582   3.32059   3.34766
 Alpha virt. eigenvalues --    3.35269   3.35605   3.35862   3.36977   3.37936
 Alpha virt. eigenvalues --    3.39515   3.40394   3.40874   3.43138   3.44159
 Alpha virt. eigenvalues --    3.44447   3.45597   3.46034   3.48805   3.49561
 Alpha virt. eigenvalues --    3.51529   3.53653   3.55595   3.58552   3.60622
 Alpha virt. eigenvalues --    3.60828   3.62674   3.65571   3.66204   3.67093
 Alpha virt. eigenvalues --    3.68890   3.70063   3.72709   3.74058   3.75737
 Alpha virt. eigenvalues --    3.76220   3.76750   3.80516   3.82691   3.84470
 Alpha virt. eigenvalues --    3.85648   3.86200   3.89886   3.91521   3.93095
 Alpha virt. eigenvalues --    3.93527   3.95535   3.97087   4.01882   4.02960
 Alpha virt. eigenvalues --    4.04340   4.07902   4.10085   4.12744   4.14239
 Alpha virt. eigenvalues --    4.20169   4.23754   4.25484   4.27316   4.35555
 Alpha virt. eigenvalues --    4.39708   4.41080   4.53341   4.71505   4.84809
 Alpha virt. eigenvalues --    4.85357   4.87506   4.90071   5.00713   5.02054
 Alpha virt. eigenvalues --    5.04238   5.05758   5.06682   5.11250   5.11491
 Alpha virt. eigenvalues --    5.12518   5.25313   5.27177   5.28270   5.30011
 Alpha virt. eigenvalues --    5.41694   5.43008   5.76057   5.76670   5.79847
 Alpha virt. eigenvalues --    5.80267   5.82712   5.84213   8.02334   8.04950
 Alpha virt. eigenvalues --   17.28418  17.30481  17.49388  17.52140  17.57830
 Alpha virt. eigenvalues --   17.63977  23.48939  23.56515  23.71171  23.78833
 Alpha virt. eigenvalues --   23.82750  23.83508  23.84995  23.87322  23.87574
 Alpha virt. eigenvalues --   23.88526  23.89297  23.90153  23.91200  23.93466
 Alpha virt. eigenvalues --   23.95013  23.95562  23.96393  23.98333  24.01144
 Alpha virt. eigenvalues --   24.01662  24.02329  24.05678  24.12405  24.14287
 Alpha virt. eigenvalues --   24.14856  24.15151  35.56050  35.58514  49.95683
 Alpha virt. eigenvalues --   49.97679  50.02756  50.04099  50.06210  50.07382
 Alpha virt. eigenvalues --  189.19678 189.22926
          Condensed to atoms (all electrons):
 Mulliken charges:
               1
     1  C    0.296442
     2  C   -0.025193
     3  C    0.178297
     4  C    0.209994
     5  C    0.259700
     6  C    0.127691
     7  C    0.194758
     8  C    0.455744
     9  C    0.197332
    10  C   -0.826528
    11  C    0.230887
    12  C    0.147342
    13  C   -0.481213
    14  C   -0.590337
    15  H    0.157674
    16  H    0.160642
    17  H    0.165578
    18  N   -0.065833
    19  N   -0.141551
    20  O   -0.287480
    21  O   -0.268053
    22  O   -0.281481
    23  O   -0.260602
    24  C   -0.159202
    25  H    0.178172
    26  H    0.164404
    27  H    0.183508
    28  C   -0.197373
    29  H    0.173698
    30  H    0.172962
    31  H    0.181664
    32  C   -0.033284
    33  C   -0.099316
    34  S   -0.666810
    35  C   -0.630878
    36  H    0.156640
    37  C    0.621206
    38  O   -0.125610
    39  C    0.997603
    40  C   -0.244797
    41  C    0.021282
    42  S   -0.222223
    43  H    0.167059
    44  H    0.145617
    45  H    0.164450
    46  C   -0.588706
    47  O   -0.127310
    48  C   -0.308252
    49  H    0.133963
    50  C   -0.242303
    51  H    0.163759
    52  H    0.146033
    53  H    0.173138
    54  H    0.147100
 Sum of Mulliken charges =  -0.00000
 Mulliken charges with hydrogens summed into heavy atoms:
               1
     1  C    0.296442
     2  C   -0.025193
     3  C    0.178297
     4  C    0.209994
     5  C    0.259700
     6  C    0.293269
     7  C    0.194758
     8  C    0.455744
     9  C    0.197332
    10  C   -0.826528
    11  C    0.230887
    12  C    0.147342
    13  C   -0.320572
    14  C   -0.432663
    18  N   -0.065833
    19  N   -0.141551
    20  O   -0.287480
    21  O   -0.268053
    22  O   -0.281481
    23  O   -0.260602
    24  C    0.366881
    28  C    0.330951
    32  C   -0.033284
    33  C    0.057324
    34  S   -0.666810
    35  C   -0.630878
    37  C    0.621206
    38  O   -0.125610
    39  C    0.997603
    40  C    0.232329
    41  C    0.021282
    42  S   -0.222223
    46  C   -0.454743
    47  O   -0.127310
    48  C   -0.144494
    50  C    0.223968
 Electronic spatial extent (au):  <R**2>=          22431.3710
 Charge=              0.0000 electrons
 Dipole moment (field-independent basis, Debye):
    X=              5.8097    Y=             -0.7057    Z=             -0.4267  Tot=              5.8680
 Quadrupole moment (field-independent basis, Debye-Ang):
   XX=           -214.5576   YY=           -207.9294   ZZ=           -223.6303
   XY=             -5.0154   XZ=             -1.8027   YZ=             -6.7551
 Traceless Quadrupole moment (field-independent basis, Debye-Ang):
   XX=              0.8148   YY=              7.4430   ZZ=             -8.2578
   XY=             -5.0154   XZ=             -1.8027   YZ=             -6.7551
 Octapole moment (field-independent basis, Debye-Ang**2):
  XXX=            406.8760  YYY=            -15.9069  ZZZ=              3.0532  XYY=            150.3360
  XXY=            -88.3788  XXZ=             23.2284  XZZ=            -11.4945  YZZ=             -3.5724
  YYZ=              0.1247  XYZ=            -27.3214
 Hexadecapole moment (field-independent basis, Debye-Ang**3):
 XXXX=         -20661.9315 YYYY=          -7909.5970 ZZZZ=           -458.2688 XXXY=           -594.2425
 XXXZ=            -49.7843 YYYX=            225.0028 YYYZ=            -58.8067 ZZZX=              4.5069
 ZZZY=              0.2081 XXYY=          -4966.3600 XXZZ=          -3764.7866 YYZZ=          -1457.4917
 XXYZ=           -125.6769 YYXZ=            -32.5477 ZZXY=             13.2144
 N-N= 4.088554740668D+03 E-N=-1.371705682410D+04  KE= 2.352058225706D+03
 Unable to Open any file for archive entry.
 1\1\GINC-CX3-6-11\FOpt\RB3LYP\6-311+G(d,p)\C26H18N2O6S2\NS5018\26-Nov-
 2020\0\\# opt=modredundant b3lyp/6-311+g(d,p)\\NDI_-10.pdb\\0,1\C,-2.5
 620753206,-2.9716338436,-0.4748433445\C,-2.2558330134,-1.5355465477,-0
 .2418690333\C,-3.2996100904,-0.5944936118,-0.088573333\C,-4.645548893,
 -0.9991765566,-0.1747495195\C,-4.9889982849,-2.4253683557,-0.420231422
 1\C,-0.9526472571,-1.1237258387,-0.2211633785\C,-2.9548482946,0.761777
 886,0.1638503916\C,-1.5866942514,1.1725217601,0.2490197015\C,-0.547854
 7329,0.2339379838,-0.0170721594\C,-1.3398452321,2.5461687902,0.7565829
 324\C,-3.7626648551,3.1097705289,0.5884773989\C,-4.0241926516,1.681606
 2633,0.3135533265\C,-5.345587178,1.2682524982,0.2073159519\C,-5.665001
 5443,-0.0699888162,-0.0321733772\H,-6.6933650617,-0.3987332786,-0.1068
 797113\H,-6.1219834868,2.0144625385,0.3193269942\H,-0.2083400709,-1.88
 78680876,-0.4025645028\N,-2.4249224486,3.441048337,0.8065143552\N,-3.9
 140901061,-3.3224530771,-0.5477148268\O,-1.6972233824,-3.8195367044,-0
 .6008112763\O,-6.1407373876,-2.8080429254,-0.5047568672\O,-4.649236369
 5,3.9446008469,0.6513198351\O,-0.2582291659,2.9466201294,1.1569256883\
 C,-2.1114314311,4.8125879711,1.2310597078\H,-1.760183344,4.8149166377,
 2.2637095423\H,-1.3228573312,5.2205880283,0.5996013377\H,-3.0186554357
 ,5.4014105942,1.1391652964\C,-4.2073884348,-4.7434255495,-0.7820290405
 \H,-3.7631677082,-5.0604552421,-1.7259048087\H,-3.7780228692,-5.344387
 8796,0.0198615329\H,-5.2859124028,-4.8612225536,-0.8108950947\C,0.8698
 257921,0.4928321294,-0.2408615491\C,1.5786433161,1.665704543,-0.440780
 4521\S,1.9854249793,-0.8793829043,-0.2852802154\C,2.9523717874,1.47164
 88211,-0.649864302\H,1.1192956463,2.636304666,-0.4284756144\C,3.366350
 0519,0.1379046764,-0.590354627\O,3.8770194773,2.4375907205,-0.88410891
 14\C,4.6968233411,-0.3749319048,-0.7379751853\C,3.4431866336,3.7967089
 582,-0.8713504618\C,5.1052396259,-1.705499497,-0.6828139925\S,6.096635
 1747,0.6534241321,-1.025767422\H,4.3375584238,4.3951680266,-1.03417239
 59\H,2.7257611322,3.9859014843,-1.6761221622\H,2.994798543,4.056150814
 7,0.0922170014\C,6.5019264083,-1.8927953825,-0.86624824\O,4.1819389989
 ,-2.674107124,-0.4675777138\C,7.1545791153,-0.7065397923,-1.0605832086
 \H,6.9988742913,-2.8516833396,-0.855388429\C,4.6197335311,-4.030520216
 6,-0.4254549306\H,8.2107935233,-0.556748523,-1.2246257208\H,5.33016864
 97,-4.1881493362,0.392020116\H,3.7257121274,-4.6256639409,-0.250271290
 5\H,5.0744874657,-4.3255289366,-1.3762125898\\Version=ES64L-G16RevC.01
 \State=1-A\HF=-2359.3363586\RMSD=5.672e-09\RMSF=8.626e-04\Dipole=2.254
 7831,-0.2957419,-0.3978348\Quadrupole=0.0953423,6.8031024,-6.8984447,-
 3.656578,-2.5281004,-2.9262821\PG=C01 [X(C26H18N2O6S2)]\\@
 The archive entry for this job was punched.


 NECESSARY EVIL: ONE WE LIKE TOO MUCH TO RELINQUISH.
 Job cpu time:       2 days 18 hours  4 minutes 48.3 seconds.
 Elapsed time:       0 days  4 hours  9 minutes 51.1 seconds.
 File lengths (MBytes):  RWF=    496 Int=      0 D2E=      0 Chk=     61 Scr=      1
 Normal termination of Gaussian 16 at Thu Nov 26 10:05:25 2020.
