 Entering Gaussian System, Link 0=g16
 Input=NDI_55.gjf
 Output=NDI_55.log
 Initial command:
 /apps/gaussian/g16-c01-avx/g16/l1.exe "/tmp/pbs.2610758[47].pbs/Gau-2225129.inp" -scrdir="/tmp/pbs.2610758[47].pbs/"
 Entering Link 1 = /apps/gaussian/g16-c01-avx/g16/l1.exe PID=   2225130.
  
 Copyright (c) 1988-2019, Gaussian, Inc.  All Rights Reserved.
  
 This is part of the Gaussian(R) 16 program.  It is based on
 the Gaussian(R) 09 system (copyright 2009, Gaussian, Inc.),
 the Gaussian(R) 03 system (copyright 2003, Gaussian, Inc.),
 the Gaussian(R) 98 system (copyright 1998, Gaussian, Inc.),
 the Gaussian(R) 94 system (copyright 1995, Gaussian, Inc.),
 the Gaussian 92(TM) system (copyright 1992, Gaussian, Inc.),
 the Gaussian 90(TM) system (copyright 1990, Gaussian, Inc.),
 the Gaussian 88(TM) system (copyright 1988, Gaussian, Inc.),
 the Gaussian 86(TM) system (copyright 1986, Carnegie Mellon
 University), and the Gaussian 82(TM) system (copyright 1983,
 Carnegie Mellon University). Gaussian is a federally registered
 trademark of Gaussian, Inc.
  
 This software contains proprietary and confidential information,
 including trade secrets, belonging to Gaussian, Inc.
  
 This software is provided under written license and may be
 used, copied, transmitted, or stored only in accord with that
 written license.
  
 The following legend is applicable only to US Government
 contracts under FAR:
  
                    RESTRICTED RIGHTS LEGEND
  
 Use, reproduction and disclosure by the US Government is
 subject to restrictions as set forth in subparagraphs (a)
 and (c) of the Commercial Computer Software - Restricted
 Rights clause in FAR 52.227-19.
  
 Gaussian, Inc.
 340 Quinnipiac St., Bldg. 40, Wallingford CT 06492
  
  
 ---------------------------------------------------------------
 Warning -- This program may not be used in any manner that
 competes with the business of Gaussian, Inc. or will provide
 assistance to any competitor of Gaussian, Inc.  The licensee
 of this program is prohibited from giving any competitor of
 Gaussian, Inc. access to this program.  By using this program,
 the user acknowledges that Gaussian, Inc. is engaged in the
 business of creating and licensing software in the field of
 computational chemistry and represents and warrants to the
 licensee that it is not a competitor of Gaussian, Inc. and that
 it will not use this program in any manner prohibited above.
 ---------------------------------------------------------------
  

 Cite this work as:
 Gaussian 16, Revision C.01,
 M. J. Frisch, G. W. Trucks, H. B. Schlegel, G. E. Scuseria, 
 M. A. Robb, J. R. Cheeseman, G. Scalmani, V. Barone, 
 G. A. Petersson, H. Nakatsuji, X. Li, M. Caricato, A. V. Marenich, 
 J. Bloino, B. G. Janesko, R. Gomperts, B. Mennucci, H. P. Hratchian, 
 J. V. Ortiz, A. F. Izmaylov, J. L. Sonnenberg, D. Williams-Young, 
 F. Ding, F. Lipparini, F. Egidi, J. Goings, B. Peng, A. Petrone, 
 T. Henderson, D. Ranasinghe, V. G. Zakrzewski, J. Gao, N. Rega, 
 G. Zheng, W. Liang, M. Hada, M. Ehara, K. Toyota, R. Fukuda, 
 J. Hasegawa, M. Ishida, T. Nakajima, Y. Honda, O. Kitao, H. Nakai, 
 T. Vreven, K. Throssell, J. A. Montgomery, Jr., J. E. Peralta, 
 F. Ogliaro, M. J. Bearpark, J. J. Heyd, E. N. Brothers, K. N. Kudin, 
 V. N. Staroverov, T. A. Keith, R. Kobayashi, J. Normand, 
 K. Raghavachari, A. P. Rendell, J. C. Burant, S. S. Iyengar, 
 J. Tomasi, M. Cossi, J. M. Millam, M. Klene, C. Adamo, R. Cammi, 
 J. W. Ochterski, R. L. Martin, K. Morokuma, O. Farkas, 
 J. B. Foresman, and D. J. Fox, Gaussian, Inc., Wallingford CT, 2019.
 
 ******************************************
 Gaussian 16:  ES64L-G16RevC.01  3-Jul-2019
                26-Nov-2020 
 ******************************************
 %mem=10GB
 %nprocshared=16
 Will use up to   16 processors via shared memory.
 -------------------------------------
 # opt=modredundant b3lyp/6-311+g(d,p)
 -------------------------------------
 1/18=120,19=15,26=3,38=1/1,3;
 2/9=110,12=2,17=6,18=5,40=1/2;
 3/5=4,6=6,7=111,11=2,25=1,30=1,71=1,74=-5/1,2,3;
 4//1;
 5/5=2,38=5/2;
 6/7=2,8=2,9=2,10=2,28=1/1;
 7//1,2,3,16;
 1/18=20,19=15,26=3/3(2);
 2/9=110/2;
 99//99;
 2/9=110/2;
 3/5=4,6=6,7=111,11=2,25=1,30=1,71=1,74=-5/1,2,3;
 4/5=5,16=3,69=1/1;
 5/5=2,38=5/2;
 7//1,2,3,16;
 1/18=20,19=15,26=3/3(-5);
 2/9=110/2;
 6/7=2,8=2,9=2,10=2,19=2,28=1/1;
 99/9=1/99;
 ----------
 NDI_55.pdb
 ----------
 Symbolic Z-matrix:
 Charge =  0 Multiplicity = 1
 C                    -2.563    -2.994    -0.409 
 C                    -2.257    -1.551    -0.224 
 C                    -3.301    -0.607    -0.083 
 C                    -4.65     -1.024    -0.115 
 C                    -4.992    -2.459    -0.304 
 C                    -0.949    -1.137    -0.215 
 C                    -2.962     0.764     0.102 
 C                    -1.595     1.188     0.123 
 C                    -0.561     0.232    -0.072 
 C                    -1.328     2.616     0.446 
 C                    -3.777     3.115     0.508 
 C                    -4.035     1.679     0.268 
 C                    -5.356     1.252     0.23 
 C                    -5.672    -0.098     0.036 
 H                    -6.699    -0.442     0.008 
 H                    -6.133     1.997     0.361 
 H                    -0.19     -1.895    -0.369 
 N                    -2.432     3.476     0.608 
 N                    -3.916    -3.353    -0.438 
 O                    -1.695    -3.847    -0.532 
 O                    -6.149    -2.85     -0.34 
 O                    -4.676     3.938     0.629 
 O                    -0.212     3.097     0.596 
 C                    -2.111     4.875     0.912 
 H                    -1.54      4.931     1.84 
 H                    -1.5       5.299     0.111 
 H                    -3.05      5.414     1.003 
 C                    -4.206    -4.779    -0.625 
 H                    -3.759    -5.126    -1.559 
 H                    -3.775    -5.355     0.196 
 H                    -5.286    -4.897    -0.649 
 C                     0.876     0.482    -0.178 
 C                     1.745     1.135     0.674 
 S                     1.707     0.044    -1.671 
 C                     3.045     1.278     0.151 
 H                     1.451     1.49      1.649 
 C                     3.219     0.73     -1.124 
 O                     4.101     1.88      0.761 
 C                     4.426     0.678    -1.9 
 C                     3.929     2.298     2.112 
 C                     4.592     0.153    -3.18 
 S                     5.968     1.304    -1.322 
 H                     4.9       2.674     2.436 
 H                     3.185     3.101     2.187 
 H                     3.626     1.46      2.751 
 C                     5.921     0.25     -3.682 
 O                     3.523    -0.39     -3.819 
 C                     6.763     0.849    -2.785 
 H                     6.235    -0.103    -4.655 
 C                     3.715    -0.886    -5.139 
 H                     7.819     1.051    -2.908 
 H                     4.442    -1.708    -5.153 
 H                     2.744    -1.257    -5.465 
 H                     4.049    -0.093    -5.817 
 
 The following ModRedundant input section has been read:
 D       8       9      32      33 F                                           
 

 GradGradGradGradGradGradGradGradGradGradGradGradGradGradGradGradGradGrad
 Berny optimization.
 Initialization pass.
                           ----------------------------
                           !    Initial Parameters    !
                           ! (Angstroms and Degrees)  !
 --------------------------                            --------------------------
 ! Name  Definition              Value          Derivative Info.                !
 --------------------------------------------------------------------------------
 ! R1    R(1,2)                  1.4866         estimate D2E/DX2                !
 ! R2    R(1,19)                 1.4001         estimate D2E/DX2                !
 ! R3    R(1,20)                 1.2232         estimate D2E/DX2                !
 ! R4    R(2,3)                  1.4146         estimate D2E/DX2                !
 ! R5    R(2,6)                  1.372          estimate D2E/DX2                !
 ! R6    R(3,4)                  1.4123         estimate D2E/DX2                !
 ! R7    R(3,7)                  1.4244         estimate D2E/DX2                !
 ! R8    R(4,5)                  1.4872         estimate D2E/DX2                !
 ! R9    R(4,14)                 1.3874         estimate D2E/DX2                !
 ! R10   R(5,19)                 1.4053         estimate D2E/DX2                !
 ! R11   R(5,21)                 1.2218         estimate D2E/DX2                !
 ! R12   R(6,9)                  1.4301         estimate D2E/DX2                !
 ! R13   R(6,17)                 1.0837         estimate D2E/DX2                !
 ! R14   R(7,8)                  1.4314         estimate D2E/DX2                !
 ! R15   R(7,12)                 1.4199         estimate D2E/DX2                !
 ! R16   R(8,9)                  1.4217         estimate D2E/DX2                !
 ! R17   R(8,10)                 1.4882         estimate D2E/DX2                !
 ! R18   R(9,32)                 1.4624         estimate D2E/DX2                !
 ! R19   R(10,18)                1.4088         estimate D2E/DX2                !
 ! R20   R(10,23)                1.2245         estimate D2E/DX2                !
 ! R21   R(11,12)                1.4786         estimate D2E/DX2                !
 ! R22   R(11,18)                1.3962         estimate D2E/DX2                !
 ! R23   R(11,22)                1.2248         estimate D2E/DX2                !
 ! R24   R(12,13)                1.3888         estimate D2E/DX2                !
 ! R25   R(13,14)                1.4            estimate D2E/DX2                !
 ! R26   R(13,16)                1.0844         estimate D2E/DX2                !
 ! R27   R(14,15)                1.0834         estimate D2E/DX2                !
 ! R28   R(18,24)                1.4672         estimate D2E/DX2                !
 ! R29   R(19,28)                1.4672         estimate D2E/DX2                !
 ! R30   R(24,25)                1.091          estimate D2E/DX2                !
 ! R31   R(24,26)                1.093          estimate D2E/DX2                !
 ! R32   R(24,27)                1.0865         estimate D2E/DX2                !
 ! R33   R(28,29)                1.0921         estimate D2E/DX2                !
 ! R34   R(28,30)                1.0916         estimate D2E/DX2                !
 ! R35   R(28,31)                1.0867         estimate D2E/DX2                !
 ! R36   R(32,33)                1.3811         estimate D2E/DX2                !
 ! R37   R(32,34)                1.7639         estimate D2E/DX2                !
 ! R38   R(33,35)                1.4085         estimate D2E/DX2                !
 ! R39   R(33,36)                1.0785         estimate D2E/DX2                !
 ! R40   R(34,37)                1.7481         estimate D2E/DX2                !
 ! R41   R(35,37)                1.3986         estimate D2E/DX2                !
 ! R42   R(35,38)                1.36           estimate D2E/DX2                !
 ! R43   R(37,39)                1.4359         estimate D2E/DX2                !
 ! R44   R(38,40)                1.4246         estimate D2E/DX2                !
 ! R45   R(39,41)                1.3934         estimate D2E/DX2                !
 ! R46   R(39,42)                1.7617         estimate D2E/DX2                !
 ! R47   R(40,43)                1.0905         estimate D2E/DX2                !
 ! R48   R(40,44)                1.0973         estimate D2E/DX2                !
 ! R49   R(40,45)                1.0965         estimate D2E/DX2                !
 ! R50   R(41,46)                1.424          estimate D2E/DX2                !
 ! R51   R(41,47)                1.3587         estimate D2E/DX2                !
 ! R52   R(42,48)                1.7261         estimate D2E/DX2                !
 ! R53   R(46,48)                1.3683         estimate D2E/DX2                !
 ! R54   R(46,49)                1.0816         estimate D2E/DX2                !
 ! R55   R(47,50)                1.4231         estimate D2E/DX2                !
 ! R56   R(48,51)                1.0822         estimate D2E/DX2                !
 ! R57   R(50,52)                1.0975         estimate D2E/DX2                !
 ! R58   R(50,53)                1.0894         estimate D2E/DX2                !
 ! R59   R(50,54)                1.0955         estimate D2E/DX2                !
 ! A1    A(2,1,19)             116.767          estimate D2E/DX2                !
 ! A2    A(2,1,20)             122.9113         estimate D2E/DX2                !
 ! A3    A(19,1,20)            120.3217         estimate D2E/DX2                !
 ! A4    A(1,2,3)              120.5473         estimate D2E/DX2                !
 ! A5    A(1,2,6)              119.3369         estimate D2E/DX2                !
 ! A6    A(3,2,6)              120.1056         estimate D2E/DX2                !
 ! A7    A(2,3,4)              120.3743         estimate D2E/DX2                !
 ! A8    A(2,3,7)              118.662          estimate D2E/DX2                !
 ! A9    A(4,3,7)              120.9617         estimate D2E/DX2                !
 ! A10   A(3,4,5)              120.4909         estimate D2E/DX2                !
 ! A11   A(3,4,14)             120.2702         estimate D2E/DX2                !
 ! A12   A(5,4,14)             119.2382         estimate D2E/DX2                !
 ! A13   A(4,5,19)             116.7341         estimate D2E/DX2                !
 ! A14   A(4,5,21)             122.024          estimate D2E/DX2                !
 ! A15   A(19,5,21)            121.2418         estimate D2E/DX2                !
 ! A16   A(2,6,9)              123.2421         estimate D2E/DX2                !
 ! A17   A(2,6,17)             117.1119         estimate D2E/DX2                !
 ! A18   A(9,6,17)             119.589          estimate D2E/DX2                !
 ! A19   A(3,7,8)              120.9519         estimate D2E/DX2                !
 ! A20   A(3,7,12)             117.1037         estimate D2E/DX2                !
 ! A21   A(8,7,12)             121.944          estimate D2E/DX2                !
 ! A22   A(7,8,9)              119.5639         estimate D2E/DX2                !
 ! A23   A(7,8,10)             117.3064         estimate D2E/DX2                !
 ! A24   A(9,8,10)             122.9922         estimate D2E/DX2                !
 ! A25   A(6,9,8)              117.3944         estimate D2E/DX2                !
 ! A26   A(6,9,32)             115.0236         estimate D2E/DX2                !
 ! A27   A(8,9,32)             127.5648         estimate D2E/DX2                !
 ! A28   A(8,10,18)            118.042          estimate D2E/DX2                !
 ! A29   A(8,10,23)            124.5436         estimate D2E/DX2                !
 ! A30   A(18,10,23)           117.4097         estimate D2E/DX2                !
 ! A31   A(12,11,18)           115.5202         estimate D2E/DX2                !
 ! A32   A(12,11,22)           122.7205         estimate D2E/DX2                !
 ! A33   A(18,11,22)           121.7534         estimate D2E/DX2                !
 ! A34   A(7,12,11)            120.8614         estimate D2E/DX2                !
 ! A35   A(7,12,13)            121.162          estimate D2E/DX2                !
 ! A36   A(11,12,13)           117.9699         estimate D2E/DX2                !
 ! A37   A(12,13,14)           120.9948         estimate D2E/DX2                !
 ! A38   A(12,13,16)           117.8401         estimate D2E/DX2                !
 ! A39   A(14,13,16)           121.1642         estimate D2E/DX2                !
 ! A40   A(4,14,13)            119.5003         estimate D2E/DX2                !
 ! A41   A(4,14,15)            118.9169         estimate D2E/DX2                !
 ! A42   A(13,14,15)           121.5811         estimate D2E/DX2                !
 ! A43   A(10,18,11)           126.0753         estimate D2E/DX2                !
 ! A44   A(10,18,24)           115.7508         estimate D2E/DX2                !
 ! A45   A(11,18,24)           118.1737         estimate D2E/DX2                !
 ! A46   A(1,19,5)             125.0856         estimate D2E/DX2                !
 ! A47   A(1,19,28)            116.2868         estimate D2E/DX2                !
 ! A48   A(5,19,28)            118.6276         estimate D2E/DX2                !
 ! A49   A(18,24,25)           109.8574         estimate D2E/DX2                !
 ! A50   A(18,24,26)           109.8979         estimate D2E/DX2                !
 ! A51   A(18,24,27)           107.5355         estimate D2E/DX2                !
 ! A52   A(25,24,26)           108.1108         estimate D2E/DX2                !
 ! A53   A(25,24,27)           110.8301         estimate D2E/DX2                !
 ! A54   A(26,24,27)           110.6124         estimate D2E/DX2                !
 ! A55   A(19,28,29)           109.6906         estimate D2E/DX2                !
 ! A56   A(19,28,30)           109.8136         estimate D2E/DX2                !
 ! A57   A(19,28,31)           107.7461         estimate D2E/DX2                !
 ! A58   A(29,28,30)           108.2991         estimate D2E/DX2                !
 ! A59   A(29,28,31)           110.6959         estimate D2E/DX2                !
 ! A60   A(30,28,31)           110.5924         estimate D2E/DX2                !
 ! A61   A(9,32,33)            130.8721         estimate D2E/DX2                !
 ! A62   A(9,32,34)            118.804          estimate D2E/DX2                !
 ! A63   A(33,32,34)           110.0672         estimate D2E/DX2                !
 ! A64   A(32,33,35)           113.5571         estimate D2E/DX2                !
 ! A65   A(32,33,36)           122.8075         estimate D2E/DX2                !
 ! A66   A(35,33,36)           123.6329         estimate D2E/DX2                !
 ! A67   A(32,34,37)            92.5898         estimate D2E/DX2                !
 ! A68   A(33,35,37)           114.4264         estimate D2E/DX2                !
 ! A69   A(33,35,38)           126.5147         estimate D2E/DX2                !
 ! A70   A(37,35,38)           119.0589         estimate D2E/DX2                !
 ! A71   A(34,37,35)           109.3535         estimate D2E/DX2                !
 ! A72   A(34,37,39)           122.9387         estimate D2E/DX2                !
 ! A73   A(35,37,39)           127.6928         estimate D2E/DX2                !
 ! A74   A(35,38,40)           117.4827         estimate D2E/DX2                !
 ! A75   A(37,39,41)           127.6069         estimate D2E/DX2                !
 ! A76   A(37,39,42)           123.0642         estimate D2E/DX2                !
 ! A77   A(41,39,42)           109.3288         estimate D2E/DX2                !
 ! A78   A(38,40,43)           105.9872         estimate D2E/DX2                !
 ! A79   A(38,40,44)           111.187          estimate D2E/DX2                !
 ! A80   A(38,40,45)           111.2086         estimate D2E/DX2                !
 ! A81   A(43,40,44)           109.3363         estimate D2E/DX2                !
 ! A82   A(43,40,45)           109.6582         estimate D2E/DX2                !
 ! A83   A(44,40,45)           109.3955         estimate D2E/DX2                !
 ! A84   A(39,41,46)           114.1652         estimate D2E/DX2                !
 ! A85   A(39,41,47)           119.2676         estimate D2E/DX2                !
 ! A86   A(46,41,47)           126.5669         estimate D2E/DX2                !
 ! A87   A(39,42,48)            91.7986         estimate D2E/DX2                !
 ! A88   A(41,46,48)           111.9023         estimate D2E/DX2                !
 ! A89   A(41,46,49)           124.4608         estimate D2E/DX2                !
 ! A90   A(48,46,49)           123.6368         estimate D2E/DX2                !
 ! A91   A(41,47,50)           117.9941         estimate D2E/DX2                !
 ! A92   A(42,48,46)           112.805          estimate D2E/DX2                !
 ! A93   A(42,48,51)           119.7736         estimate D2E/DX2                !
 ! A94   A(46,48,51)           127.4212         estimate D2E/DX2                !
 ! A95   A(47,50,52)           111.2388         estimate D2E/DX2                !
 ! A96   A(47,50,53)           106.0221         estimate D2E/DX2                !
 ! A97   A(47,50,54)           111.2782         estimate D2E/DX2                !
 ! A98   A(52,50,53)           109.3632         estimate D2E/DX2                !
 ! A99   A(52,50,54)           109.4099         estimate D2E/DX2                !
 ! A100  A(53,50,54)           109.4553         estimate D2E/DX2                !
 ! D1    D(19,1,2,3)             0.1578         estimate D2E/DX2                !
 ! D2    D(19,1,2,6)          -178.6792         estimate D2E/DX2                !
 ! D3    D(20,1,2,3)          -179.8231         estimate D2E/DX2                !
 ! D4    D(20,1,2,6)             1.3399         estimate D2E/DX2                !
 ! D5    D(2,1,19,5)            -0.124          estimate D2E/DX2                !
 ! D6    D(2,1,19,28)          179.8267         estimate D2E/DX2                !
 ! D7    D(20,1,19,5)          179.8575         estimate D2E/DX2                !
 ! D8    D(20,1,19,28)          -0.1919         estimate D2E/DX2                !
 ! D9    D(1,2,3,4)              0.0571         estimate D2E/DX2                !
 ! D10   D(1,2,3,7)            179.5453         estimate D2E/DX2                !
 ! D11   D(6,2,3,4)            178.8851         estimate D2E/DX2                !
 ! D12   D(6,2,3,7)             -1.6266         estimate D2E/DX2                !
 ! D13   D(1,2,6,9)            178.625          estimate D2E/DX2                !
 ! D14   D(1,2,6,17)             1.3881         estimate D2E/DX2                !
 ! D15   D(3,2,6,9)             -0.2173         estimate D2E/DX2                !
 ! D16   D(3,2,6,17)          -177.4541         estimate D2E/DX2                !
 ! D17   D(2,3,4,5)             -0.3074         estimate D2E/DX2                !
 ! D18   D(2,3,4,14)           179.3968         estimate D2E/DX2                !
 ! D19   D(7,3,4,5)           -179.7837         estimate D2E/DX2                !
 ! D20   D(7,3,4,14)            -0.0795         estimate D2E/DX2                !
 ! D21   D(2,3,7,8)              1.0523         estimate D2E/DX2                !
 ! D22   D(2,3,7,12)          -178.712          estimate D2E/DX2                !
 ! D23   D(4,3,7,8)           -179.4626         estimate D2E/DX2                !
 ! D24   D(4,3,7,12)             0.7731         estimate D2E/DX2                !
 ! D25   D(3,4,5,19)             0.3343         estimate D2E/DX2                !
 ! D26   D(3,4,5,21)          -179.7799         estimate D2E/DX2                !
 ! D27   D(14,4,5,19)         -179.3729         estimate D2E/DX2                !
 ! D28   D(14,4,5,21)            0.5129         estimate D2E/DX2                !
 ! D29   D(3,4,14,13)           -0.4559         estimate D2E/DX2                !
 ! D30   D(3,4,14,15)         -179.9937         estimate D2E/DX2                !
 ! D31   D(5,4,14,13)          179.252          estimate D2E/DX2                !
 ! D32   D(5,4,14,15)           -0.2858         estimate D2E/DX2                !
 ! D33   D(4,5,19,1)            -0.1141         estimate D2E/DX2                !
 ! D34   D(4,5,19,28)          179.9364         estimate D2E/DX2                !
 ! D35   D(21,5,19,1)          179.9992         estimate D2E/DX2                !
 ! D36   D(21,5,19,28)           0.0496         estimate D2E/DX2                !
 ! D37   D(2,6,9,8)              2.5984         estimate D2E/DX2                !
 ! D38   D(2,6,9,32)          -176.0103         estimate D2E/DX2                !
 ! D39   D(17,6,9,8)           179.77           estimate D2E/DX2                !
 ! D40   D(17,6,9,32)            1.1613         estimate D2E/DX2                !
 ! D41   D(3,7,8,9)              1.3551         estimate D2E/DX2                !
 ! D42   D(3,7,8,10)          -174.5099         estimate D2E/DX2                !
 ! D43   D(12,7,8,9)          -178.8921         estimate D2E/DX2                !
 ! D44   D(12,7,8,10)            5.2428         estimate D2E/DX2                !
 ! D45   D(3,7,12,11)          178.0768         estimate D2E/DX2                !
 ! D46   D(3,7,12,13)           -0.9621         estimate D2E/DX2                !
 ! D47   D(8,7,12,11)           -1.685          estimate D2E/DX2                !
 ! D48   D(8,7,12,13)          179.2761         estimate D2E/DX2                !
 ! D49   D(7,8,9,6)             -3.0809         estimate D2E/DX2                !
 ! D50   D(7,8,9,32)           175.3285         estimate D2E/DX2                !
 ! D51   D(10,8,9,6)           172.5381         estimate D2E/DX2                !
 ! D52   D(10,8,9,32)           -9.0525         estimate D2E/DX2                !
 ! D53   D(7,8,10,18)           -4.7549         estimate D2E/DX2                !
 ! D54   D(7,8,10,23)          174.4235         estimate D2E/DX2                !
 ! D55   D(9,8,10,18)          179.5335         estimate D2E/DX2                !
 ! D56   D(9,8,10,23)           -1.2882         estimate D2E/DX2                !
 ! D57   D(6,9,32,33)         -126.5669         estimate D2E/DX2                !
 ! D58   D(6,9,32,34)           59.8904         estimate D2E/DX2                !
 ! D59   D(8,9,32,33)           54.9916         Frozen                          !
 ! D60   D(8,9,32,34)         -118.5511         estimate D2E/DX2                !
 ! D61   D(8,10,18,11)           0.7189         estimate D2E/DX2                !
 ! D62   D(8,10,18,24)        -179.4089         estimate D2E/DX2                !
 ! D63   D(23,10,18,11)       -178.5188         estimate D2E/DX2                !
 ! D64   D(23,10,18,24)          1.3535         estimate D2E/DX2                !
 ! D65   D(18,11,12,7)          -2.3856         estimate D2E/DX2                !
 ! D66   D(18,11,12,13)        176.6833         estimate D2E/DX2                !
 ! D67   D(22,11,12,7)         178.4862         estimate D2E/DX2                !
 ! D68   D(22,11,12,13)         -2.445          estimate D2E/DX2                !
 ! D69   D(12,11,18,10)          2.8444         estimate D2E/DX2                !
 ! D70   D(12,11,18,24)       -177.0251         estimate D2E/DX2                !
 ! D71   D(22,11,18,10)       -178.0181         estimate D2E/DX2                !
 ! D72   D(22,11,18,24)          2.1124         estimate D2E/DX2                !
 ! D73   D(7,12,13,14)           0.461          estimate D2E/DX2                !
 ! D74   D(7,12,13,16)        -179.8781         estimate D2E/DX2                !
 ! D75   D(11,12,13,14)       -178.6049         estimate D2E/DX2                !
 ! D76   D(11,12,13,16)          1.056          estimate D2E/DX2                !
 ! D77   D(12,13,14,4)           0.2708         estimate D2E/DX2                !
 ! D78   D(12,13,14,15)        179.7958         estimate D2E/DX2                !
 ! D79   D(16,13,14,4)        -179.3788         estimate D2E/DX2                !
 ! D80   D(16,13,14,15)          0.1463         estimate D2E/DX2                !
 ! D81   D(10,18,24,25)        -59.609          estimate D2E/DX2                !
 ! D82   D(10,18,24,26)         59.2209         estimate D2E/DX2                !
 ! D83   D(10,18,24,27)        179.6858         estimate D2E/DX2                !
 ! D84   D(11,18,24,25)        120.2739         estimate D2E/DX2                !
 ! D85   D(11,18,24,26)       -120.8962         estimate D2E/DX2                !
 ! D86   D(11,18,24,27)         -0.4313         estimate D2E/DX2                !
 ! D87   D(1,19,28,29)         -58.1407         estimate D2E/DX2                !
 ! D88   D(1,19,28,30)          60.7668         estimate D2E/DX2                !
 ! D89   D(1,19,28,31)        -178.7139         estimate D2E/DX2                !
 ! D90   D(5,19,28,29)         121.8132         estimate D2E/DX2                !
 ! D91   D(5,19,28,30)        -119.2792         estimate D2E/DX2                !
 ! D92   D(5,19,28,31)           1.2401         estimate D2E/DX2                !
 ! D93   D(9,32,33,35)        -174.2226         estimate D2E/DX2                !
 ! D94   D(9,32,33,36)           6.3357         estimate D2E/DX2                !
 ! D95   D(34,32,33,35)         -0.245          estimate D2E/DX2                !
 ! D96   D(34,32,33,36)       -179.6867         estimate D2E/DX2                !
 ! D97   D(9,32,34,37)         175.3668         estimate D2E/DX2                !
 ! D98   D(33,32,34,37)          0.5614         estimate D2E/DX2                !
 ! D99   D(32,33,35,37)         -0.3215         estimate D2E/DX2                !
 ! D100  D(32,33,35,38)        179.7341         estimate D2E/DX2                !
 ! D101  D(36,33,35,37)        179.115          estimate D2E/DX2                !
 ! D102  D(36,33,35,38)         -0.8295         estimate D2E/DX2                !
 ! D103  D(32,34,37,35)         -0.7255         estimate D2E/DX2                !
 ! D104  D(32,34,37,39)        177.9658         estimate D2E/DX2                !
 ! D105  D(33,35,37,34)          0.7301         estimate D2E/DX2                !
 ! D106  D(33,35,37,39)       -177.8819         estimate D2E/DX2                !
 ! D107  D(38,35,37,34)       -179.321          estimate D2E/DX2                !
 ! D108  D(38,35,37,39)          2.0671         estimate D2E/DX2                !
 ! D109  D(33,35,38,40)          6.5451         estimate D2E/DX2                !
 ! D110  D(37,35,38,40)       -173.3971         estimate D2E/DX2                !
 ! D111  D(34,37,39,41)          2.8155         estimate D2E/DX2                !
 ! D112  D(34,37,39,42)       -177.176          estimate D2E/DX2                !
 ! D113  D(35,37,39,41)       -178.7449         estimate D2E/DX2                !
 ! D114  D(35,37,39,42)          1.2635         estimate D2E/DX2                !
 ! D115  D(35,38,40,43)        175.4539         estimate D2E/DX2                !
 ! D116  D(35,38,40,44)        -65.8309         estimate D2E/DX2                !
 ! D117  D(35,38,40,45)         56.3402         estimate D2E/DX2                !
 ! D118  D(37,39,41,46)       -179.9488         estimate D2E/DX2                !
 ! D119  D(37,39,41,47)         -0.1588         estimate D2E/DX2                !
 ! D120  D(42,39,41,46)          0.0437         estimate D2E/DX2                !
 ! D121  D(42,39,41,47)        179.8337         estimate D2E/DX2                !
 ! D122  D(37,39,42,48)        179.9773         estimate D2E/DX2                !
 ! D123  D(41,39,42,48)         -0.0156         estimate D2E/DX2                !
 ! D124  D(39,41,46,48)         -0.0573         estimate D2E/DX2                !
 ! D125  D(39,41,46,49)       -179.9385         estimate D2E/DX2                !
 ! D126  D(47,41,46,48)       -179.8293         estimate D2E/DX2                !
 ! D127  D(47,41,46,49)          0.2895         estimate D2E/DX2                !
 ! D128  D(39,41,47,50)        178.3581         estimate D2E/DX2                !
 ! D129  D(46,41,47,50)         -1.8804         estimate D2E/DX2                !
 ! D130  D(39,42,48,46)         -0.0165         estimate D2E/DX2                !
 ! D131  D(39,42,48,51)        179.867          estimate D2E/DX2                !
 ! D132  D(41,46,48,42)          0.0439         estimate D2E/DX2                !
 ! D133  D(41,46,48,51)       -179.8288         estimate D2E/DX2                !
 ! D134  D(49,46,48,42)        179.9262         estimate D2E/DX2                !
 ! D135  D(49,46,48,51)          0.0534         estimate D2E/DX2                !
 ! D136  D(41,47,50,52)         62.038          estimate D2E/DX2                !
 ! D137  D(41,47,50,53)       -179.1656         estimate D2E/DX2                !
 ! D138  D(41,47,50,54)        -60.237          estimate D2E/DX2                !
 --------------------------------------------------------------------------------
 Trust Radius=3.00D-01 FncErr=1.00D-07 GrdErr=1.00D-06 EigMax=2.50D+02 EigMin=1.00D-04
 Number of steps in this run=    307 maximum allowed number of steps=    324.
 GradGradGradGradGradGradGradGradGradGradGradGradGradGradGradGradGradGrad

 Stoichiometry    C26H18N2O6S2
 Framework group  C1[X(C26H18N2O6S2)]
 Deg. of freedom   156
 Full point group                 C1      NOp   1
 Largest Abelian subgroup         C1      NOp   1
 Largest concise Abelian subgroup C1      NOp   1
                         Standard orientation:                         
 ---------------------------------------------------------------------
 Center     Atomic      Atomic             Coordinates (Angstroms)
 Number     Number       Type             X           Y           Z
 ---------------------------------------------------------------------
      1          6           0       -2.914762   -2.827157    0.854058
      2          6           0       -2.443696   -1.450339    0.549789
      3          6           0       -3.343703   -0.473754    0.062735
      4          6           0       -4.704171   -0.794256   -0.140041
      5          6           0       -5.208082   -2.163402    0.148788
      6          6           0       -1.118653   -1.139578    0.723084
      7          6           0       -2.851312    0.835440   -0.206247
      8          6           0       -1.470147    1.156943   -0.011509
      9          6           0       -0.570563    0.148250    0.429404
     10          6           0       -1.067206    2.577584   -0.196496
     11          6           0       -3.376410    3.192252   -0.931485
     12          6           0       -3.788763    1.797132   -0.667163
     13          6           0       -5.122383    1.463552   -0.864638
     14          6           0       -5.587581    0.168689   -0.605965
     15          1           0       -6.626481   -0.101032   -0.753571
     16          1           0       -5.791282    2.239628   -1.219876
     17          1           0       -0.464395   -1.935793    1.058269
     18          7           0       -2.041948    3.489079   -0.647844
     19          7           0       -4.271165   -3.093211    0.631085
     20          8           0       -2.175346   -3.703721    1.279572
     21          8           0       -6.378087   -2.472213   -0.020176
     22          8           0       -4.149841    4.042277   -1.355080
     23          8           0        0.053114    3.016684    0.030200
     24          6           0       -1.587144    4.872634   -0.825574
     25          1           0       -1.215730    5.265296    0.122175
     26          1           0       -0.769817    4.905323   -1.550561
     27          1           0       -2.435022    5.453155   -1.178591
     28          6           0       -4.723832   -4.456163    0.931085
     29          1           0       -4.151712   -5.172798    0.338054
     30          1           0       -4.559218   -4.676617    1.987438
     31          1           0       -5.781530   -4.514772    0.688719
     32          6           0        0.878627    0.255867    0.593638
     33          6           0        1.641950    1.147553    1.321449
     34         16           0        1.923078   -0.789356   -0.369734
     35          6           0        3.027909    0.997387    1.120092
     36          1           0        1.210710    1.879620    1.985675
     37          6           0        3.375811   -0.025036    0.231373
     38          8           0        4.014092    1.735080    1.697060
     39          6           0        4.694672   -0.449987   -0.145124
     40          6           0        3.633450    2.669060    2.703192
     41          6           0        5.039243   -1.452954   -1.048955
     42         16           0        6.161267    0.270290    0.513681
     43          1           0        4.562444    3.089939    3.089227
     44          1           0        3.016468    3.473876    2.284177
     45          1           0        3.086249    2.176036    3.515518
     46          6           0        6.442200   -1.638324   -1.207072
     47          8           0        4.055095   -2.147643   -1.677280
     48          6           0        7.162247   -0.776466   -0.425339
     49          1           0        6.892683   -2.368850   -1.865351
     50          6           0        4.437268   -3.141576   -2.621378
     51          1           0        8.239108   -0.698777   -0.351820
     52          1           0        5.022544   -3.938343   -2.144908
     53          1           0        3.509418   -3.558687   -3.011085
     54          1           0        5.015799   -2.707043   -3.443917
 ---------------------------------------------------------------------
 Rotational constants (GHZ):           0.1540678           0.0572883           0.0459939
 Standard basis: 6-311+G(d,p) (5D, 7F)
 There are   952 symmetry adapted cartesian basis functions of A   symmetry.
 There are   916 symmetry adapted basis functions of A   symmetry.
   916 basis functions,  1468 primitive gaussians,   952 cartesian basis functions
   134 alpha electrons      134 beta electrons
       nuclear repulsion energy      4083.3730128855 Hartrees.
 NAtoms=   54 NActive=   54 NUniq=   54 SFac= 1.00D+00 NAtFMM=   60 NAOKFM=F Big=F
 Integral buffers will be    131072 words long.
 Raffenetti 2 integral format.
 Two-electron integral symmetry is turned on.
 One-electron integrals computed using PRISM.
 NBasis=   916 RedAO= T EigKep=  1.54D-06  NBF=   916
 NBsUse=   901 1.00D-06 EigRej=  8.93D-07 NBFU=   901
 ExpMin= 4.05D-02 ExpMax= 9.34D+04 ExpMxC= 3.17D+03 IAcc=3 IRadAn=         5 AccDes= 0.00D+00
 Harris functional with IExCor=  402 and IRadAn=       5 diagonalized for initial guess.
 HarFok:  IExCor=  402 AccDes= 0.00D+00 IRadAn=         5 IDoV= 1 UseB2=F ITyADJ=14
 ICtDFT=  3500011 ScaDFX=  1.000000  1.000000  1.000000  1.000000
 FoFCou: FMM=F IPFlag=           0 FMFlag=      100000 FMFlg1=           0
         NFxFlg=           0 DoJE=T BraDBF=F KetDBF=T FulRan=T
         wScrn=  0.000000 ICntrl=       500 IOpCl=  0 I1Cent=   200000004 NGrid=           0
         NMat0=    1 NMatS0=      1 NMatT0=    0 NMatD0=    1 NMtDS0=    0 NMtDT0=    0
 Petite list used in FoFCou.
 Requested convergence on RMS density matrix=1.00D-08 within 128 cycles.
 Requested convergence on MAX density matrix=1.00D-06.
 Requested convergence on             energy=1.00D-06.
 No special actions if energy rises.
 SCF Done:  E(RB3LYP) =  -2359.33262186     A.U. after   17 cycles
            NFock= 17  Conv=0.80D-08     -V/T= 2.0032

 **********************************************************************

            Population analysis using the SCF Density.

 **********************************************************************

 Orbital symmetries:
       Occupied  (A) (A) (A) (A) (A) (A) (A) (A) (A) (A) (A) (A)
                 (A) (A) (A) (A) (A) (A) (A) (A) (A) (A) (A) (A)
                 (A) (A) (A) (A) (A) (A) (A) (A) (A) (A) (A) (A)
                 (A) (A) (A) (A) (A) (A) (A) (A) (A) (A) (A) (A)
                 (A) (A) (A) (A) (A) (A) (A) (A) (A) (A) (A) (A)
                 (A) (A) (A) (A) (A) (A) (A) (A) (A) (A) (A) (A)
                 (A) (A) (A) (A) (A) (A) (A) (A) (A) (A) (A) (A)
                 (A) (A) (A) (A) (A) (A) (A) (A) (A) (A) (A) (A)
                 (A) (A) (A) (A) (A) (A) (A) (A) (A) (A) (A) (A)
                 (A) (A) (A) (A) (A) (A) (A) (A) (A) (A) (A) (A)
                 (A) (A) (A) (A) (A) (A) (A) (A) (A) (A) (A) (A)
                 (A) (A)
       Virtual   (A) (A) (A) (A) (A) (A) (A) (A) (A) (A) (A) (A)
                 (A) (A) (A) (A) (A) (A) (A) (A) (A) (A) (A) (A)
                 (A) (A) (A) (A) (A) (A) (A) (A) (A) (A) (A) (A)
                 (A) (A) (A) (A) (A) (A) (A) (A) (A) (A) (A) (A)
                 (A) (A) (A) (A) (A) (A) (A) (A) (A) (A) (A) (A)
                 (A) (A) (A) (A) (A) (A) (A) (A) (A) (A) (A) (A)
                 (A) (A) (A) (A) (A) (A) (A) (A) (A) (A) (A) (A)
                 (A) (A) (A) (A) (A) (A) (A) (A) (A) (A) (A) (A)
                 (A) (A) (A) (A) (A) (A) (A) (A) (A) (A) (A) (A)
                 (A) (A) (A) (A) (A) (A) (A) (A) (A) (A) (A) (A)
                 (A) (A) (A) (A) (A) (A) (A) (A) (A) (A) (A) (A)
                 (A) (A) (A) (A) (A) (A) (A) (A) (A) (A) (A) (A)
                 (A) (A) (A) (A) (A) (A) (A) (A) (A) (A) (A) (A)
                 (A) (A) (A) (A) (A) (A) (A) (A) (A) (A) (A) (A)
                 (A) (A) (A) (A) (A) (A) (A) (A) (A) (A) (A) (A)
                 (A) (A) (A) (A) (A) (A) (A) (A) (A) (A) (A) (A)
                 (A) (A) (A) (A) (A) (A) (A) (A) (A) (A) (A) (A)
                 (A) (A) (A) (A) (A) (A) (A) (A) (A) (A) (A) (A)
                 (A) (A) (A) (A) (A) (A) (A) (A) (A) (A) (A) (A)
                 (A) (A) (A) (A) (A) (A) (A) (A) (A) (A) (A) (A)
                 (A) (A) (A) (A) (A) (A) (A) (A) (A) (A) (A) (A)
                 (A) (A) (A) (A) (A) (A) (A) (A) (A) (A) (A) (A)
                 (A) (A) (A) (A) (A) (A) (A) (A) (A) (A) (A) (A)
                 (A) (A) (A) (A) (A) (A) (A) (A) (A) (A) (A) (A)
                 (A) (A) (A) (A) (A) (A) (A) (A) (A) (A) (A) (A)
                 (A) (A) (A) (A) (A) (A) (A) (A) (A) (A) (A) (A)
                 (A) (A) (A) (A) (A) (A) (A) (A) (A) (A) (A) (A)
                 (A) (A) (A) (A) (A) (A) (A) (A) (A) (A) (A) (A)
                 (A) (A) (A) (A) (A) (A) (A) (A) (A) (A) (A) (A)
                 (A) (A) (A) (A) (A) (A) (A) (A) (A) (A) (A) (A)
                 (A) (A) (A) (A) (A) (A) (A) (A) (A) (A) (A) (A)
                 (A) (A) (A) (A) (A) (A) (A) (A) (A) (A) (A) (A)
                 (A) (A) (A) (A) (A) (A) (A) (A) (A) (A) (A) (A)
                 (A) (A) (A) (A) (A) (A) (A) (A) (A) (A) (A) (A)
                 (A) (A) (A) (A) (A) (A) (A) (A) (A) (A) (A) (A)
                 (A) (A) (A) (A) (A) (A) (A) (A) (A) (A) (A) (A)
                 (A) (A) (A) (A) (A) (A) (A) (A) (A) (A) (A) (A)
                 (A) (A) (A) (A) (A) (A) (A) (A) (A) (A) (A) (A)
                 (A) (A) (A) (A) (A) (A) (A) (A) (A) (A) (A) (A)
                 (A) (A) (A) (A) (A) (A) (A) (A) (A) (A) (A) (A)
                 (A) (A) (A) (A) (A) (A) (A) (A) (A) (A) (A) (A)
                 (A) (A) (A) (A) (A) (A) (A) (A) (A) (A) (A) (A)
                 (A) (A) (A) (A) (A) (A) (A) (A) (A) (A) (A) (A)
                 (A) (A) (A) (A) (A) (A) (A) (A) (A) (A) (A) (A)
                 (A) (A) (A) (A) (A) (A) (A) (A) (A) (A) (A) (A)
                 (A) (A) (A) (A) (A) (A) (A) (A) (A) (A) (A) (A)
                 (A) (A) (A) (A) (A) (A) (A) (A) (A) (A) (A) (A)
                 (A) (A) (A) (A) (A) (A) (A) (A) (A) (A) (A) (A)
                 (A) (A) (A) (A) (A) (A) (A) (A) (A) (A) (A) (A)
                 (A) (A) (A) (A) (A) (A) (A) (A) (A) (A) (A) (A)
                 (A) (A) (A) (A) (A) (A) (A) (A) (A) (A) (A) (A)
                 (A) (A) (A) (A) (A) (A) (A) (A) (A) (A) (A) (A)
                 (A) (A) (A) (A) (A) (A) (A) (A) (A) (A) (A) (A)
                 (A) (A) (A) (A) (A) (A) (A) (A) (A) (A) (A) (A)
                 (A) (A) (A) (A) (A) (A) (A) (A) (A) (A) (A) (A)
                 (A) (A) (A) (A) (A) (A) (A) (A) (A) (A) (A) (A)
                 (A) (A) (A) (A) (A) (A) (A) (A) (A) (A) (A) (A)
                 (A) (A) (A) (A) (A) (A) (A) (A) (A) (A) (A) (A)
                 (A) (A) (A) (A) (A) (A) (A) (A) (A) (A) (A) (A)
                 (A) (A) (A) (A) (A) (A) (A) (A) (A) (A) (A) (A)
                 (A) (A) (A) (A) (A) (A) (A) (A) (A) (A) (A) (A)
                 (A) (A) (A) (A) (A) (A) (A) (A) (A) (A) (A) (A)
                 (A) (A) (A) (A) (A) (A) (A) (A) (A) (A) (A) (A)
                 (A) (A) (A) (A) (A) (A) (A) (A) (A) (A) (A)
 The electronic state is 1-A.
 Alpha  occ. eigenvalues --  -88.88264 -88.88116 -19.16967 -19.16581 -19.12593
 Alpha  occ. eigenvalues --  -19.12524 -19.11990 -19.11949 -14.38809 -14.38351
 Alpha  occ. eigenvalues --  -10.31264 -10.31057 -10.30930 -10.30612 -10.24486
 Alpha  occ. eigenvalues --  -10.24176 -10.24087 -10.23781 -10.23373 -10.23318
 Alpha  occ. eigenvalues --  -10.23275 -10.22891 -10.22563 -10.22467 -10.22362
 Alpha  occ. eigenvalues --  -10.21885 -10.21704 -10.21548 -10.21475 -10.21426
 Alpha  occ. eigenvalues --  -10.21370 -10.21120 -10.20770 -10.20705 -10.18740
 Alpha  occ. eigenvalues --  -10.18659  -7.96793  -7.96659  -5.93114  -5.92969
 Alpha  occ. eigenvalues --   -5.92726  -5.92581  -5.92339  -5.92227  -1.08571
 Alpha  occ. eigenvalues --   -1.08532  -1.08183  -1.08126  -1.06684  -1.06191
 Alpha  occ. eigenvalues --   -0.96357  -0.95799  -0.92525  -0.89988  -0.88470
 Alpha  occ. eigenvalues --   -0.86640  -0.84431  -0.80427  -0.78613  -0.77508
 Alpha  occ. eigenvalues --   -0.76175  -0.75322  -0.75012  -0.73012  -0.72485
 Alpha  occ. eigenvalues --   -0.71895  -0.70157  -0.68790  -0.67269  -0.65982
 Alpha  occ. eigenvalues --   -0.65602  -0.64796  -0.60991  -0.59672  -0.58631
 Alpha  occ. eigenvalues --   -0.57495  -0.56704  -0.56132  -0.55390  -0.54503
 Alpha  occ. eigenvalues --   -0.53572  -0.51779  -0.50274  -0.49887  -0.49812
 Alpha  occ. eigenvalues --   -0.49484  -0.48763  -0.48626  -0.48541  -0.48090
 Alpha  occ. eigenvalues --   -0.48003  -0.47218  -0.46669  -0.46324  -0.45734
 Alpha  occ. eigenvalues --   -0.45374  -0.45039  -0.44619  -0.44389  -0.43802
 Alpha  occ. eigenvalues --   -0.42708  -0.42379  -0.42333  -0.41975  -0.41745
 Alpha  occ. eigenvalues --   -0.41377  -0.41248  -0.41169  -0.40566  -0.39793
 Alpha  occ. eigenvalues --   -0.39512  -0.39008  -0.38681  -0.37707  -0.37373
 Alpha  occ. eigenvalues --   -0.36229  -0.35517  -0.34134  -0.33730  -0.33561
 Alpha  occ. eigenvalues --   -0.33291  -0.32223  -0.31121  -0.30403  -0.29812
 Alpha  occ. eigenvalues --   -0.29296  -0.29054  -0.28729  -0.28316  -0.27274
 Alpha  occ. eigenvalues --   -0.26269  -0.24517  -0.24291  -0.19128
 Alpha virt. eigenvalues --   -0.13401  -0.07271  -0.06508  -0.04932  -0.04409
 Alpha virt. eigenvalues --   -0.00873  -0.00336  -0.00300   0.00114   0.00533
 Alpha virt. eigenvalues --    0.00645   0.01026   0.01048   0.01268   0.01781
 Alpha virt. eigenvalues --    0.01991   0.02278   0.02425   0.02961   0.03148
 Alpha virt. eigenvalues --    0.03517   0.03725   0.03999   0.04389   0.04470
 Alpha virt. eigenvalues --    0.04673   0.04752   0.05124   0.05676   0.05843
 Alpha virt. eigenvalues --    0.06068   0.06148   0.06248   0.06421   0.06655
 Alpha virt. eigenvalues --    0.07253   0.07413   0.07642   0.07859   0.08073
 Alpha virt. eigenvalues --    0.08526   0.08693   0.08942   0.09058   0.09380
 Alpha virt. eigenvalues --    0.09389   0.09840   0.10010   0.10363   0.10646
 Alpha virt. eigenvalues --    0.10849   0.11222   0.11643   0.11796   0.12166
 Alpha virt. eigenvalues --    0.12382   0.12428   0.12784   0.13050   0.13387
 Alpha virt. eigenvalues --    0.13535   0.13668   0.14146   0.14254   0.14403
 Alpha virt. eigenvalues --    0.14553   0.14728   0.14897   0.15078   0.15253
 Alpha virt. eigenvalues --    0.15318   0.15668   0.15952   0.16094   0.16264
 Alpha virt. eigenvalues --    0.16498   0.16702   0.17118   0.17642   0.17675
 Alpha virt. eigenvalues --    0.17762   0.17862   0.18135   0.18388   0.18565
 Alpha virt. eigenvalues --    0.18723   0.18950   0.19193   0.19510   0.19651
 Alpha virt. eigenvalues --    0.19793   0.19902   0.20006   0.20174   0.20356
 Alpha virt. eigenvalues --    0.20505   0.20668   0.20912   0.20949   0.21197
 Alpha virt. eigenvalues --    0.21564   0.21691   0.21848   0.22142   0.22452
 Alpha virt. eigenvalues --    0.22574   0.22742   0.22995   0.23149   0.23311
 Alpha virt. eigenvalues --    0.23556   0.23639   0.23928   0.24014   0.24273
 Alpha virt. eigenvalues --    0.24415   0.24861   0.24913   0.25094   0.25356
 Alpha virt. eigenvalues --    0.25579   0.25820   0.25915   0.26258   0.26319
 Alpha virt. eigenvalues --    0.26490   0.26553   0.26603   0.27069   0.27415
 Alpha virt. eigenvalues --    0.27554   0.27969   0.27993   0.28135   0.28260
 Alpha virt. eigenvalues --    0.28476   0.28584   0.28925   0.28993   0.29453
 Alpha virt. eigenvalues --    0.29606   0.29850   0.29944   0.30047   0.30763
 Alpha virt. eigenvalues --    0.30891   0.30999   0.31285   0.31532   0.31719
 Alpha virt. eigenvalues --    0.32153   0.32264   0.32529   0.32710   0.33032
 Alpha virt. eigenvalues --    0.33291   0.33583   0.33988   0.34109   0.34297
 Alpha virt. eigenvalues --    0.34769   0.35048   0.35312   0.35624   0.35818
 Alpha virt. eigenvalues --    0.36209   0.36857   0.37023   0.37363   0.37940
 Alpha virt. eigenvalues --    0.38105   0.38389   0.38953   0.39145   0.39732
 Alpha virt. eigenvalues --    0.39941   0.40254   0.40727   0.41201   0.41305
 Alpha virt. eigenvalues --    0.41822   0.42262   0.42655   0.43165   0.43625
 Alpha virt. eigenvalues --    0.43866   0.44039   0.44700   0.45114   0.45141
 Alpha virt. eigenvalues --    0.45462   0.45802   0.45954   0.46213   0.46475
 Alpha virt. eigenvalues --    0.46994   0.47179   0.47876   0.48765   0.49418
 Alpha virt. eigenvalues --    0.49918   0.50058   0.50374   0.50756   0.51475
 Alpha virt. eigenvalues --    0.51879   0.52205   0.52774   0.53607   0.53803
 Alpha virt. eigenvalues --    0.54150   0.54782   0.55054   0.55473   0.55735
 Alpha virt. eigenvalues --    0.56139   0.56489   0.56825   0.56863   0.57165
 Alpha virt. eigenvalues --    0.57733   0.58516   0.58652   0.59055   0.59218
 Alpha virt. eigenvalues --    0.59478   0.60102   0.60549   0.60913   0.61340
 Alpha virt. eigenvalues --    0.61610   0.61854   0.62629   0.63145   0.63639
 Alpha virt. eigenvalues --    0.63871   0.64095   0.64528   0.64754   0.64906
 Alpha virt. eigenvalues --    0.65069   0.65540   0.65842   0.66199   0.66600
 Alpha virt. eigenvalues --    0.66952   0.67033   0.67708   0.68167   0.68479
 Alpha virt. eigenvalues --    0.69338   0.69447   0.69584   0.70131   0.70429
 Alpha virt. eigenvalues --    0.70974   0.71427   0.71733   0.72092   0.72252
 Alpha virt. eigenvalues --    0.72577   0.73046   0.73321   0.73659   0.74064
 Alpha virt. eigenvalues --    0.74368   0.74633   0.74870   0.75172   0.75690
 Alpha virt. eigenvalues --    0.76036   0.76238   0.76507   0.76924   0.77089
 Alpha virt. eigenvalues --    0.77490   0.77969   0.78217   0.78912   0.79387
 Alpha virt. eigenvalues --    0.79742   0.80257   0.81167   0.81635   0.82315
 Alpha virt. eigenvalues --    0.83078   0.83591   0.84422   0.84469   0.85911
 Alpha virt. eigenvalues --    0.86758   0.87151   0.87259   0.87922   0.88578
 Alpha virt. eigenvalues --    0.88812   0.88970   0.89311   0.90225   0.91103
 Alpha virt. eigenvalues --    0.91294   0.91649   0.92109   0.92392   0.92903
 Alpha virt. eigenvalues --    0.93620   0.93725   0.93910   0.94648   0.95031
 Alpha virt. eigenvalues --    0.95217   0.95766   0.96400   0.97008   0.97416
 Alpha virt. eigenvalues --    0.97731   0.98804   0.99050   0.99461   0.99866
 Alpha virt. eigenvalues --    1.00582   1.01045   1.01349   1.01938   1.02269
 Alpha virt. eigenvalues --    1.03086   1.03295   1.03650   1.04226   1.04618
 Alpha virt. eigenvalues --    1.04987   1.05214   1.05564   1.06046   1.06070
 Alpha virt. eigenvalues --    1.06675   1.07132   1.07554   1.07773   1.08015
 Alpha virt. eigenvalues --    1.08596   1.08896   1.10139   1.10320   1.10698
 Alpha virt. eigenvalues --    1.11292   1.11835   1.12569   1.14001   1.14405
 Alpha virt. eigenvalues --    1.15238   1.16350   1.16876   1.17585   1.17879
 Alpha virt. eigenvalues --    1.18131   1.18599   1.19511   1.20437   1.21610
 Alpha virt. eigenvalues --    1.22233   1.22667   1.23368   1.24652   1.25432
 Alpha virt. eigenvalues --    1.25698   1.25943   1.26339   1.26906   1.27408
 Alpha virt. eigenvalues --    1.28174   1.29134   1.29610   1.30390   1.31336
 Alpha virt. eigenvalues --    1.31801   1.32743   1.33880   1.34498   1.35396
 Alpha virt. eigenvalues --    1.35755   1.36252   1.36738   1.38956   1.39775
 Alpha virt. eigenvalues --    1.40508   1.41003   1.41910   1.42268   1.42779
 Alpha virt. eigenvalues --    1.42865   1.43336   1.43584   1.44142   1.44338
 Alpha virt. eigenvalues --    1.44412   1.44794   1.45027   1.45511   1.45606
 Alpha virt. eigenvalues --    1.46388   1.46970   1.47390   1.47765   1.49192
 Alpha virt. eigenvalues --    1.50286   1.50888   1.51666   1.51998   1.52152
 Alpha virt. eigenvalues --    1.53062   1.53664   1.54347   1.54624   1.55139
 Alpha virt. eigenvalues --    1.55426   1.55802   1.56022   1.56199   1.57028
 Alpha virt. eigenvalues --    1.57272   1.58793   1.60114   1.61097   1.61930
 Alpha virt. eigenvalues --    1.62304   1.62589   1.63489   1.63671   1.64501
 Alpha virt. eigenvalues --    1.65326   1.65995   1.66606   1.67019   1.67406
 Alpha virt. eigenvalues --    1.67567   1.68734   1.69050   1.69322   1.69631
 Alpha virt. eigenvalues --    1.70258   1.70363   1.70911   1.71135   1.71368
 Alpha virt. eigenvalues --    1.73519   1.74013   1.74364   1.74945   1.75734
 Alpha virt. eigenvalues --    1.75907   1.76529   1.77128   1.77841   1.78710
 Alpha virt. eigenvalues --    1.79534   1.79730   1.80026   1.80248   1.82581
 Alpha virt. eigenvalues --    1.83449   1.83917   1.84182   1.85878   1.86227
 Alpha virt. eigenvalues --    1.86387   1.86809   1.87714   1.88331   1.88678
 Alpha virt. eigenvalues --    1.89332   1.89856   1.90202   1.90636   1.91498
 Alpha virt. eigenvalues --    1.91889   1.92568   1.94089   1.94359   1.95004
 Alpha virt. eigenvalues --    1.95647   1.96415   1.97304   1.97701   1.99119
 Alpha virt. eigenvalues --    1.99643   2.00314   2.00871   2.01688   2.01801
 Alpha virt. eigenvalues --    2.03043   2.03534   2.04035   2.04236   2.04453
 Alpha virt. eigenvalues --    2.06042   2.06235   2.06358   2.06921   2.07373
 Alpha virt. eigenvalues --    2.08953   2.09010   2.09770   2.10998   2.11519
 Alpha virt. eigenvalues --    2.12164   2.12958   2.13971   2.14585   2.15245
 Alpha virt. eigenvalues --    2.15537   2.16541   2.17375   2.18351   2.18873
 Alpha virt. eigenvalues --    2.19390   2.20156   2.20945   2.21640   2.21755
 Alpha virt. eigenvalues --    2.22863   2.25868   2.26158   2.27526   2.28415
 Alpha virt. eigenvalues --    2.31253   2.31927   2.32621   2.34495   2.36865
 Alpha virt. eigenvalues --    2.37699   2.38726   2.39083   2.41492   2.42768
 Alpha virt. eigenvalues --    2.43265   2.43709   2.44109   2.45119   2.46246
 Alpha virt. eigenvalues --    2.46377   2.47191   2.48176   2.48517   2.49229
 Alpha virt. eigenvalues --    2.50089   2.51768   2.51968   2.52121   2.52472
 Alpha virt. eigenvalues --    2.53095   2.53227   2.53467   2.54412   2.55149
 Alpha virt. eigenvalues --    2.56306   2.57929   2.58623   2.58908   2.59678
 Alpha virt. eigenvalues --    2.62543   2.63142   2.63430   2.64954   2.66497
 Alpha virt. eigenvalues --    2.67012   2.67649   2.67763   2.68133   2.68239
 Alpha virt. eigenvalues --    2.68827   2.69455   2.70005   2.70567   2.71132
 Alpha virt. eigenvalues --    2.71809   2.72446   2.72745   2.74342   2.75368
 Alpha virt. eigenvalues --    2.76160   2.76958   2.77784   2.78967   2.79974
 Alpha virt. eigenvalues --    2.82219   2.82782   2.83265   2.83525   2.83741
 Alpha virt. eigenvalues --    2.84598   2.85060   2.85418   2.85878   2.86844
 Alpha virt. eigenvalues --    2.88177   2.88377   2.88642   2.89979   2.90947
 Alpha virt. eigenvalues --    2.91563   2.92216   2.93198   2.93808   2.94582
 Alpha virt. eigenvalues --    2.94936   2.95949   2.96846   2.99636   2.99900
 Alpha virt. eigenvalues --    3.00783   3.01963   3.03476   3.04354   3.05008
 Alpha virt. eigenvalues --    3.05930   3.07697   3.08315   3.08757   3.11113
 Alpha virt. eigenvalues --    3.11156   3.12786   3.13874   3.14405   3.15089
 Alpha virt. eigenvalues --    3.16901   3.17185   3.19412   3.19547   3.21708
 Alpha virt. eigenvalues --    3.23337   3.23759   3.24054   3.24188   3.26414
 Alpha virt. eigenvalues --    3.28582   3.28864   3.31044   3.32077   3.33768
 Alpha virt. eigenvalues --    3.34321   3.34516   3.34968   3.35842   3.37084
 Alpha virt. eigenvalues --    3.37828   3.39378   3.41313   3.42092   3.43361
 Alpha virt. eigenvalues --    3.44244   3.45556   3.46053   3.48481   3.48934
 Alpha virt. eigenvalues --    3.50391   3.53368   3.55590   3.57475   3.59458
 Alpha virt. eigenvalues --    3.59956   3.61544   3.64871   3.65794   3.66428
 Alpha virt. eigenvalues --    3.69699   3.70168   3.72028   3.72629   3.75571
 Alpha virt. eigenvalues --    3.76088   3.76638   3.81006   3.82309   3.84453
 Alpha virt. eigenvalues --    3.85274   3.86202   3.90125   3.91498   3.92613
 Alpha virt. eigenvalues --    3.93036   3.93908   3.96692   4.01254   4.02722
 Alpha virt. eigenvalues --    4.04535   4.08358   4.10473   4.12511   4.14022
 Alpha virt. eigenvalues --    4.19089   4.23311   4.25118   4.27173   4.35009
 Alpha virt. eigenvalues --    4.38624   4.39848   4.51453   4.67459   4.83781
 Alpha virt. eigenvalues --    4.85675   4.87160   4.90237   5.01471   5.03285
 Alpha virt. eigenvalues --    5.03774   5.05244   5.05515   5.08478   5.11081
 Alpha virt. eigenvalues --    5.12910   5.24765   5.26646   5.28811   5.31412
 Alpha virt. eigenvalues --    5.42516   5.43478   5.75347   5.76790   5.79826
 Alpha virt. eigenvalues --    5.80483   5.81680   5.85091   8.02404   8.04331
 Alpha virt. eigenvalues --   17.29269  17.33076  17.49510  17.52517  17.57328
 Alpha virt. eigenvalues --   17.62301  23.48934  23.56545  23.72114  23.78865
 Alpha virt. eigenvalues --   23.82079  23.82410  23.83743  23.86298  23.86517
 Alpha virt. eigenvalues --   23.87860  23.89163  23.90217  23.91272  23.92774
 Alpha virt. eigenvalues --   23.94454  23.95182  23.95892  23.97675  23.99967
 Alpha virt. eigenvalues --   24.01943  24.02772  24.04500  24.12313  24.12942
 Alpha virt. eigenvalues --   24.13619  24.14619  35.55806  35.58678  49.96083
 Alpha virt. eigenvalues --   49.97648  50.01745  50.03604  50.05447  50.07074
 Alpha virt. eigenvalues --  189.19579 189.22196
          Condensed to atoms (all electrons):
 Mulliken charges:
               1
     1  C    0.387255
     2  C   -0.143131
     3  C    0.152969
     4  C    0.227407
     5  C    0.262239
     6  C   -0.938041
     7  C    0.148566
     8  C    0.163593
     9  C    0.848461
    10  C   -0.438285
    11  C    0.200528
    12  C    0.201653
    13  C   -0.485794
    14  C   -0.556681
    15  H    0.161108
    16  H    0.163335
    17  H    0.175292
    18  N   -0.154368
    19  N   -0.133662
    20  O   -0.277643
    21  O   -0.273507
    22  O   -0.277819
    23  O   -0.182648
    24  C   -0.208275
    25  H    0.172047
    26  H    0.176589
    27  H    0.183670
    28  C   -0.198064
    29  H    0.174717
    30  H    0.175328
    31  H    0.182460
    32  C   -0.082734
    33  C   -0.262894
    34  S   -0.407335
    35  C   -0.024207
    36  H    0.137080
    37  C    0.607963
    38  O   -0.126077
    39  C    0.745364
    40  C   -0.240396
    41  C    0.041859
    42  S   -0.258950
    43  H    0.164243
    44  H    0.156789
    45  H    0.147156
    46  C   -0.586113
    47  O   -0.133795
    48  C   -0.274088
    49  H    0.131134
    50  C   -0.239938
    51  H    0.159734
    52  H    0.144984
    53  H    0.165668
    54  H    0.145254
 Sum of Mulliken charges =  -0.00000
 Mulliken charges with hydrogens summed into heavy atoms:
               1
     1  C    0.387255
     2  C   -0.143131
     3  C    0.152969
     4  C    0.227407
     5  C    0.262239
     6  C   -0.762749
     7  C    0.148566
     8  C    0.163593
     9  C    0.848461
    10  C   -0.438285
    11  C    0.200528
    12  C    0.201653
    13  C   -0.322459
    14  C   -0.395573
    18  N   -0.154368
    19  N   -0.133662
    20  O   -0.277643
    21  O   -0.273507
    22  O   -0.277819
    23  O   -0.182648
    24  C    0.324031
    28  C    0.334442
    32  C   -0.082734
    33  C   -0.125814
    34  S   -0.407335
    35  C   -0.024207
    37  C    0.607963
    38  O   -0.126077
    39  C    0.745364
    40  C    0.227791
    41  C    0.041859
    42  S   -0.258950
    46  C   -0.454979
    47  O   -0.133795
    48  C   -0.114354
    50  C    0.215968
 Electronic spatial extent (au):  <R**2>=          22303.1634
 Charge=             -0.0000 electrons
 Dipole moment (field-independent basis, Debye):
    X=              3.2448    Y=             -0.5303    Z=              0.0611  Tot=              3.2884
 Quadrupole moment (field-independent basis, Debye-Ang):
   XX=           -218.9912   YY=           -219.4370   ZZ=           -211.8869
   XY=             -3.5326   XZ=             -9.0715   YZ=             18.8703
 Traceless Quadrupole moment (field-independent basis, Debye-Ang):
   XX=             -2.2195   YY=             -2.6653   ZZ=              4.8848
   XY=             -3.5326   XZ=             -9.0715   YZ=             18.8703
 Octapole moment (field-independent basis, Debye-Ang**2):
  XXX=            311.7580  YYY=            -21.2586  ZZZ=              4.4950  XYY=             84.0700
  XXY=            -62.9803  XXZ=            -15.5979  XZZ=             44.0110  YZZ=             -2.3736
  YYZ=             -2.7036  XYZ=             50.7520
 Hexadecapole moment (field-independent basis, Debye-Ang**3):
 XXXX=         -20997.4626 YYYY=          -6961.5091 ZZZZ=          -1629.0108 XXXY=           -499.4730
 XXXZ=           -331.9555 YYYX=            329.7196 YYYZ=            226.5618 ZZZX=            -30.8810
 ZZZY=            126.8021 XXYY=          -4813.1940 XXZZ=          -3720.7874 YYZZ=          -1385.1331
 XXYZ=            313.3149 YYXZ=           -194.9105 ZZXY=             35.6217
 N-N= 4.083373012885D+03 E-N=-1.370661329395D+04  KE= 2.351822929422D+03
 Calling FoFJK, ICntrl=      2127 FMM=F ISym2X=0 I1Cent= 0 IOpClX= 0 NMat=1 NMatS=1 NMatT=0.
 ***** Axes restored to original set *****
 -------------------------------------------------------------------
 Center     Atomic                   Forces (Hartrees/Bohr)
 Number     Number              X              Y              Z
 -------------------------------------------------------------------
      1        6           0.004706478   -0.006171198    0.000285321
      2        6          -0.001582161    0.000994963   -0.000632517
      3        6           0.002145327   -0.001001654   -0.000321372
      4        6          -0.001257123    0.001807607    0.000613144
      5        6          -0.005758518   -0.002762633   -0.000298421
      6        6           0.001678079    0.003405850   -0.009110364
      7        6          -0.000553680   -0.000742575    0.001697852
      8        6           0.002535640   -0.006260220    0.007114392
      9        6          -0.011104825   -0.005322079    0.001262366
     10        6           0.008414564    0.007123852   -0.000227113
     11        6          -0.003739404    0.006389527    0.000364484
     12        6          -0.001295466   -0.000854826    0.000213249
     13        6           0.000991489    0.000389276   -0.000274585
     14        6           0.002099245   -0.001092821   -0.000158445
     15        1           0.000592463    0.000679582    0.000012919
     16        1           0.000620065   -0.001065659   -0.000316408
     17        1           0.001335708    0.001584953    0.002188864
     18        7          -0.001157601   -0.001453148   -0.001952812
     19        7           0.000423541    0.001713571   -0.000022039
     20        8          -0.006594334    0.006874834    0.000827589
     21        8           0.007420834    0.002446435    0.000223648
     22        8           0.006292527   -0.006403144   -0.000573283
     23        8          -0.008610276   -0.005879401   -0.001774287
     24        6           0.000937316    0.002588771   -0.000942563
     25        1          -0.000630943   -0.000002340   -0.000340673
     26        1          -0.001224625   -0.000671724    0.001243063
     27        1           0.001017498    0.000016414    0.000125896
     28        6          -0.000525017   -0.002084287   -0.000700165
     29        1          -0.000684448    0.000402309    0.001014374
     30        1          -0.000452414    0.000424119   -0.000516669
     31        1           0.000957661   -0.000385039   -0.000027325
     32        6           0.011271414    0.012489278   -0.000561364
     33        6          -0.004758625   -0.003426663   -0.001386583
     34       16          -0.004612455   -0.002611483    0.003721551
     35        6           0.001829783   -0.004555286   -0.005401195
     36        1          -0.000990360    0.001425006   -0.001485322
     37        6          -0.000583515    0.001443574    0.006148122
     38        8          -0.000424399   -0.001430581    0.001873043
     39        6           0.001368689    0.000190777   -0.003799864
     40        6          -0.000167479    0.002047454    0.001492605
     41        6           0.001728344    0.001408150    0.003225214
     42       16          -0.000801121   -0.000142496   -0.001533579
     43        1          -0.001055761   -0.000610899   -0.000344601
     44        1           0.000968076   -0.001154564   -0.000621983
     45        1           0.001059159    0.000526687   -0.000751173
     46        6          -0.000972357    0.000102524    0.000616294
     47        8          -0.000095771    0.000124748   -0.000768521
     48        6           0.001495027   -0.000206256   -0.000904964
     49        1           0.000011675    0.000432194    0.001021713
     50        6           0.000818328   -0.001653912   -0.001241214
     51        1          -0.001945563   -0.000379319    0.000525576
     52        1          -0.001206887    0.000976531    0.000394510
     53        1           0.000506058    0.000216540    0.000271666
     54        1          -0.000439863    0.000098682    0.000511948
 -------------------------------------------------------------------
 Cartesian Forces:  Max     0.012489278 RMS     0.003117069

 GradGradGradGradGradGradGradGradGradGradGradGradGradGradGradGradGradGrad
 Berny optimization.
 FormGI is forming the generalized inverse of G from B-inverse, IUseBI=4.
 Internal  Forces:  Max     0.010374399 RMS     0.001654371
 Search for a local minimum.
 Step number   1 out of a maximum of  307
 All quantities printed in internal units (Hartrees-Bohrs-Radians)
 Mixed Optimization -- RFO/linear search
 Second derivative matrix not updated -- first step.
 ITU=  0
     Eigenvalues ---    0.00803   0.00803   0.01176   0.01203   0.01245
     Eigenvalues ---    0.01292   0.01308   0.01311   0.01366   0.01386
     Eigenvalues ---    0.01419   0.01429   0.01458   0.01496   0.01516
     Eigenvalues ---    0.01568   0.01576   0.01577   0.01614   0.01652
     Eigenvalues ---    0.01692   0.01710   0.01711   0.01719   0.01754
     Eigenvalues ---    0.01783   0.01803   0.01847   0.01965   0.02040
     Eigenvalues ---    0.02047   0.02069   0.02079   0.02085   0.02135
     Eigenvalues ---    0.02149   0.02163   0.02181   0.02197   0.02221
     Eigenvalues ---    0.02239   0.02254   0.07556   0.07572   0.07690
     Eigenvalues ---    0.07700   0.10064   0.10070   0.10634   0.10636
     Eigenvalues ---    0.15983   0.15999   0.15999   0.16000   0.16000
     Eigenvalues ---    0.16000   0.16000   0.16000   0.16000   0.16000
     Eigenvalues ---    0.16000   0.16000   0.16000   0.16000   0.16000
     Eigenvalues ---    0.16000   0.16000   0.16000   0.22530   0.22583
     Eigenvalues ---    0.23518   0.23581   0.24516   0.24747   0.24865
     Eigenvalues ---    0.24931   0.24952   0.24985   0.24987   0.24988
     Eigenvalues ---    0.24992   0.24994   0.24997   0.24997   0.24998
     Eigenvalues ---    0.24998   0.25000   0.25000   0.25000   0.25000
     Eigenvalues ---    0.25000   0.25000   0.25000   0.25000   0.25000
     Eigenvalues ---    0.25000   0.28820   0.28883   0.30121   0.32163
     Eigenvalues ---    0.32582   0.32774   0.33111   0.33787   0.33965
     Eigenvalues ---    0.33987   0.34069   0.34186   0.34354   0.34466
     Eigenvalues ---    0.34577   0.34629   0.34693   0.34755   0.34884
     Eigenvalues ---    0.35198   0.35218   0.35468   0.35553   0.35582
     Eigenvalues ---    0.35735   0.35798   0.36078   0.36083   0.36180
     Eigenvalues ---    0.36396   0.36662   0.39352   0.40157   0.40194
     Eigenvalues ---    0.40651   0.40691   0.41524   0.41774   0.41993
     Eigenvalues ---    0.42300   0.42754   0.43455   0.43901   0.44092
     Eigenvalues ---    0.44594   0.44650   0.45014   0.45406   0.46251
     Eigenvalues ---    0.47305   0.47633   0.49310   0.49666   0.52945
     Eigenvalues ---    0.53221   0.93281   0.93432   0.93989   0.94585
     Eigenvalues --- 1000.000001000.000001000.000001000.000001000.00000
     Eigenvalues --- 1000.000001000.000001000.000001000.000001000.00000
     Eigenvalues --- 1000.000001000.000001000.000001000.000001000.00000
     Eigenvalues --- 1000.000001000.000001000.000001000.000001000.00000
     Eigenvalues --- 1000.000001000.000001000.000001000.000001000.00000
     Eigenvalues --- 1000.000001000.000001000.000001000.000001000.00000
     Eigenvalues --- 1000.000001000.000001000.000001000.000001000.00000
     Eigenvalues --- 1000.000001000.000001000.000001000.000001000.00000
     Eigenvalues --- 1000.000001000.000001000.000001000.000001000.00000
     Eigenvalues --- 1000.000001000.000001000.000001000.000001000.00000
     Eigenvalues --- 1000.000001000.000001000.000001000.000001000.00000
     Eigenvalues --- 1000.000001000.000001000.000001000.000001000.00000
     Eigenvalues --- 1000.000001000.000001000.000001000.000001000.00000
     Eigenvalues --- 1000.000001000.000001000.000001000.000001000.00000
     Eigenvalues --- 1000.000001000.000001000.000001000.000001000.00000
     Eigenvalues --- 1000.000001000.000001000.000001000.000001000.00000
     Eigenvalues --- 1000.000001000.000001000.000001000.000001000.00000
     Eigenvalues --- 1000.000001000.000001000.000001000.000001000.00000
     Eigenvalues --- 1000.000001000.000001000.000001000.000001000.00000
     Eigenvalues --- 1000.000001000.000001000.000001000.000001000.00000
     Eigenvalues --- 1000.000001000.000001000.000001000.000001000.00000
     Eigenvalues --- 1000.000001000.000001000.000001000.000001000.00000
     Eigenvalues --- 1000.000001000.000001000.000001000.000001000.00000
     Eigenvalues --- 1000.000001000.000001000.000001000.000001000.00000
     Eigenvalues --- 1000.000001000.000001000.000001000.000001000.00000
     Eigenvalues --- 1000.000001000.000001000.000001000.000001000.00000
     Eigenvalues --- 1000.000001000.000001000.000001000.000001000.00000
     Eigenvalues --- 1000.000001000.000001000.000001000.000001000.00000
     Eigenvalues --- 1000.000001000.00000
 RFO step:  Lambda=-5.93127219D-03 EMin= 8.02933640D-03
 Linear search not attempted -- first point.
 Iteration  1 RMS(Cart)=  0.12488232 RMS(Int)=  0.00192834
 Iteration  2 RMS(Cart)=  0.00510317 RMS(Int)=  0.00039475
 Iteration  3 RMS(Cart)=  0.00000994 RMS(Int)=  0.00039475
 Iteration  4 RMS(Cart)=  0.00000000 RMS(Int)=  0.00039475
 Iteration  1 RMS(Cart)=  0.00012509 RMS(Int)=  0.00002041
 Iteration  2 RMS(Cart)=  0.00007150 RMS(Int)=  0.00002277
 Iteration  3 RMS(Cart)=  0.00004087 RMS(Int)=  0.00002585
 Iteration  4 RMS(Cart)=  0.00002336 RMS(Int)=  0.00002800
 Iteration  5 RMS(Cart)=  0.00001335 RMS(Int)=  0.00002932
 Iteration  6 RMS(Cart)=  0.00000763 RMS(Int)=  0.00003011
 Iteration  7 RMS(Cart)=  0.00000436 RMS(Int)=  0.00003056
 Iteration  8 RMS(Cart)=  0.00000249 RMS(Int)=  0.00003082
 Iteration  9 RMS(Cart)=  0.00000142 RMS(Int)=  0.00003098
 Iteration 10 RMS(Cart)=  0.00000081 RMS(Int)=  0.00003106
 Variable       Old X    -DE/DX   Delta X   Delta X   Delta X     New X
                                 (Linear)    (Quad)   (Total)
    R1        2.80935  -0.00029   0.00000  -0.00082  -0.00082   2.80853
    R2        2.64584  -0.00088   0.00000  -0.00193  -0.00193   2.64391
    R3        2.31147  -0.00956   0.00000  -0.01010  -0.01010   2.30137
    R4        2.67311  -0.00227   0.00000  -0.00454  -0.00469   2.66842
    R5        2.59267   0.00047   0.00000   0.00123   0.00111   2.59379
    R6        2.66894  -0.00139   0.00000  -0.00301  -0.00302   2.66592
    R7        2.69164  -0.00125   0.00000  -0.00260  -0.00259   2.68905
    R8        2.81049  -0.00016   0.00000  -0.00048  -0.00048   2.81001
    R9        2.62173  -0.00233   0.00000  -0.00486  -0.00490   2.61683
   R10        2.65570  -0.00123   0.00000  -0.00277  -0.00277   2.65293
   R11        2.30889  -0.00782   0.00000  -0.00821  -0.00821   2.30068
   R12        2.70248  -0.00489   0.00000  -0.01195  -0.01194   2.69054
   R13        2.04786  -0.00048   0.00000  -0.00134  -0.00134   2.04652
   R14        2.70495  -0.00282   0.00000  -0.00743  -0.00713   2.69782
   R15        2.68322  -0.00166   0.00000  -0.00384  -0.00377   2.67945
   R16        2.68655  -0.00697   0.00000  -0.01687  -0.01673   2.66982
   R17        2.81233   0.00021   0.00000   0.00041   0.00055   2.81288
   R18        2.76359   0.00379   0.00000   0.01016   0.01016   2.77375
   R19        2.66221  -0.00065   0.00000  -0.00141  -0.00145   2.66076
   R20        2.31391  -0.01037   0.00000  -0.01103  -0.01103   2.30287
   R21        2.79415   0.00082   0.00000   0.00255   0.00241   2.79656
   R22        2.63842  -0.00123   0.00000  -0.00245  -0.00262   2.63580
   R23        2.31456  -0.00898   0.00000  -0.00956  -0.00956   2.30500
   R24        2.62448  -0.00211   0.00000  -0.00448  -0.00446   2.62002
   R25        2.64561  -0.00086   0.00000  -0.00199  -0.00202   2.64359
   R26        2.04921  -0.00121   0.00000  -0.00337  -0.00337   2.04584
   R27        2.04741  -0.00078   0.00000  -0.00215  -0.00215   2.04526
   R28        2.77259   0.00188   0.00000   0.00513   0.00513   2.77772
   R29        2.77252   0.00177   0.00000   0.00481   0.00481   2.77733
   R30        2.06176  -0.00062   0.00000  -0.00176  -0.00176   2.06000
   R31        2.06551  -0.00186   0.00000  -0.00529  -0.00529   2.06022
   R32        2.05322  -0.00086   0.00000  -0.00240  -0.00240   2.05082
   R33        2.06368  -0.00128   0.00000  -0.00363  -0.00363   2.06005
   R34        2.06281  -0.00079   0.00000  -0.00225  -0.00225   2.06057
   R35        2.05355  -0.00091   0.00000  -0.00254  -0.00254   2.05101
   R36        2.60993  -0.00660   0.00000  -0.01399  -0.01344   2.59649
   R37        3.33335  -0.00503   0.00000  -0.01760  -0.01713   3.31622
   R38        2.66175   0.00116   0.00000   0.00251   0.00246   2.66421
   R39        2.03800  -0.00060   0.00000  -0.00164  -0.00164   2.03636
   R40        3.30348   0.00072   0.00000   0.00311   0.00272   3.30620
   R41        2.64305  -0.00451   0.00000  -0.00907  -0.00967   2.63338
   R42        2.57006   0.00076   0.00000   0.00142   0.00142   2.57147
   R43        2.71341   0.00126   0.00000   0.00309   0.00309   2.71649
   R44        2.69212  -0.00007   0.00000  -0.00017  -0.00017   2.69195
   R45        2.63316  -0.00277   0.00000  -0.00601  -0.00601   2.62715
   R46        3.32920  -0.00104   0.00000  -0.00340  -0.00340   3.32580
   R47        2.06075  -0.00125   0.00000  -0.00354  -0.00354   2.05720
   R48        2.07351  -0.00154   0.00000  -0.00447  -0.00447   2.06905
   R49        2.07214  -0.00113   0.00000  -0.00327  -0.00327   2.06887
   R50        2.69089  -0.00123   0.00000  -0.00307  -0.00307   2.68782
   R51        2.56748   0.00082   0.00000   0.00152   0.00152   2.56899
   R52        3.26186  -0.00100   0.00000  -0.00271  -0.00271   3.25914
   R53        2.58580  -0.00140   0.00000  -0.00266  -0.00266   2.58315
   R54        2.04399  -0.00106   0.00000  -0.00290  -0.00290   2.04109
   R55        2.68931   0.00014   0.00000   0.00033   0.00033   2.68965
   R56        2.04498  -0.00203   0.00000  -0.00559  -0.00559   2.03940
   R57        2.07389  -0.00154   0.00000  -0.00444  -0.00444   2.06945
   R58        2.05864  -0.00061   0.00000  -0.00171  -0.00171   2.05693
   R59        2.07017  -0.00038   0.00000  -0.00109  -0.00109   2.06908
    A1        2.03797   0.00047   0.00000   0.00213   0.00209   2.04006
    A2        2.14521  -0.00054   0.00000  -0.00228  -0.00229   2.14292
    A3        2.10001   0.00008   0.00000   0.00015   0.00015   2.10015
    A4        2.10395  -0.00021   0.00000  -0.00118  -0.00119   2.10275
    A5        2.08282   0.00155   0.00000   0.00503   0.00504   2.08786
    A6        2.09624  -0.00133   0.00000  -0.00364  -0.00370   2.09254
    A7        2.10093   0.00038   0.00000   0.00098   0.00089   2.10182
    A8        2.07104   0.00041   0.00000   0.00256   0.00257   2.07362
    A9        2.11118  -0.00078   0.00000  -0.00342  -0.00345   2.10773
   A10        2.10296  -0.00019   0.00000  -0.00050  -0.00052   2.10244
   A11        2.09911  -0.00032   0.00000  -0.00113  -0.00120   2.09791
   A12        2.08110   0.00051   0.00000   0.00169   0.00170   2.08280
   A13        2.03739   0.00026   0.00000   0.00120   0.00117   2.03856
   A14        2.12972  -0.00006   0.00000  -0.00033  -0.00033   2.12940
   A15        2.11607  -0.00020   0.00000  -0.00085  -0.00085   2.11522
   A16        2.15098  -0.00093   0.00000  -0.00301  -0.00374   2.14724
   A17        2.04399   0.00274   0.00000   0.01660   0.01569   2.05968
   A18        2.08722  -0.00173   0.00000  -0.01043  -0.01130   2.07592
   A19        2.11101  -0.00057   0.00000  -0.00247  -0.00248   2.10853
   A20        2.04385   0.00139   0.00000   0.00620   0.00579   2.04964
   A21        2.12832  -0.00082   0.00000  -0.00362  -0.00361   2.12472
   A22        2.08678  -0.00012   0.00000  -0.00006  -0.00077   2.08602
   A23        2.04738   0.00145   0.00000   0.00747   0.00674   2.05412
   A24        2.14662  -0.00122   0.00000  -0.00216  -0.00359   2.14303
   A25        2.04892   0.00260   0.00000   0.00858   0.00882   2.05774
   A26        2.00754  -0.00264   0.00000  -0.00983  -0.01011   1.99743
   A27        2.22643   0.00003   0.00000   0.00059   0.00026   2.22669
   A28        2.06022  -0.00017   0.00000  -0.00070  -0.00050   2.05972
   A29        2.17370  -0.00229   0.00000  -0.00880  -0.00899   2.16470
   A30        2.04919   0.00246   0.00000   0.00975   0.00956   2.05875
   A31        2.01621   0.00089   0.00000   0.00436   0.00413   2.02034
   A32        2.14188  -0.00093   0.00000  -0.00399  -0.00393   2.13794
   A33        2.12500   0.00005   0.00000  -0.00015  -0.00010   2.12490
   A34        2.10943   0.00003   0.00000   0.00054   0.00046   2.10989
   A35        2.11468  -0.00107   0.00000  -0.00422  -0.00427   2.11041
   A36        2.05896   0.00105   0.00000   0.00402   0.00390   2.06286
   A37        2.11176   0.00006   0.00000  -0.00001  -0.00003   2.11173
   A38        2.05670   0.00033   0.00000   0.00220   0.00220   2.05889
   A39        2.11471  -0.00039   0.00000  -0.00215  -0.00215   2.11256
   A40        2.08567   0.00074   0.00000   0.00312   0.00300   2.08867
   A41        2.07549   0.00009   0.00000   0.00130   0.00126   2.07675
   A42        2.12199  -0.00083   0.00000  -0.00427  -0.00430   2.11769
   A43        2.20043  -0.00131   0.00000  -0.00462  -0.00469   2.19574
   A44        2.02023   0.00071   0.00000   0.00251   0.00253   2.02277
   A45        2.06252   0.00060   0.00000   0.00210   0.00212   2.06464
   A46        2.18316  -0.00071   0.00000  -0.00260  -0.00262   2.18053
   A47        2.02959   0.00049   0.00000   0.00182   0.00183   2.03142
   A48        2.07044   0.00022   0.00000   0.00078   0.00079   2.07123
   A49        1.91737  -0.00011   0.00000  -0.00074  -0.00074   1.91664
   A50        1.91808  -0.00009   0.00000  -0.00030  -0.00030   1.91778
   A51        1.87685   0.00076   0.00000   0.00434   0.00434   1.88118
[...]
 Alpha  occ. eigenvalues --   -0.41547  -0.41271  -0.41119  -0.40505  -0.39690
 Alpha  occ. eigenvalues --   -0.39638  -0.39189  -0.38776  -0.37647  -0.37454
 Alpha  occ. eigenvalues --   -0.36349  -0.35650  -0.34303  -0.33905  -0.33713
 Alpha  occ. eigenvalues --   -0.33389  -0.32124  -0.31000  -0.30321  -0.29807
 Alpha  occ. eigenvalues --   -0.29284  -0.28863  -0.28621  -0.28106  -0.27286
 Alpha  occ. eigenvalues --   -0.26122  -0.24645  -0.24507  -0.19331
 Alpha virt. eigenvalues --   -0.13051  -0.07166  -0.06392  -0.04646  -0.03914
 Alpha virt. eigenvalues --   -0.00891  -0.00393  -0.00298   0.00089   0.00497
 Alpha virt. eigenvalues --    0.00711   0.01097   0.01425   0.01485   0.01787
 Alpha virt. eigenvalues --    0.02041   0.02253   0.02371   0.02861   0.03227
 Alpha virt. eigenvalues --    0.03594   0.03677   0.04102   0.04362   0.04571
 Alpha virt. eigenvalues --    0.04619   0.04843   0.05052   0.05590   0.06006
 Alpha virt. eigenvalues --    0.06095   0.06275   0.06318   0.06482   0.06680
 Alpha virt. eigenvalues --    0.07230   0.07512   0.07607   0.07900   0.08059
 Alpha virt. eigenvalues --    0.08507   0.08693   0.08891   0.09111   0.09398
 Alpha virt. eigenvalues --    0.09644   0.09965   0.10063   0.10299   0.10476
 Alpha virt. eigenvalues --    0.10821   0.11097   0.11593   0.11717   0.11994
 Alpha virt. eigenvalues --    0.12443   0.12540   0.12695   0.13131   0.13387
 Alpha virt. eigenvalues --    0.13432   0.13788   0.14115   0.14425   0.14505
 Alpha virt. eigenvalues --    0.14512   0.14759   0.14914   0.15108   0.15199
 Alpha virt. eigenvalues --    0.15392   0.15692   0.15897   0.16216   0.16439
 Alpha virt. eigenvalues --    0.16463   0.16925   0.16988   0.17391   0.17756
 Alpha virt. eigenvalues --    0.17864   0.18055   0.18174   0.18466   0.18559
 Alpha virt. eigenvalues --    0.18680   0.19013   0.19145   0.19492   0.19601
 Alpha virt. eigenvalues --    0.19740   0.19919   0.20052   0.20207   0.20419
 Alpha virt. eigenvalues --    0.20632   0.20941   0.20960   0.21113   0.21205
 Alpha virt. eigenvalues --    0.21554   0.21846   0.22021   0.22316   0.22506
 Alpha virt. eigenvalues --    0.22703   0.22894   0.22991   0.23259   0.23294
 Alpha virt. eigenvalues --    0.23450   0.23624   0.24007   0.24073   0.24202
 Alpha virt. eigenvalues --    0.24614   0.24838   0.25100   0.25276   0.25528
 Alpha virt. eigenvalues --    0.25648   0.25817   0.26019   0.26094   0.26349
 Alpha virt. eigenvalues --    0.26484   0.26645   0.26894   0.27057   0.27481
 Alpha virt. eigenvalues --    0.27576   0.27719   0.28068   0.28251   0.28520
 Alpha virt. eigenvalues --    0.28602   0.28775   0.28969   0.29206   0.29333
 Alpha virt. eigenvalues --    0.29505   0.29813   0.30095   0.30355   0.30425
 Alpha virt. eigenvalues --    0.30706   0.30970   0.31399   0.31466   0.31917
 Alpha virt. eigenvalues --    0.32266   0.32500   0.32685   0.32858   0.33064
 Alpha virt. eigenvalues --    0.33376   0.33558   0.33892   0.33983   0.34389
 Alpha virt. eigenvalues --    0.34915   0.35000   0.35499   0.35607   0.35759
 Alpha virt. eigenvalues --    0.35801   0.36376   0.36796   0.37485   0.37687
 Alpha virt. eigenvalues --    0.38092   0.38504   0.38767   0.39040   0.39476
 Alpha virt. eigenvalues --    0.39637   0.40384   0.40577   0.40803   0.41126
 Alpha virt. eigenvalues --    0.41200   0.42300   0.42658   0.42864   0.42979
 Alpha virt. eigenvalues --    0.43866   0.44201   0.44465   0.44814   0.45184
 Alpha virt. eigenvalues --    0.45687   0.45715   0.46045   0.46443   0.46675
 Alpha virt. eigenvalues --    0.46964   0.47469   0.47713   0.48193   0.48998
 Alpha virt. eigenvalues --    0.49607   0.49871   0.50318   0.50584   0.50908
 Alpha virt. eigenvalues --    0.51433   0.52021   0.52350   0.53134   0.53820
 Alpha virt. eigenvalues --    0.54148   0.54596   0.54907   0.55397   0.55564
 Alpha virt. eigenvalues --    0.56101   0.56303   0.56646   0.56760   0.57028
 Alpha virt. eigenvalues --    0.57234   0.57956   0.58273   0.58877   0.59040
 Alpha virt. eigenvalues --    0.59602   0.59984   0.60416   0.60783   0.61100
 Alpha virt. eigenvalues --    0.61772   0.61952   0.62091   0.62219   0.62889
 Alpha virt. eigenvalues --    0.63451   0.63530   0.64323   0.64496   0.64551
 Alpha virt. eigenvalues --    0.65072   0.65442   0.65758   0.65952   0.66123
 Alpha virt. eigenvalues --    0.66724   0.67288   0.67623   0.67946   0.68239
 Alpha virt. eigenvalues --    0.68938   0.69241   0.69442   0.69780   0.70078
 Alpha virt. eigenvalues --    0.70268   0.71212   0.71512   0.71699   0.72214
 Alpha virt. eigenvalues --    0.72419   0.72850   0.73293   0.73523   0.73766
 Alpha virt. eigenvalues --    0.74197   0.74565   0.74874   0.75001   0.75300
 Alpha virt. eigenvalues --    0.75703   0.76055   0.76297   0.76531   0.77126
 Alpha virt. eigenvalues --    0.77418   0.78016   0.78367   0.78427   0.78801
 Alpha virt. eigenvalues --    0.79720   0.79825   0.80511   0.80883   0.81389
 Alpha virt. eigenvalues --    0.82351   0.82790   0.83262   0.83824   0.84344
 Alpha virt. eigenvalues --    0.86134   0.86602   0.86839   0.87642   0.88056
 Alpha virt. eigenvalues --    0.88515   0.88918   0.89378   0.89531   0.90483
 Alpha virt. eigenvalues --    0.91131   0.91817   0.92105   0.92177   0.92502
 Alpha virt. eigenvalues --    0.93808   0.93985   0.94229   0.94492   0.95342
 Alpha virt. eigenvalues --    0.95852   0.96061   0.96297   0.96631   0.96759
 Alpha virt. eigenvalues --    0.97366   0.97421   0.98751   0.98881   0.99182
 Alpha virt. eigenvalues --    1.00183   1.00843   1.01121   1.01330   1.01962
 Alpha virt. eigenvalues --    1.02176   1.02958   1.03609   1.03751   1.04517
 Alpha virt. eigenvalues --    1.04667   1.05034   1.05143   1.05530   1.06239
 Alpha virt. eigenvalues --    1.06711   1.06776   1.07108   1.07703   1.07989
 Alpha virt. eigenvalues --    1.08324   1.08671   1.09655   1.09765   1.10404
 Alpha virt. eigenvalues --    1.11078   1.11403   1.12257   1.12778   1.13652
 Alpha virt. eigenvalues --    1.15107   1.15551   1.16102   1.16818   1.17195
 Alpha virt. eigenvalues --    1.17848   1.18272   1.19129   1.19528   1.20773
 Alpha virt. eigenvalues --    1.21628   1.22098   1.22785   1.23280   1.24296
 Alpha virt. eigenvalues --    1.25006   1.25508   1.25938   1.26530   1.26876
 Alpha virt. eigenvalues --    1.27565   1.28498   1.29278   1.29869   1.31335
 Alpha virt. eigenvalues --    1.31530   1.32011   1.32974   1.33960   1.34863
 Alpha virt. eigenvalues --    1.35298   1.36295   1.36724   1.37549   1.38682
 Alpha virt. eigenvalues --    1.38745   1.40236   1.40873   1.42190   1.42376
 Alpha virt. eigenvalues --    1.42573   1.42778   1.43414   1.43664   1.43807
 Alpha virt. eigenvalues --    1.44644   1.44766   1.44924   1.45763   1.46035
 Alpha virt. eigenvalues --    1.46358   1.46437   1.46900   1.47886   1.48096
 Alpha virt. eigenvalues --    1.49797   1.50428   1.51149   1.51682   1.52189
 Alpha virt. eigenvalues --    1.52653   1.53436   1.53845   1.54103   1.54580
 Alpha virt. eigenvalues --    1.54784   1.55100   1.55400   1.55737   1.56384
 Alpha virt. eigenvalues --    1.57057   1.57173   1.59042   1.59857   1.61109
 Alpha virt. eigenvalues --    1.61392   1.62664   1.62843   1.63226   1.63808
 Alpha virt. eigenvalues --    1.64298   1.65815   1.66296   1.66705   1.66930
 Alpha virt. eigenvalues --    1.67526   1.68130   1.68899   1.69413   1.69739
 Alpha virt. eigenvalues --    1.69965   1.70132   1.70903   1.71314   1.71546
 Alpha virt. eigenvalues --    1.71874   1.72623   1.74057   1.74713   1.75024
 Alpha virt. eigenvalues --    1.75771   1.75915   1.76758   1.77508   1.78017
 Alpha virt. eigenvalues --    1.79094   1.79204   1.79665   1.80037   1.80877
 Alpha virt. eigenvalues --    1.82222   1.83761   1.84889   1.85113   1.85928
 Alpha virt. eigenvalues --    1.86525   1.86580   1.86633   1.87746   1.88012
 Alpha virt. eigenvalues --    1.88684   1.89657   1.90111   1.90354   1.90946
 Alpha virt. eigenvalues --    1.91564   1.91930   1.92458   1.94072   1.94455
 Alpha virt. eigenvalues --    1.95406   1.95883   1.96848   1.97762   1.98217
 Alpha virt. eigenvalues --    1.99140   1.99610   2.00571   2.01068   2.01894
 Alpha virt. eigenvalues --    2.02148   2.03341   2.03598   2.04078   2.04505
 Alpha virt. eigenvalues --    2.05043   2.05736   2.06527   2.06923   2.07174
 Alpha virt. eigenvalues --    2.07252   2.08698   2.09385   2.10324   2.11490
 Alpha virt. eigenvalues --    2.11769   2.12171   2.13268   2.14372   2.15040
 Alpha virt. eigenvalues --    2.15437   2.16190   2.16582   2.17427   2.17828
 Alpha virt. eigenvalues --    2.18931   2.19226   2.19659   2.20612   2.21663
 Alpha virt. eigenvalues --    2.22631   2.24049   2.25642   2.26210   2.27041
 Alpha virt. eigenvalues --    2.27907   2.31396   2.32777   2.33262   2.35320
 Alpha virt. eigenvalues --    2.37231   2.37924   2.39520   2.39734   2.41781
 Alpha virt. eigenvalues --    2.42982   2.43577   2.44012   2.44402   2.45214
 Alpha virt. eigenvalues --    2.46473   2.46519   2.47044   2.48490   2.48741
 Alpha virt. eigenvalues --    2.49708   2.50657   2.51793   2.52052   2.52407
 Alpha virt. eigenvalues --    2.52535   2.53262   2.53497   2.53958   2.54430
 Alpha virt. eigenvalues --    2.55375   2.56751   2.57843   2.58805   2.59145
 Alpha virt. eigenvalues --    2.60102   2.62907   2.63508   2.63582   2.65161
 Alpha virt. eigenvalues --    2.67096   2.67257   2.67557   2.67833   2.68429
 Alpha virt. eigenvalues --    2.68901   2.69445   2.70429   2.70546   2.70915
 Alpha virt. eigenvalues --    2.71754   2.72132   2.72716   2.73150   2.74114
 Alpha virt. eigenvalues --    2.75818   2.76287   2.76716   2.77657   2.78764
 Alpha virt. eigenvalues --    2.79783   2.82569   2.82738   2.83335   2.83526
 Alpha virt. eigenvalues --    2.84272   2.84685   2.84964   2.85604   2.86509
 Alpha virt. eigenvalues --    2.87362   2.88047   2.88707   2.89301   2.90019
 Alpha virt. eigenvalues --    2.90580   2.91672   2.92226   2.93460   2.94188
 Alpha virt. eigenvalues --    2.94868   2.95122   2.95730   2.96966   2.98664
 Alpha virt. eigenvalues --    2.99883   3.00307   3.02229   3.03242   3.04621
 Alpha virt. eigenvalues --    3.05454   3.06339   3.07157   3.08128   3.08942
 Alpha virt. eigenvalues --    3.10386   3.11410   3.12870   3.13974   3.14648
 Alpha virt. eigenvalues --    3.14946   3.16250   3.17686   3.19868   3.20857
 Alpha virt. eigenvalues --    3.21648   3.23527   3.23933   3.24127   3.25008
 Alpha virt. eigenvalues --    3.26880   3.28940   3.29440   3.31348   3.32375
 Alpha virt. eigenvalues --    3.34538   3.35141   3.35325   3.36000   3.36223
 Alpha virt. eigenvalues --    3.38137   3.38668   3.39897   3.41570   3.43319
 Alpha virt. eigenvalues --    3.44171   3.45038   3.45864   3.46911   3.49161
 Alpha virt. eigenvalues --    3.49542   3.51642   3.53898   3.55806   3.58222
 Alpha virt. eigenvalues --    3.60310   3.60869   3.62533   3.65568   3.66155
 Alpha virt. eigenvalues --    3.66832   3.70128   3.71321   3.72536   3.73404
 Alpha virt. eigenvalues --    3.75552   3.76586   3.77097   3.81483   3.82660
 Alpha virt. eigenvalues --    3.84522   3.85437   3.86374   3.90175   3.91828
 Alpha virt. eigenvalues --    3.93166   3.93321   3.94383   3.97035   4.01326
 Alpha virt. eigenvalues --    4.02768   4.04598   4.08405   4.10480   4.12704
 Alpha virt. eigenvalues --    4.14219   4.19119   4.23538   4.25226   4.27362
 Alpha virt. eigenvalues --    4.35545   4.39093   4.40437   4.50758   4.67162
 Alpha virt. eigenvalues --    4.84543   4.86859   4.87043   4.90338   5.01497
 Alpha virt. eigenvalues --    5.03028   5.03952   5.05600   5.05743   5.09201
 Alpha virt. eigenvalues --    5.11562   5.13390   5.25133   5.27019   5.29114
 Alpha virt. eigenvalues --    5.31384   5.42113   5.43574   5.76049   5.76686
 Alpha virt. eigenvalues --    5.80321   5.80599   5.82228   5.85554   8.02513
 Alpha virt. eigenvalues --    8.04753  17.29135  17.33425  17.49648  17.52403
 Alpha virt. eigenvalues --   17.57849  17.62002  23.48862  23.56156  23.72102
 Alpha virt. eigenvalues --   23.79318  23.82406  23.83079  23.84690  23.87258
 Alpha virt. eigenvalues --   23.87638  23.88579  23.88984  23.90385  23.91214
 Alpha virt. eigenvalues --   23.93661  23.94879  23.96265  23.96582  23.99469
 Alpha virt. eigenvalues --   24.01104  24.02969  24.03331  24.05637  24.13092
 Alpha virt. eigenvalues --   24.13806  24.14609  24.15025  35.56099  35.59046
 Alpha virt. eigenvalues --   49.96010  49.97545  50.02272  50.04332  50.06118
 Alpha virt. eigenvalues --   50.07860 189.19765 189.22547
          Condensed to atoms (all electrons):
 Mulliken charges:
               1
     1  C    0.314318
     2  C   -0.011230
     3  C    0.088442
     4  C    0.252543
     5  C    0.214199
     6  C   -0.593596
     7  C    0.217565
     8  C    0.173563
     9  C    0.481610
    10  C   -0.247890
    11  C    0.386341
    12  C    0.107354
    13  C   -0.506717
    14  C   -0.661869
    15  H    0.159513
    16  H    0.161982
    17  H    0.185197
    18  N   -0.156935
    19  N   -0.143961
    20  O   -0.276334
    21  O   -0.268645
    22  O   -0.278639
    23  O   -0.191616
    24  C   -0.203048
    25  H    0.172660
    26  H    0.176044
    27  H    0.183424
    28  C   -0.197319
    29  H    0.173902
    30  H    0.174609
    31  H    0.182764
    32  C    0.099350
    33  C   -0.254531
    34  S   -0.509658
    35  C   -0.414501
    36  H    0.134432
    37  C    0.532276
    38  O   -0.120137
    39  C    0.913433
    40  C   -0.244155
    41  C   -0.044449
    42  S   -0.235982
    43  H    0.164857
    44  H    0.161384
    45  H    0.143962
    46  C   -0.491950
    47  O   -0.130788
    48  C   -0.281625
    49  H    0.131534
    50  C   -0.240441
    51  H    0.160707
    52  H    0.145894
    53  H    0.167189
    54  H    0.144967
 Sum of Mulliken charges =  -0.00000
 Mulliken charges with hydrogens summed into heavy atoms:
               1
     1  C    0.314318
     2  C   -0.011230
     3  C    0.088442
     4  C    0.252543
     5  C    0.214199
     6  C   -0.408399
     7  C    0.217565
     8  C    0.173563
     9  C    0.481610
    10  C   -0.247890
    11  C    0.386341
    12  C    0.107354
    13  C   -0.344735
    14  C   -0.502355
    18  N   -0.156935
    19  N   -0.143961
    20  O   -0.276334
    21  O   -0.268645
    22  O   -0.278639
    23  O   -0.191616
    24  C    0.329079
    28  C    0.333957
    32  C    0.099350
    33  C   -0.120099
    34  S   -0.509658
    35  C   -0.414501
    37  C    0.532276
    38  O   -0.120137
    39  C    0.913433
    40  C    0.226048
    41  C   -0.044449
    42  S   -0.235982
    46  C   -0.360416
    47  O   -0.130788
    48  C   -0.120918
    50  C    0.217610
 Electronic spatial extent (au):  <R**2>=          22335.6537
 Charge=             -0.0000 electrons
 Dipole moment (field-independent basis, Debye):
    X=              3.9791    Y=             -0.5103    Z=              0.0464  Tot=              4.0119
 Quadrupole moment (field-independent basis, Debye-Ang):
   XX=           -218.6502   YY=           -216.3323   ZZ=           -213.8503
   XY=             -3.4193   XZ=             -6.4472   YZ=             16.2594
 Traceless Quadrupole moment (field-independent basis, Debye-Ang):
   XX=             -2.3726   YY=             -0.0547   ZZ=              2.4273
   XY=             -3.4193   XZ=             -6.4472   YZ=             16.2594
 Octapole moment (field-independent basis, Debye-Ang**2):
  XXX=            351.6095  YYY=            -21.4922  ZZZ=              1.7422  XYY=            103.0945
  XXY=            -73.0807  XXZ=            -30.4729  XZZ=             23.5223  YZZ=              0.8436
  YYZ=             -2.1907  XYZ=             49.9561
 Hexadecapole moment (field-independent basis, Debye-Ang**3):
 XXXX=         -20909.3701 YYYY=          -7224.7531 ZZZZ=          -1293.3451 XXXY=           -520.4508
 XXXZ=           -232.1523 YYYX=            311.4144 YYYZ=            165.8267 ZZZX=            -19.6281
 ZZZY=             70.1961 XXYY=          -4901.4310 XXZZ=          -3757.4408 YYZZ=          -1340.1481
 XXYZ=            336.7924 YYXZ=           -126.5975 ZZXY=             21.9553
 N-N= 4.086953302174D+03 E-N=-1.371402156050D+04  KE= 2.352055280827D+03
 Unable to Open any file for archive entry.
 1\1\GINC-CX3-1-18\FOpt\RB3LYP\6-311+G(d,p)\C26H18N2O6S2\NS5018\26-Nov-
 2020\0\\# opt=modredundant b3lyp/6-311+g(d,p)\\NDI_55.pdb\\0,1\C,-2.52
 74985852,-2.8497627003,-0.7918442179\C,-2.2492213971,-1.4240813198,-0.
 4725785734\C,-3.2921598821,-0.5681155336,-0.0519698644\C,-4.6125521517
 ,-1.0508665866,0.064043424\C,-4.9238720548,-2.4747649236,-0.234800761\
 C,-0.9677419148,-0.9461012322,-0.577848804\C,-2.989314319,0.791870422,
 0.2355481067\C,-1.6508634348,1.2762121294,0.1350409191\C,-0.6153445052
 ,0.395332952,-0.2495886035\C,-1.4130304862,2.7233492175,0.3917829787\C
 ,-3.8382538387,3.0795871852,0.8662659755\C,-4.0634678251,1.6393678197,
 0.6063954694\C,-5.3547629046,1.1454329842,0.7140760933\C,-5.6345962679
 ,-0.1997035481,0.4506539119\H,-6.640870974,-0.589683885,0.5336221258\H
 ,-6.1417120279,1.8313393606,1.0011723503\H,-0.1919411584,-1.636094378,
 -0.8827786625\N,-2.5281794146,3.5287382245,0.6933972103\N,-3.851275103
 1,-3.2817403672,-0.6489202027\O,-1.6637345173,-3.6232853931,-1.1610834
 707\O,-6.0490429841,-2.9255010276,-0.1306134342\O,-4.7362976905,3.8338
 673685,1.1982857524\O,-0.318195779,3.2541214087,0.3433741432\C,-2.2496
 486653,4.9565258905,0.9049493926\H,-1.6169011258,5.0897677897,1.783672
 3378\H,-1.7234445057,5.356377158,0.0391918362\H,-3.1995858333,5.461589
 7066,1.0481005575\C,-4.1126034894,-4.694170695,-0.9614290147\H,-3.8315
 370794,-4.8999879376,-1.9944198856\H,-3.5163159304,-5.3320405338,-0.30
 8580961\H,-5.1713207308,-4.8791281432,-0.8104094772\C,0.808464076,0.72
 24938283,-0.3762801501\C,1.6724423289,1.2736924497,0.5425128854\S,1.68
 70881765,0.1428452458,-1.7782124973\C,3.0175352134,1.256738814,0.12131
 52377\H,1.3393594321,1.6856278903,1.4812779559\C,3.2211688338,0.689194
 3411,-1.1355122007\O,4.0861289461,1.7340288671,0.8139744459\C,4.454911
 6277,0.5795658677,-1.8634729015\C,3.8332894818,2.4456889713,2.02271126
 07\C,4.6605230503,-0.0183810017,-3.1020169451\S,5.9796743419,1.2267498
 235,-1.2691400322\H,4.8031729963,2.7974819249,2.3699019018\H,3.1728986
 652,3.2998719313,1.8444541902\H,3.3935001798,1.7895437492,2.7809892927
 \C,6.0045521978,0.0412449397,-3.5622341999\O,3.6092603443,-0.585427949
 2,-3.749856792\C,6.8207670768,0.6847002893,-2.6737098796\H,6.350961760
 3,-0.3705403818,-4.4988003459\C,3.8525451496,-1.218151819,-5.002609735
 7\H,7.8806555887,0.8662680808,-2.7651225167\H,4.5631279196,-2.04393746
 28,-4.8953918082\H,2.8910219528,-1.6081340478,-5.3313403869\H,4.226237
 2362,-0.5006157642,-5.7401434303\\Version=ES64L-G16RevC.01\State=1-A\H
 F=-2359.3376231\RMSD=3.851e-09\RMSF=5.986e-04\Dipole=1.5231835,-0.0124
 257,-0.4136846\Quadrupole=-3.8477629,-8.8345791,12.682342,1.9197369,-2
 .9179896,6.3012419\PG=C01 [X(C26H18N2O6S2)]\\@
 The archive entry for this job was punched.


 THESE ARE THE TIMES THAT TRY MENS SOULS.
 THE SUMMER SOLDIER AND THE SUNSHINE PATRIOT WILL IN THIS CRISIS,
 SHRINK FROM THE SERVICE OF HIS COUNTRY.  BUT HE THAT STANDS NOW,
 DESERVES THE LOVE AND THANKS OF MAN AND WOMAN.
 TYRANNY, LIKE HELL, IS NOT EASILY CONQUERED,
 YET WE HAVE THIS CONSOLATION WITH US,
 THAT THE HARDER THE CONFLICT, THE MORE GLORIOUS THE TRIUMPH.
 WHAT WE OBTAIN TOO CHEAP, WE ESTEEM TOO LIGHTLY, 
 'TIS DEARNESS ONLY THAT GIVES EVERYTHING ITS VALUE.

                                              -- TOM PAINE
 Job cpu time:       2 days 10 hours  7 minutes 17.9 seconds.
 Elapsed time:       0 days  3 hours 48 minutes 18.8 seconds.
 File lengths (MBytes):  RWF=    496 Int=      0 D2E=      0 Chk=     77 Scr=      1
 Normal termination of Gaussian 16 at Thu Nov 26 11:37:05 2020.
