 Entering Gaussian System, Link 0=g16
 Input=NDI_175.gjf
 Output=NDI_175.log
 Initial command:
 /apps/gaussian/g16-c01-avx/g16/l1.exe "/tmp/pbs.2610758[71].pbs/Gau-743062.inp" -scrdir="/tmp/pbs.2610758[71].pbs/"
 Entering Link 1 = /apps/gaussian/g16-c01-avx/g16/l1.exe PID=    743064.
  
 Copyright (c) 1988-2019, Gaussian, Inc.  All Rights Reserved.
  
 This is part of the Gaussian(R) 16 program.  It is based on
 the Gaussian(R) 09 system (copyright 2009, Gaussian, Inc.),
 the Gaussian(R) 03 system (copyright 2003, Gaussian, Inc.),
 the Gaussian(R) 98 system (copyright 1998, Gaussian, Inc.),
 the Gaussian(R) 94 system (copyright 1995, Gaussian, Inc.),
 the Gaussian 92(TM) system (copyright 1992, Gaussian, Inc.),
 the Gaussian 90(TM) system (copyright 1990, Gaussian, Inc.),
 the Gaussian 88(TM) system (copyright 1988, Gaussian, Inc.),
 the Gaussian 86(TM) system (copyright 1986, Carnegie Mellon
 University), and the Gaussian 82(TM) system (copyright 1983,
 Carnegie Mellon University). Gaussian is a federally registered
 trademark of Gaussian, Inc.
  
 This software contains proprietary and confidential information,
 including trade secrets, belonging to Gaussian, Inc.
  
 This software is provided under written license and may be
 used, copied, transmitted, or stored only in accord with that
 written license.
  
 The following legend is applicable only to US Government
 contracts under FAR:
  
                    RESTRICTED RIGHTS LEGEND
  
 Use, reproduction and disclosure by the US Government is
 subject to restrictions as set forth in subparagraphs (a)
 and (c) of the Commercial Computer Software - Restricted
 Rights clause in FAR 52.227-19.
  
 Gaussian, Inc.
 340 Quinnipiac St., Bldg. 40, Wallingford CT 06492
  
  
 ---------------------------------------------------------------
 Warning -- This program may not be used in any manner that
 competes with the business of Gaussian, Inc. or will provide
 assistance to any competitor of Gaussian, Inc.  The licensee
 of this program is prohibited from giving any competitor of
 Gaussian, Inc. access to this program.  By using this program,
 the user acknowledges that Gaussian, Inc. is engaged in the
 business of creating and licensing software in the field of
 computational chemistry and represents and warrants to the
 licensee that it is not a competitor of Gaussian, Inc. and that
 it will not use this program in any manner prohibited above.
 ---------------------------------------------------------------
  

 Cite this work as:
 Gaussian 16, Revision C.01,
 M. J. Frisch, G. W. Trucks, H. B. Schlegel, G. E. Scuseria, 
 M. A. Robb, J. R. Cheeseman, G. Scalmani, V. Barone, 
 G. A. Petersson, H. Nakatsuji, X. Li, M. Caricato, A. V. Marenich, 
 J. Bloino, B. G. Janesko, R. Gomperts, B. Mennucci, H. P. Hratchian, 
 J. V. Ortiz, A. F. Izmaylov, J. L. Sonnenberg, D. Williams-Young, 
 F. Ding, F. Lipparini, F. Egidi, J. Goings, B. Peng, A. Petrone, 
 T. Henderson, D. Ranasinghe, V. G. Zakrzewski, J. Gao, N. Rega, 
 G. Zheng, W. Liang, M. Hada, M. Ehara, K. Toyota, R. Fukuda, 
 J. Hasegawa, M. Ishida, T. Nakajima, Y. Honda, O. Kitao, H. Nakai, 
 T. Vreven, K. Throssell, J. A. Montgomery, Jr., J. E. Peralta, 
 F. Ogliaro, M. J. Bearpark, J. J. Heyd, E. N. Brothers, K. N. Kudin, 
 V. N. Staroverov, T. A. Keith, R. Kobayashi, J. Normand, 
 K. Raghavachari, A. P. Rendell, J. C. Burant, S. S. Iyengar, 
 J. Tomasi, M. Cossi, J. M. Millam, M. Klene, C. Adamo, R. Cammi, 
 J. W. Ochterski, R. L. Martin, K. Morokuma, O. Farkas, 
 J. B. Foresman, and D. J. Fox, Gaussian, Inc., Wallingford CT, 2019.
 
 ******************************************
 Gaussian 16:  ES64L-G16RevC.01  3-Jul-2019
                26-Nov-2020 
 ******************************************
 %mem=10GB
 %nprocshared=16
 Will use up to   16 processors via shared memory.
 -------------------------------------
 # opt=modredundant b3lyp/6-311+g(d,p)
 -------------------------------------
 1/18=120,19=15,26=3,38=1/1,3;
 2/9=110,12=2,17=6,18=5,40=1/2;
 3/5=4,6=6,7=111,11=2,25=1,30=1,71=1,74=-5/1,2,3;
 4//1;
 5/5=2,38=5/2;
 6/7=2,8=2,9=2,10=2,28=1/1;
 7//1,2,3,16;
 1/18=20,19=15,26=3/3(2);
 2/9=110/2;
 99//99;
 2/9=110/2;
 3/5=4,6=6,7=111,11=2,25=1,30=1,71=1,74=-5/1,2,3;
 4/5=5,16=3,69=1/1;
 5/5=2,38=5/2;
 7//1,2,3,16;
 1/18=20,19=15,26=3/3(-5);
 2/9=110/2;
 6/7=2,8=2,9=2,10=2,19=2,28=1/1;
 99/9=1/99;
 -----------
 NDI_175.pdb
 -----------
 Symbolic Z-matrix:
 Charge =  0 Multiplicity = 1
 C                    -2.563    -2.994    -0.409 
 C                    -2.257    -1.551    -0.224 
 C                    -3.301    -0.607    -0.083 
 C                    -4.65     -1.024    -0.115 
 C                    -4.992    -2.459    -0.304 
 C                    -0.949    -1.137    -0.215 
 C                    -2.962     0.764     0.102 
 C                    -1.595     1.188     0.123 
 C                    -0.561     0.232    -0.072 
 C                    -1.328     2.616     0.446 
 C                    -3.777     3.115     0.508 
 C                    -4.035     1.679     0.268 
 C                    -5.356     1.252     0.23 
 C                    -5.672    -0.098     0.036 
 H                    -6.699    -0.442     0.008 
 H                    -6.133     1.997     0.361 
 H                    -0.19     -1.895    -0.369 
 N                    -2.432     3.476     0.608 
 N                    -3.916    -3.353    -0.438 
 O                    -1.695    -3.847    -0.532 
 O                    -6.149    -2.85     -0.34 
 O                    -4.676     3.938     0.629 
 O                    -0.212     3.097     0.596 
 C                    -2.111     4.875     0.912 
 H                    -1.54      4.931     1.84 
 H                    -1.5       5.299     0.111 
 H                    -3.05      5.414     1.003 
 C                    -4.206    -4.779    -0.625 
 H                    -3.759    -5.126    -1.559 
 H                    -3.775    -5.355     0.196 
 H                    -5.286    -4.897    -0.649 
 C                     0.876     0.482    -0.178 
 C                     1.941    -0.392    -0.275 
 S                     1.465     2.137    -0.019 
 C                     3.197     0.243    -0.23 
 H                     1.814    -1.457    -0.385 
 C                     3.137     1.635    -0.103 
 O                     4.413    -0.362    -0.299 
 C                     4.233     2.561    -0.072 
 C                     4.437    -1.76     -0.572 
 C                     4.172     3.945     0.078 
 S                     5.916     2.065    -0.229 
 H                     5.489    -2.029    -0.665 
 H                     3.988    -2.332     0.249 
 H                     3.912    -1.991    -1.506 
 C                     5.442     4.589     0.068 
 O                     2.961     4.546     0.213 
 C                     6.467     3.696    -0.09 
 H                     5.589     5.656     0.172 
 C                     2.933     5.957     0.401 
 H                     7.526     3.91     -0.13 
 H                     3.363     6.481    -0.462 
 H                     1.882     6.226     0.5 
 H                     3.472     6.248     1.31 
 
 The following ModRedundant input section has been read:
 D       8       9      32      33 F                                           
 

 GradGradGradGradGradGradGradGradGradGradGradGradGradGradGradGradGradGrad
 Berny optimization.
 Initialization pass.
                           ----------------------------
                           !    Initial Parameters    !
                           ! (Angstroms and Degrees)  !
 --------------------------                            --------------------------
 ! Name  Definition              Value          Derivative Info.                !
 --------------------------------------------------------------------------------
 ! R1    R(1,2)                  1.4866         estimate D2E/DX2                !
 ! R2    R(1,19)                 1.4001         estimate D2E/DX2                !
 ! R3    R(1,20)                 1.2232         estimate D2E/DX2                !
 ! R4    R(2,3)                  1.4146         estimate D2E/DX2                !
 ! R5    R(2,6)                  1.372          estimate D2E/DX2                !
 ! R6    R(3,4)                  1.4123         estimate D2E/DX2                !
 ! R7    R(3,7)                  1.4244         estimate D2E/DX2                !
 ! R8    R(4,5)                  1.4872         estimate D2E/DX2                !
 ! R9    R(4,14)                 1.3874         estimate D2E/DX2                !
 ! R10   R(5,19)                 1.4053         estimate D2E/DX2                !
 ! R11   R(5,21)                 1.2218         estimate D2E/DX2                !
 ! R12   R(6,9)                  1.4301         estimate D2E/DX2                !
 ! R13   R(6,17)                 1.0837         estimate D2E/DX2                !
 ! R14   R(7,8)                  1.4314         estimate D2E/DX2                !
 ! R15   R(7,12)                 1.4199         estimate D2E/DX2                !
 ! R16   R(8,9)                  1.4217         estimate D2E/DX2                !
 ! R17   R(8,10)                 1.4882         estimate D2E/DX2                !
 ! R18   R(9,32)                 1.4624         estimate D2E/DX2                !
 ! R19   R(10,18)                1.4088         estimate D2E/DX2                !
 ! R20   R(10,23)                1.2245         estimate D2E/DX2                !
 ! R21   R(11,12)                1.4786         estimate D2E/DX2                !
 ! R22   R(11,18)                1.3962         estimate D2E/DX2                !
 ! R23   R(11,22)                1.2248         estimate D2E/DX2                !
 ! R24   R(12,13)                1.3888         estimate D2E/DX2                !
 ! R25   R(13,14)                1.4            estimate D2E/DX2                !
 ! R26   R(13,16)                1.0844         estimate D2E/DX2                !
 ! R27   R(14,15)                1.0834         estimate D2E/DX2                !
 ! R28   R(18,24)                1.4672         estimate D2E/DX2                !
 ! R29   R(19,28)                1.4672         estimate D2E/DX2                !
 ! R30   R(24,25)                1.091          estimate D2E/DX2                !
 ! R31   R(24,26)                1.093          estimate D2E/DX2                !
 ! R32   R(24,27)                1.0865         estimate D2E/DX2                !
 ! R33   R(28,29)                1.0921         estimate D2E/DX2                !
 ! R34   R(28,30)                1.0916         estimate D2E/DX2                !
 ! R35   R(28,31)                1.0867         estimate D2E/DX2                !
 ! R36   R(32,33)                1.3811         estimate D2E/DX2                !
 ! R37   R(32,34)                1.7639         estimate D2E/DX2                !
 ! R38   R(33,35)                1.4081         estimate D2E/DX2                !
 ! R39   R(33,36)                1.0782         estimate D2E/DX2                !
 ! R40   R(34,37)                1.7478         estimate D2E/DX2                !
 ! R41   R(35,37)                1.3991         estimate D2E/DX2                !
 ! R42   R(35,38)                1.3599         estimate D2E/DX2                !
 ! R43   R(37,39)                1.4351         estimate D2E/DX2                !
 ! R44   R(38,40)                1.4246         estimate D2E/DX2                !
 ! R45   R(39,41)                1.3934         estimate D2E/DX2                !
 ! R46   R(39,42)                1.7616         estimate D2E/DX2                !
 ! R47   R(40,43)                1.0898         estimate D2E/DX2                !
 ! R48   R(40,44)                1.0967         estimate D2E/DX2                !
 ! R49   R(40,45)                1.0961         estimate D2E/DX2                !
 ! R50   R(41,46)                1.424          estimate D2E/DX2                !
 ! R51   R(41,47)                1.3587         estimate D2E/DX2                !
 ! R52   R(42,48)                1.7272         estimate D2E/DX2                !
 ! R53   R(46,48)                1.3686         estimate D2E/DX2                !
 ! R54   R(46,49)                1.0821         estimate D2E/DX2                !
 ! R55   R(47,50)                1.4237         estimate D2E/DX2                !
 ! R56   R(48,51)                1.0811         estimate D2E/DX2                !
 ! R57   R(50,52)                1.0974         estimate D2E/DX2                !
 ! R58   R(50,53)                1.0894         estimate D2E/DX2                !
 ! R59   R(50,54)                1.0961         estimate D2E/DX2                !
 ! A1    A(2,1,19)             116.767          estimate D2E/DX2                !
 ! A2    A(2,1,20)             122.9113         estimate D2E/DX2                !
 ! A3    A(19,1,20)            120.3217         estimate D2E/DX2                !
 ! A4    A(1,2,3)              120.5473         estimate D2E/DX2                !
 ! A5    A(1,2,6)              119.3369         estimate D2E/DX2                !
 ! A6    A(3,2,6)              120.1056         estimate D2E/DX2                !
 ! A7    A(2,3,4)              120.3743         estimate D2E/DX2                !
 ! A8    A(2,3,7)              118.662          estimate D2E/DX2                !
 ! A9    A(4,3,7)              120.9617         estimate D2E/DX2                !
 ! A10   A(3,4,5)              120.4909         estimate D2E/DX2                !
 ! A11   A(3,4,14)             120.2702         estimate D2E/DX2                !
 ! A12   A(5,4,14)             119.2382         estimate D2E/DX2                !
 ! A13   A(4,5,19)             116.7341         estimate D2E/DX2                !
 ! A14   A(4,5,21)             122.024          estimate D2E/DX2                !
 ! A15   A(19,5,21)            121.2418         estimate D2E/DX2                !
 ! A16   A(2,6,9)              123.2421         estimate D2E/DX2                !
 ! A17   A(2,6,17)             117.1119         estimate D2E/DX2                !
 ! A18   A(9,6,17)             119.589          estimate D2E/DX2                !
 ! A19   A(3,7,8)              120.9519         estimate D2E/DX2                !
 ! A20   A(3,7,12)             117.1037         estimate D2E/DX2                !
 ! A21   A(8,7,12)             121.944          estimate D2E/DX2                !
 ! A22   A(7,8,9)              119.5639         estimate D2E/DX2                !
 ! A23   A(7,8,10)             117.3064         estimate D2E/DX2                !
 ! A24   A(9,8,10)             122.9922         estimate D2E/DX2                !
 ! A25   A(6,9,8)              117.3944         estimate D2E/DX2                !
 ! A26   A(6,9,32)             115.0236         estimate D2E/DX2                !
 ! A27   A(8,9,32)             127.5648         estimate D2E/DX2                !
 ! A28   A(8,10,18)            118.042          estimate D2E/DX2                !
 ! A29   A(8,10,23)            124.5436         estimate D2E/DX2                !
 ! A30   A(18,10,23)           117.4097         estimate D2E/DX2                !
 ! A31   A(12,11,18)           115.5202         estimate D2E/DX2                !
 ! A32   A(12,11,22)           122.7205         estimate D2E/DX2                !
 ! A33   A(18,11,22)           121.7534         estimate D2E/DX2                !
 ! A34   A(7,12,11)            120.8614         estimate D2E/DX2                !
 ! A35   A(7,12,13)            121.162          estimate D2E/DX2                !
 ! A36   A(11,12,13)           117.9699         estimate D2E/DX2                !
 ! A37   A(12,13,14)           120.9948         estimate D2E/DX2                !
 ! A38   A(12,13,16)           117.8401         estimate D2E/DX2                !
 ! A39   A(14,13,16)           121.1642         estimate D2E/DX2                !
 ! A40   A(4,14,13)            119.5003         estimate D2E/DX2                !
 ! A41   A(4,14,15)            118.9169         estimate D2E/DX2                !
 ! A42   A(13,14,15)           121.5811         estimate D2E/DX2                !
 ! A43   A(10,18,11)           126.0753         estimate D2E/DX2                !
 ! A44   A(10,18,24)           115.7508         estimate D2E/DX2                !
 ! A45   A(11,18,24)           118.1737         estimate D2E/DX2                !
 ! A46   A(1,19,5)             125.0856         estimate D2E/DX2                !
 ! A47   A(1,19,28)            116.2868         estimate D2E/DX2                !
 ! A48   A(5,19,28)            118.6276         estimate D2E/DX2                !
 ! A49   A(18,24,25)           109.8574         estimate D2E/DX2                !
 ! A50   A(18,24,26)           109.8979         estimate D2E/DX2                !
 ! A51   A(18,24,27)           107.5355         estimate D2E/DX2                !
 ! A52   A(25,24,26)           108.1108         estimate D2E/DX2                !
 ! A53   A(25,24,27)           110.8301         estimate D2E/DX2                !
 ! A54   A(26,24,27)           110.6124         estimate D2E/DX2                !
 ! A55   A(19,28,29)           109.6906         estimate D2E/DX2                !
 ! A56   A(19,28,30)           109.8136         estimate D2E/DX2                !
 ! A57   A(19,28,31)           107.7461         estimate D2E/DX2                !
 ! A58   A(29,28,30)           108.2991         estimate D2E/DX2                !
 ! A59   A(29,28,31)           110.6959         estimate D2E/DX2                !
 ! A60   A(30,28,31)           110.5924         estimate D2E/DX2                !
 ! A61   A(9,32,33)            130.8902         estimate D2E/DX2                !
 ! A62   A(9,32,34)            118.8149         estimate D2E/DX2                !
 ! A63   A(33,32,34)           110.0352         estimate D2E/DX2                !
 ! A64   A(32,33,35)           113.5901         estimate D2E/DX2                !
 ! A65   A(32,33,36)           122.7804         estimate D2E/DX2                !
 ! A66   A(35,33,36)           123.6265         estimate D2E/DX2                !
 ! A67   A(32,34,37)            92.6148         estimate D2E/DX2                !
 ! A68   A(33,35,37)           114.414          estimate D2E/DX2                !
 ! A69   A(33,35,38)           126.5357         estimate D2E/DX2                !
 ! A70   A(37,35,38)           119.0502         estimate D2E/DX2                !
 ! A71   A(34,37,35)           109.3395         estimate D2E/DX2                !
 ! A72   A(34,37,39)           122.9713         estimate D2E/DX2                !
 ! A73   A(35,37,39)           127.6748         estimate D2E/DX2                !
 ! A74   A(35,38,40)           117.4742         estimate D2E/DX2                !
 ! A75   A(37,39,41)           127.5715         estimate D2E/DX2                !
 ! A76   A(37,39,42)           123.0943         estimate D2E/DX2                !
 ! A77   A(41,39,42)           109.3341         estimate D2E/DX2                !
 ! A78   A(38,40,43)           105.9521         estimate D2E/DX2                !
 ! A79   A(38,40,44)           111.1897         estimate D2E/DX2                !
 ! A80   A(38,40,45)           111.226          estimate D2E/DX2                !
 ! A81   A(43,40,44)           109.2892         estimate D2E/DX2                !
 ! A82   A(43,40,45)           109.7324         estimate D2E/DX2                !
 ! A83   A(44,40,45)           109.3834         estimate D2E/DX2                !
 ! A84   A(39,41,46)           114.1665         estimate D2E/DX2                !
 ! A85   A(39,41,47)           119.2793         estimate D2E/DX2                !
 ! A86   A(46,41,47)           126.5541         estimate D2E/DX2                !
 ! A87   A(39,42,48)            91.8182         estimate D2E/DX2                !
 ! A88   A(41,46,48)           111.9425         estimate D2E/DX2                !
 ! A89   A(41,46,49)           124.5016         estimate D2E/DX2                !
 ! A90   A(48,46,49)           123.556          estimate D2E/DX2                !
 ! A91   A(41,47,50)           117.9719         estimate D2E/DX2                !
 ! A92   A(42,48,46)           112.7388         estimate D2E/DX2                !
 ! A93   A(42,48,51)           119.7638         estimate D2E/DX2                !
 ! A94   A(46,48,51)           127.4972         estimate D2E/DX2                !
 ! A95   A(47,50,52)           111.2032         estimate D2E/DX2                !
 ! A96   A(47,50,53)           106.0032         estimate D2E/DX2                !
 ! A97   A(47,50,54)           111.2808         estimate D2E/DX2                !
 ! A98   A(52,50,53)           109.3655         estimate D2E/DX2                !
 ! A99   A(52,50,54)           109.4338         estimate D2E/DX2                !
 ! A100  A(53,50,54)           109.4807         estimate D2E/DX2                !
 ! D1    D(19,1,2,3)             0.1578         estimate D2E/DX2                !
 ! D2    D(19,1,2,6)          -178.6792         estimate D2E/DX2                !
 ! D3    D(20,1,2,3)          -179.8231         estimate D2E/DX2                !
 ! D4    D(20,1,2,6)             1.3399         estimate D2E/DX2                !
 ! D5    D(2,1,19,5)            -0.124          estimate D2E/DX2                !
 ! D6    D(2,1,19,28)          179.8267         estimate D2E/DX2                !
 ! D7    D(20,1,19,5)          179.8575         estimate D2E/DX2                !
 ! D8    D(20,1,19,28)          -0.1919         estimate D2E/DX2                !
 ! D9    D(1,2,3,4)              0.0571         estimate D2E/DX2                !
 ! D10   D(1,2,3,7)            179.5453         estimate D2E/DX2                !
 ! D11   D(6,2,3,4)            178.8851         estimate D2E/DX2                !
 ! D12   D(6,2,3,7)             -1.6266         estimate D2E/DX2                !
 ! D13   D(1,2,6,9)            178.625          estimate D2E/DX2                !
 ! D14   D(1,2,6,17)             1.3881         estimate D2E/DX2                !
 ! D15   D(3,2,6,9)             -0.2173         estimate D2E/DX2                !
 ! D16   D(3,2,6,17)          -177.4541         estimate D2E/DX2                !
 ! D17   D(2,3,4,5)             -0.3074         estimate D2E/DX2                !
 ! D18   D(2,3,4,14)           179.3968         estimate D2E/DX2                !
 ! D19   D(7,3,4,5)           -179.7837         estimate D2E/DX2                !
 ! D20   D(7,3,4,14)            -0.0795         estimate D2E/DX2                !
 ! D21   D(2,3,7,8)              1.0523         estimate D2E/DX2                !
 ! D22   D(2,3,7,12)          -178.712          estimate D2E/DX2                !
 ! D23   D(4,3,7,8)           -179.4626         estimate D2E/DX2                !
 ! D24   D(4,3,7,12)             0.7731         estimate D2E/DX2                !
 ! D25   D(3,4,5,19)             0.3343         estimate D2E/DX2                !
 ! D26   D(3,4,5,21)          -179.7799         estimate D2E/DX2                !
 ! D27   D(14,4,5,19)         -179.3729         estimate D2E/DX2                !
 ! D28   D(14,4,5,21)            0.5129         estimate D2E/DX2                !
 ! D29   D(3,4,14,13)           -0.4559         estimate D2E/DX2                !
 ! D30   D(3,4,14,15)         -179.9937         estimate D2E/DX2                !
 ! D31   D(5,4,14,13)          179.252          estimate D2E/DX2                !
 ! D32   D(5,4,14,15)           -0.2858         estimate D2E/DX2                !
 ! D33   D(4,5,19,1)            -0.1141         estimate D2E/DX2                !
 ! D34   D(4,5,19,28)          179.9364         estimate D2E/DX2                !
 ! D35   D(21,5,19,1)          179.9992         estimate D2E/DX2                !
 ! D36   D(21,5,19,28)           0.0496         estimate D2E/DX2                !
 ! D37   D(2,6,9,8)              2.5984         estimate D2E/DX2                !
 ! D38   D(2,6,9,32)          -176.0103         estimate D2E/DX2                !
 ! D39   D(17,6,9,8)           179.77           estimate D2E/DX2                !
 ! D40   D(17,6,9,32)            1.1613         estimate D2E/DX2                !
 ! D41   D(3,7,8,9)              1.3551         estimate D2E/DX2                !
 ! D42   D(3,7,8,10)          -174.5099         estimate D2E/DX2                !
 ! D43   D(12,7,8,9)          -178.8921         estimate D2E/DX2                !
 ! D44   D(12,7,8,10)            5.2428         estimate D2E/DX2                !
 ! D45   D(3,7,12,11)          178.0768         estimate D2E/DX2                !
 ! D46   D(3,7,12,13)           -0.9621         estimate D2E/DX2                !
 ! D47   D(8,7,12,11)           -1.685          estimate D2E/DX2                !
 ! D48   D(8,7,12,13)          179.2761         estimate D2E/DX2                !
 ! D49   D(7,8,9,6)             -3.0809         estimate D2E/DX2                !
 ! D50   D(7,8,9,32)           175.3285         estimate D2E/DX2                !
 ! D51   D(10,8,9,6)           172.5381         estimate D2E/DX2                !
 ! D52   D(10,8,9,32)           -9.0525         estimate D2E/DX2                !
 ! D53   D(7,8,10,18)           -4.7549         estimate D2E/DX2                !
 ! D54   D(7,8,10,23)          174.4235         estimate D2E/DX2                !
 ! D55   D(9,8,10,18)          179.5335         estimate D2E/DX2                !
 ! D56   D(9,8,10,23)           -1.2882         estimate D2E/DX2                !
 ! D57   D(6,9,32,33)           -6.5805         estimate D2E/DX2                !
 ! D58   D(6,9,32,34)          179.9168         estimate D2E/DX2                !
 ! D59   D(8,9,32,33)          174.978          Frozen                          !
 ! D60   D(8,9,32,34)            1.4752         estimate D2E/DX2                !
 ! D61   D(8,10,18,11)           0.7189         estimate D2E/DX2                !
 ! D62   D(8,10,18,24)        -179.4089         estimate D2E/DX2                !
 ! D63   D(23,10,18,11)       -178.5188         estimate D2E/DX2                !
 ! D64   D(23,10,18,24)          1.3535         estimate D2E/DX2                !
 ! D65   D(18,11,12,7)          -2.3856         estimate D2E/DX2                !
 ! D66   D(18,11,12,13)        176.6833         estimate D2E/DX2                !
 ! D67   D(22,11,12,7)         178.4862         estimate D2E/DX2                !
 ! D68   D(22,11,12,13)         -2.445          estimate D2E/DX2                !
 ! D69   D(12,11,18,10)          2.8444         estimate D2E/DX2                !
 ! D70   D(12,11,18,24)       -177.0251         estimate D2E/DX2                !
 ! D71   D(22,11,18,10)       -178.0181         estimate D2E/DX2                !
 ! D72   D(22,11,18,24)          2.1124         estimate D2E/DX2                !
 ! D73   D(7,12,13,14)           0.461          estimate D2E/DX2                !
 ! D74   D(7,12,13,16)        -179.8781         estimate D2E/DX2                !
 ! D75   D(11,12,13,14)       -178.6049         estimate D2E/DX2                !
 ! D76   D(11,12,13,16)          1.056          estimate D2E/DX2                !
 ! D77   D(12,13,14,4)           0.2708         estimate D2E/DX2                !
 ! D78   D(12,13,14,15)        179.7958         estimate D2E/DX2                !
 ! D79   D(16,13,14,4)        -179.3788         estimate D2E/DX2                !
 ! D80   D(16,13,14,15)          0.1463         estimate D2E/DX2                !
 ! D81   D(10,18,24,25)        -59.609          estimate D2E/DX2                !
 ! D82   D(10,18,24,26)         59.2209         estimate D2E/DX2                !
 ! D83   D(10,18,24,27)        179.6858         estimate D2E/DX2                !
 ! D84   D(11,18,24,25)        120.2739         estimate D2E/DX2                !
 ! D85   D(11,18,24,26)       -120.8962         estimate D2E/DX2                !
 ! D86   D(11,18,24,27)         -0.4313         estimate D2E/DX2                !
 ! D87   D(1,19,28,29)         -58.1407         estimate D2E/DX2                !
 ! D88   D(1,19,28,30)          60.7668         estimate D2E/DX2                !
 ! D89   D(1,19,28,31)        -178.7139         estimate D2E/DX2                !
 ! D90   D(5,19,28,29)         121.8132         estimate D2E/DX2                !
 ! D91   D(5,19,28,30)        -119.2792         estimate D2E/DX2                !
 ! D92   D(5,19,28,31)           1.2401         estimate D2E/DX2                !
 ! D93   D(9,32,33,35)        -174.2184         estimate D2E/DX2                !
 ! D94   D(9,32,33,36)           6.3909         estimate D2E/DX2                !
 ! D95   D(34,32,33,35)         -0.2762         estimate D2E/DX2                !
 ! D96   D(34,32,33,36)       -179.6669         estimate D2E/DX2                !
 ! D97   D(9,32,34,37)         175.3716         estimate D2E/DX2                !
 ! D98   D(33,32,34,37)          0.5958         estimate D2E/DX2                !
 ! D99   D(32,33,35,37)         -0.3113         estimate D2E/DX2                !
 ! D100  D(32,33,35,38)        179.7832         estimate D2E/DX2                !
 ! D101  D(36,33,35,37)        179.0735         estimate D2E/DX2                !
 ! D102  D(36,33,35,38)         -0.832          estimate D2E/DX2                !
 ! D103  D(32,34,37,35)         -0.7541         estimate D2E/DX2                !
 ! D104  D(32,34,37,39)        177.9574         estimate D2E/DX2                !
 ! D105  D(33,35,37,34)          0.7462         estimate D2E/DX2                !
 ! D106  D(33,35,37,39)       -177.888          estimate D2E/DX2                !
 ! D107  D(38,35,37,34)       -179.3407         estimate D2E/DX2                !
 ! D108  D(38,35,37,39)          2.0251         estimate D2E/DX2                !
 ! D109  D(33,35,38,40)          6.5013         estimate D2E/DX2                !
 ! D110  D(37,35,38,40)       -173.4003         estimate D2E/DX2                !
 ! D111  D(34,37,39,41)          2.7578         estimate D2E/DX2                !
 ! D112  D(34,37,39,42)       -177.1693         estimate D2E/DX2                !
 ! D113  D(35,37,39,41)       -178.7783         estimate D2E/DX2                !
 ! D114  D(35,37,39,42)          1.2945         estimate D2E/DX2                !
 ! D115  D(35,38,40,43)        175.5366         estimate D2E/DX2                !
 ! D116  D(35,38,40,44)        -65.8243         estimate D2E/DX2                !
 ! D117  D(35,38,40,45)         56.3454         estimate D2E/DX2                !
 ! D118  D(37,39,41,46)       -179.9747         estimate D2E/DX2                !
 ! D119  D(37,39,41,47)         -0.1156         estimate D2E/DX2                !
 ! D120  D(42,39,41,46)         -0.0394         estimate D2E/DX2                !
 ! D121  D(42,39,41,47)        179.8197         estimate D2E/DX2                !
 ! D122  D(37,39,42,48)        179.9699         estimate D2E/DX2                !
 ! D123  D(41,39,42,48)          0.0311         estimate D2E/DX2                !
 ! D124  D(39,41,46,48)          0.0286         estimate D2E/DX2                !
 ! D125  D(39,41,46,49)       -179.982          estimate D2E/DX2                !
 ! D126  D(47,41,46,48)       -179.8184         estimate D2E/DX2                !
 ! D127  D(47,41,46,49)          0.171          estimate D2E/DX2                !
 ! D128  D(39,41,47,50)        178.322          estimate D2E/DX2                !
 ! D129  D(46,41,47,50)         -1.8381         estimate D2E/DX2                !
 ! D130  D(39,42,48,46)         -0.016          estimate D2E/DX2                !
 ! D131  D(39,42,48,51)        179.8222         estimate D2E/DX2                !
 ! D132  D(41,46,48,42)         -0.0035         estimate D2E/DX2                !
 ! D133  D(41,46,48,51)       -179.8265         estimate D2E/DX2                !
 ! D134  D(49,46,48,42)       -179.993          estimate D2E/DX2                !
 ! D135  D(49,46,48,51)          0.1841         estimate D2E/DX2                !
 ! D136  D(41,47,50,52)         62.0584         estimate D2E/DX2                !
 ! D137  D(41,47,50,53)       -179.173          estimate D2E/DX2                !
 ! D138  D(41,47,50,54)        -60.2239         estimate D2E/DX2                !
 --------------------------------------------------------------------------------
 Trust Radius=3.00D-01 FncErr=1.00D-07 GrdErr=1.00D-06 EigMax=2.50D+02 EigMin=1.00D-04
 Number of steps in this run=    307 maximum allowed number of steps=    324.
 GradGradGradGradGradGradGradGradGradGradGradGradGradGradGradGradGradGrad

 Stoichiometry    C26H18N2O6S2
 Framework group  C1[X(C26H18N2O6S2)]
 Deg. of freedom   156
 Full point group                 C1      NOp   1
 Largest Abelian subgroup         C1      NOp   1
 Largest concise Abelian subgroup C1      NOp   1
                         Standard orientation:                         
 ---------------------------------------------------------------------
 Center     Atomic      Atomic             Coordinates (Angstroms)
 Number     Number       Type             X           Y           Z
 ---------------------------------------------------------------------
      1          6           0       -3.884682   -2.536059    0.028253
      2          6           0       -2.977513   -1.358287    0.025505
      3          6           0       -3.503163   -0.046043   -0.026072
      4          6           0       -4.899159    0.162679   -0.074503
      5          6           0       -5.835268   -0.992998   -0.078844
      6          6           0       -1.619970   -1.555389    0.049330
      7          6           0       -2.597730    1.053454   -0.016862
      8          6           0       -1.182608    0.841501    0.020717
      9          6           0       -0.671796   -0.485219    0.020042
     10          6           0       -0.315531    2.043637    0.154310
     11          6           0       -2.300303    3.556882    0.008647
     12          6           0       -3.161848    2.356253   -0.041273
     13          6           0       -4.537085    2.543059   -0.092665
     14          6           0       -5.412760    1.450908   -0.112437
     15          1           0       -6.487161    1.585678   -0.149176
     16          1           0       -4.909493    3.561333   -0.111251
     17          1           0       -1.269686   -2.580889    0.046001
     18          7           0       -0.931587    3.310379    0.131939
     19          7           0       -5.258929   -2.273609   -0.025583
     20          8           0       -3.477453   -3.688509    0.075005
     21          8           0       -7.047227   -0.844912   -0.124152
     22          8           0       -2.748537    4.695793   -0.037599
     23          8           0        0.900097    2.010475    0.297373
     24          6           0       -0.028798    4.460495    0.253842
     25          1           0        0.519715    4.402935    1.195214
     26          1           0        0.697000    4.451958   -0.563374
     27          1           0       -0.637308    5.359816    0.215604
     28          6           0       -6.144306   -3.443503   -0.026305
     29          1           0       -5.904046   -4.086260   -0.875842
     30          1           0       -5.998781   -4.018227    0.890260
     31          1           0       -7.167704   -3.084337   -0.093802
     32          6           0        0.728939   -0.901264   -0.039563
     33          6           0        1.304525   -2.153759    0.046848
     34         16           0        1.982950    0.338448   -0.081982
     35          6           0        2.712146   -2.126516    0.072306
     36          1           0        0.724213   -3.061807    0.080633
     37          6           0        3.267134   -0.844331   -0.001063
     38          8           0        3.541300   -3.201116    0.157042
     39          6           0        4.657662   -0.491309   -0.039266
     40          6           0        2.949674   -4.495059    0.084921
     41          6           0        5.208516    0.787667   -0.088831
     42         16           0        5.953546   -1.684526   -0.030736
     43          1           0        3.777666   -5.203665    0.089565
     44          1           0        2.305248   -4.685179    0.951751
     45          1           0        2.366098   -4.613842   -0.835227
     46          6           0        6.632045    0.808554   -0.118223
     47          8           0        4.382852    1.866499   -0.107484
     48          6           0        7.162671   -0.452704   -0.091677
     49          1           0        7.231156    1.708814   -0.157102
     50          6           0        4.975603    3.160910   -0.121436
     51          1           0        8.208361   -0.727112   -0.102105
     52          1           0        5.581516    3.310269   -1.024102
     53          1           0        4.148578    3.869988   -0.120093
     54          1           0        5.597682    3.323184    0.766352
 ---------------------------------------------------------------------
 Rotational constants (GHZ):           0.1754446           0.0587919           0.0441271
 Standard basis: 6-311+G(d,p) (5D, 7F)
 There are   952 symmetry adapted cartesian basis functions of A   symmetry.
 There are   916 symmetry adapted basis functions of A   symmetry.
   916 basis functions,  1468 primitive gaussians,   952 cartesian basis functions
   134 alpha electrons      134 beta electrons
       nuclear repulsion energy      4131.5655567501 Hartrees.
 NAtoms=   54 NActive=   54 NUniq=   54 SFac= 1.00D+00 NAtFMM=   60 NAOKFM=F Big=F
 Integral buffers will be    131072 words long.
 Raffenetti 2 integral format.
 Two-electron integral symmetry is turned on.
 One-electron integrals computed using PRISM.
 NBasis=   916 RedAO= T EigKep=  1.46D-06  NBF=   916
 NBsUse=   900 1.00D-06 EigRej=  8.48D-07 NBFU=   900
 ExpMin= 4.05D-02 ExpMax= 9.34D+04 ExpMxC= 3.17D+03 IAcc=3 IRadAn=         5 AccDes= 0.00D+00
 Harris functional with IExCor=  402 and IRadAn=       5 diagonalized for initial guess.
 HarFok:  IExCor=  402 AccDes= 0.00D+00 IRadAn=         5 IDoV= 1 UseB2=F ITyADJ=14
 ICtDFT=  3500011 ScaDFX=  1.000000  1.000000  1.000000  1.000000
 FoFCou: FMM=F IPFlag=           0 FMFlag=      100000 FMFlg1=           0
         NFxFlg=           0 DoJE=T BraDBF=F KetDBF=T FulRan=T
         wScrn=  0.000000 ICntrl=       500 IOpCl=  0 I1Cent=   200000004 NGrid=           0
         NMat0=    1 NMatS0=      1 NMatT0=    0 NMatD0=    1 NMtDS0=    0 NMtDT0=    0
 Petite list used in FoFCou.
 Requested convergence on RMS density matrix=1.00D-08 within 128 cycles.
 Requested convergence on MAX density matrix=1.00D-06.
 Requested convergence on             energy=1.00D-06.
 No special actions if energy rises.
 SCF Done:  E(RB3LYP) =  -2359.29145186     A.U. after   17 cycles
            NFock= 17  Conv=0.90D-08     -V/T= 2.0030

 **********************************************************************

            Population analysis using the SCF Density.

 **********************************************************************

 Orbital symmetries:
       Occupied  (A) (A) (A) (A) (A) (A) (A) (A) (A) (A) (A) (A)
                 (A) (A) (A) (A) (A) (A) (A) (A) (A) (A) (A) (A)
                 (A) (A) (A) (A) (A) (A) (A) (A) (A) (A) (A) (A)
                 (A) (A) (A) (A) (A) (A) (A) (A) (A) (A) (A) (A)
                 (A) (A) (A) (A) (A) (A) (A) (A) (A) (A) (A) (A)
                 (A) (A) (A) (A) (A) (A) (A) (A) (A) (A) (A) (A)
                 (A) (A) (A) (A) (A) (A) (A) (A) (A) (A) (A) (A)
                 (A) (A) (A) (A) (A) (A) (A) (A) (A) (A) (A) (A)
                 (A) (A) (A) (A) (A) (A) (A) (A) (A) (A) (A) (A)
                 (A) (A) (A) (A) (A) (A) (A) (A) (A) (A) (A) (A)
                 (A) (A) (A) (A) (A) (A) (A) (A) (A) (A) (A) (A)
                 (A) (A)
       Virtual   (A) (A) (A) (A) (A) (A) (A) (A) (A) (A) (A) (A)
                 (A) (A) (A) (A) (A) (A) (A) (A) (A) (A) (A) (A)
                 (A) (A) (A) (A) (A) (A) (A) (A) (A) (A) (A) (A)
                 (A) (A) (A) (A) (A) (A) (A) (A) (A) (A) (A) (A)
                 (A) (A) (A) (A) (A) (A) (A) (A) (A) (A) (A) (A)
                 (A) (A) (A) (A) (A) (A) (A) (A) (A) (A) (A) (A)
                 (A) (A) (A) (A) (A) (A) (A) (A) (A) (A) (A) (A)
                 (A) (A) (A) (A) (A) (A) (A) (A) (A) (A) (A) (A)
                 (A) (A) (A) (A) (A) (A) (A) (A) (A) (A) (A) (A)
                 (A) (A) (A) (A) (A) (A) (A) (A) (A) (A) (A) (A)
                 (A) (A) (A) (A) (A) (A) (A) (A) (A) (A) (A) (A)
                 (A) (A) (A) (A) (A) (A) (A) (A) (A) (A) (A) (A)
                 (A) (A) (A) (A) (A) (A) (A) (A) (A) (A) (A) (A)
                 (A) (A) (A) (A) (A) (A) (A) (A) (A) (A) (A) (A)
                 (A) (A) (A) (A) (A) (A) (A) (A) (A) (A) (A) (A)
                 (A) (A) (A) (A) (A) (A) (A) (A) (A) (A) (A) (A)
                 (A) (A) (A) (A) (A) (A) (A) (A) (A) (A) (A) (A)
                 (A) (A) (A) (A) (A) (A) (A) (A) (A) (A) (A) (A)
                 (A) (A) (A) (A) (A) (A) (A) (A) (A) (A) (A) (A)
                 (A) (A) (A) (A) (A) (A) (A) (A) (A) (A) (A) (A)
                 (A) (A) (A) (A) (A) (A) (A) (A) (A) (A) (A) (A)
                 (A) (A) (A) (A) (A) (A) (A) (A) (A) (A) (A) (A)
                 (A) (A) (A) (A) (A) (A) (A) (A) (A) (A) (A) (A)
                 (A) (A) (A) (A) (A) (A) (A) (A) (A) (A) (A) (A)
                 (A) (A) (A) (A) (A) (A) (A) (A) (A) (A) (A) (A)
                 (A) (A) (A) (A) (A) (A) (A) (A) (A) (A) (A) (A)
                 (A) (A) (A) (A) (A) (A) (A) (A) (A) (A) (A) (A)
                 (A) (A) (A) (A) (A) (A) (A) (A) (A) (A) (A) (A)
                 (A) (A) (A) (A) (A) (A) (A) (A) (A) (A) (A) (A)
                 (A) (A) (A) (A) (A) (A) (A) (A) (A) (A) (A) (A)
                 (A) (A) (A) (A) (A) (A) (A) (A) (A) (A) (A) (A)
                 (A) (A) (A) (A) (A) (A) (A) (A) (A) (A) (A) (A)
                 (A) (A) (A) (A) (A) (A) (A) (A) (A) (A) (A) (A)
                 (A) (A) (A) (A) (A) (A) (A) (A) (A) (A) (A) (A)
                 (A) (A) (A) (A) (A) (A) (A) (A) (A) (A) (A) (A)
                 (A) (A) (A) (A) (A) (A) (A) (A) (A) (A) (A) (A)
                 (A) (A) (A) (A) (A) (A) (A) (A) (A) (A) (A) (A)
                 (A) (A) (A) (A) (A) (A) (A) (A) (A) (A) (A) (A)
                 (A) (A) (A) (A) (A) (A) (A) (A) (A) (A) (A) (A)
                 (A) (A) (A) (A) (A) (A) (A) (A) (A) (A) (A) (A)
                 (A) (A) (A) (A) (A) (A) (A) (A) (A) (A) (A) (A)
                 (A) (A) (A) (A) (A) (A) (A) (A) (A) (A) (A) (A)
                 (A) (A) (A) (A) (A) (A) (A) (A) (A) (A) (A) (A)
                 (A) (A) (A) (A) (A) (A) (A) (A) (A) (A) (A) (A)
                 (A) (A) (A) (A) (A) (A) (A) (A) (A) (A) (A) (A)
                 (A) (A) (A) (A) (A) (A) (A) (A) (A) (A) (A) (A)
                 (A) (A) (A) (A) (A) (A) (A) (A) (A) (A) (A) (A)
                 (A) (A) (A) (A) (A) (A) (A) (A) (A) (A) (A) (A)
                 (A) (A) (A) (A) (A) (A) (A) (A) (A) (A) (A) (A)
                 (A) (A) (A) (A) (A) (A) (A) (A) (A) (A) (A) (A)
                 (A) (A) (A) (A) (A) (A) (A) (A) (A) (A) (A) (A)
                 (A) (A) (A) (A) (A) (A) (A) (A) (A) (A) (A) (A)
                 (A) (A) (A) (A) (A) (A) (A) (A) (A) (A) (A) (A)
                 (A) (A) (A) (A) (A) (A) (A) (A) (A) (A) (A) (A)
                 (A) (A) (A) (A) (A) (A) (A) (A) (A) (A) (A) (A)
                 (A) (A) (A) (A) (A) (A) (A) (A) (A) (A) (A) (A)
                 (A) (A) (A) (A) (A) (A) (A) (A) (A) (A) (A) (A)
                 (A) (A) (A) (A) (A) (A) (A) (A) (A) (A) (A) (A)
                 (A) (A) (A) (A) (A) (A) (A) (A) (A) (A) (A) (A)
                 (A) (A) (A) (A) (A) (A) (A) (A) (A) (A) (A) (A)
                 (A) (A) (A) (A) (A) (A) (A) (A) (A) (A) (A) (A)
                 (A) (A) (A) (A) (A) (A) (A) (A) (A) (A) (A) (A)
                 (A) (A) (A) (A) (A) (A) (A) (A) (A) (A) (A) (A)
                 (A) (A) (A) (A) (A) (A) (A) (A) (A) (A)
 The electronic state is 1-A.
 Alpha  occ. eigenvalues --  -88.88263 -88.87070 -19.16939 -19.16797 -19.13310
 Alpha  occ. eigenvalues --  -19.12365 -19.12293 -19.11556 -14.38586 -14.38574
 Alpha  occ. eigenvalues --  -10.31409 -10.30932 -10.30892 -10.30247 -10.24857
 Alpha  occ. eigenvalues --  -10.24395 -10.24055 -10.23764 -10.23602 -10.22857
 Alpha  occ. eigenvalues --  -10.22457 -10.22292 -10.22259 -10.22212 -10.22002
 Alpha  occ. eigenvalues --  -10.21622 -10.21610 -10.21493 -10.21143 -10.21084
 Alpha  occ. eigenvalues --  -10.20959 -10.20741 -10.20577 -10.20505 -10.19081
 Alpha  occ. eigenvalues --  -10.19002  -7.96813  -7.95533  -5.93118  -5.92734
 Alpha  occ. eigenvalues --   -5.92386  -5.91867  -5.91428  -5.91041  -1.09865
 Alpha  occ. eigenvalues --   -1.08490  -1.08343  -1.08339  -1.06531  -1.06461
 Alpha  occ. eigenvalues --   -0.96295  -0.96088  -0.92160  -0.89848  -0.88525
 Alpha  occ. eigenvalues --   -0.86316  -0.84054  -0.80213  -0.78265  -0.77426
 Alpha  occ. eigenvalues --   -0.76317  -0.75220  -0.75187  -0.73041  -0.72579
 Alpha  occ. eigenvalues --   -0.71802  -0.70375  -0.68739  -0.67183  -0.65900
 Alpha  occ. eigenvalues --   -0.65393  -0.64978  -0.60677  -0.59774  -0.58715
 Alpha  occ. eigenvalues --   -0.57546  -0.56798  -0.56334  -0.55469  -0.54589
 Alpha  occ. eigenvalues --   -0.53733  -0.51789  -0.50946  -0.50209  -0.49760
 Alpha  occ. eigenvalues --   -0.49477  -0.49162  -0.48573  -0.48555  -0.48298
 Alpha  occ. eigenvalues --   -0.48156  -0.47904  -0.46644  -0.46219  -0.46097
 Alpha  occ. eigenvalues --   -0.45534  -0.45067  -0.44378  -0.44237  -0.43733
 Alpha  occ. eigenvalues --   -0.43114  -0.42773  -0.42139  -0.41859  -0.41728
 Alpha  occ. eigenvalues --   -0.41490  -0.41323  -0.41265  -0.40725  -0.40071
 Alpha  occ. eigenvalues --   -0.39604  -0.39002  -0.38630  -0.37404  -0.36925
 Alpha  occ. eigenvalues --   -0.36328  -0.35712  -0.34312  -0.33977  -0.33562
 Alpha  occ. eigenvalues --   -0.33446  -0.32229  -0.30543  -0.30081  -0.29569
 Alpha  occ. eigenvalues --   -0.29236  -0.29176  -0.28531  -0.27225  -0.26294
 Alpha  occ. eigenvalues --   -0.25595  -0.24614  -0.22806  -0.19345
 Alpha virt. eigenvalues --   -0.12853  -0.07444  -0.06620  -0.04684  -0.03598
 Alpha virt. eigenvalues --   -0.00924  -0.00420  -0.00383  -0.00071   0.00520
 Alpha virt. eigenvalues --    0.00911   0.00973   0.01242   0.01983   0.02044
 Alpha virt. eigenvalues --    0.02217   0.02513   0.02762   0.03057   0.03485
 Alpha virt. eigenvalues --    0.03649   0.03793   0.03886   0.04525   0.04753
 Alpha virt. eigenvalues --    0.04915   0.04994   0.05454   0.05691   0.06046
 Alpha virt. eigenvalues --    0.06189   0.06554   0.06844   0.06905   0.07007
 Alpha virt. eigenvalues --    0.07572   0.07601   0.07907   0.08285   0.08426
 Alpha virt. eigenvalues --    0.08820   0.09007   0.09224   0.09452   0.09779
 Alpha virt. eigenvalues --    0.09954   0.10147   0.10254   0.10615   0.10739
 Alpha virt. eigenvalues --    0.10935   0.11497   0.11544   0.11958   0.12391
 Alpha virt. eigenvalues --    0.12857   0.13072   0.13170   0.13274   0.13388
 Alpha virt. eigenvalues --    0.13623   0.13936   0.14073   0.14247   0.14677
 Alpha virt. eigenvalues --    0.14695   0.14826   0.14911   0.15267   0.15441
 Alpha virt. eigenvalues --    0.15733   0.15922   0.16157   0.16269   0.16496
 Alpha virt. eigenvalues --    0.16997   0.17189   0.17411   0.17459   0.17736
 Alpha virt. eigenvalues --    0.17929   0.18056   0.18432   0.18534   0.18939
 Alpha virt. eigenvalues --    0.19058   0.19154   0.19267   0.19623   0.19787
 Alpha virt. eigenvalues --    0.19949   0.20074   0.20340   0.20566   0.20627
 Alpha virt. eigenvalues --    0.20892   0.21012   0.21126   0.21383   0.21644
 Alpha virt. eigenvalues --    0.21830   0.22073   0.22320   0.22657   0.22798
 Alpha virt. eigenvalues --    0.22957   0.23198   0.23343   0.23576   0.23845
 Alpha virt. eigenvalues --    0.24009   0.24389   0.24484   0.24508   0.24739
 Alpha virt. eigenvalues --    0.24835   0.25050   0.25096   0.25381   0.25614
 Alpha virt. eigenvalues --    0.25761   0.26020   0.26203   0.26521   0.26575
 Alpha virt. eigenvalues --    0.26906   0.27094   0.27134   0.27393   0.27544
 Alpha virt. eigenvalues --    0.27652   0.27884   0.27971   0.28399   0.28615
 Alpha virt. eigenvalues --    0.29101   0.29182   0.29239   0.29439   0.29670
 Alpha virt. eigenvalues --    0.29961   0.30588   0.30835   0.31180   0.31228
 Alpha virt. eigenvalues --    0.31410   0.31575   0.31909   0.32187   0.32274
 Alpha virt. eigenvalues --    0.32769   0.32889   0.33159   0.33477   0.33630
 Alpha virt. eigenvalues --    0.34151   0.34392   0.34663   0.34877   0.35306
 Alpha virt. eigenvalues --    0.35717   0.36130   0.36279   0.36505   0.36753
 Alpha virt. eigenvalues --    0.37462   0.37690   0.37889   0.38453   0.38527
 Alpha virt. eigenvalues --    0.39231   0.39400   0.39861   0.40409   0.40613
 Alpha virt. eigenvalues --    0.41565   0.41808   0.42013   0.42595   0.42712
 Alpha virt. eigenvalues --    0.43135   0.43690   0.43932   0.44131   0.44633
 Alpha virt. eigenvalues --    0.45058   0.45211   0.45531   0.45675   0.46107
 Alpha virt. eigenvalues --    0.46485   0.46782   0.47217   0.47714   0.48204
 Alpha virt. eigenvalues --    0.48487   0.48694   0.48859   0.49861   0.50091
 Alpha virt. eigenvalues --    0.50596   0.50729   0.51947   0.52354   0.52958
 Alpha virt. eigenvalues --    0.53220   0.53378   0.53531   0.54340   0.54648
 Alpha virt. eigenvalues --    0.55117   0.55280   0.55451   0.56003   0.56511
 Alpha virt. eigenvalues --    0.56544   0.56905   0.57117   0.57428   0.57826
 Alpha virt. eigenvalues --    0.58113   0.58308   0.59043   0.59496   0.59739
 Alpha virt. eigenvalues --    0.60079   0.60646   0.61145   0.61250   0.61553
 Alpha virt. eigenvalues --    0.61964   0.62281   0.62479   0.63060   0.63504
 Alpha virt. eigenvalues --    0.63981   0.64287   0.64380   0.64616   0.64984
 Alpha virt. eigenvalues --    0.65461   0.65809   0.65863   0.66205   0.66675
 Alpha virt. eigenvalues --    0.67184   0.67386   0.67718   0.68123   0.69055
 Alpha virt. eigenvalues --    0.69452   0.69542   0.70017   0.70275   0.70497
 Alpha virt. eigenvalues --    0.71060   0.71366   0.71713   0.71914   0.72322
 Alpha virt. eigenvalues --    0.72737   0.73070   0.73807   0.74096   0.74600
 Alpha virt. eigenvalues --    0.74721   0.75249   0.75526   0.75745   0.75975
 Alpha virt. eigenvalues --    0.76327   0.76792   0.77215   0.77641   0.77878
 Alpha virt. eigenvalues --    0.78264   0.79247   0.79905   0.80224   0.80540
 Alpha virt. eigenvalues --    0.81448   0.82529   0.82728   0.83037   0.83496
 Alpha virt. eigenvalues --    0.84665   0.85057   0.85243   0.85415   0.86714
 Alpha virt. eigenvalues --    0.87623   0.88238   0.88611   0.89250   0.89649
 Alpha virt. eigenvalues --    0.90198   0.91077   0.91563   0.91822   0.92653
 Alpha virt. eigenvalues --    0.92741   0.93009   0.93503   0.93866   0.93980
 Alpha virt. eigenvalues --    0.94547   0.94985   0.95293   0.95919   0.96327
 Alpha virt. eigenvalues --    0.96902   0.97158   0.97705   0.98232   0.98704
 Alpha virt. eigenvalues --    0.99121   0.99547   1.00041   1.00382   1.00761
 Alpha virt. eigenvalues --    1.01444   1.01599   1.01887   1.02390   1.03428
 Alpha virt. eigenvalues --    1.03818   1.04238   1.04469   1.04898   1.05269
 Alpha virt. eigenvalues --    1.05678   1.06515   1.06736   1.07082   1.07248
 Alpha virt. eigenvalues --    1.07651   1.08455   1.08940   1.09404   1.09664
 Alpha virt. eigenvalues --    1.09878   1.10194   1.10764   1.11054   1.12753
 Alpha virt. eigenvalues --    1.13092   1.14427   1.14858   1.15395   1.16101
 Alpha virt. eigenvalues --    1.16711   1.18246   1.18295   1.18818   1.19415
 Alpha virt. eigenvalues --    1.19797   1.20436   1.20838   1.21972   1.22599
 Alpha virt. eigenvalues --    1.22906   1.24924   1.25103   1.25621   1.25825
 Alpha virt. eigenvalues --    1.26635   1.26808   1.27625   1.27753   1.29309
 Alpha virt. eigenvalues --    1.29845   1.30636   1.30915   1.31224   1.32185
 Alpha virt. eigenvalues --    1.33883   1.34865   1.35133   1.35859   1.36479
 Alpha virt. eigenvalues --    1.37064   1.37850   1.39566   1.40444   1.41039
 Alpha virt. eigenvalues --    1.41683   1.42225   1.42388   1.42891   1.43040
 Alpha virt. eigenvalues --    1.43169   1.43679   1.44139   1.44570   1.44806
 Alpha virt. eigenvalues --    1.45407   1.45686   1.46092   1.46570   1.47613
 Alpha virt. eigenvalues --    1.47720   1.48140   1.48701   1.49703   1.50840
 Alpha virt. eigenvalues --    1.51028   1.51333   1.52318   1.52794   1.53344
 Alpha virt. eigenvalues --    1.54179   1.54352   1.54488   1.54925   1.55115
 Alpha virt. eigenvalues --    1.55773   1.55980   1.56354   1.57609   1.57931
 Alpha virt. eigenvalues --    1.59187   1.59853   1.60358   1.61570   1.62440
 Alpha virt. eigenvalues --    1.63147   1.63282   1.63911   1.65162   1.65800
 Alpha virt. eigenvalues --    1.66316   1.66941   1.67163   1.67412   1.67699
 Alpha virt. eigenvalues --    1.68600   1.68949   1.69254   1.69640   1.69990
 Alpha virt. eigenvalues --    1.70277   1.70950   1.71290   1.71919   1.73061
 Alpha virt. eigenvalues --    1.74091   1.74555   1.75012   1.76050   1.76830
 Alpha virt. eigenvalues --    1.77337   1.77451   1.78235   1.79225   1.79426
 Alpha virt. eigenvalues --    1.80206   1.80513   1.81133   1.82404   1.83045
 Alpha virt. eigenvalues --    1.84737   1.85875   1.86310   1.86662   1.86905
 Alpha virt. eigenvalues --    1.87262   1.87787   1.88341   1.88826   1.88972
 Alpha virt. eigenvalues --    1.89707   1.90690   1.91183   1.92110   1.92393
 Alpha virt. eigenvalues --    1.92809   1.94069   1.94791   1.95498   1.95903
 Alpha virt. eigenvalues --    1.96677   1.97581   1.98523   1.99389   2.00579
 Alpha virt. eigenvalues --    2.00932   2.01844   2.02205   2.02698   2.02892
 Alpha virt. eigenvalues --    2.03364   2.04045   2.04308   2.04681   2.06097
 Alpha virt. eigenvalues --    2.06523   2.07278   2.08166   2.08866   2.09371
 Alpha virt. eigenvalues --    2.09835   2.10437   2.11478   2.12348   2.13552
 Alpha virt. eigenvalues --    2.14270   2.14940   2.15160   2.15562   2.16433
 Alpha virt. eigenvalues --    2.16970   2.17654   2.19686   2.20025   2.20318
 Alpha virt. eigenvalues --    2.20477   2.21191   2.22347   2.23167   2.25178
 Alpha virt. eigenvalues --    2.26225   2.26732   2.27385   2.29205   2.32988
 Alpha virt. eigenvalues --    2.33390   2.34752   2.35352   2.36505   2.38015
 Alpha virt. eigenvalues --    2.39852   2.40157   2.41292   2.42672   2.43173
 Alpha virt. eigenvalues --    2.43492   2.44041   2.45755   2.46084   2.46495
 Alpha virt. eigenvalues --    2.47001   2.47745   2.48279   2.49794   2.50340
 Alpha virt. eigenvalues --    2.51662   2.52089   2.52295   2.52774   2.52928
 Alpha virt. eigenvalues --    2.53263   2.53512   2.54920   2.55850   2.56759
 Alpha virt. eigenvalues --    2.58535   2.58923   2.59103   2.60157   2.62408
 Alpha virt. eigenvalues --    2.63421   2.63786   2.65271   2.65946   2.66202
 Alpha virt. eigenvalues --    2.67648   2.67864   2.68158   2.68797   2.69659
 Alpha virt. eigenvalues --    2.69800   2.70331   2.70721   2.71327   2.72759
 Alpha virt. eigenvalues --    2.72958   2.73339   2.74208   2.75318   2.75774
 Alpha virt. eigenvalues --    2.76484   2.77436   2.78518   2.79338   2.80538
 Alpha virt. eigenvalues --    2.81230   2.82438   2.83847   2.83986   2.84285
 Alpha virt. eigenvalues --    2.85212   2.85611   2.86226   2.86696   2.87128
 Alpha virt. eigenvalues --    2.87873   2.88818   2.89349   2.89781   2.91281
 Alpha virt. eigenvalues --    2.92092   2.92618   2.93760   2.94328   2.95016
 Alpha virt. eigenvalues --    2.96495   2.96832   2.97497   2.99408   3.00298
 Alpha virt. eigenvalues --    3.00921   3.02665   3.03584   3.04373   3.05647
 Alpha virt. eigenvalues --    3.05858   3.08957   3.09201   3.10814   3.11570
 Alpha virt. eigenvalues --    3.12658   3.14320   3.14768   3.15374   3.16953
 Alpha virt. eigenvalues --    3.18063   3.18569   3.20737   3.22499   3.23095
 Alpha virt. eigenvalues --    3.23485   3.23940   3.25011   3.27411   3.28633
 Alpha virt. eigenvalues --    3.30715   3.31900   3.32303   3.33597   3.34005
 Alpha virt. eigenvalues --    3.34511   3.34903   3.35416   3.38059   3.39053
 Alpha virt. eigenvalues --    3.40565   3.41998   3.42449   3.43622   3.44556
 Alpha virt. eigenvalues --    3.45719   3.46526   3.48893   3.49500   3.51588
 Alpha virt. eigenvalues --    3.54083   3.55620   3.57998   3.59604   3.60239
 Alpha virt. eigenvalues --    3.61538   3.65058   3.66477   3.66756   3.69972
 Alpha virt. eigenvalues --    3.70645   3.72071   3.72329   3.75939   3.76048
 Alpha virt. eigenvalues --    3.76586   3.80292   3.82890   3.84617   3.85424
 Alpha virt. eigenvalues --    3.86316   3.89319   3.90938   3.92976   3.93084
 Alpha virt. eigenvalues --    3.94362   3.97269   4.01748   4.03670   4.05271
 Alpha virt. eigenvalues --    4.08745   4.11012   4.13262   4.14669   4.21273
 Alpha virt. eigenvalues --    4.24562   4.25809   4.27653   4.35591   4.40521
 Alpha virt. eigenvalues --    4.41341   4.53761   4.72379   4.84487   4.87271
 Alpha virt. eigenvalues --    4.87653   4.90373   5.01693   5.02503   5.03944
 Alpha virt. eigenvalues --    5.05417   5.06019   5.06489   5.11345   5.13506
 Alpha virt. eigenvalues --    5.25140   5.27339   5.29851   5.35479   5.42917
 Alpha virt. eigenvalues --    5.43977   5.75996   5.76626   5.80334   5.80916
 Alpha virt. eigenvalues --    5.82225   5.84933   8.03293   8.10740  17.29115
 Alpha virt. eigenvalues --   17.33547  17.50343  17.53530  17.62974  17.74580
 Alpha virt. eigenvalues --   23.49166  23.57866  23.71364  23.78557  23.82244
 Alpha virt. eigenvalues --   23.82731  23.84741  23.86575  23.86692  23.88299
 Alpha virt. eigenvalues --   23.89949  23.90137  23.91618  23.93014  23.94529
 Alpha virt. eigenvalues --   23.95299  23.95961  23.98343  24.00765  24.02169
 Alpha virt. eigenvalues --   24.03096  24.05303  24.12162  24.13429  24.14288
 Alpha virt. eigenvalues --   24.14365  35.56346  35.59113  49.96349  49.98078
 Alpha virt. eigenvalues --   50.02165  50.04304  50.05700  50.07147 189.20771
 Alpha virt. eigenvalues --  189.29067
          Condensed to atoms (all electrons):
 Mulliken charges:
               1
     1  C    0.384311
     2  C   -0.229996
     3  C    0.107015
     4  C    0.280811
     5  C    0.256939
     6  C   -0.215342
     7  C    0.104445
     8  C   -0.138546
     9  C    0.605962
    10  C   -0.018102
    11  C    0.094290
    12  C    0.139064
    13  C   -0.497948
    14  C   -0.616281
    15  H    0.158499
    16  H    0.160551
    17  H    0.162028
    18  N   -0.131501
    19  N   -0.137581
    20  O   -0.289562
    21  O   -0.268769
    22  O   -0.272871
    23  O   -0.076109
    24  C   -0.182252
    25  H    0.175363
    26  H    0.173258
    27  H    0.188061
    28  C   -0.201799
    29  H    0.173397
    30  H    0.173734
    31  H    0.181783
    32  C   -0.142032
    33  C   -0.214360
    34  S    0.065654
    35  C   -0.489161
    36  H    0.127360
    37  C    0.328785
    38  O   -0.138857
    39  C    0.781384
    40  C   -0.231540
    41  C   -0.076905
    42  S   -0.306786
    43  H    0.166490
    44  H    0.145802
    45  H    0.151179
    46  C   -0.480284
    47  O   -0.081513
    48  C   -0.353807
    49  H    0.132769
    50  C   -0.242494
    51  H    0.161135
    52  H    0.143106
    53  H    0.166602
    54  H    0.144624
 Sum of Mulliken charges =  -0.00000
 Mulliken charges with hydrogens summed into heavy atoms:
               1
     1  C    0.384311
     2  C   -0.229996
     3  C    0.107015
     4  C    0.280811
     5  C    0.256939
     6  C   -0.053314
     7  C    0.104445
     8  C   -0.138546
     9  C    0.605962
    10  C   -0.018102
    11  C    0.094290
    12  C    0.139064
    13  C   -0.337397
    14  C   -0.457783
    18  N   -0.131501
    19  N   -0.137581
    20  O   -0.289562
    21  O   -0.268769
    22  O   -0.272871
    23  O   -0.076109
    24  C    0.354429
    28  C    0.327115
    32  C   -0.142032
    33  C   -0.087000
    34  S    0.065654
    35  C   -0.489161
    37  C    0.328785
    38  O   -0.138857
    39  C    0.781384
    40  C    0.231930
    41  C   -0.076905
    42  S   -0.306786
    46  C   -0.347515
    47  O   -0.081513
    48  C   -0.192672
    50  C    0.211838
 Electronic spatial extent (au):  <R**2>=          22155.4973
 Charge=             -0.0000 electrons
 Dipole moment (field-independent basis, Debye):
    X=              4.7066    Y=             -0.2860    Z=             -0.0509  Tot=              4.7156
 Quadrupole moment (field-independent basis, Debye-Ang):
   XX=           -215.9960   YY=           -212.7027   ZZ=           -223.8199
   XY=             14.2558   XZ=             -1.6740   YZ=              0.6647
 Traceless Quadrupole moment (field-independent basis, Debye-Ang):
   XX=              1.5102   YY=              4.8035   ZZ=             -6.3137
   XY=             14.2558   XZ=             -1.6740   YZ=              0.6647
 Octapole moment (field-independent basis, Debye-Ang**2):
  XXX=            365.8039  YYY=            -69.2825  ZZZ=              3.1792  XYY=            130.2794
  XXY=             32.5849  XXZ=             -1.7321  XZZ=            -16.2990  YZZ=              1.9586
  YYZ=              2.3115  XYZ=             -3.2994
 Hexadecapole moment (field-independent basis, Debye-Ang**3):
 XXXX=         -21790.5381 YYYY=          -7649.3362 ZZZZ=           -288.6031 XXXY=            472.8799
 XXXZ=            -79.6486 YYYX=            322.6618 YYYZ=             25.5772 ZZZX=              5.4043
 ZZZY=              2.4768 XXYY=          -4560.2550 XXZZ=          -3867.0666 YYZZ=          -1301.8274
 XXYZ=            -11.6538 YYXZ=             -2.7987 ZZXY=             56.5420
 N-N= 4.131565556750D+03 E-N=-1.380342346365D+04  KE= 2.352179198663D+03
 Calling FoFJK, ICntrl=      2127 FMM=F ISym2X=0 I1Cent= 0 IOpClX= 0 NMat=1 NMatS=1 NMatT=0.
 ***** Axes restored to original set *****
 -------------------------------------------------------------------
 Center     Atomic                   Forces (Hartrees/Bohr)
 Number     Number              X              Y              Z
 -------------------------------------------------------------------
      1        6           0.003577903   -0.005124489   -0.000275877
      2        6           0.007571341   -0.000047408   -0.000663926
      3        6          -0.004626707    0.001709283    0.000266941
      4        6           0.004108079    0.001180837    0.000295799
      5        6          -0.006041274   -0.001102339    0.000026832
      6        6          -0.003596637   -0.002786798   -0.003865009
      7        6          -0.002118181    0.000869014    0.000771831
      8        6          -0.000506919    0.010735896    0.004769925
      9        6           0.017387976   -0.006421535   -0.004553930
     10        6          -0.032928775   -0.011615370   -0.001581726
     11        6          -0.007014445    0.000921435   -0.000261110
     12        6           0.003126015    0.001185998    0.000443856
     13        6          -0.002730957   -0.003851544   -0.000622059
     14        6          -0.000536494    0.003959856    0.000579744
     15        1           0.000657231    0.000833279    0.000030485
     16        1           0.000565770   -0.001187986   -0.000248197
     17        1          -0.001544949    0.001138531    0.001572796
     18        7           0.006130444   -0.002512573   -0.000699380
     19        7           0.001698216    0.001078725   -0.000057038
     20        8          -0.005336793    0.005660819    0.000713572
     21        8           0.007623804    0.001982600    0.000118854
     22        8           0.006436901   -0.004189277   -0.000490047
     23        8          -0.055877326    0.022689900    0.015784228
     24        6           0.001040650    0.002444050   -0.000455814
     25        1          -0.000792428    0.000035858   -0.000070310
     26        1          -0.001463488   -0.000493982    0.000875505
     27        1           0.000968261   -0.000002465    0.000049668
     28        6          -0.000427650   -0.001959714   -0.000674831
     29        1          -0.000701824    0.000370393    0.000981920
     30        1          -0.000469648    0.000383349   -0.000495284
     31        1           0.000942327   -0.000346166   -0.000016149
     32        6          -0.022018844    0.026566532    0.012808049
     33        6           0.008980367   -0.007364344   -0.002673950
     34       16           0.076346811   -0.010103746   -0.011871646
     35        6           0.000751614   -0.005707986   -0.001631359
     36        1           0.001566934   -0.001568037    0.001064888
     37        6          -0.001872093   -0.011732196   -0.011261798
     38        8          -0.001111780   -0.004638641   -0.000498669
     39        6          -0.001225775   -0.002411142    0.000548244
     40        6           0.001529271   -0.001326464    0.001211862
     41        6          -0.001414594    0.000903772   -0.000157944
     42       16           0.001173217    0.002098611    0.000858973
     43        1          -0.000877938   -0.000148664   -0.000165545
     44        1           0.000386976    0.000741666   -0.000486617
     45        1           0.000779740    0.000703304    0.000352236
     46        6          -0.001053651    0.000104034    0.000276632
     47        8           0.004068261    0.001117192   -0.000138177
     48        6          -0.000055710   -0.000903643   -0.000168843
     49        1           0.000000821   -0.001388264   -0.000106399
     50        6           0.000812230    0.001690550   -0.000596402
     51        1          -0.001208314   -0.000237743   -0.000166502
     52        1          -0.000711368   -0.000854104    0.000920454
     53        1           0.000630363   -0.000589961    0.000019813
     54        1          -0.000596960   -0.000488905   -0.000388568
 -------------------------------------------------------------------
 Cartesian Forces:  Max     0.076346811 RMS     0.009344938

 GradGradGradGradGradGradGradGradGradGradGradGradGradGradGradGradGradGrad
 Berny optimization.
 FormGI is forming the generalized inverse of G from B-inverse, IUseBI=4.
 Internal  Forces:  Max     0.240766585 RMS     0.028232803
 Search for a local minimum.
 Step number   1 out of a maximum of  307
 All quantities printed in internal units (Hartrees-Bohrs-Radians)
 Mixed Optimization -- RFO/linear search
 Second derivative matrix not updated -- first step.
 ITU=  0
     Eigenvalues ---    0.00803   0.00803   0.01176   0.01203   0.01245
     Eigenvalues ---    0.01292   0.01308   0.01311   0.01366   0.01378
     Eigenvalues ---    0.01419   0.01429   0.01459   0.01496   0.01516
     Eigenvalues ---    0.01568   0.01574   0.01577   0.01624   0.01653
     Eigenvalues ---    0.01696   0.01711   0.01712   0.01719   0.01754
     Eigenvalues ---    0.01783   0.01803   0.01847   0.01964   0.02040
     Eigenvalues ---    0.02048   0.02070   0.02076   0.02082   0.02135
     Eigenvalues ---    0.02149   0.02163   0.02183   0.02197   0.02222
     Eigenvalues ---    0.02239   0.02250   0.07556   0.07572   0.07690
     Eigenvalues ---    0.07700   0.10063   0.10069   0.10636   0.10637
     Eigenvalues ---    0.15983   0.15999   0.15999   0.16000   0.16000
     Eigenvalues ---    0.16000   0.16000   0.16000   0.16000   0.16000
     Eigenvalues ---    0.16000   0.16000   0.16000   0.16000   0.16000
     Eigenvalues ---    0.16000   0.16000   0.16000   0.22530   0.22583
     Eigenvalues ---    0.23518   0.23581   0.24516   0.24747   0.24863
     Eigenvalues ---    0.24931   0.24952   0.24985   0.24987   0.24988
     Eigenvalues ---    0.24992   0.24994   0.24997   0.24997   0.24998
     Eigenvalues ---    0.24998   0.25000   0.25000   0.25000   0.25000
     Eigenvalues ---    0.25000   0.25000   0.25000   0.25000   0.25000
     Eigenvalues ---    0.25000   0.28825   0.28896   0.30154   0.32062
     Eigenvalues ---    0.32582   0.32774   0.33111   0.33787   0.33973
     Eigenvalues ---    0.34046   0.34115   0.34122   0.34354   0.34466
     Eigenvalues ---    0.34577   0.34629   0.34693   0.34833   0.34884
     Eigenvalues ---    0.35198   0.35218   0.35468   0.35553   0.35582
     Eigenvalues ---    0.35743   0.35856   0.36078   0.36083   0.36216
     Eigenvalues ---    0.36396   0.36662   0.39352   0.40194   0.40258
     Eigenvalues ---    0.40651   0.40686   0.41524   0.41774   0.41901
     Eigenvalues ---    0.42300   0.42803   0.43455   0.43857   0.44092
     Eigenvalues ---    0.44594   0.44642   0.45014   0.45406   0.46251
     Eigenvalues ---    0.47305   0.47623   0.49310   0.49626   0.52959
     Eigenvalues ---    0.53220   0.93281   0.93432   0.93989   0.94585
     Eigenvalues --- 1000.000001000.000001000.000001000.000001000.00000
     Eigenvalues --- 1000.000001000.000001000.000001000.000001000.00000
     Eigenvalues --- 1000.000001000.000001000.000001000.000001000.00000
     Eigenvalues --- 1000.000001000.000001000.000001000.000001000.00000
     Eigenvalues --- 1000.000001000.000001000.000001000.000001000.00000
     Eigenvalues --- 1000.000001000.000001000.000001000.000001000.00000
     Eigenvalues --- 1000.000001000.000001000.000001000.000001000.00000
     Eigenvalues --- 1000.000001000.000001000.000001000.000001000.00000
     Eigenvalues --- 1000.000001000.000001000.000001000.000001000.00000
     Eigenvalues --- 1000.000001000.000001000.000001000.000001000.00000
     Eigenvalues --- 1000.000001000.000001000.000001000.000001000.00000
     Eigenvalues --- 1000.000001000.000001000.000001000.000001000.00000
     Eigenvalues --- 1000.000001000.000001000.000001000.000001000.00000
     Eigenvalues --- 1000.000001000.000001000.000001000.000001000.00000
     Eigenvalues --- 1000.000001000.000001000.000001000.000001000.00000
     Eigenvalues --- 1000.000001000.000001000.000001000.000001000.00000
     Eigenvalues --- 1000.000001000.000001000.000001000.000001000.00000
     Eigenvalues --- 1000.000001000.000001000.000001000.000001000.00000
     Eigenvalues --- 1000.000001000.000001000.000001000.000001000.00000
     Eigenvalues --- 1000.000001000.000001000.000001000.000001000.00000
     Eigenvalues --- 1000.000001000.000001000.000001000.000001000.00000
     Eigenvalues --- 1000.000001000.000001000.000001000.000001000.00000
     Eigenvalues --- 1000.000001000.000001000.000001000.000001000.00000
     Eigenvalues --- 1000.000001000.000001000.000001000.000001000.00000
     Eigenvalues --- 1000.000001000.000001000.000001000.000001000.00000
     Eigenvalues --- 1000.000001000.000001000.000001000.000001000.00000
     Eigenvalues --- 1000.000001000.000001000.000001000.000001000.00000
     Eigenvalues --- 1000.000001000.000001000.000001000.000001000.00000
     Eigenvalues --- 1000.000001000.00000
 RFO step:  Lambda=-3.72127128D-01 EMin= 8.02933640D-03
 Linear search not attempted -- first point.
 Maximum step size (   0.300) exceeded in Quadratic search.
    -- Step size scaled by   0.394
 Iteration  1 RMS(Cart)=  0.31113022 RMS(Int)=  0.00800698
 Iteration  2 RMS(Cart)=  0.14346085 RMS(Int)=  0.00126033
 Iteration  3 RMS(Cart)=  0.00439920 RMS(Int)=  0.00007975
 Iteration  4 RMS(Cart)=  0.00000073 RMS(Int)=  0.00007975
 Iteration  1 RMS(Cart)=  0.00000057 RMS(Int)=  0.00000009
 Variable       Old X    -DE/DX   Delta X   Delta X   Delta X     New X
                                 (Linear)    (Quad)   (Total)
    R1        2.80935   0.00016   0.00000  -0.00016  -0.00016   2.80919
    R2        2.64584  -0.00847   0.00000  -0.00411  -0.00409   2.64175
    R3        2.31147  -0.00781   0.00000  -0.00235  -0.00235   2.30912
    R4        2.67311  -0.02283   0.00000  -0.01258  -0.01267   2.66045
    R5        2.59267  -0.03221   0.00000  -0.01598  -0.01600   2.57668
    R6        2.66894   0.00463   0.00000   0.00228   0.00227   2.67121
    R7        2.69164   0.00777   0.00000   0.00488   0.00484   2.69648
    R8        2.81049  -0.00112   0.00000  -0.00037  -0.00038   2.81012
    R9        2.62173  -0.01240   0.00000  -0.00635  -0.00637   2.61535
   R10        2.65570  -0.00758   0.00000  -0.00352  -0.00351   2.65218
   R11        2.30889  -0.00786   0.00000  -0.00235  -0.00235   2.30654
   R12        2.70248   0.00408   0.00000   0.00156   0.00162   2.70409
   R13        2.04786  -0.00210   0.00000  -0.00114  -0.00114   2.04672
   R14        2.70495   0.05613   0.00000   0.03130   0.03137   2.73633
   R15        2.68322   0.01650   0.00000   0.00949   0.00948   2.69270
   R16        2.68655   0.10970   0.00000   0.05575   0.05582   2.74237
   R17        2.81233   0.02275   0.00000   0.01318   0.01328   2.82561
   R18        2.76359   0.06198   0.00000   0.03308   0.03308   2.79668
   R19        2.66221  -0.01273   0.00000  -0.00688  -0.00686   2.65535
   R20        2.31391  -0.04008   0.00000  -0.01210  -0.01210   2.30181
   R21        2.79415  -0.02769   0.00000  -0.01570  -0.01579   2.77836
   R22        2.63842  -0.03034   0.00000  -0.01545  -0.01551   2.62290
   R23        2.31456  -0.00759   0.00000  -0.00229  -0.00229   2.31227
   R24        2.62448  -0.00145   0.00000  -0.00063  -0.00062   2.62386
   R25        2.64561  -0.02042   0.00000  -0.01028  -0.01030   2.63532
   R26        2.04921  -0.00125   0.00000  -0.00068  -0.00068   2.04853
   R27        2.04741  -0.00089   0.00000  -0.00048  -0.00048   2.04693
   R28        2.77259   0.00192   0.00000   0.00103   0.00103   2.77363
   R29        2.77252   0.00166   0.00000   0.00090   0.00090   2.77342
   R30        2.06176  -0.00047   0.00000  -0.00026  -0.00026   2.06150
   R31        2.06551  -0.00165   0.00000  -0.00091  -0.00091   2.06460
   R32        2.05322  -0.00083   0.00000  -0.00045  -0.00045   2.05277
   R33        2.06368  -0.00124   0.00000  -0.00068  -0.00068   2.06299
   R34        2.06281  -0.00076   0.00000  -0.00042  -0.00042   2.06240
   R35        2.05355  -0.00090   0.00000  -0.00049  -0.00049   2.05306
   R36        2.60995   0.02808   0.00000   0.01309   0.01314   2.62309
   R37        3.33323   0.02097   0.00000   0.01301   0.01305   3.34627
   R38        2.66095  -0.01755   0.00000  -0.00875  -0.00876   2.65219
   R39        2.03745   0.00126   0.00000   0.00067   0.00067   2.03812
   R40        3.30278   0.00380   0.00000   0.00212   0.00208   3.30486
   R41        2.64386  -0.01780   0.00000  -0.00891  -0.00896   2.63489
   R42        2.56992   0.00269   0.00000   0.00118   0.00118   2.57109
   R43        2.71204  -0.00028   0.00000  -0.00014  -0.00014   2.71190
   R44        2.69212  -0.00011   0.00000  -0.00006  -0.00006   2.69206
   R45        2.63322   0.00174   0.00000   0.00085   0.00085   2.63407
   R46        3.32890   0.00062   0.00000   0.00041   0.00041   3.32931
   R47        2.05947  -0.00080   0.00000  -0.00044  -0.00044   2.05903
   R48        2.07253  -0.00091   0.00000  -0.00050  -0.00050   2.07202
   R49        2.07125  -0.00082   0.00000  -0.00045  -0.00045   2.07079
   R50        2.69094  -0.00154   0.00000  -0.00077  -0.00077   2.69017
   R51        2.56749  -0.00338   0.00000  -0.00147  -0.00147   2.56602
   R52        3.26386  -0.00254   0.00000  -0.00146  -0.00146   3.26240
   R53        2.58626  -0.00137   0.00000  -0.00065  -0.00065   2.58561
   R54        2.04485  -0.00138   0.00000  -0.00075  -0.00075   2.04410
   R55        2.69049  -0.00025   0.00000  -0.00012  -0.00012   2.69036
   R56        2.04307  -0.00122   0.00000  -0.00066  -0.00066   2.04241
   R57        2.07375  -0.00141   0.00000  -0.00078  -0.00078   2.07297
   R58        2.05864  -0.00075   0.00000  -0.00041  -0.00041   2.05823
   R59        2.07137  -0.00075   0.00000  -0.00041  -0.00041   2.07096
    A1        2.03797   0.00190   0.00000   0.00053   0.00053   2.03850
    A2        2.14521  -0.00128   0.00000  -0.00048  -0.00048   2.14473
    A3        2.10001  -0.00061   0.00000  -0.00005  -0.00005   2.09996
    A4        2.10395   0.01111   0.00000   0.00799   0.00801   2.11195
    A5        2.08282  -0.01414   0.00000  -0.00691  -0.00686   2.07596
    A6        2.09624   0.00300   0.00000  -0.00111  -0.00118   2.09506
    A7        2.10093  -0.01404   0.00000  -0.00953  -0.00950   2.09143
    A8        2.07104  -0.00102   0.00000  -0.00182  -0.00193   2.06912
    A9        2.11118   0.01506   0.00000   0.01135   0.01142   2.12260
   A10        2.10296   0.00731   0.00000   0.00495   0.00493   2.10790
   A11        2.09911   0.00529   0.00000   0.00296   0.00293   2.10204
   A12        2.08110  -0.01260   0.00000  -0.00791  -0.00786   2.07324
   A13        2.03739   0.00020   0.00000   0.00035   0.00033   2.03772
   A14        2.12972   0.00056   0.00000   0.00024   0.00025   2.12997
   A15        2.11607  -0.00076   0.00000  -0.00060  -0.00058   2.11548
   A16        2.15098   0.04946   0.00000   0.03057   0.03063   2.18161
   A17        2.04399  -0.02508   0.00000  -0.01558  -0.01560   2.02839
   A18        2.08722  -0.02444   0.00000  -0.01508  -0.01511   2.07211
   A19        2.11101   0.01945   0.00000   0.01269   0.01262   2.12363
   A20        2.04385  -0.03634   0.00000  -0.02412  -0.02411   2.01973
   A21        2.12832   0.01690   0.00000   0.01143   0.01149   2.13981
   A22        2.08678  -0.03524   0.00000  -0.01958  -0.01957   2.06721
   A23        2.04738  -0.06818   0.00000  -0.04232  -0.04217   2.00521
   A24        2.14662   0.10338   0.00000   0.06184   0.06170   2.20832
   A25        2.04892  -0.03595   0.00000  -0.02107  -0.02091   2.02801
   A26        2.00754  -0.20493   0.00000  -0.13077  -0.13084   1.87671
   A27        2.22643   0.24077   0.00000   0.15174   0.15165   2.37808
   A28        2.06022   0.03787   0.00000   0.02458   0.02471   2.08493
   A29        2.17370   0.03437   0.00000   0.02148   0.02141   2.19510
   A30        2.04919  -0.07229   0.00000  -0.04611  -0.04618   2.00301
   A31        2.01621  -0.01114   0.00000  -0.00842  -0.00860   2.00761
   A32        2.14188   0.00703   0.00000   0.00513   0.00521   2.14709
   A33        2.12500   0.00407   0.00000   0.00325   0.00334   2.12834
   A34        2.10943   0.01251   0.00000   0.00840   0.00827   2.11770
   A35        2.11468   0.01857   0.00000   0.01266   0.01272   2.12739
   A36        2.05896  -0.03108   0.00000  -0.02107  -0.02100   2.03797
   A37        2.11176   0.00435   0.00000   0.00281   0.00277   2.11453
   A38        2.05670  -0.00169   0.00000  -0.00105  -0.00103   2.05567
   A39        2.11471  -0.00266   0.00000  -0.00177  -0.00175   2.11297
   A40        2.08567  -0.00691   0.00000  -0.00566  -0.00572   2.07995
   A41        2.07549   0.00405   0.00000   0.00327   0.00330   2.07879
   A42        2.12199   0.00286   0.00000   0.00239   0.00242   2.12441
   A43        2.20043   0.01165   0.00000   0.00589   0.00585   2.20628
   A44        2.02023  -0.00501   0.00000  -0.00243  -0.00241   2.01782
   A45        2.06252  -0.00664   0.00000  -0.00346  -0.00344   2.05908
   A46        2.18316  -0.00647   0.00000  -0.00430  -0.00430   2.17886
   A47        2.02959   0.00342   0.00000   0.00226   0.00226   2.03185
   A48        2.07044   0.00306   0.00000   0.00203   0.00203   2.07248
   A49        1.91737   0.00001   0.00000   0.00002   0.00002   1.91739
   A50        1.91808  -0.00009   0.00000  -0.00006  -0.00006   1.91802
   A51        1.87685   0.00055   0.00000   0.00038   0.00038   1.87723
   A52        1.88689   0.00045   0.00000   0.00038   0.00038   1.88727
   A53        1.93435  -0.00048   0.00000  -0.00038  -0.00038   1.93397
   A54        1.93055  -0.00044   0.00000  -0.00035  -0.00035   1.93020
   A55        1.91446   0.00003   0.00000   0.00002   0.00002   1.91449
   A56        1.91661  -0.00004   0.00000  -0.00003  -0.00003   1.91658
   A57        1.88052   0.00060   0.00000   0.00044   0.00044   1.88096
[...]
 Alpha  occ. eigenvalues --   -0.45603  -0.44858  -0.44364  -0.44038  -0.43493
 Alpha  occ. eigenvalues --   -0.43135  -0.42426  -0.42336  -0.41974  -0.41741
 Alpha  occ. eigenvalues --   -0.41593  -0.41182  -0.40971  -0.40453  -0.39877
 Alpha  occ. eigenvalues --   -0.39498  -0.39181  -0.38828  -0.37628  -0.37150
 Alpha  occ. eigenvalues --   -0.36604  -0.36303  -0.34590  -0.34306  -0.33716
 Alpha  occ. eigenvalues --   -0.33379  -0.31676  -0.30704  -0.30419  -0.29609
 Alpha  occ. eigenvalues --   -0.29181  -0.28586  -0.28439  -0.27763  -0.27255
 Alpha  occ. eigenvalues --   -0.25893  -0.25063  -0.24537  -0.19685
 Alpha virt. eigenvalues --   -0.12722  -0.07850  -0.06163  -0.04247  -0.03704
 Alpha virt. eigenvalues --   -0.00907  -0.00485  -0.00343  -0.00116   0.00382
 Alpha virt. eigenvalues --    0.00927   0.01073   0.01451   0.01921   0.01968
 Alpha virt. eigenvalues --    0.02210   0.02358   0.02697   0.02771   0.03281
 Alpha virt. eigenvalues --    0.03602   0.03690   0.03935   0.04238   0.04463
 Alpha virt. eigenvalues --    0.04583   0.04872   0.05154   0.05672   0.05953
 Alpha virt. eigenvalues --    0.06083   0.06345   0.06651   0.06720   0.07022
 Alpha virt. eigenvalues --    0.07249   0.07365   0.07786   0.07931   0.08013
 Alpha virt. eigenvalues --    0.08402   0.08687   0.08846   0.09284   0.09656
 Alpha virt. eigenvalues --    0.09948   0.09986   0.10257   0.10410   0.10810
 Alpha virt. eigenvalues --    0.10934   0.11200   0.11533   0.11795   0.11962
 Alpha virt. eigenvalues --    0.12411   0.12873   0.12971   0.13142   0.13305
 Alpha virt. eigenvalues --    0.13488   0.13737   0.14085   0.14361   0.14463
 Alpha virt. eigenvalues --    0.14503   0.14875   0.14922   0.15228   0.15363
 Alpha virt. eigenvalues --    0.15747   0.15885   0.16033   0.16339   0.16471
 Alpha virt. eigenvalues --    0.16583   0.17181   0.17291   0.17469   0.17851
 Alpha virt. eigenvalues --    0.17874   0.18096   0.18155   0.18347   0.18620
 Alpha virt. eigenvalues --    0.18785   0.19040   0.19212   0.19484   0.19594
 Alpha virt. eigenvalues --    0.19840   0.20064   0.20120   0.20289   0.20700
 Alpha virt. eigenvalues --    0.20891   0.20932   0.21258   0.21418   0.21606
 Alpha virt. eigenvalues --    0.21722   0.21980   0.22156   0.22634   0.22833
 Alpha virt. eigenvalues --    0.22864   0.22947   0.23335   0.23361   0.23616
 Alpha virt. eigenvalues --    0.23845   0.24090   0.24188   0.24534   0.24731
 Alpha virt. eigenvalues --    0.24876   0.24917   0.24978   0.25368   0.25708
 Alpha virt. eigenvalues --    0.25762   0.26047   0.26168   0.26366   0.26527
 Alpha virt. eigenvalues --    0.26599   0.26728   0.26949   0.27256   0.27480
 Alpha virt. eigenvalues --    0.27530   0.27832   0.28014   0.28367   0.28751
 Alpha virt. eigenvalues --    0.28879   0.28971   0.29061   0.29654   0.29908
 Alpha virt. eigenvalues --    0.30063   0.30203   0.30354   0.30766   0.31022
 Alpha virt. eigenvalues --    0.31419   0.31605   0.31704   0.32185   0.32296
 Alpha virt. eigenvalues --    0.32580   0.32797   0.33008   0.33280   0.33468
 Alpha virt. eigenvalues --    0.33865   0.34026   0.34657   0.34791   0.35091
 Alpha virt. eigenvalues --    0.35288   0.35499   0.35878   0.36113   0.36271
 Alpha virt. eigenvalues --    0.36505   0.37051   0.37314   0.37710   0.38152
 Alpha virt. eigenvalues --    0.38415   0.38565   0.38700   0.39293   0.39613
 Alpha virt. eigenvalues --    0.40004   0.40509   0.41114   0.41188   0.41693
 Alpha virt. eigenvalues --    0.42148   0.42669   0.42922   0.43408   0.43572
 Alpha virt. eigenvalues --    0.43606   0.43986   0.44354   0.44841   0.45048
 Alpha virt. eigenvalues --    0.45350   0.45825   0.46080   0.46442   0.47197
 Alpha virt. eigenvalues --    0.47727   0.47883   0.48340   0.48757   0.49489
 Alpha virt. eigenvalues --    0.49716   0.50282   0.50365   0.50785   0.51534
 Alpha virt. eigenvalues --    0.52346   0.52678   0.52868   0.53702   0.54260
 Alpha virt. eigenvalues --    0.54493   0.54952   0.55168   0.55267   0.55522
 Alpha virt. eigenvalues --    0.56030   0.56170   0.56610   0.56822   0.57092
 Alpha virt. eigenvalues --    0.57506   0.58097   0.58305   0.58870   0.59219
 Alpha virt. eigenvalues --    0.59718   0.60646   0.60651   0.61061   0.61379
 Alpha virt. eigenvalues --    0.61822   0.61883   0.62281   0.62773   0.63262
 Alpha virt. eigenvalues --    0.63788   0.64227   0.64485   0.64568   0.64927
 Alpha virt. eigenvalues --    0.65389   0.65549   0.65989   0.66104   0.66332
 Alpha virt. eigenvalues --    0.66818   0.67041   0.67288   0.67806   0.68281
 Alpha virt. eigenvalues --    0.69057   0.69804   0.69976   0.70092   0.70271
 Alpha virt. eigenvalues --    0.70618   0.71277   0.71789   0.72073   0.72180
 Alpha virt. eigenvalues --    0.72458   0.72894   0.73011   0.73716   0.74073
 Alpha virt. eigenvalues --    0.74227   0.74764   0.75072   0.75455   0.75653
 Alpha virt. eigenvalues --    0.75783   0.76162   0.76657   0.76834   0.77094
 Alpha virt. eigenvalues --    0.77686   0.78015   0.78864   0.79082   0.79516
 Alpha virt. eigenvalues --    0.79887   0.80139   0.81012   0.81130   0.82173
 Alpha virt. eigenvalues --    0.83016   0.83820   0.83916   0.84841   0.85705
 Alpha virt. eigenvalues --    0.86287   0.87124   0.87870   0.88275   0.88739
 Alpha virt. eigenvalues --    0.89408   0.89595   0.90105   0.90849   0.91314
 Alpha virt. eigenvalues --    0.91978   0.92421   0.92728   0.92985   0.93498
 Alpha virt. eigenvalues --    0.93955   0.94598   0.94893   0.95017   0.95331
 Alpha virt. eigenvalues --    0.95692   0.95933   0.96451   0.96812   0.97515
 Alpha virt. eigenvalues --    0.98208   0.98415   0.98888   0.99709   1.00676
 Alpha virt. eigenvalues --    1.00858   1.01194   1.01438   1.02056   1.02277
 Alpha virt. eigenvalues --    1.02556   1.02877   1.03689   1.03995   1.04280
 Alpha virt. eigenvalues --    1.04654   1.05281   1.05386   1.05739   1.06475
 Alpha virt. eigenvalues --    1.06839   1.07275   1.07843   1.08105   1.08460
 Alpha virt. eigenvalues --    1.09040   1.09688   1.10046   1.10722   1.11120
 Alpha virt. eigenvalues --    1.11306   1.12000   1.13139   1.14834   1.15279
 Alpha virt. eigenvalues --    1.15690   1.15764   1.17045   1.18070   1.18527
 Alpha virt. eigenvalues --    1.18983   1.19379   1.20025   1.20557   1.21406
 Alpha virt. eigenvalues --    1.22465   1.22931   1.23457   1.24232   1.25073
 Alpha virt. eigenvalues --    1.25522   1.25730   1.25906   1.27144   1.27852
 Alpha virt. eigenvalues --    1.28005   1.28869   1.29909   1.30789   1.31518
 Alpha virt. eigenvalues --    1.32493   1.32943   1.33226   1.34830   1.34846
 Alpha virt. eigenvalues --    1.35264   1.36693   1.36855   1.37439   1.39954
 Alpha virt. eigenvalues --    1.40550   1.41104   1.41702   1.41890   1.42340
 Alpha virt. eigenvalues --    1.42549   1.43082   1.43766   1.44149   1.44383
 Alpha virt. eigenvalues --    1.44547   1.45600   1.45846   1.46118   1.46268
 Alpha virt. eigenvalues --    1.46865   1.47007   1.47683   1.48901   1.49666
 Alpha virt. eigenvalues --    1.49975   1.50866   1.51337   1.51750   1.52727
 Alpha virt. eigenvalues --    1.52949   1.53331   1.53894   1.54346   1.54797
 Alpha virt. eigenvalues --    1.55134   1.55355   1.55853   1.56256   1.57375
 Alpha virt. eigenvalues --    1.58041   1.58554   1.59581   1.60781   1.60989
 Alpha virt. eigenvalues --    1.62273   1.62391   1.63084   1.63573   1.63886
 Alpha virt. eigenvalues --    1.65216   1.65886   1.66183   1.66368   1.66932
 Alpha virt. eigenvalues --    1.67729   1.68398   1.69042   1.69229   1.69677
 Alpha virt. eigenvalues --    1.70118   1.70366   1.70764   1.71981   1.72073
 Alpha virt. eigenvalues --    1.72242   1.73937   1.74476   1.75415   1.75817
 Alpha virt. eigenvalues --    1.75887   1.76663   1.76975   1.77945   1.78875
 Alpha virt. eigenvalues --    1.79417   1.79659   1.80473   1.80809   1.81666
 Alpha virt. eigenvalues --    1.83009   1.84009   1.85173   1.85749   1.86522
 Alpha virt. eigenvalues --    1.87104   1.87333   1.87733   1.87975   1.88111
 Alpha virt. eigenvalues --    1.89440   1.89920   1.90646   1.90946   1.91407
 Alpha virt. eigenvalues --    1.91853   1.92804   1.93686   1.94649   1.95368
 Alpha virt. eigenvalues --    1.96181   1.97068   1.98234   1.98863   1.99203
 Alpha virt. eigenvalues --    1.99369   2.00074   2.01011   2.01605   2.02218
 Alpha virt. eigenvalues --    2.02460   2.02866   2.03451   2.04056   2.04957
 Alpha virt. eigenvalues --    2.05703   2.06021   2.07070   2.07958   2.08649
 Alpha virt. eigenvalues --    2.08989   2.09697   2.10685   2.11453   2.11697
 Alpha virt. eigenvalues --    2.12089   2.13324   2.14371   2.14841   2.15159
 Alpha virt. eigenvalues --    2.15776   2.16656   2.17511   2.18620   2.19136
 Alpha virt. eigenvalues --    2.20007   2.20109   2.20982   2.21487   2.22586
 Alpha virt. eigenvalues --    2.23759   2.25429   2.26330   2.26675   2.29112
 Alpha virt. eigenvalues --    2.32630   2.33394   2.34021   2.35295   2.36884
 Alpha virt. eigenvalues --    2.37707   2.39597   2.40213   2.40932   2.42286
 Alpha virt. eigenvalues --    2.42846   2.43213   2.44449   2.44950   2.46109
 Alpha virt. eigenvalues --    2.46472   2.47208   2.47455   2.48326   2.49518
 Alpha virt. eigenvalues --    2.50556   2.51281   2.51917   2.52354   2.52567
 Alpha virt. eigenvalues --    2.53097   2.53457   2.54341   2.54459   2.55534
 Alpha virt. eigenvalues --    2.56821   2.57304   2.58826   2.59176   2.61327
 Alpha virt. eigenvalues --    2.62723   2.63554   2.63716   2.65290   2.65888
 Alpha virt. eigenvalues --    2.66990   2.67445   2.67604   2.67664   2.68529
 Alpha virt. eigenvalues --    2.68908   2.70471   2.70722   2.71327   2.71806
 Alpha virt. eigenvalues --    2.72188   2.73131   2.73693   2.73998   2.75008
 Alpha virt. eigenvalues --    2.76730   2.76826   2.77514   2.78145   2.80189
 Alpha virt. eigenvalues --    2.80718   2.82215   2.82946   2.83103   2.83461
 Alpha virt. eigenvalues --    2.84229   2.84948   2.85666   2.85987   2.86938
 Alpha virt. eigenvalues --    2.87516   2.88256   2.88812   2.90001   2.90247
 Alpha virt. eigenvalues --    2.91176   2.92547   2.92781   2.93357   2.94650
 Alpha virt. eigenvalues --    2.94988   2.95616   2.96292   2.98188   2.98701
 Alpha virt. eigenvalues --    3.00205   3.01569   3.02865   3.03232   3.03831
 Alpha virt. eigenvalues --    3.06163   3.06721   3.07734   3.09346   3.10973
 Alpha virt. eigenvalues --    3.11052   3.12690   3.14210   3.14760   3.15339
 Alpha virt. eigenvalues --    3.16572   3.17930   3.18439   3.20691   3.21177
 Alpha virt. eigenvalues --    3.22996   3.23480   3.23619   3.25361   3.27503
 Alpha virt. eigenvalues --    3.28889   3.29798   3.31160   3.32107   3.34279
 Alpha virt. eigenvalues --    3.34730   3.35252   3.35797   3.36784   3.38230
 Alpha virt. eigenvalues --    3.38901   3.40259   3.40979   3.43036   3.43448
 Alpha virt. eigenvalues --    3.44885   3.45727   3.46290   3.49542   3.49762
 Alpha virt. eigenvalues --    3.51458   3.54184   3.55844   3.58579   3.60534
 Alpha virt. eigenvalues --    3.61114   3.62671   3.65606   3.66200   3.67060
 Alpha virt. eigenvalues --    3.69532   3.70752   3.72679   3.73972   3.75254
 Alpha virt. eigenvalues --    3.76309   3.76516   3.80828   3.82560   3.84406
 Alpha virt. eigenvalues --    3.85680   3.86375   3.89776   3.91213   3.93235
 Alpha virt. eigenvalues --    3.93480   3.95365   3.97095   4.01790   4.02919
 Alpha virt. eigenvalues --    4.04688   4.08285   4.10122   4.13027   4.14278
 Alpha virt. eigenvalues --    4.20396   4.24402   4.25615   4.27645   4.35651
 Alpha virt. eigenvalues --    4.39180   4.41561   4.52915   4.69551   4.85016
 Alpha virt. eigenvalues --    4.86053   4.87519   4.90346   5.01011   5.02062
 Alpha virt. eigenvalues --    5.04192   5.05661   5.06590   5.09732   5.11624
 Alpha virt. eigenvalues --    5.12935   5.25194   5.27232   5.28313   5.30269
 Alpha virt. eigenvalues --    5.41840   5.42827   5.76084   5.76514   5.80147
 Alpha virt. eigenvalues --    5.80436   5.82691   5.84673   8.02493   8.05583
 Alpha virt. eigenvalues --   17.28630  17.32146  17.49492  17.52308  17.58366
 Alpha virt. eigenvalues --   17.63196  23.48736  23.56271  23.71114  23.79280
 Alpha virt. eigenvalues --   23.82462  23.83264  23.85764  23.87369  23.87669
 Alpha virt. eigenvalues --   23.88447  23.89087  23.90023  23.91055  23.93449
 Alpha virt. eigenvalues --   23.95032  23.95743  23.96571  23.98796  24.00462
 Alpha virt. eigenvalues --   24.02006  24.02329  24.05657  24.09500  24.14365
 Alpha virt. eigenvalues --   24.15061  24.15112  35.56132  35.58852  49.95805
 Alpha virt. eigenvalues --   49.97538  50.02647  50.04173  50.06264  50.07655
 Alpha virt. eigenvalues --  189.19837 189.23179
          Condensed to atoms (all electrons):
 Mulliken charges:
               1
     1  C    0.344774
     2  C   -0.059077
     3  C    0.163500
     4  C    0.175021
     5  C    0.253614
     6  C    0.131816
     7  C    0.077912
     8  C    0.253516
     9  C    0.395341
    10  C   -0.425721
    11  C    0.260470
    12  C    0.079427
    13  C   -0.448424
    14  C   -0.585100
    15  H    0.157379
    16  H    0.160409
    17  H    0.155238
    18  N   -0.085179
    19  N   -0.147839
    20  O   -0.287122
    21  O   -0.265911
    22  O   -0.281858
    23  O   -0.222501
    24  C   -0.171183
    25  H    0.177464
    26  H    0.170169
    27  H    0.182459
    28  C   -0.197646
    29  H    0.173332
    30  H    0.173002
    31  H    0.182094
    32  C   -0.119231
    33  C   -0.328303
    34  S   -0.671472
    35  C   -0.372451
    36  H    0.128877
    37  C    0.640639
    38  O   -0.135690
    39  C    0.850576
    40  C   -0.225561
    41  C   -0.056541
    42  S   -0.249760
    43  H    0.168696
    44  H    0.149385
    45  H    0.150780
    46  C   -0.528404
    47  O   -0.114917
    48  C   -0.292005
    49  H    0.133026
    50  C   -0.242322
    51  H    0.162860
    52  H    0.144666
    53  H    0.168973
    54  H    0.148801
 Sum of Mulliken charges =  -0.00000
 Mulliken charges with hydrogens summed into heavy atoms:
               1
     1  C    0.344774
     2  C   -0.059077
     3  C    0.163500
     4  C    0.175021
     5  C    0.253614
     6  C    0.287055
     7  C    0.077912
     8  C    0.253516
     9  C    0.395341
    10  C   -0.425721
    11  C    0.260470
    12  C    0.079427
    13  C   -0.288014
    14  C   -0.427722
    18  N   -0.085179
    19  N   -0.147839
    20  O   -0.287122
    21  O   -0.265911
    22  O   -0.281858
    23  O   -0.222501
    24  C    0.358909
    28  C    0.330782
    32  C   -0.119231
    33  C   -0.199427
    34  S   -0.671472
    35  C   -0.372451
    37  C    0.640639
    38  O   -0.135690
    39  C    0.850576
    40  C    0.243301
    41  C   -0.056541
    42  S   -0.249760
    46  C   -0.395378
    47  O   -0.114917
    48  C   -0.129144
    50  C    0.220118
 Electronic spatial extent (au):  <R**2>=          22291.3504
 Charge=              0.0000 electrons
 Dipole moment (field-independent basis, Debye):
    X=              5.5317    Y=             -0.8526    Z=             -0.5041  Tot=              5.6197
 Quadrupole moment (field-independent basis, Debye-Ang):
   XX=           -209.8413   YY=           -213.4044   ZZ=           -223.1983
   XY=             12.4793   XZ=             -9.2241   YZ=             -5.9541
 Traceless Quadrupole moment (field-independent basis, Debye-Ang):
   XX=              5.6400   YY=              2.0769   ZZ=             -7.7170
   XY=             12.4793   XZ=             -9.2241   YZ=             -5.9541
 Octapole moment (field-independent basis, Debye-Ang**2):
  XXX=            397.0790  YYY=            -60.1488  ZZZ=              2.1622  XYY=            127.1858
  XXY=             34.7478  XXZ=            -24.7619  XZZ=             -4.9939  YZZ=             -1.6331
  YYZ=             10.8106  XYZ=            -30.9633
 Hexadecapole moment (field-independent basis, Debye-Ang**3):
 XXXX=         -21133.8405 YYYY=          -7706.5209 ZZZZ=           -666.6390 XXXY=            310.9231
 XXXZ=           -520.0301 YYYX=            435.3279 YYYZ=             -6.7748 ZZZX=             20.7887
 ZZZY=             -1.3855 XXYY=          -4598.9432 XXZZ=          -3832.4167 YYZZ=          -1349.7542
 XXYZ=           -145.3750 YYXZ=              4.1920 ZZXY=             45.2533
 N-N= 4.102048037426D+03 E-N=-1.374417980624D+04  KE= 2.352055058548D+03
 Unable to Open any file for archive entry.
 1\1\GINC-CX1-103-13-4\FOpt\RB3LYP\6-311+G(d,p)\C26H18N2O6S2\NS5018\26-
 Nov-2020\0\\# opt=modredundant b3lyp/6-311+g(d,p)\\NDI_175.pdb\\0,1\C,
 -2.3599859269,-2.8429006716,-0.578684966\C,-2.1725956198,-1.4176576031
 ,-0.1999247917\C,-3.2812284739,-0.5442008756,-0.1262797647\C,-4.578449
 2302,-1.0042924205,-0.420891056\C,-4.8025419647,-2.4221900481,-0.80846
 82094\C,-0.9098627512,-0.9507086733,0.0368080702\C,-3.0488279394,0.803
 7668904,0.2569708012\C,-1.7286684475,1.2685807555,0.5499263599\C,-0.60
 99851533,0.4039940825,0.3912995207\C,-1.6161475183,2.6246232765,1.1314
 626234\C,-4.032878903,3.0739775931,0.7351837973\C,-4.1771979463,1.6600
 108539,0.3272434615\C,-5.4488816867,1.1930290183,0.0213996124\C,-5.658
 4476665,-0.136769456,-0.3513047899\H,-6.6486129996,-0.5062543302,-0.58
 43709599\H,-6.2748900608,1.8901925057,0.0835853186\H,-0.1121046055,-1.
 6629748802,-0.1004126239\N,-2.7494048549,3.4556466489,1.1265975307\N,-
 3.667842159,-3.2529163845,-0.8548775096\O,-1.4366355148,-3.6346207658,
 -0.6513315158\O,-5.9084366162,-2.8546798381,-1.0723830492\O,-4.9690873
 502,3.855012239,0.7545023515\O,-0.5921655905,3.0565346474,1.6360742295
 \C,-2.5559172322,4.8134963419,1.6541961765\H,-2.2988663681,4.770254168
 6,2.7133314647\H,-1.7382728792,5.298907657,1.1224761284\H,-3.484239014
 7,5.3578187765,1.5121361734\C,-3.844357867,-4.6636281865,-1.2277607487
 \H,-3.2747532215,-4.8803516794,-2.1319243042\H,-3.4755523498,-5.304041
 5783,-0.4263879365\H,-4.902862218,-4.8343847881,-1.3960507555\C,0.8216
 639598,0.7137175566,0.4249292902\C,1.8279266147,-0.2540149273,0.353635
 2339\S,1.5366984349,2.3021054904,0.2237630323\C,3.1091251823,0.2611229
 161,0.131735261\H,1.6504656768,-1.3095907594,0.4799876729\C,3.14059635
 53,1.6506441038,-0.0110272515\O,4.2695728771,-0.443709448,0.052315364\
 C,4.290164274,2.4743415848,-0.2491820664\C,4.2028165465,-1.8609198316,
 0.1798890018\C,4.33296127,3.8606475309,-0.3833398607\S,5.917434559,1.8
 228843294,-0.426936126\H,5.2263736553,-2.2180317714,0.0827505284\H,3.8
 077293331,-2.1500969582,1.1592057579\H,3.5868079123,-2.2995636502,-0.6
 118036604\C,5.6336661605,4.3825317954,-0.6192624833\O,3.1849169588,4.5
 735442855,-0.2874276817\C,6.5791203984,3.3953854669,-0.6673796\H,5.859
 7167682,5.4308302888,-0.7476945391\C,3.2616342847,5.9940040575,-0.3745
 022106\H,7.6397373211,3.5088501625,-0.832432216\H,3.6449368706,6.30824
 105,-1.3504884248\H,2.2421302886,6.3540861898,-0.2516358672\H,3.891504
 4279,6.4027172617,0.4217602062\\Version=ES64L-G16RevC.01\State=1-A\HF=
 -2359.3342102\RMSD=3.686e-09\RMSF=4.165e-04\Dipole=2.1142384,0.6024703
 ,-0.2353233\Quadrupole=-3.5605067,10.7237331,-7.1632264,7.5758838,-3.4
 513118,-4.5113154\PG=C01 [X(C26H18N2O6S2)]\\@
 The archive entry for this job was punched.


 WE'RE IN THE POSITION OF A VISITOR FROM ANOTHER
 DIMENSION WHO COMES TO EARTH AND SEES A CHESS MATCH.
 ASSUMING HE KNOWS IT'S A GAME, HE'S GOT TWO PROBLEMS:
 FIRST, FIGURE OUT THE RULES, AND SECOND, FIGURE OUT HOW TO WIN.
 NINETY PERCENT OF SCIENCE (INCLUDING VIRTUALLY ALL OF CHEMISRY)
 IS IN THAT SECOND CATEGORY.  THEY'RE TRYING TO APPLY
 THE LAWS THAT ARE ALREADY KNOWN.

                     -- SHELDON GLASHOW, 1979
 Job cpu time:       8 days  8 hours 20 minutes 46.1 seconds.
 Elapsed time:       0 days 12 hours 35 minutes 34.2 seconds.
 File lengths (MBytes):  RWF=    524 Int=      0 D2E=      0 Chk=     77 Scr=      1
 Normal termination of Gaussian 16 at Thu Nov 26 23:15:51 2020.
