 Entering Gaussian System, Link 0=g16
 Input=NDI_155.gjf
 Output=NDI_155.log
 Initial command:
 /apps/gaussian/g16-c01-avx/g16/l1.exe "/tmp/pbs.2610758[67].pbs/Gau-2255764.inp" -scrdir="/tmp/pbs.2610758[67].pbs/"
 Entering Link 1 = /apps/gaussian/g16-c01-avx/g16/l1.exe PID=   2255781.
  
 Copyright (c) 1988-2019, Gaussian, Inc.  All Rights Reserved.
  
 This is part of the Gaussian(R) 16 program.  It is based on
 the Gaussian(R) 09 system (copyright 2009, Gaussian, Inc.),
 the Gaussian(R) 03 system (copyright 2003, Gaussian, Inc.),
 the Gaussian(R) 98 system (copyright 1998, Gaussian, Inc.),
 the Gaussian(R) 94 system (copyright 1995, Gaussian, Inc.),
 the Gaussian 92(TM) system (copyright 1992, Gaussian, Inc.),
 the Gaussian 90(TM) system (copyright 1990, Gaussian, Inc.),
 the Gaussian 88(TM) system (copyright 1988, Gaussian, Inc.),
 the Gaussian 86(TM) system (copyright 1986, Carnegie Mellon
 University), and the Gaussian 82(TM) system (copyright 1983,
 Carnegie Mellon University). Gaussian is a federally registered
 trademark of Gaussian, Inc.
  
 This software contains proprietary and confidential information,
 including trade secrets, belonging to Gaussian, Inc.
  
 This software is provided under written license and may be
 used, copied, transmitted, or stored only in accord with that
 written license.
  
 The following legend is applicable only to US Government
 contracts under FAR:
  
                    RESTRICTED RIGHTS LEGEND
  
 Use, reproduction and disclosure by the US Government is
 subject to restrictions as set forth in subparagraphs (a)
 and (c) of the Commercial Computer Software - Restricted
 Rights clause in FAR 52.227-19.
  
 Gaussian, Inc.
 340 Quinnipiac St., Bldg. 40, Wallingford CT 06492
  
  
 ---------------------------------------------------------------
 Warning -- This program may not be used in any manner that
 competes with the business of Gaussian, Inc. or will provide
 assistance to any competitor of Gaussian, Inc.  The licensee
 of this program is prohibited from giving any competitor of
 Gaussian, Inc. access to this program.  By using this program,
 the user acknowledges that Gaussian, Inc. is engaged in the
 business of creating and licensing software in the field of
 computational chemistry and represents and warrants to the
 licensee that it is not a competitor of Gaussian, Inc. and that
 it will not use this program in any manner prohibited above.
 ---------------------------------------------------------------
  

 Cite this work as:
 Gaussian 16, Revision C.01,
 M. J. Frisch, G. W. Trucks, H. B. Schlegel, G. E. Scuseria, 
 M. A. Robb, J. R. Cheeseman, G. Scalmani, V. Barone, 
 G. A. Petersson, H. Nakatsuji, X. Li, M. Caricato, A. V. Marenich, 
 J. Bloino, B. G. Janesko, R. Gomperts, B. Mennucci, H. P. Hratchian, 
 J. V. Ortiz, A. F. Izmaylov, J. L. Sonnenberg, D. Williams-Young, 
 F. Ding, F. Lipparini, F. Egidi, J. Goings, B. Peng, A. Petrone, 
 T. Henderson, D. Ranasinghe, V. G. Zakrzewski, J. Gao, N. Rega, 
 G. Zheng, W. Liang, M. Hada, M. Ehara, K. Toyota, R. Fukuda, 
 J. Hasegawa, M. Ishida, T. Nakajima, Y. Honda, O. Kitao, H. Nakai, 
 T. Vreven, K. Throssell, J. A. Montgomery, Jr., J. E. Peralta, 
 F. Ogliaro, M. J. Bearpark, J. J. Heyd, E. N. Brothers, K. N. Kudin, 
 V. N. Staroverov, T. A. Keith, R. Kobayashi, J. Normand, 
 K. Raghavachari, A. P. Rendell, J. C. Burant, S. S. Iyengar, 
 J. Tomasi, M. Cossi, J. M. Millam, M. Klene, C. Adamo, R. Cammi, 
 J. W. Ochterski, R. L. Martin, K. Morokuma, O. Farkas, 
 J. B. Foresman, and D. J. Fox, Gaussian, Inc., Wallingford CT, 2019.
 
 ******************************************
 Gaussian 16:  ES64L-G16RevC.01  3-Jul-2019
                26-Nov-2020 
 ******************************************
 %mem=10GB
 %nprocshared=16
 Will use up to   16 processors via shared memory.
 -------------------------------------
 # opt=modredundant b3lyp/6-311+g(d,p)
 -------------------------------------
 1/18=120,19=15,26=3,38=1/1,3;
 2/9=110,12=2,17=6,18=5,40=1/2;
 3/5=4,6=6,7=111,11=2,25=1,30=1,71=1,74=-5/1,2,3;
 4//1;
 5/5=2,38=5/2;
 6/7=2,8=2,9=2,10=2,28=1/1;
 7//1,2,3,16;
 1/18=20,19=15,26=3/3(2);
 2/9=110/2;
 99//99;
 2/9=110/2;
 3/5=4,6=6,7=111,11=2,25=1,30=1,71=1,74=-5/1,2,3;
 4/5=5,16=3,69=1/1;
 5/5=2,38=5/2;
 7//1,2,3,16;
 1/18=20,19=15,26=3/3(-5);
 2/9=110/2;
 6/7=2,8=2,9=2,10=2,19=2,28=1/1;
 99/9=1/99;
 -----------
 NDI_155.pdb
 -----------
 Symbolic Z-matrix:
 Charge =  0 Multiplicity = 1
 C                    -2.563    -2.994    -0.409 
 C                    -2.257    -1.551    -0.224 
 C                    -3.301    -0.607    -0.083 
 C                    -4.65     -1.024    -0.115 
 C                    -4.992    -2.459    -0.304 
 C                    -0.949    -1.137    -0.215 
 C                    -2.962     0.764     0.102 
 C                    -1.595     1.188     0.123 
 C                    -0.561     0.232    -0.072 
 C                    -1.328     2.616     0.446 
 C                    -3.777     3.115     0.508 
 C                    -4.035     1.679     0.268 
 C                    -5.356     1.252     0.23 
 C                    -5.672    -0.098     0.036 
 H                    -6.699    -0.442     0.008 
 H                    -6.133     1.997     0.361 
 H                    -0.19     -1.895    -0.369 
 N                    -2.432     3.476     0.608 
 N                    -3.916    -3.353    -0.438 
 O                    -1.695    -3.847    -0.532 
 O                    -6.149    -2.85     -0.34 
 O                    -4.676     3.938     0.629 
 O                    -0.212     3.097     0.596 
 C                    -2.111     4.875     0.912 
 H                    -1.54      4.931     1.84 
 H                    -1.5       5.299     0.111 
 H                    -3.05      5.414     1.003 
 C                    -4.206    -4.779    -0.625 
 H                    -3.759    -5.126    -1.559 
 H                    -3.775    -5.355     0.196 
 H                    -5.286    -4.897    -0.649 
 C                     0.876     0.482    -0.178 
 C                     1.958    -0.337     0.083 
 S                     1.429     2.114    -0.555 
 C                     3.199     0.321    -0.021 
 H                     1.853    -1.38      0.332 
 C                     3.111     1.671    -0.373 
 O                     4.426    -0.229     0.184 
 C                     4.189     2.592    -0.597 
 C                     4.487    -1.637     0.4 
 C                     4.099     3.944    -0.925 
 S                     5.886     2.131    -0.486 
 H                     5.547    -1.885     0.46 
 H                     3.996    -1.916     1.34 
 H                     4.025    -2.185    -0.429 
 C                     5.357     4.591    -1.083 
 O                     2.873     4.512    -1.066 
 C                     6.403     3.732    -0.875 
 H                     5.481     5.635    -1.336 
 C                     2.812     5.902    -1.367 
 H                     7.459     3.957    -0.928 
 H                     3.288     6.122    -2.331 
 H                     1.753     6.152    -1.421 
 H                     3.289     6.5      -0.581 
 
 The following ModRedundant input section has been read:
 D       8       9      32      33 F                                           
 

 GradGradGradGradGradGradGradGradGradGradGradGradGradGradGradGradGradGrad
 Berny optimization.
 Initialization pass.
                           ----------------------------
                           !    Initial Parameters    !
                           ! (Angstroms and Degrees)  !
 --------------------------                            --------------------------
 ! Name  Definition              Value          Derivative Info.                !
 --------------------------------------------------------------------------------
 ! R1    R(1,2)                  1.4866         estimate D2E/DX2                !
 ! R2    R(1,19)                 1.4001         estimate D2E/DX2                !
 ! R3    R(1,20)                 1.2232         estimate D2E/DX2                !
 ! R4    R(2,3)                  1.4146         estimate D2E/DX2                !
 ! R5    R(2,6)                  1.372          estimate D2E/DX2                !
 ! R6    R(3,4)                  1.4123         estimate D2E/DX2                !
 ! R7    R(3,7)                  1.4244         estimate D2E/DX2                !
 ! R8    R(4,5)                  1.4872         estimate D2E/DX2                !
 ! R9    R(4,14)                 1.3874         estimate D2E/DX2                !
 ! R10   R(5,19)                 1.4053         estimate D2E/DX2                !
 ! R11   R(5,21)                 1.2218         estimate D2E/DX2                !
 ! R12   R(6,9)                  1.4301         estimate D2E/DX2                !
 ! R13   R(6,17)                 1.0837         estimate D2E/DX2                !
 ! R14   R(7,8)                  1.4314         estimate D2E/DX2                !
 ! R15   R(7,12)                 1.4199         estimate D2E/DX2                !
 ! R16   R(8,9)                  1.4217         estimate D2E/DX2                !
 ! R17   R(8,10)                 1.4882         estimate D2E/DX2                !
 ! R18   R(9,32)                 1.4624         estimate D2E/DX2                !
 ! R19   R(10,18)                1.4088         estimate D2E/DX2                !
 ! R20   R(10,23)                1.2245         estimate D2E/DX2                !
 ! R21   R(11,12)                1.4786         estimate D2E/DX2                !
 ! R22   R(11,18)                1.3962         estimate D2E/DX2                !
 ! R23   R(11,22)                1.2248         estimate D2E/DX2                !
 ! R24   R(12,13)                1.3888         estimate D2E/DX2                !
 ! R25   R(13,14)                1.4            estimate D2E/DX2                !
 ! R26   R(13,16)                1.0844         estimate D2E/DX2                !
 ! R27   R(14,15)                1.0834         estimate D2E/DX2                !
 ! R28   R(18,24)                1.4672         estimate D2E/DX2                !
 ! R29   R(19,28)                1.4672         estimate D2E/DX2                !
 ! R30   R(24,25)                1.091          estimate D2E/DX2                !
 ! R31   R(24,26)                1.093          estimate D2E/DX2                !
 ! R32   R(24,27)                1.0865         estimate D2E/DX2                !
 ! R33   R(28,29)                1.0921         estimate D2E/DX2                !
 ! R34   R(28,30)                1.0916         estimate D2E/DX2                !
 ! R35   R(28,31)                1.0867         estimate D2E/DX2                !
 ! R36   R(32,33)                1.3819         estimate D2E/DX2                !
 ! R37   R(32,34)                1.7639         estimate D2E/DX2                !
 ! R38   R(33,35)                1.4085         estimate D2E/DX2                !
 ! R39   R(33,36)                1.0774         estimate D2E/DX2                !
 ! R40   R(34,37)                1.7489         estimate D2E/DX2                !
 ! R41   R(35,37)                1.3979         estimate D2E/DX2                !
 ! R42   R(35,38)                1.3602         estimate D2E/DX2                !
 ! R43   R(37,39)                1.4354         estimate D2E/DX2                !
 ! R44   R(38,40)                1.4258         estimate D2E/DX2                !
 ! R45   R(39,41)                1.3941         estimate D2E/DX2                !
 ! R46   R(39,42)                1.762          estimate D2E/DX2                !
 ! R47   R(40,43)                1.0903         estimate D2E/DX2                !
 ! R48   R(40,44)                1.0966         estimate D2E/DX2                !
 ! R49   R(40,45)                1.0959         estimate D2E/DX2                !
 ! R50   R(41,46)                1.4234         estimate D2E/DX2                !
 ! R51   R(41,47)                1.3585         estimate D2E/DX2                !
 ! R52   R(42,48)                1.7268         estimate D2E/DX2                !
 ! R53   R(46,48)                1.3694         estimate D2E/DX2                !
 ! R54   R(46,49)                1.0814         estimate D2E/DX2                !
 ! R55   R(47,50)                1.4235         estimate D2E/DX2                !
 ! R56   R(48,51)                1.081          estimate D2E/DX2                !
 ! R57   R(50,52)                1.0974         estimate D2E/DX2                !
 ! R58   R(50,53)                1.0894         estimate D2E/DX2                !
 ! R59   R(50,54)                1.0968         estimate D2E/DX2                !
 ! A1    A(2,1,19)             116.767          estimate D2E/DX2                !
 ! A2    A(2,1,20)             122.9113         estimate D2E/DX2                !
 ! A3    A(19,1,20)            120.3217         estimate D2E/DX2                !
 ! A4    A(1,2,3)              120.5473         estimate D2E/DX2                !
 ! A5    A(1,2,6)              119.3369         estimate D2E/DX2                !
 ! A6    A(3,2,6)              120.1056         estimate D2E/DX2                !
 ! A7    A(2,3,4)              120.3743         estimate D2E/DX2                !
 ! A8    A(2,3,7)              118.662          estimate D2E/DX2                !
 ! A9    A(4,3,7)              120.9617         estimate D2E/DX2                !
 ! A10   A(3,4,5)              120.4909         estimate D2E/DX2                !
 ! A11   A(3,4,14)             120.2702         estimate D2E/DX2                !
 ! A12   A(5,4,14)             119.2382         estimate D2E/DX2                !
 ! A13   A(4,5,19)             116.7341         estimate D2E/DX2                !
 ! A14   A(4,5,21)             122.024          estimate D2E/DX2                !
 ! A15   A(19,5,21)            121.2418         estimate D2E/DX2                !
 ! A16   A(2,6,9)              123.2421         estimate D2E/DX2                !
 ! A17   A(2,6,17)             117.1119         estimate D2E/DX2                !
 ! A18   A(9,6,17)             119.589          estimate D2E/DX2                !
 ! A19   A(3,7,8)              120.9519         estimate D2E/DX2                !
 ! A20   A(3,7,12)             117.1037         estimate D2E/DX2                !
 ! A21   A(8,7,12)             121.944          estimate D2E/DX2                !
 ! A22   A(7,8,9)              119.5639         estimate D2E/DX2                !
 ! A23   A(7,8,10)             117.3064         estimate D2E/DX2                !
 ! A24   A(9,8,10)             122.9922         estimate D2E/DX2                !
 ! A25   A(6,9,8)              117.3944         estimate D2E/DX2                !
 ! A26   A(6,9,32)             115.0236         estimate D2E/DX2                !
 ! A27   A(8,9,32)             127.5648         estimate D2E/DX2                !
 ! A28   A(8,10,18)            118.042          estimate D2E/DX2                !
 ! A29   A(8,10,23)            124.5436         estimate D2E/DX2                !
 ! A30   A(18,10,23)           117.4097         estimate D2E/DX2                !
 ! A31   A(12,11,18)           115.5202         estimate D2E/DX2                !
 ! A32   A(12,11,22)           122.7205         estimate D2E/DX2                !
 ! A33   A(18,11,22)           121.7534         estimate D2E/DX2                !
 ! A34   A(7,12,11)            120.8614         estimate D2E/DX2                !
 ! A35   A(7,12,13)            121.162          estimate D2E/DX2                !
 ! A36   A(11,12,13)           117.9699         estimate D2E/DX2                !
 ! A37   A(12,13,14)           120.9948         estimate D2E/DX2                !
 ! A38   A(12,13,16)           117.8401         estimate D2E/DX2                !
 ! A39   A(14,13,16)           121.1642         estimate D2E/DX2                !
 ! A40   A(4,14,13)            119.5003         estimate D2E/DX2                !
 ! A41   A(4,14,15)            118.9169         estimate D2E/DX2                !
 ! A42   A(13,14,15)           121.5811         estimate D2E/DX2                !
 ! A43   A(10,18,11)           126.0753         estimate D2E/DX2                !
 ! A44   A(10,18,24)           115.7508         estimate D2E/DX2                !
 ! A45   A(11,18,24)           118.1737         estimate D2E/DX2                !
 ! A46   A(1,19,5)             125.0856         estimate D2E/DX2                !
 ! A47   A(1,19,28)            116.2868         estimate D2E/DX2                !
 ! A48   A(5,19,28)            118.6276         estimate D2E/DX2                !
 ! A49   A(18,24,25)           109.8574         estimate D2E/DX2                !
 ! A50   A(18,24,26)           109.8979         estimate D2E/DX2                !
 ! A51   A(18,24,27)           107.5355         estimate D2E/DX2                !
 ! A52   A(25,24,26)           108.1108         estimate D2E/DX2                !
 ! A53   A(25,24,27)           110.8301         estimate D2E/DX2                !
 ! A54   A(26,24,27)           110.6124         estimate D2E/DX2                !
 ! A55   A(19,28,29)           109.6906         estimate D2E/DX2                !
 ! A56   A(19,28,30)           109.8136         estimate D2E/DX2                !
 ! A57   A(19,28,31)           107.7461         estimate D2E/DX2                !
 ! A58   A(29,28,30)           108.2991         estimate D2E/DX2                !
 ! A59   A(29,28,31)           110.6959         estimate D2E/DX2                !
 ! A60   A(30,28,31)           110.5924         estimate D2E/DX2                !
 ! A61   A(9,32,33)            130.8717         estimate D2E/DX2                !
 ! A62   A(9,32,34)            118.7974         estimate D2E/DX2                !
 ! A63   A(33,32,34)           110.0746         estimate D2E/DX2                !
 ! A64   A(32,33,35)           113.5192         estimate D2E/DX2                !
 ! A65   A(32,33,36)           122.7564         estimate D2E/DX2                !
 ! A66   A(35,33,36)           123.7218         estimate D2E/DX2                !
 ! A67   A(32,34,37)            92.5743         estimate D2E/DX2                !
 ! A68   A(33,35,37)           114.4741         estimate D2E/DX2                !
 ! A69   A(33,35,38)           126.4975         estimate D2E/DX2                !
 ! A70   A(37,35,38)           119.0284         estimate D2E/DX2                !
 ! A71   A(34,37,35)           109.3524         estimate D2E/DX2                !
 ! A72   A(34,37,39)           122.923          estimate D2E/DX2                !
 ! A73   A(35,37,39)           127.7084         estimate D2E/DX2                !
 ! A74   A(35,38,40)           117.4354         estimate D2E/DX2                !
 ! A75   A(37,39,41)           127.6227         estimate D2E/DX2                !
 ! A76   A(37,39,42)           123.0646         estimate D2E/DX2                !
 ! A77   A(41,39,42)           109.3128         estimate D2E/DX2                !
 ! A78   A(38,40,43)           105.9359         estimate D2E/DX2                !
 ! A79   A(38,40,44)           111.2205         estimate D2E/DX2                !
 ! A80   A(38,40,45)           111.1724         estimate D2E/DX2                !
 ! A81   A(43,40,44)           109.2851         estimate D2E/DX2                !
 ! A82   A(43,40,45)           109.7399         estimate D2E/DX2                !
 ! A83   A(44,40,45)           109.4177         estimate D2E/DX2                !
 ! A84   A(39,41,46)           114.1963         estimate D2E/DX2                !
 ! A85   A(39,41,47)           119.2188         estimate D2E/DX2                !
 ! A86   A(46,41,47)           126.5846         estimate D2E/DX2                !
 ! A87   A(39,42,48)            91.8101         estimate D2E/DX2                !
 ! A88   A(41,46,48)           111.906          estimate D2E/DX2                !
 ! A89   A(41,46,49)           124.4823         estimate D2E/DX2                !
 ! A90   A(48,46,49)           123.6117         estimate D2E/DX2                !
 ! A91   A(41,47,50)           117.9611         estimate D2E/DX2                !
 ! A92   A(42,48,46)           112.7748         estimate D2E/DX2                !
 ! A93   A(42,48,51)           119.7684         estimate D2E/DX2                !
 ! A94   A(46,48,51)           127.4566         estimate D2E/DX2                !
 ! A95   A(47,50,52)           111.2791         estimate D2E/DX2                !
 ! A96   A(47,50,53)           106.0338         estimate D2E/DX2                !
 ! A97   A(47,50,54)           111.2368         estimate D2E/DX2                !
 ! A98   A(52,50,53)           109.3955         estimate D2E/DX2                !
 ! A99   A(52,50,54)           109.3648         estimate D2E/DX2                !
 ! A100  A(53,50,54)           109.4606         estimate D2E/DX2                !
 ! D1    D(19,1,2,3)             0.1578         estimate D2E/DX2                !
 ! D2    D(19,1,2,6)          -178.6792         estimate D2E/DX2                !
 ! D3    D(20,1,2,3)          -179.8231         estimate D2E/DX2                !
 ! D4    D(20,1,2,6)             1.3399         estimate D2E/DX2                !
 ! D5    D(2,1,19,5)            -0.124          estimate D2E/DX2                !
 ! D6    D(2,1,19,28)          179.8267         estimate D2E/DX2                !
 ! D7    D(20,1,19,5)          179.8575         estimate D2E/DX2                !
 ! D8    D(20,1,19,28)          -0.1919         estimate D2E/DX2                !
 ! D9    D(1,2,3,4)              0.0571         estimate D2E/DX2                !
 ! D10   D(1,2,3,7)            179.5453         estimate D2E/DX2                !
 ! D11   D(6,2,3,4)            178.8851         estimate D2E/DX2                !
 ! D12   D(6,2,3,7)             -1.6266         estimate D2E/DX2                !
 ! D13   D(1,2,6,9)            178.625          estimate D2E/DX2                !
 ! D14   D(1,2,6,17)             1.3881         estimate D2E/DX2                !
 ! D15   D(3,2,6,9)             -0.2173         estimate D2E/DX2                !
 ! D16   D(3,2,6,17)          -177.4541         estimate D2E/DX2                !
 ! D17   D(2,3,4,5)             -0.3074         estimate D2E/DX2                !
 ! D18   D(2,3,4,14)           179.3968         estimate D2E/DX2                !
 ! D19   D(7,3,4,5)           -179.7837         estimate D2E/DX2                !
 ! D20   D(7,3,4,14)            -0.0795         estimate D2E/DX2                !
 ! D21   D(2,3,7,8)              1.0523         estimate D2E/DX2                !
 ! D22   D(2,3,7,12)          -178.712          estimate D2E/DX2                !
 ! D23   D(4,3,7,8)           -179.4626         estimate D2E/DX2                !
 ! D24   D(4,3,7,12)             0.7731         estimate D2E/DX2                !
 ! D25   D(3,4,5,19)             0.3343         estimate D2E/DX2                !
 ! D26   D(3,4,5,21)          -179.7799         estimate D2E/DX2                !
 ! D27   D(14,4,5,19)         -179.3729         estimate D2E/DX2                !
 ! D28   D(14,4,5,21)            0.5129         estimate D2E/DX2                !
 ! D29   D(3,4,14,13)           -0.4559         estimate D2E/DX2                !
 ! D30   D(3,4,14,15)         -179.9937         estimate D2E/DX2                !
 ! D31   D(5,4,14,13)          179.252          estimate D2E/DX2                !
 ! D32   D(5,4,14,15)           -0.2858         estimate D2E/DX2                !
 ! D33   D(4,5,19,1)            -0.1141         estimate D2E/DX2                !
 ! D34   D(4,5,19,28)          179.9364         estimate D2E/DX2                !
 ! D35   D(21,5,19,1)          179.9992         estimate D2E/DX2                !
 ! D36   D(21,5,19,28)           0.0496         estimate D2E/DX2                !
 ! D37   D(2,6,9,8)              2.5984         estimate D2E/DX2                !
 ! D38   D(2,6,9,32)          -176.0103         estimate D2E/DX2                !
 ! D39   D(17,6,9,8)           179.77           estimate D2E/DX2                !
 ! D40   D(17,6,9,32)            1.1613         estimate D2E/DX2                !
 ! D41   D(3,7,8,9)              1.3551         estimate D2E/DX2                !
 ! D42   D(3,7,8,10)          -174.5099         estimate D2E/DX2                !
 ! D43   D(12,7,8,9)          -178.8921         estimate D2E/DX2                !
 ! D44   D(12,7,8,10)            5.2428         estimate D2E/DX2                !
 ! D45   D(3,7,12,11)          178.0768         estimate D2E/DX2                !
 ! D46   D(3,7,12,13)           -0.9621         estimate D2E/DX2                !
 ! D47   D(8,7,12,11)           -1.685          estimate D2E/DX2                !
 ! D48   D(8,7,12,13)          179.2761         estimate D2E/DX2                !
 ! D49   D(7,8,9,6)             -3.0809         estimate D2E/DX2                !
 ! D50   D(7,8,9,32)           175.3285         estimate D2E/DX2                !
 ! D51   D(10,8,9,6)           172.5381         estimate D2E/DX2                !
 ! D52   D(10,8,9,32)           -9.0525         estimate D2E/DX2                !
 ! D53   D(7,8,10,18)           -4.7549         estimate D2E/DX2                !
 ! D54   D(7,8,10,23)          174.4235         estimate D2E/DX2                !
 ! D55   D(9,8,10,18)          179.5335         estimate D2E/DX2                !
 ! D56   D(9,8,10,23)           -1.2882         estimate D2E/DX2                !
 ! D57   D(6,9,32,33)          -26.5717         estimate D2E/DX2                !
 ! D58   D(6,9,32,34)          159.8824         estimate D2E/DX2                !
 ! D59   D(8,9,32,33)          154.9868         Frozen                          !
 ! D60   D(8,9,32,34)          -18.5591         estimate D2E/DX2                !
 ! D61   D(8,10,18,11)           0.7189         estimate D2E/DX2                !
 ! D62   D(8,10,18,24)        -179.4089         estimate D2E/DX2                !
 ! D63   D(23,10,18,11)       -178.5188         estimate D2E/DX2                !
 ! D64   D(23,10,18,24)          1.3535         estimate D2E/DX2                !
 ! D65   D(18,11,12,7)          -2.3856         estimate D2E/DX2                !
 ! D66   D(18,11,12,13)        176.6833         estimate D2E/DX2                !
 ! D67   D(22,11,12,7)         178.4862         estimate D2E/DX2                !
 ! D68   D(22,11,12,13)         -2.445          estimate D2E/DX2                !
 ! D69   D(12,11,18,10)          2.8444         estimate D2E/DX2                !
 ! D70   D(12,11,18,24)       -177.0251         estimate D2E/DX2                !
 ! D71   D(22,11,18,10)       -178.0181         estimate D2E/DX2                !
 ! D72   D(22,11,18,24)          2.1124         estimate D2E/DX2                !
 ! D73   D(7,12,13,14)           0.461          estimate D2E/DX2                !
 ! D74   D(7,12,13,16)        -179.8781         estimate D2E/DX2                !
 ! D75   D(11,12,13,14)       -178.6049         estimate D2E/DX2                !
 ! D76   D(11,12,13,16)          1.056          estimate D2E/DX2                !
 ! D77   D(12,13,14,4)           0.2708         estimate D2E/DX2                !
 ! D78   D(12,13,14,15)        179.7958         estimate D2E/DX2                !
 ! D79   D(16,13,14,4)        -179.3788         estimate D2E/DX2                !
 ! D80   D(16,13,14,15)          0.1463         estimate D2E/DX2                !
 ! D81   D(10,18,24,25)        -59.609          estimate D2E/DX2                !
 ! D82   D(10,18,24,26)         59.2209         estimate D2E/DX2                !
 ! D83   D(10,18,24,27)        179.6858         estimate D2E/DX2                !
 ! D84   D(11,18,24,25)        120.2739         estimate D2E/DX2                !
 ! D85   D(11,18,24,26)       -120.8962         estimate D2E/DX2                !
 ! D86   D(11,18,24,27)         -0.4313         estimate D2E/DX2                !
 ! D87   D(1,19,28,29)         -58.1407         estimate D2E/DX2                !
 ! D88   D(1,19,28,30)          60.7668         estimate D2E/DX2                !
 ! D89   D(1,19,28,31)        -178.7139         estimate D2E/DX2                !
 ! D90   D(5,19,28,29)         121.8132         estimate D2E/DX2                !
 ! D91   D(5,19,28,30)        -119.2792         estimate D2E/DX2                !
 ! D92   D(5,19,28,31)           1.2401         estimate D2E/DX2                !
 ! D93   D(9,32,33,35)        -174.228          estimate D2E/DX2                !
 ! D94   D(9,32,33,36)           6.3301         estimate D2E/DX2                !
 ! D95   D(34,32,33,35)         -0.2481         estimate D2E/DX2                !
 ! D96   D(34,32,33,36)       -179.69           estimate D2E/DX2                !
 ! D97   D(9,32,34,37)         175.3514         estimate D2E/DX2                !
 ! D98   D(33,32,34,37)          0.5436         estimate D2E/DX2                !
 ! D99   D(32,33,35,37)         -0.2921         estimate D2E/DX2                !
 ! D100  D(32,33,35,38)        179.7633         estimate D2E/DX2                !
 ! D101  D(36,33,35,37)        179.1436         estimate D2E/DX2                !
 ! D102  D(36,33,35,38)         -0.801          estimate D2E/DX2                !
 ! D103  D(32,34,37,35)         -0.6924         estimate D2E/DX2                !
 ! D104  D(32,34,37,39)        177.9442         estimate D2E/DX2                !
 ! D105  D(33,35,37,34)          0.6887         estimate D2E/DX2                !
 ! D106  D(33,35,37,39)       -177.8646         estimate D2E/DX2                !
 ! D107  D(38,35,37,34)       -179.3622         estimate D2E/DX2                !
 ! D108  D(38,35,37,39)          2.0844         estimate D2E/DX2                !
 ! D109  D(33,35,38,40)          6.5052         estimate D2E/DX2                !
 ! D110  D(37,35,38,40)       -173.4371         estimate D2E/DX2                !
 ! D111  D(34,37,39,41)          2.8589         estimate D2E/DX2                !
 ! D112  D(34,37,39,42)       -177.1404         estimate D2E/DX2                !
 ! D113  D(35,37,39,41)       -178.7672         estimate D2E/DX2                !
 ! D114  D(35,37,39,42)          1.2335         estimate D2E/DX2                !
 ! D115  D(35,38,40,43)        175.5179         estimate D2E/DX2                !
 ! D116  D(35,38,40,44)        -65.841          estimate D2E/DX2                !
 ! D117  D(35,38,40,45)         56.3566         estimate D2E/DX2                !
 ! D118  D(37,39,41,46)       -179.9831         estimate D2E/DX2                !
 ! D119  D(37,39,41,47)         -0.1779         estimate D2E/DX2                !
 ! D120  D(42,39,41,46)          0.0163         estimate D2E/DX2                !
 ! D121  D(42,39,41,47)        179.8215         estimate D2E/DX2                !
 ! D122  D(37,39,42,48)        179.9905         estimate D2E/DX2                !
 ! D123  D(41,39,42,48)         -0.0089         estimate D2E/DX2                !
 ! D124  D(39,41,46,48)         -0.0171         estimate D2E/DX2                !
 ! D125  D(39,41,46,49)       -179.973          estimate D2E/DX2                !
 ! D126  D(47,41,46,48)       -179.8055         estimate D2E/DX2                !
 ! D127  D(47,41,46,49)          0.2387         estimate D2E/DX2                !
 ! D128  D(39,41,47,50)        178.3996         estimate D2E/DX2                !
 ! D129  D(46,41,47,50)         -1.8216         estimate D2E/DX2                !
 ! D130  D(39,42,48,46)         -0.0005         estimate D2E/DX2                !
 ! D131  D(39,42,48,51)        179.869          estimate D2E/DX2                !
 ! D132  D(41,46,48,42)          0.0097         estimate D2E/DX2                !
 ! D133  D(41,46,48,51)       -179.8476         estimate D2E/DX2                !
 ! D134  D(49,46,48,42)        179.9661         estimate D2E/DX2                !
 ! D135  D(49,46,48,51)          0.1088         estimate D2E/DX2                !
 ! D136  D(41,47,50,52)         61.9833         estimate D2E/DX2                !
 ! D137  D(41,47,50,53)       -179.1526         estimate D2E/DX2                !
 ! D138  D(41,47,50,54)        -60.2331         estimate D2E/DX2                !
 --------------------------------------------------------------------------------
 Trust Radius=3.00D-01 FncErr=1.00D-07 GrdErr=1.00D-06 EigMax=2.50D+02 EigMin=1.00D-04
 Number of steps in this run=    307 maximum allowed number of steps=    324.
 GradGradGradGradGradGradGradGradGradGradGradGradGradGradGradGradGradGrad

 Stoichiometry    C26H18N2O6S2
 Framework group  C1[X(C26H18N2O6S2)]
 Deg. of freedom   156
 Full point group                 C1      NOp   1
 Largest Abelian subgroup         C1      NOp   1
 Largest concise Abelian subgroup C1      NOp   1
                         Standard orientation:                         
 ---------------------------------------------------------------------
 Center     Atomic      Atomic             Coordinates (Angstroms)
 Number     Number       Type             X           Y           Z
 ---------------------------------------------------------------------
      1          6           0       -3.858819   -2.548844   -0.247990
      2          6           0       -2.963018   -1.372351   -0.094643
      3          6           0       -3.495685   -0.062281   -0.064065
      4          6           0       -4.888044    0.145349   -0.177817
      5          6           0       -5.812499   -1.008610   -0.338039
      6          6           0       -1.607678   -1.566396   -0.006659
      7          6           0       -2.601670    1.035189    0.094309
      8          6           0       -1.189547    0.825342    0.198138
      9          6           0       -0.668465   -0.494666    0.113457
     10          6           0       -0.342068    2.014152    0.486774
     11          6           0       -2.327331    3.527917    0.353749
     12          6           0       -3.174270    2.333369    0.148784
     13          6           0       -4.545547    2.519490    0.031436
     14          6           0       -5.409294    1.430351   -0.135024
     15          1           0       -6.480710    1.564332   -0.224274
     16          1           0       -4.924738    3.534332    0.078609
     17          1           0       -1.249210   -2.586608   -0.077575
     18          7           0       -0.966332    3.276066    0.537051
     19          7           0       -5.229599   -2.287149   -0.361175
     20          8           0       -3.445416   -3.699686   -0.276658
     21          8           0       -7.020828   -0.861063   -0.442901
     22          8           0       -2.781582    4.665095    0.379294
     23          8           0        0.863151    1.972629    0.698996
     24          6           0       -0.082074    4.414183    0.811708
     25          1           0        0.410022    4.276963    1.775748
     26          1           0        0.691028    4.478898    0.041758
     27          1           0       -0.694774    5.311463    0.814919
     28          6           0       -6.103507   -3.455422   -0.515988
     29          1           0       -5.807819   -4.021296   -1.401950
     30          1           0       -6.007855   -4.107002    0.354570
     31          1           0       -7.124072   -3.095058   -0.613386
     32          6           0        0.736784   -0.899452    0.102147
     33          6           0        1.338528   -2.087689    0.470389
     34         16           0        1.964427    0.303654   -0.293820
     35          6           0        2.745713   -2.040652    0.431938
     36          1           0        0.776724   -2.963710    0.749384
     37          6           0        3.273184   -0.811674    0.025078
     38          8           0        3.597885   -3.053521    0.744914
     39          6           0        4.654609   -0.465329   -0.154401
     40          6           0        3.027479   -4.331711    1.016408
     41          6           0        5.179984    0.767862   -0.537558
     42         16           0        5.972450   -1.607918    0.095473
     43          1           0        3.868543   -5.010094    1.161714
     44          1           0        2.418692   -4.309113    1.928214
     45          1           0        2.413689   -4.677609    0.177001
     46          6           0        6.600276    0.794160   -0.628202
     47          8           0        4.333443    1.800607   -0.787333
     48          6           0        7.154805   -0.417854   -0.313908
     49          1           0        7.179780    1.662589   -0.909852
     50          6           0        4.900141    3.057133   -1.142887
     51          1           0        8.204280   -0.676599   -0.298924
     52          1           0        5.470869    2.986449   -2.077524
     53          1           0        4.060557    3.737267   -1.282214
     54          1           0        5.551334    3.438704   -0.347097
 ---------------------------------------------------------------------
 Rotational constants (GHZ):           0.1740716           0.0582484           0.0445943
 Standard basis: 6-311+G(d,p) (5D, 7F)
 There are   952 symmetry adapted cartesian basis functions of A   symmetry.
 There are   916 symmetry adapted basis functions of A   symmetry.
   916 basis functions,  1468 primitive gaussians,   952 cartesian basis functions
   134 alpha electrons      134 beta electrons
       nuclear repulsion energy      4123.9850838123 Hartrees.
 NAtoms=   54 NActive=   54 NUniq=   54 SFac= 1.00D+00 NAtFMM=   60 NAOKFM=F Big=F
 Integral buffers will be    131072 words long.
 Raffenetti 2 integral format.
 Two-electron integral symmetry is turned on.
 One-electron integrals computed using PRISM.
 NBasis=   916 RedAO= T EigKep=  1.30D-06  NBF=   916
 NBsUse=   901 1.00D-06 EigRej=  7.91D-07 NBFU=   901
 ExpMin= 4.05D-02 ExpMax= 9.34D+04 ExpMxC= 3.17D+03 IAcc=3 IRadAn=         5 AccDes= 0.00D+00
 Harris functional with IExCor=  402 and IRadAn=       5 diagonalized for initial guess.
 HarFok:  IExCor=  402 AccDes= 0.00D+00 IRadAn=         5 IDoV= 1 UseB2=F ITyADJ=14
 ICtDFT=  3500011 ScaDFX=  1.000000  1.000000  1.000000  1.000000
 FoFCou: FMM=F IPFlag=           0 FMFlag=      100000 FMFlg1=           0
         NFxFlg=           0 DoJE=T BraDBF=F KetDBF=T FulRan=T
         wScrn=  0.000000 ICntrl=       500 IOpCl=  0 I1Cent=   200000004 NGrid=           0
         NMat0=    1 NMatS0=      1 NMatT0=    0 NMatD0=    1 NMtDS0=    0 NMtDT0=    0
 Petite list used in FoFCou.
 Requested convergence on RMS density matrix=1.00D-08 within 128 cycles.
 Requested convergence on MAX density matrix=1.00D-06.
 Requested convergence on             energy=1.00D-06.
 No special actions if energy rises.
 SCF Done:  E(RB3LYP) =  -2359.30885998     A.U. after   18 cycles
            NFock= 18  Conv=0.38D-08     -V/T= 2.0031

 **********************************************************************

            Population analysis using the SCF Density.

 **********************************************************************

 Orbital symmetries:
       Occupied  (A) (A) (A) (A) (A) (A) (A) (A) (A) (A) (A) (A)
                 (A) (A) (A) (A) (A) (A) (A) (A) (A) (A) (A) (A)
                 (A) (A) (A) (A) (A) (A) (A) (A) (A) (A) (A) (A)
                 (A) (A) (A) (A) (A) (A) (A) (A) (A) (A) (A) (A)
                 (A) (A) (A) (A) (A) (A) (A) (A) (A) (A) (A) (A)
                 (A) (A) (A) (A) (A) (A) (A) (A) (A) (A) (A) (A)
                 (A) (A) (A) (A) (A) (A) (A) (A) (A) (A) (A) (A)
                 (A) (A) (A) (A) (A) (A) (A) (A) (A) (A) (A) (A)
                 (A) (A) (A) (A) (A) (A) (A) (A) (A) (A) (A) (A)
                 (A) (A) (A) (A) (A) (A) (A) (A) (A) (A) (A) (A)
                 (A) (A) (A) (A) (A) (A) (A) (A) (A) (A) (A) (A)
                 (A) (A)
       Virtual   (A) (A) (A) (A) (A) (A) (A) (A) (A) (A) (A) (A)
                 (A) (A) (A) (A) (A) (A) (A) (A) (A) (A) (A) (A)
                 (A) (A) (A) (A) (A) (A) (A) (A) (A) (A) (A) (A)
                 (A) (A) (A) (A) (A) (A) (A) (A) (A) (A) (A) (A)
                 (A) (A) (A) (A) (A) (A) (A) (A) (A) (A) (A) (A)
                 (A) (A) (A) (A) (A) (A) (A) (A) (A) (A) (A) (A)
                 (A) (A) (A) (A) (A) (A) (A) (A) (A) (A) (A) (A)
                 (A) (A) (A) (A) (A) (A) (A) (A) (A) (A) (A) (A)
                 (A) (A) (A) (A) (A) (A) (A) (A) (A) (A) (A) (A)
                 (A) (A) (A) (A) (A) (A) (A) (A) (A) (A) (A) (A)
                 (A) (A) (A) (A) (A) (A) (A) (A) (A) (A) (A) (A)
                 (A) (A) (A) (A) (A) (A) (A) (A) (A) (A) (A) (A)
                 (A) (A) (A) (A) (A) (A) (A) (A) (A) (A) (A) (A)
                 (A) (A) (A) (A) (A) (A) (A) (A) (A) (A) (A) (A)
                 (A) (A) (A) (A) (A) (A) (A) (A) (A) (A) (A) (A)
                 (A) (A) (A) (A) (A) (A) (A) (A) (A) (A) (A) (A)
                 (A) (A) (A) (A) (A) (A) (A) (A) (A) (A) (A) (A)
                 (A) (A) (A) (A) (A) (A) (A) (A) (A) (A) (A) (A)
                 (A) (A) (A) (A) (A) (A) (A) (A) (A) (A) (A) (A)
                 (A) (A) (A) (A) (A) (A) (A) (A) (A) (A) (A) (A)
                 (A) (A) (A) (A) (A) (A) (A) (A) (A) (A) (A) (A)
                 (A) (A) (A) (A) (A) (A) (A) (A) (A) (A) (A) (A)
                 (A) (A) (A) (A) (A) (A) (A) (A) (A) (A) (A) (A)
                 (A) (A) (A) (A) (A) (A) (A) (A) (A) (A) (A) (A)
                 (A) (A) (A) (A) (A) (A) (A) (A) (A) (A) (A) (A)
                 (A) (A) (A) (A) (A) (A) (A) (A) (A) (A) (A) (A)
                 (A) (A) (A) (A) (A) (A) (A) (A) (A) (A) (A) (A)
                 (A) (A) (A) (A) (A) (A) (A) (A) (A) (A) (A) (A)
                 (A) (A) (A) (A) (A) (A) (A) (A) (A) (A) (A) (A)
                 (A) (A) (A) (A) (A) (A) (A) (A) (A) (A) (A) (A)
                 (A) (A) (A) (A) (A) (A) (A) (A) (A) (A) (A) (A)
                 (A) (A) (A) (A) (A) (A) (A) (A) (A) (A) (A) (A)
                 (A) (A) (A) (A) (A) (A) (A) (A) (A) (A) (A) (A)
                 (A) (A) (A) (A) (A) (A) (A) (A) (A) (A) (A) (A)
                 (A) (A) (A) (A) (A) (A) (A) (A) (A) (A) (A) (A)
                 (A) (A) (A) (A) (A) (A) (A) (A) (A) (A) (A) (A)
                 (A) (A) (A) (A) (A) (A) (A) (A) (A) (A) (A) (A)
                 (A) (A) (A) (A) (A) (A) (A) (A) (A) (A) (A) (A)
                 (A) (A) (A) (A) (A) (A) (A) (A) (A) (A) (A) (A)
                 (A) (A) (A) (A) (A) (A) (A) (A) (A) (A) (A) (A)
                 (A) (A) (A) (A) (A) (A) (A) (A) (A) (A) (A) (A)
                 (A) (A) (A) (A) (A) (A) (A) (A) (A) (A) (A) (A)
                 (A) (A) (A) (A) (A) (A) (A) (A) (A) (A) (A) (A)
                 (A) (A) (A) (A) (A) (A) (A) (A) (A) (A) (A) (A)
                 (A) (A) (A) (A) (A) (A) (A) (A) (A) (A) (A) (A)
                 (A) (A) (A) (A) (A) (A) (A) (A) (A) (A) (A) (A)
                 (A) (A) (A) (A) (A) (A) (A) (A) (A) (A) (A) (A)
                 (A) (A) (A) (A) (A) (A) (A) (A) (A) (A) (A) (A)
                 (A) (A) (A) (A) (A) (A) (A) (A) (A) (A) (A) (A)
                 (A) (A) (A) (A) (A) (A) (A) (A) (A) (A) (A) (A)
                 (A) (A) (A) (A) (A) (A) (A) (A) (A) (A) (A) (A)
                 (A) (A) (A) (A) (A) (A) (A) (A) (A) (A) (A) (A)
                 (A) (A) (A) (A) (A) (A) (A) (A) (A) (A) (A) (A)
                 (A) (A) (A) (A) (A) (A) (A) (A) (A) (A) (A) (A)
                 (A) (A) (A) (A) (A) (A) (A) (A) (A) (A) (A) (A)
                 (A) (A) (A) (A) (A) (A) (A) (A) (A) (A) (A) (A)
                 (A) (A) (A) (A) (A) (A) (A) (A) (A) (A) (A) (A)
                 (A) (A) (A) (A) (A) (A) (A) (A) (A) (A) (A) (A)
                 (A) (A) (A) (A) (A) (A) (A) (A) (A) (A) (A) (A)
                 (A) (A) (A) (A) (A) (A) (A) (A) (A) (A) (A) (A)
                 (A) (A) (A) (A) (A) (A) (A) (A) (A) (A) (A) (A)
                 (A) (A) (A) (A) (A) (A) (A) (A) (A) (A) (A) (A)
                 (A) (A) (A) (A) (A) (A) (A) (A) (A) (A) (A) (A)
                 (A) (A) (A) (A) (A) (A) (A) (A) (A) (A) (A)
 The electronic state is 1-A.
 Alpha  occ. eigenvalues --  -88.88539 -88.87591 -19.17285 -19.16823 -19.12286
 Alpha  occ. eigenvalues --  -19.12225 -19.12060 -19.11506 -14.38511 -14.38204
 Alpha  occ. eigenvalues --  -10.30870 -10.30865 -10.30807 -10.30143 -10.25106
 Alpha  occ. eigenvalues --  -10.24371 -10.24010 -10.23886 -10.23699 -10.22731
 Alpha  occ. eigenvalues --  -10.22289 -10.22202 -10.22087 -10.21956 -10.21950
 Alpha  occ. eigenvalues --  -10.21919 -10.21850 -10.21581 -10.21441 -10.21338
 Alpha  occ. eigenvalues --  -10.20901 -10.20754 -10.20718 -10.20575 -10.19213
 Alpha  occ. eigenvalues --  -10.19194  -7.97083  -7.96125  -5.93391  -5.93004
 Alpha  occ. eigenvalues --   -5.92654  -5.92426  -5.91999  -5.91703  -1.08822
 Alpha  occ. eigenvalues --   -1.08565  -1.08364  -1.08270  -1.06389  -1.06204
 Alpha  occ. eigenvalues --   -0.96054  -0.95754  -0.92041  -0.90112  -0.88645
 Alpha  occ. eigenvalues --   -0.86302  -0.83933  -0.80261  -0.78139  -0.77598
 Alpha  occ. eigenvalues --   -0.76421  -0.75299  -0.75008  -0.73214  -0.72404
 Alpha  occ. eigenvalues --   -0.71562  -0.70515  -0.68813  -0.66955  -0.65737
 Alpha  occ. eigenvalues --   -0.65267  -0.64800  -0.60816  -0.59917  -0.58559
 Alpha  occ. eigenvalues --   -0.57372  -0.56721  -0.56373  -0.55165  -0.54667
 Alpha  occ. eigenvalues --   -0.53641  -0.51446  -0.50166  -0.49910  -0.49588
 Alpha  occ. eigenvalues --   -0.49532  -0.48883  -0.48718  -0.48415  -0.48373
 Alpha  occ. eigenvalues --   -0.48110  -0.47598  -0.46582  -0.46113  -0.46017
 Alpha  occ. eigenvalues --   -0.45628  -0.45092  -0.44466  -0.44119  -0.43680
 Alpha  occ. eigenvalues --   -0.42804  -0.42498  -0.42186  -0.41804  -0.41645
 Alpha  occ. eigenvalues --   -0.41552  -0.41450  -0.41060  -0.40539  -0.39977
 Alpha  occ. eigenvalues --   -0.39326  -0.39078  -0.38569  -0.37405  -0.37213
 Alpha  occ. eigenvalues --   -0.36278  -0.36126  -0.34328  -0.34101  -0.33550
 Alpha  occ. eigenvalues --   -0.33194  -0.31836  -0.30596  -0.30220  -0.29754
 Alpha  occ. eigenvalues --   -0.29189  -0.28784  -0.28525  -0.28092  -0.27183
 Alpha  occ. eigenvalues --   -0.25959  -0.24854  -0.22251  -0.19396
 Alpha virt. eigenvalues --   -0.12933  -0.07521  -0.06326  -0.04522  -0.03635
 Alpha virt. eigenvalues --   -0.00916  -0.00373  -0.00253  -0.00080   0.00443
 Alpha virt. eigenvalues --    0.00920   0.00975   0.01345   0.01859   0.01942
 Alpha virt. eigenvalues --    0.02235   0.02453   0.02600   0.02862   0.03375
 Alpha virt. eigenvalues --    0.03570   0.03707   0.03875   0.04335   0.04641
 Alpha virt. eigenvalues --    0.04781   0.04873   0.05211   0.05605   0.05969
 Alpha virt. eigenvalues --    0.06065   0.06259   0.06650   0.06987   0.07034
 Alpha virt. eigenvalues --    0.07272   0.07390   0.07766   0.08130   0.08183
 Alpha virt. eigenvalues --    0.08658   0.08807   0.08997   0.09368   0.09617
 Alpha virt. eigenvalues --    0.09898   0.09992   0.10258   0.10302   0.10849
 Alpha virt. eigenvalues --    0.10994   0.11324   0.11596   0.11858   0.12293
 Alpha virt. eigenvalues --    0.12414   0.12761   0.13086   0.13264   0.13379
 Alpha virt. eigenvalues --    0.13648   0.13770   0.14107   0.14311   0.14408
 Alpha virt. eigenvalues --    0.14753   0.14912   0.14977   0.15053   0.15401
 Alpha virt. eigenvalues --    0.15593   0.15894   0.15952   0.16145   0.16741
 Alpha virt. eigenvalues --    0.16883   0.17027   0.17356   0.17412   0.17841
 Alpha virt. eigenvalues --    0.17985   0.18112   0.18347   0.18423   0.18635
 Alpha virt. eigenvalues --    0.18962   0.19237   0.19447   0.19510   0.19648
 Alpha virt. eigenvalues --    0.19793   0.20000   0.20286   0.20497   0.20721
 Alpha virt. eigenvalues --    0.20809   0.20861   0.21105   0.21308   0.21416
 Alpha virt. eigenvalues --    0.21754   0.21852   0.22294   0.22410   0.22588
 Alpha virt. eigenvalues --    0.22881   0.23056   0.23180   0.23314   0.23691
 Alpha virt. eigenvalues --    0.23786   0.24141   0.24256   0.24356   0.24773
 Alpha virt. eigenvalues --    0.24822   0.24914   0.24981   0.25205   0.25565
 Alpha virt. eigenvalues --    0.25690   0.25874   0.26103   0.26336   0.26524
 Alpha virt. eigenvalues --    0.26739   0.26784   0.26984   0.27132   0.27303
 Alpha virt. eigenvalues --    0.27620   0.27707   0.28191   0.28334   0.28581
 Alpha virt. eigenvalues --    0.28647   0.28938   0.29235   0.29464   0.29644
 Alpha virt. eigenvalues --    0.29936   0.30195   0.30466   0.30887   0.31083
 Alpha virt. eigenvalues --    0.31407   0.31635   0.31793   0.31906   0.32054
 Alpha virt. eigenvalues --    0.32437   0.32670   0.32890   0.32970   0.33348
 Alpha virt. eigenvalues --    0.33991   0.34087   0.34346   0.34727   0.34994
 Alpha virt. eigenvalues --    0.35124   0.35274   0.35856   0.36038   0.36442
 Alpha virt. eigenvalues --    0.36640   0.37454   0.37573   0.37792   0.38021
 Alpha virt. eigenvalues --    0.38232   0.38799   0.39263   0.39382   0.39555
 Alpha virt. eigenvalues --    0.40083   0.40653   0.41055   0.41571   0.41889
 Alpha virt. eigenvalues --    0.42616   0.43064   0.43250   0.43676   0.43793
 Alpha virt. eigenvalues --    0.44241   0.44826   0.44960   0.45184   0.45385
 Alpha virt. eigenvalues --    0.45644   0.45909   0.46337   0.46815   0.47239
 Alpha virt. eigenvalues --    0.47522   0.48198   0.48302   0.48825   0.49431
 Alpha virt. eigenvalues --    0.49687   0.50027   0.50177   0.51178   0.51310
 Alpha virt. eigenvalues --    0.52337   0.53011   0.53391   0.53749   0.54182
 Alpha virt. eigenvalues --    0.54596   0.54787   0.54929   0.55417   0.55863
 Alpha virt. eigenvalues --    0.56167   0.56528   0.56787   0.56883   0.57352
 Alpha virt. eigenvalues --    0.57877   0.58315   0.59038   0.59240   0.59596
 Alpha virt. eigenvalues --    0.59880   0.60306   0.60751   0.61299   0.61490
 Alpha virt. eigenvalues --    0.61744   0.62199   0.62541   0.62918   0.63194
 Alpha virt. eigenvalues --    0.63597   0.63980   0.64425   0.64600   0.65197
 Alpha virt. eigenvalues --    0.65559   0.65693   0.65769   0.66207   0.66321
 Alpha virt. eigenvalues --    0.66688   0.67126   0.67741   0.68064   0.68459
 Alpha virt. eigenvalues --    0.69020   0.69275   0.69763   0.70150   0.70531
 Alpha virt. eigenvalues --    0.70884   0.71211   0.71607   0.71883   0.72458
 Alpha virt. eigenvalues --    0.72773   0.73298   0.73353   0.73516   0.73758
 Alpha virt. eigenvalues --    0.74371   0.74514   0.74736   0.75100   0.75586
 Alpha virt. eigenvalues --    0.75952   0.76292   0.76417   0.76777   0.77709
 Alpha virt. eigenvalues --    0.77767   0.78408   0.78608   0.79486   0.79763
 Alpha virt. eigenvalues --    0.80047   0.80920   0.81160   0.82294   0.82445
 Alpha virt. eigenvalues --    0.83094   0.83704   0.83841   0.84778   0.85175
 Alpha virt. eigenvalues --    0.86084   0.87106   0.87712   0.87867   0.89016
 Alpha virt. eigenvalues --    0.89431   0.89879   0.90232   0.90939   0.91634
 Alpha virt. eigenvalues --    0.92109   0.92501   0.92725   0.93101   0.93470
 Alpha virt. eigenvalues --    0.93872   0.94130   0.94522   0.95026   0.95148
 Alpha virt. eigenvalues --    0.95844   0.96171   0.96607   0.96793   0.97323
 Alpha virt. eigenvalues --    0.98207   0.99089   0.99302   0.99361   1.00260
 Alpha virt. eigenvalues --    1.01005   1.01210   1.01453   1.01815   1.02490
 Alpha virt. eigenvalues --    1.02742   1.03523   1.03808   1.04349   1.04735
 Alpha virt. eigenvalues --    1.04933   1.05208   1.05426   1.06396   1.06721
 Alpha virt. eigenvalues --    1.07130   1.07326   1.08006   1.08301   1.08559
 Alpha virt. eigenvalues --    1.09036   1.10010   1.10210   1.10651   1.11043
 Alpha virt. eigenvalues --    1.12013   1.12457   1.13605   1.14059   1.15372
 Alpha virt. eigenvalues --    1.16229   1.16966   1.17108   1.18043   1.18377
 Alpha virt. eigenvalues --    1.18516   1.19605   1.20149   1.20885   1.21062
 Alpha virt. eigenvalues --    1.22544   1.22735   1.24731   1.24924   1.25708
 Alpha virt. eigenvalues --    1.25863   1.26941   1.27029   1.27329   1.28300
 Alpha virt. eigenvalues --    1.28554   1.29311   1.30101   1.30957   1.31059
 Alpha virt. eigenvalues --    1.32428   1.32907   1.33316   1.34840   1.35328
 Alpha virt. eigenvalues --    1.35487   1.37538   1.37618   1.38932   1.39266
 Alpha virt. eigenvalues --    1.40146   1.40779   1.42027   1.42153   1.42407
 Alpha virt. eigenvalues --    1.42907   1.42996   1.43414   1.44015   1.44686
 Alpha virt. eigenvalues --    1.44957   1.45144   1.45652   1.45944   1.46211
 Alpha virt. eigenvalues --    1.47175   1.47410   1.48031   1.48378   1.49462
 Alpha virt. eigenvalues --    1.50012   1.50909   1.51353   1.51782   1.52615
 Alpha virt. eigenvalues --    1.53745   1.53857   1.54285   1.54512   1.54881
 Alpha virt. eigenvalues --    1.55322   1.55649   1.55994   1.56450   1.56956
 Alpha virt. eigenvalues --    1.57332   1.58639   1.59379   1.60625   1.61028
 Alpha virt. eigenvalues --    1.62195   1.62574   1.63123   1.63721   1.64202
 Alpha virt. eigenvalues --    1.65200   1.66130   1.66380   1.66946   1.67366
 Alpha virt. eigenvalues --    1.67718   1.68055   1.68710   1.69007   1.69556
 Alpha virt. eigenvalues --    1.69987   1.70240   1.70957   1.71224   1.71965
 Alpha virt. eigenvalues --    1.73294   1.73703   1.74964   1.75418   1.75751
 Alpha virt. eigenvalues --    1.76376   1.76752   1.77237   1.77951   1.79042
 Alpha virt. eigenvalues --    1.79323   1.80017   1.80161   1.81413   1.82957
 Alpha virt. eigenvalues --    1.83419   1.83970   1.85348   1.86220   1.86602
 Alpha virt. eigenvalues --    1.86778   1.87118   1.87304   1.88090   1.88659
 Alpha virt. eigenvalues --    1.89274   1.89856   1.90812   1.91202   1.91635
 Alpha virt. eigenvalues --    1.92574   1.93021   1.93810   1.94060   1.95257
 Alpha virt. eigenvalues --    1.95822   1.96318   1.97115   1.98691   1.99058
 Alpha virt. eigenvalues --    1.99888   2.00747   2.01131   2.01569   2.02185
 Alpha virt. eigenvalues --    2.03283   2.03349   2.03960   2.04198   2.04829
 Alpha virt. eigenvalues --    2.05393   2.06459   2.06987   2.07711   2.08532
 Alpha virt. eigenvalues --    2.09103   2.09503   2.09950   2.11537   2.12055
 Alpha virt. eigenvalues --    2.12172   2.13569   2.13975   2.14423   2.14991
 Alpha virt. eigenvalues --    2.15863   2.17111   2.17761   2.18021   2.19474
 Alpha virt. eigenvalues --    2.19842   2.20286   2.20697   2.21964   2.22098
 Alpha virt. eigenvalues --    2.23446   2.26028   2.26319   2.26720   2.28803
 Alpha virt. eigenvalues --    2.32539   2.33051   2.34106   2.35304   2.36306
 Alpha virt. eigenvalues --    2.37812   2.39320   2.40125   2.41146   2.42430
 Alpha virt. eigenvalues --    2.42899   2.43279   2.44223   2.45467   2.46049
 Alpha virt. eigenvalues --    2.46328   2.47184   2.47997   2.48219   2.49201
 Alpha virt. eigenvalues --    2.50048   2.51740   2.52029   2.52449   2.53041
 Alpha virt. eigenvalues --    2.53402   2.53551   2.53734   2.54386   2.56582
 Alpha virt. eigenvalues --    2.56694   2.58103   2.58960   2.59100   2.60761
 Alpha virt. eigenvalues --    2.63208   2.63387   2.63835   2.65337   2.66951
 Alpha virt. eigenvalues --    2.67400   2.67639   2.67872   2.68186   2.68503
 Alpha virt. eigenvalues --    2.69106   2.69817   2.70810   2.71190   2.71444
 Alpha virt. eigenvalues --    2.72705   2.72971   2.73199   2.73973   2.75167
 Alpha virt. eigenvalues --    2.76395   2.76865   2.77674   2.78488   2.80375
 Alpha virt. eigenvalues --    2.81282   2.81844   2.82427   2.83486   2.83748
 Alpha virt. eigenvalues --    2.84019   2.84539   2.85461   2.86111   2.87134
 Alpha virt. eigenvalues --    2.87248   2.88414   2.88919   2.89365   2.89990
 Alpha virt. eigenvalues --    2.91320   2.92452   2.92947   2.93679   2.94524
 Alpha virt. eigenvalues --    2.94926   2.95394   2.96945   2.97214   2.98517
 Alpha virt. eigenvalues --    2.99854   3.02021   3.02705   3.03368   3.04376
 Alpha virt. eigenvalues --    3.05339   3.06276   3.08229   3.09137   3.10211
 Alpha virt. eigenvalues --    3.11455   3.12839   3.14221   3.14534   3.15194
 Alpha virt. eigenvalues --    3.16306   3.17897   3.18834   3.20085   3.21725
 Alpha virt. eigenvalues --    3.22941   3.23242   3.23723   3.24905   3.27435
 Alpha virt. eigenvalues --    3.28753   3.29885   3.31319   3.31773   3.34084
 Alpha virt. eigenvalues --    3.34332   3.34751   3.34971   3.35068   3.37917
 Alpha virt. eigenvalues --    3.38571   3.40179   3.41630   3.42395   3.42827
 Alpha virt. eigenvalues --    3.44726   3.45584   3.45837   3.48966   3.49449
 Alpha virt. eigenvalues --    3.50822   3.53946   3.54982   3.57980   3.59826
 Alpha virt. eigenvalues --    3.60405   3.61866   3.65064   3.66317   3.66476
 Alpha virt. eigenvalues --    3.70189   3.70372   3.72180   3.72726   3.75484
 Alpha virt. eigenvalues --    3.75796   3.76297   3.80340   3.82558   3.84239
 Alpha virt. eigenvalues --    3.85545   3.86499   3.89693   3.91006   3.92956
 Alpha virt. eigenvalues --    3.93243   3.94872   3.97014   4.01654   4.03016
 Alpha virt. eigenvalues --    4.04870   4.08190   4.10341   4.13186   4.14064
 Alpha virt. eigenvalues --    4.20533   4.24145   4.25560   4.27201   4.35514
 Alpha virt. eigenvalues --    4.39904   4.40916   4.52643   4.70568   4.84472
 Alpha virt. eigenvalues --    4.86033   4.87609   4.90590   5.01729   5.02595
 Alpha virt. eigenvalues --    5.04076   5.05543   5.06293   5.08979   5.11380
 Alpha virt. eigenvalues --    5.13253   5.25085   5.27098   5.29528   5.33623
 Alpha virt. eigenvalues --    5.42233   5.43128   5.75824   5.76458   5.80042
 Alpha virt. eigenvalues --    5.80573   5.82061   5.85450   8.02686   8.08260
 Alpha virt. eigenvalues --   17.28982  17.35956  17.49834  17.52672  17.59633
 Alpha virt. eigenvalues --   17.65303  23.49035  23.56884  23.71299  23.78619
 Alpha virt. eigenvalues --   23.82111  23.82494  23.84606  23.86756  23.86864
 Alpha virt. eigenvalues --   23.88122  23.88907  23.89845  23.90856  23.93167
 Alpha virt. eigenvalues --   23.94690  23.95308  23.96208  23.98297  24.00793
 Alpha virt. eigenvalues --   24.01629  24.02363  24.05279  24.11813  24.13187
 Alpha virt. eigenvalues --   24.13889  24.14341  35.56200  35.59094  49.95912
 Alpha virt. eigenvalues --   49.97706  50.02145  50.04159  50.05758  50.07330
 Alpha virt. eigenvalues --  189.20040 189.26499
          Condensed to atoms (all electrons):
 Mulliken charges:
               1
     1  C    0.358282
     2  C   -0.095869
     3  C    0.194801
     4  C    0.236279
     5  C    0.248035
     6  C   -0.021177
     7  C    0.174436
     8  C    0.286922
     9  C    0.174775
    10  C   -0.353899
    11  C    0.227329
    12  C    0.196428
    13  C   -0.491184
    14  C   -0.594298
    15  H    0.158244
    16  H    0.160895
    17  H    0.159492
    18  N   -0.114787
    19  N   -0.132142
    20  O   -0.289010
    21  O   -0.270714
    22  O   -0.279476
    23  O   -0.133312
    24  C   -0.192706
    25  H    0.177873
    26  H    0.169976
    27  H    0.185619
    28  C   -0.201262
    29  H    0.173571
    30  H    0.173409
    31  H    0.182506
    32  C    0.303127
    33  C   -0.605874
    34  S   -0.697513
    35  C   -0.391911
    36  H    0.131607
    37  C    0.667348
    38  O   -0.139299
    39  C    0.854229
    40  C   -0.234874
    41  C   -0.086272
    42  S   -0.285728
    43  H    0.166232
    44  H    0.144967
    45  H    0.152604
    46  C   -0.536499
    47  O   -0.106351
    48  C   -0.303870
    49  H    0.132880
    50  C   -0.254173
    51  H    0.162103
    52  H    0.144439
    53  H    0.167110
    54  H    0.146682
 Sum of Mulliken charges =  -0.00000
 Mulliken charges with hydrogens summed into heavy atoms:
               1
     1  C    0.358282
     2  C   -0.095869
     3  C    0.194801
     4  C    0.236279
     5  C    0.248035
     6  C    0.138316
     7  C    0.174436
     8  C    0.286922
     9  C    0.174775
    10  C   -0.353899
    11  C    0.227329
    12  C    0.196428
    13  C   -0.330289
    14  C   -0.436054
    18  N   -0.114787
    19  N   -0.132142
    20  O   -0.289010
    21  O   -0.270714
    22  O   -0.279476
    23  O   -0.133312
    24  C    0.340763
    28  C    0.328224
    32  C    0.303127
    33  C   -0.474267
    34  S   -0.697513
    35  C   -0.391911
    37  C    0.667348
    38  O   -0.139299
    39  C    0.854229
    40  C    0.228928
    41  C   -0.086272
    42  S   -0.285728
    46  C   -0.403619
    47  O   -0.106351
    48  C   -0.141767
    50  C    0.204059
 Electronic spatial extent (au):  <R**2>=          22138.2832
 Charge=             -0.0000 electrons
 Dipole moment (field-independent basis, Debye):
    X=              5.0644    Y=             -0.4215    Z=             -0.1684  Tot=              5.0847
 Quadrupole moment (field-independent basis, Debye-Ang):
   XX=           -214.0044   YY=           -214.5335   ZZ=           -221.9574
   XY=             13.2633   XZ=             -5.2032   YZ=             -7.4726
 Traceless Quadrupole moment (field-independent basis, Debye-Ang):
   XX=              2.8274   YY=              2.2983   ZZ=             -5.1256
   XY=             13.2633   XZ=             -5.2032   YZ=             -7.4726
 Octapole moment (field-independent basis, Debye-Ang**2):
  XXX=            373.7747  YYY=            -65.8993  ZZZ=              3.0163  XYY=            125.8140
  XXY=             28.6896  XXZ=            -24.4373  XZZ=             -7.3756  YZZ=              1.9615
  YYZ=              7.6498  XYZ=            -26.3034
 Hexadecapole moment (field-independent basis, Debye-Ang**3):
 XXXX=         -21655.3116 YYYY=          -7484.8268 ZZZZ=           -574.5752 XXXY=            429.1478
 XXXZ=           -290.4852 YYYX=            314.6511 YYYZ=           -123.9582 ZZZX=             22.1606
 ZZZY=              0.4722 XXYY=          -4529.1420 XXZZ=          -3859.7098 YYZZ=          -1274.3815
 XXYZ=           -131.4495 YYXZ=             37.3440 ZZXY=             67.8762
 N-N= 4.123985083812D+03 E-N=-1.378818042453D+04  KE= 2.352018604380D+03
 Calling FoFJK, ICntrl=      2127 FMM=F ISym2X=0 I1Cent= 0 IOpClX= 0 NMat=1 NMatS=1 NMatT=0.
 ***** Axes restored to original set *****
 -------------------------------------------------------------------
 Center     Atomic                   Forces (Hartrees/Bohr)
 Number     Number              X              Y              Z
 -------------------------------------------------------------------
      1        6           0.003660793   -0.004805419   -0.000649975
      2        6           0.004727521    0.000165731   -0.000126680
      3        6          -0.002768956    0.000621264    0.000088230
      4        6           0.002433673    0.001376718    0.000224322
      5        6          -0.005986100   -0.001195219    0.000013255
      6        6          -0.001018873   -0.001149965   -0.000633374
      7        6          -0.000643188    0.000589208   -0.000009815
      8        6          -0.000773643    0.003629469    0.001219901
      9        6           0.009294987   -0.007575331   -0.001883669
     10        6          -0.012927552   -0.002461685    0.001919727
     11        6          -0.005572834    0.002616173    0.000035426
     12        6           0.001283201    0.000408277    0.000392234
     13        6          -0.001341092   -0.002458450   -0.000352685
     14        6           0.000089073    0.002170980    0.000302823
     15        1           0.000648685    0.000795274    0.000044298
     16        1           0.000575093   -0.001163330   -0.000205903
     17        1          -0.000291264    0.001269160    0.000520319
     18        7           0.002441983   -0.001985310   -0.000668207
     19        7           0.001454895    0.001061999    0.000018082
     20        8          -0.005424594    0.005636526    0.000898498
     21        8           0.007489955    0.001929863    0.000099580
     22        8           0.006159336   -0.004744420   -0.000663450
     23        8          -0.034348800    0.011828157    0.018228096
     24        6           0.000876555    0.002255446   -0.000325345
     25        1          -0.000614689    0.000017548   -0.000337095
     26        1          -0.001311255   -0.000573845    0.001111394
     27        1           0.000937885   -0.000005281    0.000048342
     28        6          -0.000437841   -0.001942949   -0.000677660
     29        1          -0.000693988    0.000372429    0.000986122
     30        1          -0.000467662    0.000375816   -0.000496455
     31        1           0.000938041   -0.000354782   -0.000011684
     32        6          -0.014396894    0.033752958    0.002978897
     33        6           0.008968599   -0.006207814   -0.002508837
     34       16           0.043550859   -0.018306029   -0.013427015
     35        6          -0.003488184   -0.008012162    0.001168344
     36        1           0.000616941   -0.001739555    0.002258658
     37        6          -0.005861518   -0.003318434   -0.012182272
     38        8           0.000712636   -0.003685392    0.001590908
     39        6           0.000220306   -0.000220824    0.000503115
     40        6           0.001369313    0.000294976    0.001269756
     41        6          -0.001058732   -0.000583467   -0.000184722
     42       16           0.000289692    0.001919294    0.000015500
     43        1          -0.001168006    0.000050244   -0.000202509
     44        1           0.000320922    0.000636105   -0.000611376
     45        1           0.000669496    0.000696640    0.000080554
     46        6          -0.000439938   -0.000860330    0.000521271
     47        8           0.003247443    0.000147623   -0.000682988
     48        6          -0.000804987   -0.000060735   -0.000096707
     49        1           0.000162295   -0.000911535    0.000241181
     50        6           0.000793799    0.002275806   -0.000586046
     51        1          -0.001114274   -0.000401822   -0.000032415
     52        1          -0.000861076   -0.000809014    0.001105030
     53        1           0.000728988   -0.000432100    0.000160046
     54        1          -0.000847025   -0.000928483   -0.000487027
 -------------------------------------------------------------------
 Cartesian Forces:  Max     0.043550859 RMS     0.006386620

 GradGradGradGradGradGradGradGradGradGradGradGradGradGradGradGradGradGrad
 Berny optimization.
 FormGI is forming the generalized inverse of G from B-inverse, IUseBI=4.
 Internal  Forces:  Max     0.136545281 RMS     0.016208347
 Search for a local minimum.
 Step number   1 out of a maximum of  307
 All quantities printed in internal units (Hartrees-Bohrs-Radians)
 Mixed Optimization -- RFO/linear search
 Second derivative matrix not updated -- first step.
 ITU=  0
     Eigenvalues ---    0.00803   0.00803   0.01176   0.01203   0.01245
     Eigenvalues ---    0.01292   0.01308   0.01311   0.01351   0.01381
     Eigenvalues ---    0.01419   0.01429   0.01457   0.01496   0.01515
     Eigenvalues ---    0.01568   0.01570   0.01577   0.01620   0.01650
     Eigenvalues ---    0.01692   0.01711   0.01714   0.01719   0.01754
     Eigenvalues ---    0.01783   0.01803   0.01847   0.01964   0.02040
     Eigenvalues ---    0.02050   0.02070   0.02073   0.02079   0.02135
     Eigenvalues ---    0.02149   0.02163   0.02176   0.02197   0.02219
     Eigenvalues ---    0.02240   0.02244   0.07556   0.07572   0.07690
     Eigenvalues ---    0.07700   0.10063   0.10064   0.10632   0.10634
     Eigenvalues ---    0.15983   0.15999   0.15999   0.16000   0.16000
     Eigenvalues ---    0.16000   0.16000   0.16000   0.16000   0.16000
     Eigenvalues ---    0.16000   0.16000   0.16000   0.16000   0.16000
     Eigenvalues ---    0.16000   0.16000   0.16000   0.22530   0.22583
     Eigenvalues ---    0.23518   0.23582   0.24516   0.24747   0.24865
     Eigenvalues ---    0.24931   0.24952   0.24985   0.24987   0.24988
     Eigenvalues ---    0.24991   0.24994   0.24997   0.24997   0.24998
     Eigenvalues ---    0.24998   0.25000   0.25000   0.25000   0.25000
     Eigenvalues ---    0.25000   0.25000   0.25000   0.25000   0.25000
     Eigenvalues ---    0.25000   0.28822   0.28861   0.30056   0.32097
     Eigenvalues ---    0.32582   0.32774   0.33111   0.33787   0.33972
     Eigenvalues ---    0.34041   0.34061   0.34140   0.34354   0.34466
     Eigenvalues ---    0.34577   0.34629   0.34693   0.34781   0.34877
     Eigenvalues ---    0.35198   0.35218   0.35468   0.35553   0.35582
     Eigenvalues ---    0.35832   0.35873   0.36078   0.36083   0.36306
     Eigenvalues ---    0.36396   0.36662   0.39352   0.40194   0.40217
     Eigenvalues ---    0.40651   0.40762   0.41524   0.41602   0.41934
     Eigenvalues ---    0.42300   0.42768   0.43455   0.43971   0.44092
     Eigenvalues ---    0.44536   0.44594   0.45014   0.45406   0.46251
     Eigenvalues ---    0.47305   0.47539   0.49310   0.49481   0.52914
     Eigenvalues ---    0.53247   0.93281   0.93432   0.93989   0.94585
     Eigenvalues --- 1000.000001000.000001000.000001000.000001000.00000
     Eigenvalues --- 1000.000001000.000001000.000001000.000001000.00000
     Eigenvalues --- 1000.000001000.000001000.000001000.000001000.00000
     Eigenvalues --- 1000.000001000.000001000.000001000.000001000.00000
     Eigenvalues --- 1000.000001000.000001000.000001000.000001000.00000
     Eigenvalues --- 1000.000001000.000001000.000001000.000001000.00000
     Eigenvalues --- 1000.000001000.000001000.000001000.000001000.00000
     Eigenvalues --- 1000.000001000.000001000.000001000.000001000.00000
     Eigenvalues --- 1000.000001000.000001000.000001000.000001000.00000
     Eigenvalues --- 1000.000001000.000001000.000001000.000001000.00000
     Eigenvalues --- 1000.000001000.000001000.000001000.000001000.00000
     Eigenvalues --- 1000.000001000.000001000.000001000.000001000.00000
     Eigenvalues --- 1000.000001000.000001000.000001000.000001000.00000
     Eigenvalues --- 1000.000001000.000001000.000001000.000001000.00000
     Eigenvalues --- 1000.000001000.000001000.000001000.000001000.00000
     Eigenvalues --- 1000.000001000.000001000.000001000.000001000.00000
     Eigenvalues --- 1000.000001000.000001000.000001000.000001000.00000
     Eigenvalues --- 1000.000001000.000001000.000001000.000001000.00000
     Eigenvalues --- 1000.000001000.000001000.000001000.000001000.00000
     Eigenvalues --- 1000.000001000.000001000.000001000.000001000.00000
     Eigenvalues --- 1000.000001000.000001000.000001000.000001000.00000
     Eigenvalues --- 1000.000001000.000001000.000001000.000001000.00000
     Eigenvalues --- 1000.000001000.000001000.000001000.000001000.00000
     Eigenvalues --- 1000.000001000.000001000.000001000.000001000.00000
     Eigenvalues --- 1000.000001000.000001000.000001000.000001000.00000
     Eigenvalues --- 1000.000001000.000001000.000001000.000001000.00000
     Eigenvalues --- 1000.000001000.000001000.000001000.000001000.00000
     Eigenvalues --- 1000.000001000.000001000.000001000.000001000.00000
     Eigenvalues --- 1000.000001000.00000
 RFO step:  Lambda=-1.83899366D-01 EMin= 8.02933640D-03
 Linear search not attempted -- first point.
 Maximum step size (   0.300) exceeded in Quadratic search.
    -- Step size scaled by   0.493
 Iteration  1 RMS(Cart)=  0.33557238 RMS(Int)=  0.00853691
 Iteration  2 RMS(Cart)=  0.12032087 RMS(Int)=  0.00095721
 Iteration  3 RMS(Cart)=  0.00334129 RMS(Int)=  0.00038200
 Iteration  4 RMS(Cart)=  0.00000209 RMS(Int)=  0.00038200
 Iteration  5 RMS(Cart)=  0.00000000 RMS(Int)=  0.00038200
 Iteration  1 RMS(Cart)=  0.00014536 RMS(Int)=  0.00002371
 Iteration  2 RMS(Cart)=  0.00008182 RMS(Int)=  0.00002646
 Iteration  3 RMS(Cart)=  0.00004605 RMS(Int)=  0.00003000
 Iteration  4 RMS(Cart)=  0.00002592 RMS(Int)=  0.00003241
 Iteration  5 RMS(Cart)=  0.00001459 RMS(Int)=  0.00003388
 Iteration  6 RMS(Cart)=  0.00000821 RMS(Int)=  0.00003473
 Iteration  7 RMS(Cart)=  0.00000462 RMS(Int)=  0.00003522
 Iteration  8 RMS(Cart)=  0.00000260 RMS(Int)=  0.00003550
 Iteration  9 RMS(Cart)=  0.00000146 RMS(Int)=  0.00003565
 Iteration 10 RMS(Cart)=  0.00000082 RMS(Int)=  0.00003574
 Variable       Old X    -DE/DX   Delta X   Delta X   Delta X     New X
                                 (Linear)    (Quad)   (Total)
    R1        2.80935  -0.00032   0.00000  -0.00063  -0.00063   2.80872
    R2        2.64584  -0.00547   0.00000  -0.00432  -0.00431   2.64153
    R3        2.31147  -0.00787   0.00000  -0.00345  -0.00345   2.30802
    R4        2.67311  -0.01300   0.00000  -0.01209  -0.01217   2.66094
    R5        2.59267  -0.01926   0.00000  -0.01562  -0.01563   2.57705
    R6        2.66894   0.00186   0.00000   0.00154   0.00152   2.67047
    R7        2.69164   0.00466   0.00000   0.00514   0.00510   2.69674
    R8        2.81049  -0.00076   0.00000  -0.00039  -0.00040   2.81010
    R9        2.62173  -0.00780   0.00000  -0.00655  -0.00656   2.61516
   R10        2.65570  -0.00461   0.00000  -0.00346  -0.00345   2.65225
   R11        2.30889  -0.00771   0.00000  -0.00337  -0.00337   2.30553
   R12        2.70248  -0.00038   0.00000  -0.00099  -0.00093   2.70154
   R13        2.04786  -0.00117   0.00000  -0.00107  -0.00107   2.04679
   R14        2.70495   0.03075   0.00000   0.02931   0.02938   2.73433
   R15        2.68322   0.00873   0.00000   0.00868   0.00868   2.69190
   R16        2.68655   0.06114   0.00000   0.05132   0.05136   2.73791
   R17        2.81233   0.01880   0.00000   0.01854   0.01863   2.83096
   R18        2.76359   0.03130   0.00000   0.02803   0.02803   2.79162
   R19        2.66221  -0.00690   0.00000  -0.00630  -0.00628   2.65593
   R20        2.31391  -0.02443   0.00000  -0.01077  -0.01077   2.30314
   R21        2.79415  -0.01578   0.00000  -0.01537  -0.01546   2.77869
   R22        2.63842  -0.01763   0.00000  -0.01483  -0.01489   2.62352
   R23        2.31456  -0.00777   0.00000  -0.00343  -0.00343   2.31113
   R24        2.62448  -0.00140   0.00000  -0.00102  -0.00101   2.62347
   R25        2.64561  -0.01240   0.00000  -0.01026  -0.01027   2.63534
   R26        2.04921  -0.00124   0.00000  -0.00113  -0.00113   2.04808
   R27        2.04741  -0.00087   0.00000  -0.00079  -0.00079   2.04662
   R28        2.77259   0.00169   0.00000   0.00153   0.00153   2.77413
   R29        2.77252   0.00166   0.00000   0.00150   0.00150   2.77403
   R30        2.06176  -0.00061   0.00000  -0.00056  -0.00056   2.06120
   R31        2.06551  -0.00177   0.00000  -0.00165  -0.00165   2.06386
   R32        2.05322  -0.00081   0.00000  -0.00074  -0.00074   2.05248
   R33        2.06368  -0.00125   0.00000  -0.00116  -0.00116   2.06252
   R34        2.06281  -0.00076   0.00000  -0.00070  -0.00070   2.06211
   R35        2.05355  -0.00089   0.00000  -0.00082  -0.00082   2.05273
   R36        2.61138   0.01825   0.00000   0.01355   0.01365   2.62503
   R37        3.33330   0.00320   0.00000   0.00379   0.00389   3.33718
   R38        2.66167  -0.01229   0.00000  -0.00991  -0.00992   2.65175
   R39        2.03606   0.00215   0.00000   0.00193   0.00193   2.03800
   R40        3.30486  -0.00361   0.00000  -0.00367  -0.00373   3.30113
   R41        2.64166  -0.00556   0.00000  -0.00461  -0.00473   2.63693
   R42        2.57034   0.00285   0.00000   0.00197   0.00197   2.57231
   R43        2.71260  -0.00039   0.00000  -0.00033  -0.00033   2.71227
   R44        2.69433  -0.00153   0.00000  -0.00125  -0.00125   2.69308
   R45        2.63452  -0.00051   0.00000  -0.00035  -0.00035   2.63416
   R46        3.32970  -0.00033   0.00000  -0.00026  -0.00026   3.32944
   R47        2.06032  -0.00116   0.00000  -0.00107  -0.00107   2.05925
   R48        2.07227  -0.00083   0.00000  -0.00078  -0.00078   2.07149
   R49        2.07094  -0.00069   0.00000  -0.00065  -0.00065   2.07030
   R50        2.68988  -0.00150   0.00000  -0.00126  -0.00126   2.68862
   R51        2.56723  -0.00261   0.00000  -0.00179  -0.00179   2.56544
   R52        3.26316  -0.00211   0.00000  -0.00204  -0.00204   3.26112
   R53        2.58779  -0.00198   0.00000  -0.00146  -0.00146   2.58634
   R54        2.04346  -0.00092   0.00000  -0.00083  -0.00083   2.04262
   R55        2.69007   0.00007   0.00000   0.00006   0.00006   2.69013
   R56        2.04280  -0.00117   0.00000  -0.00106  -0.00106   2.04174
   R57        2.07377  -0.00151   0.00000  -0.00142  -0.00142   2.07235
   R58        2.05876  -0.00082   0.00000  -0.00075  -0.00075   2.05800
   R59        2.07262  -0.00122   0.00000  -0.00115  -0.00115   2.07147
    A1        2.03797   0.00123   0.00000   0.00049   0.00048   2.03845
    A2        2.14521  -0.00087   0.00000  -0.00054  -0.00054   2.14467
    A3        2.10001  -0.00035   0.00000   0.00005   0.00006   2.10006
    A4        2.10395   0.00644   0.00000   0.00862   0.00863   2.11258
    A5        2.08282  -0.00785   0.00000  -0.00616  -0.00610   2.07672
    A6        2.09624   0.00138   0.00000  -0.00253  -0.00261   2.09362
    A7        2.10093  -0.00817   0.00000  -0.01020  -0.01017   2.09076
    A8        2.07104  -0.00021   0.00000  -0.00176  -0.00186   2.06918
    A9        2.11118   0.00836   0.00000   0.01194   0.01200   2.12318
   A10        2.10296   0.00411   0.00000   0.00512   0.00510   2.10806
   A11        2.09911   0.00306   0.00000   0.00296   0.00293   2.10204
   A12        2.08110  -0.00716   0.00000  -0.00808  -0.00802   2.07308
   A13        2.03739   0.00039   0.00000   0.00078   0.00076   2.03815
   A14        2.12972   0.00047   0.00000   0.00037   0.00038   2.13011
   A15        2.11607  -0.00087   0.00000  -0.00115  -0.00114   2.11493
   A16        2.15098   0.02698   0.00000   0.02953   0.02955   2.18053
   A17        2.04399  -0.01297   0.00000  -0.01415  -0.01415   2.02983
   A18        2.08722  -0.01418   0.00000  -0.01581  -0.01586   2.07137
   A19        2.11101   0.01085   0.00000   0.01298   0.01293   2.12393
   A20        2.04385  -0.02062   0.00000  -0.02487  -0.02486   2.01899
   A21        2.12832   0.00977   0.00000   0.01189   0.01192   2.14025
   A22        2.08678  -0.02161   0.00000  -0.02091  -0.02093   2.06585
   A23        2.04738  -0.03870   0.00000  -0.04283  -0.04268   2.00470
   A24        2.14662   0.06003   0.00000   0.06300   0.06284   2.20946
   A25        2.04892  -0.01779   0.00000  -0.01815  -0.01804   2.03088
   A26        2.00754  -0.11882   0.00000  -0.13617  -0.13619   1.87135
   A27        2.22643   0.13655   0.00000   0.15406   0.15394   2.38037
   A28        2.06022   0.01967   0.00000   0.02317   0.02324   2.08346
   A29        2.17370   0.02254   0.00000   0.02514   0.02506   2.19875
   A30        2.04919  -0.04228   0.00000  -0.04850  -0.04857   2.00061
   A31        2.01621  -0.00567   0.00000  -0.00847  -0.00867   2.00754
   A32        2.14188   0.00357   0.00000   0.00504   0.00511   2.14699
   A33        2.12500   0.00203   0.00000   0.00329   0.00337   2.12836
   A34        2.10943   0.00730   0.00000   0.00875   0.00862   2.11805
   A35        2.11468   0.01034   0.00000   0.01303   0.01308   2.12775
   A36        2.05896  -0.01765   0.00000  -0.02181  -0.02174   2.03723
   A37        2.11176   0.00267   0.00000   0.00307   0.00303   2.11479
   A38        2.05670  -0.00088   0.00000  -0.00088  -0.00086   2.05584
   A39        2.11471  -0.00180   0.00000  -0.00220  -0.00218   2.11253
   A40        2.08567  -0.00384   0.00000  -0.00619  -0.00625   2.07943
   A41        2.07549   0.00248   0.00000   0.00389   0.00392   2.07941
   A42        2.12199   0.00135   0.00000   0.00228   0.00231   2.12430
   A43        2.20043   0.00700   0.00000   0.00587   0.00581   2.20624
   A44        2.02023  -0.00307   0.00000  -0.00245  -0.00242   2.01782
   A45        2.06252  -0.00393   0.00000  -0.00343  -0.00340   2.05912
   A46        2.18316  -0.00400   0.00000  -0.00481  -0.00481   2.17835
   A47        2.02959   0.00218   0.00000   0.00261   0.00261   2.03219
   A48        2.07044   0.00182   0.00000   0.00220   0.00220   2.07265
   A49        1.91737  -0.00003   0.00000  -0.00002  -0.00002   1.91735
[...]
 Alpha  occ. eigenvalues --   -0.57357  -0.56716  -0.56362  -0.55252  -0.54730
 Alpha  occ. eigenvalues --   -0.53618  -0.51455  -0.50094  -0.49990  -0.49458
 Alpha  occ. eigenvalues --   -0.49347  -0.48865  -0.48682  -0.48590  -0.48333
 Alpha  occ. eigenvalues --   -0.48131  -0.47170  -0.46594  -0.46165  -0.45964
 Alpha  occ. eigenvalues --   -0.45592  -0.45018  -0.44334  -0.44035  -0.43499
 Alpha  occ. eigenvalues --   -0.42980  -0.42505  -0.42166  -0.41867  -0.41691
 Alpha  occ. eigenvalues --   -0.41647  -0.41293  -0.41047  -0.40481  -0.39676
 Alpha  occ. eigenvalues --   -0.39415  -0.39145  -0.38961  -0.37592  -0.37148
 Alpha  occ. eigenvalues --   -0.36322  -0.35925  -0.34366  -0.34102  -0.33635
 Alpha  occ. eigenvalues --   -0.33099  -0.31925  -0.30767  -0.30154  -0.29762
 Alpha  occ. eigenvalues --   -0.29252  -0.28692  -0.28628  -0.27822  -0.27308
 Alpha  occ. eigenvalues --   -0.25984  -0.24834  -0.24473  -0.19563
 Alpha virt. eigenvalues --   -0.12728  -0.07521  -0.06346  -0.04343  -0.03715
 Alpha virt. eigenvalues --   -0.00770  -0.00511  -0.00384   0.00044   0.00463
 Alpha virt. eigenvalues --    0.00924   0.01177   0.01432   0.01828   0.02002
 Alpha virt. eigenvalues --    0.02205   0.02392   0.02774   0.02910   0.03344
 Alpha virt. eigenvalues --    0.03548   0.03759   0.04129   0.04378   0.04513
 Alpha virt. eigenvalues --    0.04630   0.04795   0.05175   0.05572   0.05952
 Alpha virt. eigenvalues --    0.06178   0.06311   0.06573   0.06709   0.07238
 Alpha virt. eigenvalues --    0.07294   0.07388   0.07852   0.07966   0.08141
 Alpha virt. eigenvalues --    0.08391   0.08629   0.08801   0.09014   0.09478
 Alpha virt. eigenvalues --    0.09793   0.09993   0.10246   0.10420   0.10730
 Alpha virt. eigenvalues --    0.10861   0.11134   0.11632   0.11874   0.12036
 Alpha virt. eigenvalues --    0.12323   0.12721   0.13014   0.13220   0.13351
 Alpha virt. eigenvalues --    0.13567   0.13758   0.14093   0.14209   0.14499
 Alpha virt. eigenvalues --    0.14742   0.14965   0.15086   0.15190   0.15377
 Alpha virt. eigenvalues --    0.15550   0.15755   0.16006   0.16162   0.16499
 Alpha virt. eigenvalues --    0.16782   0.16992   0.17227   0.17435   0.17700
 Alpha virt. eigenvalues --    0.17876   0.18108   0.18257   0.18484   0.18586
 Alpha virt. eigenvalues --    0.18786   0.19329   0.19524   0.19597   0.19735
 Alpha virt. eigenvalues --    0.19903   0.19973   0.20134   0.20373   0.20492
 Alpha virt. eigenvalues --    0.20712   0.20825   0.21025   0.21289   0.21526
 Alpha virt. eigenvalues --    0.21609   0.21992   0.22269   0.22335   0.22645
 Alpha virt. eigenvalues --    0.22693   0.23168   0.23302   0.23430   0.23472
 Alpha virt. eigenvalues --    0.23703   0.23993   0.24106   0.24410   0.24653
 Alpha virt. eigenvalues --    0.24680   0.24926   0.25222   0.25401   0.25696
 Alpha virt. eigenvalues --    0.25759   0.25992   0.26117   0.26417   0.26556
 Alpha virt. eigenvalues --    0.26699   0.26736   0.26911   0.27318   0.27414
 Alpha virt. eigenvalues --    0.27527   0.27698   0.27968   0.28157   0.28550
 Alpha virt. eigenvalues --    0.28747   0.28939   0.29224   0.29286   0.29618
 Alpha virt. eigenvalues --    0.29683   0.30048   0.30509   0.30557   0.30868
 Alpha virt. eigenvalues --    0.31325   0.31354   0.31672   0.31848   0.32237
 Alpha virt. eigenvalues --    0.32533   0.32622   0.32841   0.33039   0.33520
 Alpha virt. eigenvalues --    0.33612   0.33971   0.34272   0.34637   0.34792
 Alpha virt. eigenvalues --    0.35086   0.35237   0.35556   0.35746   0.36068
 Alpha virt. eigenvalues --    0.36571   0.37249   0.37296   0.37686   0.37968
 Alpha virt. eigenvalues --    0.38351   0.38610   0.39011   0.39636   0.39676
 Alpha virt. eigenvalues --    0.40419   0.40496   0.40886   0.41486   0.41731
 Alpha virt. eigenvalues --    0.42235   0.42737   0.43141   0.43449   0.43701
 Alpha virt. eigenvalues --    0.44100   0.44608   0.44795   0.44993   0.45659
 Alpha virt. eigenvalues --    0.45890   0.46140   0.46945   0.46981   0.47386
 Alpha virt. eigenvalues --    0.47583   0.47993   0.48591   0.48791   0.49223
 Alpha virt. eigenvalues --    0.49649   0.50104   0.50620   0.51313   0.51639
 Alpha virt. eigenvalues --    0.52571   0.52813   0.53023   0.54050   0.54240
 Alpha virt. eigenvalues --    0.54600   0.54917   0.55078   0.55328   0.55525
 Alpha virt. eigenvalues --    0.55905   0.56067   0.56849   0.57041   0.57123
 Alpha virt. eigenvalues --    0.57433   0.58261   0.58853   0.59046   0.59576
 Alpha virt. eigenvalues --    0.59948   0.60176   0.60763   0.61187   0.61482
 Alpha virt. eigenvalues --    0.62059   0.62109   0.62551   0.62899   0.63203
 Alpha virt. eigenvalues --    0.63729   0.63967   0.64366   0.64879   0.65115
 Alpha virt. eigenvalues --    0.65306   0.65660   0.65791   0.65945   0.66425
 Alpha virt. eigenvalues --    0.67113   0.67222   0.67602   0.67692   0.68384
 Alpha virt. eigenvalues --    0.68819   0.69291   0.69681   0.70061   0.70374
 Alpha virt. eigenvalues --    0.70594   0.71625   0.71710   0.72096   0.72561
 Alpha virt. eigenvalues --    0.72681   0.73022   0.73444   0.73773   0.73924
 Alpha virt. eigenvalues --    0.74346   0.74508   0.75002   0.75158   0.75842
 Alpha virt. eigenvalues --    0.76210   0.76551   0.76824   0.77090   0.77477
 Alpha virt. eigenvalues --    0.77563   0.78259   0.78736   0.79336   0.79937
 Alpha virt. eigenvalues --    0.80047   0.80733   0.81074   0.82075   0.82308
 Alpha virt. eigenvalues --    0.83086   0.83471   0.84049   0.84744   0.85407
 Alpha virt. eigenvalues --    0.86517   0.86755   0.87481   0.88305   0.88627
 Alpha virt. eigenvalues --    0.88714   0.89331   0.89975   0.90485   0.91246
 Alpha virt. eigenvalues --    0.91618   0.92377   0.92718   0.93145   0.93272
 Alpha virt. eigenvalues --    0.93947   0.94063   0.94293   0.94741   0.95137
 Alpha virt. eigenvalues --    0.95685   0.96281   0.96473   0.97015   0.97244
 Alpha virt. eigenvalues --    0.98001   0.98572   0.99441   0.99710   1.00451
 Alpha virt. eigenvalues --    1.00701   1.01241   1.01362   1.01804   1.02011
 Alpha virt. eigenvalues --    1.02648   1.03280   1.03742   1.04215   1.04459
 Alpha virt. eigenvalues --    1.05002   1.05359   1.06287   1.06428   1.06728
 Alpha virt. eigenvalues --    1.07180   1.07937   1.08250   1.08547   1.08886
 Alpha virt. eigenvalues --    1.09192   1.09786   1.09939   1.10529   1.11126
 Alpha virt. eigenvalues --    1.11756   1.12781   1.13360   1.13840   1.14756
 Alpha virt. eigenvalues --    1.15052   1.16216   1.16848   1.17492   1.17789
 Alpha virt. eigenvalues --    1.18615   1.19306   1.19891   1.20410   1.21069
 Alpha virt. eigenvalues --    1.21886   1.22767   1.23021   1.24307   1.24937
 Alpha virt. eigenvalues --    1.25526   1.26054   1.26393   1.26769   1.26982
 Alpha virt. eigenvalues --    1.27931   1.29497   1.30345   1.30769   1.31558
 Alpha virt. eigenvalues --    1.32226   1.33407   1.33960   1.34629   1.35141
 Alpha virt. eigenvalues --    1.35482   1.36019   1.36975   1.37388   1.39159
 Alpha virt. eigenvalues --    1.40278   1.40933   1.41658   1.42176   1.42299
 Alpha virt. eigenvalues --    1.42857   1.42977   1.43453   1.44132   1.44378
 Alpha virt. eigenvalues --    1.45172   1.45217   1.45405   1.45997   1.46497
 Alpha virt. eigenvalues --    1.46857   1.47120   1.48097   1.48744   1.49679
 Alpha virt. eigenvalues --    1.50276   1.51133   1.51439   1.51683   1.52936
 Alpha virt. eigenvalues --    1.53388   1.53662   1.54134   1.54215   1.54935
 Alpha virt. eigenvalues --    1.55129   1.55441   1.56060   1.56377   1.57421
 Alpha virt. eigenvalues --    1.57963   1.58940   1.59750   1.61106   1.61558
 Alpha virt. eigenvalues --    1.62094   1.62646   1.63264   1.63842   1.64077
 Alpha virt. eigenvalues --    1.65229   1.66314   1.66762   1.67144   1.68028
 Alpha virt. eigenvalues --    1.68138   1.68549   1.68999   1.69469   1.69809
 Alpha virt. eigenvalues --    1.70022   1.70861   1.71179   1.71640   1.72016
 Alpha virt. eigenvalues --    1.73438   1.73619   1.74541   1.74648   1.75158
 Alpha virt. eigenvalues --    1.75742   1.76659   1.77035   1.78041   1.78572
 Alpha virt. eigenvalues --    1.79313   1.79660   1.80525   1.81345   1.82294
 Alpha virt. eigenvalues --    1.82679   1.84171   1.85146   1.85675   1.86763
 Alpha virt. eigenvalues --    1.87037   1.87180   1.87465   1.88030   1.88672
 Alpha virt. eigenvalues --    1.89216   1.90045   1.90310   1.91205   1.91493
 Alpha virt. eigenvalues --    1.92213   1.92666   1.93630   1.94652   1.95699
 Alpha virt. eigenvalues --    1.96222   1.96790   1.97466   1.98640   1.99568
 Alpha virt. eigenvalues --    1.99990   2.00611   2.01238   2.01621   2.02247
 Alpha virt. eigenvalues --    2.03083   2.03315   2.03547   2.03976   2.05040
 Alpha virt. eigenvalues --    2.05484   2.06231   2.07388   2.07909   2.08772
 Alpha virt. eigenvalues --    2.08915   2.09966   2.10692   2.11660   2.11724
 Alpha virt. eigenvalues --    2.11932   2.13568   2.13918   2.14179   2.15262
 Alpha virt. eigenvalues --    2.15925   2.17304   2.17855   2.18434   2.19469
 Alpha virt. eigenvalues --    2.19537   2.20789   2.21193   2.21831   2.21980
 Alpha virt. eigenvalues --    2.23920   2.24358   2.26320   2.26987   2.27724
 Alpha virt. eigenvalues --    2.31680   2.32866   2.33781   2.35216   2.36373
 Alpha virt. eigenvalues --    2.37794   2.39457   2.40438   2.41282   2.42802
 Alpha virt. eigenvalues --    2.43403   2.43726   2.43913   2.44890   2.46328
 Alpha virt. eigenvalues --    2.46411   2.46908   2.47736   2.48566   2.49759
 Alpha virt. eigenvalues --    2.50515   2.51518   2.52010   2.52416   2.52613
 Alpha virt. eigenvalues --    2.53040   2.53811   2.54327   2.54488   2.56235
 Alpha virt. eigenvalues --    2.57092   2.57852   2.58676   2.59190   2.61235
 Alpha virt. eigenvalues --    2.63225   2.63568   2.63801   2.65171   2.66629
 Alpha virt. eigenvalues --    2.67361   2.67620   2.67766   2.68337   2.68821
 Alpha virt. eigenvalues --    2.69027   2.70063   2.70686   2.71349   2.71867
 Alpha virt. eigenvalues --    2.72094   2.72611   2.73202   2.73992   2.74997
 Alpha virt. eigenvalues --    2.76195   2.76586   2.77444   2.78390   2.81155
 Alpha virt. eigenvalues --    2.81525   2.82373   2.82787   2.83312   2.83454
 Alpha virt. eigenvalues --    2.84161   2.84680   2.86086   2.86956   2.87032
 Alpha virt. eigenvalues --    2.87884   2.88198   2.88810   2.89420   2.90144
 Alpha virt. eigenvalues --    2.91000   2.92355   2.93251   2.93511   2.94727
 Alpha virt. eigenvalues --    2.95218   2.95751   2.96282   2.96580   2.98062
 Alpha virt. eigenvalues --    3.00527   3.02819   3.02968   3.03424   3.04015
 Alpha virt. eigenvalues --    3.06070   3.06735   3.07966   3.09312   3.10367
 Alpha virt. eigenvalues --    3.10999   3.13306   3.14063   3.14369   3.15647
 Alpha virt. eigenvalues --    3.16435   3.17195   3.19313   3.20728   3.20944
 Alpha virt. eigenvalues --    3.23216   3.23637   3.23895   3.24993   3.28021
 Alpha virt. eigenvalues --    3.28984   3.30190   3.31841   3.32007   3.34507
 Alpha virt. eigenvalues --    3.34607   3.35128   3.35670   3.35947   3.38205
 Alpha virt. eigenvalues --    3.38754   3.40297   3.40897   3.42938   3.43142
 Alpha virt. eigenvalues --    3.45226   3.45907   3.46518   3.49534   3.50720
 Alpha virt. eigenvalues --    3.51237   3.54309   3.55955   3.58450   3.60439
 Alpha virt. eigenvalues --    3.61099   3.62184   3.65465   3.66544   3.67295
 Alpha virt. eigenvalues --    3.69687   3.71586   3.72613   3.73859   3.75719
 Alpha virt. eigenvalues --    3.76541   3.76636   3.81464   3.82909   3.84597
 Alpha virt. eigenvalues --    3.85620   3.86352   3.89711   3.91416   3.93027
 Alpha virt. eigenvalues --    3.93296   3.94730   3.96670   4.01534   4.03207
 Alpha virt. eigenvalues --    4.04646   4.08257   4.10372   4.12969   4.14414
 Alpha virt. eigenvalues --    4.19309   4.24097   4.25558   4.27948   4.35796
 Alpha virt. eigenvalues --    4.39532   4.41047   4.52503   4.68881   4.84793
 Alpha virt. eigenvalues --    4.85579   4.87407   4.90468   5.01493   5.02354
 Alpha virt. eigenvalues --    5.04050   5.05625   5.06051   5.07666   5.11631
 Alpha virt. eigenvalues --    5.13335   5.25122   5.27183   5.29231   5.30959
 Alpha virt. eigenvalues --    5.41847   5.42951   5.76129   5.76891   5.80464
 Alpha virt. eigenvalues --    5.80715   5.82338   5.84667   8.02505   8.06176
 Alpha virt. eigenvalues --   17.28910  17.32391  17.49936  17.52494  17.58024
 Alpha virt. eigenvalues --   17.64207  23.48755  23.56696  23.71504  23.79418
 Alpha virt. eigenvalues --   23.82449  23.83193  23.85493  23.87254  23.87519
 Alpha virt. eigenvalues --   23.88601  23.89168  23.90222  23.91251  23.93304
 Alpha virt. eigenvalues --   23.94911  23.96015  23.96506  23.98683  24.00917
 Alpha virt. eigenvalues --   24.01847  24.02744  24.05527  24.09949  24.14704
 Alpha virt. eigenvalues --   24.14787  24.15004  35.56470  35.59495  49.96098
 Alpha virt. eigenvalues --   49.97502  50.02422  50.04340  50.06051  50.07529
 Alpha virt. eigenvalues --  189.19791 189.23941
          Condensed to atoms (all electrons):
 Mulliken charges:
               1
     1  C    0.343461
     2  C   -0.021470
     3  C    0.121327
     4  C    0.189746
     5  C    0.296725
     6  C   -0.299183
     7  C    0.128105
     8  C    0.300607
     9  C    0.345858
    10  C   -0.006415
    11  C    0.138647
    12  C    0.244782
    13  C   -0.493023
    14  C   -0.617985
    15  H    0.157830
    16  H    0.160522
    17  H    0.168780
    18  N   -0.160046
    19  N   -0.141839
    20  O   -0.286183
    21  O   -0.269642
    22  O   -0.280999
    23  O   -0.227100
    24  C   -0.217381
    25  H    0.174940
    26  H    0.175549
    27  H    0.184265
    28  C   -0.197104
    29  H    0.173644
    30  H    0.173146
    31  H    0.182867
    32  C   -0.241774
    33  C   -0.726518
    34  S   -0.258446
    35  C   -0.202462
    36  H    0.139413
    37  C    0.693001
    38  O   -0.138192
    39  C    0.781037
    40  C   -0.225226
    41  C    0.009810
    42  S   -0.270569
    43  H    0.167686
    44  H    0.146456
    45  H    0.152622
    46  C   -0.583438
    47  O   -0.120720
    48  C   -0.275797
    49  H    0.132280
    50  C   -0.245457
    51  H    0.161747
    52  H    0.143754
    53  H    0.171498
    54  H    0.146863
 Sum of Mulliken charges =  -0.00000
 Mulliken charges with hydrogens summed into heavy atoms:
               1
     1  C    0.343461
     2  C   -0.021470
     3  C    0.121327
     4  C    0.189746
     5  C    0.296725
     6  C   -0.130403
     7  C    0.128105
     8  C    0.300607
     9  C    0.345858
    10  C   -0.006415
    11  C    0.138647
    12  C    0.244782
    13  C   -0.332501
    14  C   -0.460156
    18  N   -0.160046
    19  N   -0.141839
    20  O   -0.286183
    21  O   -0.269642
    22  O   -0.280999
    23  O   -0.227100
    24  C    0.317373
    28  C    0.332555
    32  C   -0.241774
    33  C   -0.587104
    34  S   -0.258446
    35  C   -0.202462
    37  C    0.693001
    38  O   -0.138192
    39  C    0.781037
    40  C    0.241537
    41  C    0.009810
    42  S   -0.270569
    46  C   -0.451158
    47  O   -0.120720
    48  C   -0.114049
    50  C    0.216657
 Electronic spatial extent (au):  <R**2>=          22607.8459
 Charge=             -0.0000 electrons
 Dipole moment (field-independent basis, Debye):
    X=              4.9806    Y=             -0.7066    Z=              0.0661  Tot=              5.0309
 Quadrupole moment (field-independent basis, Debye-Ang):
   XX=           -212.2971   YY=           -215.6624   ZZ=           -219.7077
   XY=             12.7757   XZ=             -4.3668   YZ=            -10.6312
 Traceless Quadrupole moment (field-independent basis, Debye-Ang):
   XX=              3.5919   YY=              0.2267   ZZ=             -3.8186
   XY=             12.7757   XZ=             -4.3668   YZ=            -10.6312
 Octapole moment (field-independent basis, Debye-Ang**2):
  XXX=            408.9298  YYY=            -50.0932  ZZZ=             -2.1328  XYY=            113.5059
  XXY=             33.2914  XXZ=            -44.4450  XZZ=              1.3448  YZZ=             -1.3254
  YYZ=              6.1879  XYZ=            -26.5980
 Hexadecapole moment (field-independent basis, Debye-Ang**3):
 XXXX=         -21666.3687 YYYY=          -7526.2970 ZZZZ=           -709.6654 XXXY=            273.5099
 XXXZ=           -348.2782 YYYX=            481.6835 YYYZ=           -181.0984 ZZZX=             11.6432
 ZZZY=            -17.0665 XXYY=          -4774.0911 XXZZ=          -3902.0842 YYZZ=          -1309.9539
 XXYZ=           -198.7035 YYXZ=             69.6768 ZZXY=             78.0389
 N-N= 4.091862792191D+03 E-N=-1.372391398931D+04  KE= 2.352054188054D+03
 Unable to Open any file for archive entry.
 1\1\GINC-CX3-6-12\FOpt\RB3LYP\6-311+G(d,p)\C26H18N2O6S2\NS5018\26-Nov-
 2020\0\\# opt=modredundant b3lyp/6-311+g(d,p)\\NDI_155.pdb\\0,1\C,-2.3
 154585625,-2.8026515968,-0.6585222584\C,-2.1716585916,-1.3569036604,-0
 .3421318603\C,-3.3090300447,-0.57175262,-0.0463088061\C,-4.5925315223,
 -1.1494811081,-0.0189412061\C,-4.7729914795,-2.5941480734,-0.322013655
 6\C,-0.9264938616,-0.7925923855,-0.3416412935\C,-3.1213357453,0.811882
 1553,0.2146900491\C,-1.8193506478,1.4016416266,0.1617705122\C,-0.67293
 9594,0.5921583442,-0.0651216788\C,-1.7407593317,2.8610808869,0.3606064
 33\C,-4.1659209457,3.0058809272,0.8862786195\C,-4.2729088306,1.5704791
 585,0.5469063528\C,-5.5298177131,0.9810688235,0.5847939866\C,-5.699390
 4226,-0.3745197329,0.2936389486\H,-6.6781947174,-0.8358933656,0.313727
 173\H,-6.3751254576,1.6031890346,0.8505303243\H,-0.1046414539,-1.43826
 67535,-0.6102268378\N,-2.8831044688,3.5473782139,0.8022775436\N,-3.612
 0162909,-3.3260721932,-0.6305161713\O,-1.366792741,-3.5186247242,-0.92
 53061146\O,-5.8666780947,-3.1264590349,-0.3096010688\O,-5.1268911013,3
 .6817673294,1.2123660272\O,-0.7265168335,3.5100365798,0.1551586126\C,-
 2.7156595427,4.9834958827,1.0660769019\H,-1.8617054238,5.1323057501,1.
 7247858409\H,-2.5307208505,5.5203902526,0.1340666875\H,-3.6301930155,5
 .3431459016,1.5272307892\C,-3.7447964648,-4.7563643275,-0.9422584801\H
 ,-3.3496632677,-4.9530964275,-1.9390043205\H,-3.1745569836,-5.34506470
 04,-0.2231287329\H,-4.798276581,-5.0124521202,-0.8922398503\C,0.755076
 0498,0.9252218946,-0.0425092807\C,1.7292905331,-0.0410487419,0.2170588
 973\S,1.5384340586,2.4345212169,-0.4891394267\C,3.0441990063,0.4075971
 367,0.0522921916\H,1.4921568795,-1.0372033893,0.5560619392\C,3.1346807
 574,1.7348160599,-0.374922853\O,4.1815471889,-0.3043787159,0.271402548
 8\C,4.333216073,2.4785476145,-0.6467870675\C,4.0535927417,-1.676243218
 5,0.6329196044\C,4.4364625153,3.8003576916,-1.0722945346\S,5.948128290
 3,1.7949102861,-0.4803686902\H,5.0691054413,-2.0561309266,0.7284518518
 \H,3.5335782518,-1.7845274919,1.5903837977\H,3.523509503,-2.2400514084
 ,-0.1414531509\C,5.7721577091,4.2506056232,-1.257580839\O,3.3077979832
 ,4.523810662,-1.2714404835\C,6.6848634744,3.2720564458,-0.9755850349\H
 ,6.0445603083,5.2437656405,-1.5832782905\C,3.4371761233,5.8869617226,-
 1.6647894669\H,7.7605521532,3.3396451138,-1.0328720293\H,3.9394240582,
 5.9709769395,-2.6338742561\H,2.4215049902,6.268812066,-1.7476927095\H,
 3.9841064915,6.4634197362,-0.9119251843\\Version=ES64L-G16RevC.01\Stat
 e=1-A\HF=-2359.3357138\RMSD=4.541e-09\RMSF=1.648e-04\Dipole=1.9034105,
 0.5241923,-0.141146\Quadrupole=-4.5237823,8.6821946,-4.1584124,6.48593
 91,0.7609233,-8.4634305\PG=C01 [X(C26H18N2O6S2)]\\@
 The archive entry for this job was punched.


 THERE'S NOTHING WRONG WITH FOLLOWING A TRAIN OF THOUGHT...
 AS LONG AS IT ULTIMATELY PULLS INTO THE STATION.
 Job cpu time:       2 days  9 hours 11 minutes 47.3 seconds.
 Elapsed time:       0 days  3 hours 36 minutes 28.9 seconds.
 File lengths (MBytes):  RWF=    496 Int=      0 D2E=      0 Chk=     61 Scr=      1
 Normal termination of Gaussian 16 at Thu Nov 26 13:41:45 2020.
