 Entering Gaussian System, Link 0=g16
 Input=NDI_25.gjf
 Output=NDI_25.log
 Initial command:
 /apps/gaussian/g16-c01-avx/g16/l1.exe "/tmp/pbs.2610758[41].pbs/Gau-1994049.inp" -scrdir="/tmp/pbs.2610758[41].pbs/"
 Entering Link 1 = /apps/gaussian/g16-c01-avx/g16/l1.exe PID=   1994050.
  
 Copyright (c) 1988-2019, Gaussian, Inc.  All Rights Reserved.
  
 This is part of the Gaussian(R) 16 program.  It is based on
 the Gaussian(R) 09 system (copyright 2009, Gaussian, Inc.),
 the Gaussian(R) 03 system (copyright 2003, Gaussian, Inc.),
 the Gaussian(R) 98 system (copyright 1998, Gaussian, Inc.),
 the Gaussian(R) 94 system (copyright 1995, Gaussian, Inc.),
 the Gaussian 92(TM) system (copyright 1992, Gaussian, Inc.),
 the Gaussian 90(TM) system (copyright 1990, Gaussian, Inc.),
 the Gaussian 88(TM) system (copyright 1988, Gaussian, Inc.),
 the Gaussian 86(TM) system (copyright 1986, Carnegie Mellon
 University), and the Gaussian 82(TM) system (copyright 1983,
 Carnegie Mellon University). Gaussian is a federally registered
 trademark of Gaussian, Inc.
  
 This software contains proprietary and confidential information,
 including trade secrets, belonging to Gaussian, Inc.
  
 This software is provided under written license and may be
 used, copied, transmitted, or stored only in accord with that
 written license.
  
 The following legend is applicable only to US Government
 contracts under FAR:
  
                    RESTRICTED RIGHTS LEGEND
  
 Use, reproduction and disclosure by the US Government is
 subject to restrictions as set forth in subparagraphs (a)
 and (c) of the Commercial Computer Software - Restricted
 Rights clause in FAR 52.227-19.
  
 Gaussian, Inc.
 340 Quinnipiac St., Bldg. 40, Wallingford CT 06492
  
  
 ---------------------------------------------------------------
 Warning -- This program may not be used in any manner that
 competes with the business of Gaussian, Inc. or will provide
 assistance to any competitor of Gaussian, Inc.  The licensee
 of this program is prohibited from giving any competitor of
 Gaussian, Inc. access to this program.  By using this program,
 the user acknowledges that Gaussian, Inc. is engaged in the
 business of creating and licensing software in the field of
 computational chemistry and represents and warrants to the
 licensee that it is not a competitor of Gaussian, Inc. and that
 it will not use this program in any manner prohibited above.
 ---------------------------------------------------------------
  

 Cite this work as:
 Gaussian 16, Revision C.01,
 M. J. Frisch, G. W. Trucks, H. B. Schlegel, G. E. Scuseria, 
 M. A. Robb, J. R. Cheeseman, G. Scalmani, V. Barone, 
 G. A. Petersson, H. Nakatsuji, X. Li, M. Caricato, A. V. Marenich, 
 J. Bloino, B. G. Janesko, R. Gomperts, B. Mennucci, H. P. Hratchian, 
 J. V. Ortiz, A. F. Izmaylov, J. L. Sonnenberg, D. Williams-Young, 
 F. Ding, F. Lipparini, F. Egidi, J. Goings, B. Peng, A. Petrone, 
 T. Henderson, D. Ranasinghe, V. G. Zakrzewski, J. Gao, N. Rega, 
 G. Zheng, W. Liang, M. Hada, M. Ehara, K. Toyota, R. Fukuda, 
 J. Hasegawa, M. Ishida, T. Nakajima, Y. Honda, O. Kitao, H. Nakai, 
 T. Vreven, K. Throssell, J. A. Montgomery, Jr., J. E. Peralta, 
 F. Ogliaro, M. J. Bearpark, J. J. Heyd, E. N. Brothers, K. N. Kudin, 
 V. N. Staroverov, T. A. Keith, R. Kobayashi, J. Normand, 
 K. Raghavachari, A. P. Rendell, J. C. Burant, S. S. Iyengar, 
 J. Tomasi, M. Cossi, J. M. Millam, M. Klene, C. Adamo, R. Cammi, 
 J. W. Ochterski, R. L. Martin, K. Morokuma, O. Farkas, 
 J. B. Foresman, and D. J. Fox, Gaussian, Inc., Wallingford CT, 2019.
 
 ******************************************
 Gaussian 16:  ES64L-G16RevC.01  3-Jul-2019
                26-Nov-2020 
 ******************************************
 %mem=10GB
 %nprocshared=16
 Will use up to   16 processors via shared memory.
 -------------------------------------
 # opt=modredundant b3lyp/6-311+g(d,p)
 -------------------------------------
 1/18=120,19=15,26=3,38=1/1,3;
 2/9=110,12=2,17=6,18=5,40=1/2;
 3/5=4,6=6,7=111,11=2,25=1,30=1,71=1,74=-5/1,2,3;
 4//1;
 5/5=2,38=5/2;
 6/7=2,8=2,9=2,10=2,28=1/1;
 7//1,2,3,16;
 1/18=20,19=15,26=3/3(2);
 2/9=110/2;
 99//99;
 2/9=110/2;
 3/5=4,6=6,7=111,11=2,25=1,30=1,71=1,74=-5/1,2,3;
 4/5=5,16=3,69=1/1;
 5/5=2,38=5/2;
 7//1,2,3,16;
 1/18=20,19=15,26=3/3(-5);
 2/9=110/2;
 6/7=2,8=2,9=2,10=2,19=2,28=1/1;
 99/9=1/99;
 ----------
 NDI_25.pdb
 ----------
 Symbolic Z-matrix:
 Charge =  0 Multiplicity = 1
 C                    -2.563    -2.994    -0.409 
 C                    -2.257    -1.551    -0.224 
 C                    -3.301    -0.607    -0.083 
 C                    -4.65     -1.024    -0.115 
 C                    -4.992    -2.459    -0.304 
 C                    -0.949    -1.137    -0.215 
 C                    -2.962     0.764     0.102 
 C                    -1.595     1.188     0.123 
 C                    -0.561     0.232    -0.072 
 C                    -1.328     2.616     0.446 
 C                    -3.777     3.115     0.508 
 C                    -4.035     1.679     0.268 
 C                    -5.356     1.252     0.23 
 C                    -5.672    -0.098     0.036 
 H                    -6.699    -0.442     0.008 
 H                    -6.133     1.997     0.361 
 H                    -0.19     -1.895    -0.369 
 N                    -2.432     3.476     0.608 
 N                    -3.916    -3.353    -0.438 
 O                    -1.695    -3.847    -0.532 
 O                    -6.149    -2.85     -0.34 
 O                    -4.676     3.938     0.629 
 O                    -0.212     3.097     0.596 
 C                    -2.111     4.875     0.912 
 H                    -1.54      4.931     1.84 
 H                    -1.5       5.299     0.111 
 H                    -3.05      5.414     1.003 
 C                    -4.206    -4.779    -0.625 
 H                    -3.759    -5.126    -1.559 
 H                    -3.775    -5.355     0.196 
 H                    -5.286    -4.897    -0.649 
 C                     0.876     0.482    -0.178 
 C                     1.651     1.518     0.305 
 S                     1.851    -0.581    -1.193 
 C                     2.993     1.463    -0.12 
 H                     1.261     2.287     0.952 
 C                     3.295     0.372    -0.942 
 O                     3.978     2.347     0.192 
 C                     4.57      0.018    -1.497 
 C                     3.673     3.362     1.144 
 C                     4.864    -1.056    -2.336 
 S                     6.042     0.936    -1.188 
 H                     4.603     3.905     1.312 
 H                     2.914     4.054     0.756 
 H                     3.321     2.928     2.087 
 C                     6.233    -1.139    -2.718 
 O                     3.868    -1.904    -2.703 
 C                     6.979    -0.129    -2.172 
 H                     6.643    -1.904    -3.363 
 C                     4.192    -2.971    -3.587 
 H                     8.038     0.048    -2.298 
 H                     4.928    -3.65     -3.139 
 H                     3.262    -3.51     -3.761 
 H                     4.578    -2.593    -4.541 
 
 The following ModRedundant input section has been read:
 D       8       9      32      33 F                                           
 

 GradGradGradGradGradGradGradGradGradGradGradGradGradGradGradGradGradGrad
 Berny optimization.
 Initialization pass.
                           ----------------------------
                           !    Initial Parameters    !
                           ! (Angstroms and Degrees)  !
 --------------------------                            --------------------------
 ! Name  Definition              Value          Derivative Info.                !
 --------------------------------------------------------------------------------
 ! R1    R(1,2)                  1.4866         estimate D2E/DX2                !
 ! R2    R(1,19)                 1.4001         estimate D2E/DX2                !
 ! R3    R(1,20)                 1.2232         estimate D2E/DX2                !
 ! R4    R(2,3)                  1.4146         estimate D2E/DX2                !
 ! R5    R(2,6)                  1.372          estimate D2E/DX2                !
 ! R6    R(3,4)                  1.4123         estimate D2E/DX2                !
 ! R7    R(3,7)                  1.4244         estimate D2E/DX2                !
 ! R8    R(4,5)                  1.4872         estimate D2E/DX2                !
 ! R9    R(4,14)                 1.3874         estimate D2E/DX2                !
 ! R10   R(5,19)                 1.4053         estimate D2E/DX2                !
 ! R11   R(5,21)                 1.2218         estimate D2E/DX2                !
 ! R12   R(6,9)                  1.4301         estimate D2E/DX2                !
 ! R13   R(6,17)                 1.0837         estimate D2E/DX2                !
 ! R14   R(7,8)                  1.4314         estimate D2E/DX2                !
 ! R15   R(7,12)                 1.4199         estimate D2E/DX2                !
 ! R16   R(8,9)                  1.4217         estimate D2E/DX2                !
 ! R17   R(8,10)                 1.4882         estimate D2E/DX2                !
 ! R18   R(9,32)                 1.4624         estimate D2E/DX2                !
 ! R19   R(10,18)                1.4088         estimate D2E/DX2                !
 ! R20   R(10,23)                1.2245         estimate D2E/DX2                !
 ! R21   R(11,12)                1.4786         estimate D2E/DX2                !
 ! R22   R(11,18)                1.3962         estimate D2E/DX2                !
 ! R23   R(11,22)                1.2248         estimate D2E/DX2                !
 ! R24   R(12,13)                1.3888         estimate D2E/DX2                !
 ! R25   R(13,14)                1.4            estimate D2E/DX2                !
 ! R26   R(13,16)                1.0844         estimate D2E/DX2                !
 ! R27   R(14,15)                1.0834         estimate D2E/DX2                !
 ! R28   R(18,24)                1.4672         estimate D2E/DX2                !
 ! R29   R(19,28)                1.4672         estimate D2E/DX2                !
 ! R30   R(24,25)                1.091          estimate D2E/DX2                !
 ! R31   R(24,26)                1.093          estimate D2E/DX2                !
 ! R32   R(24,27)                1.0865         estimate D2E/DX2                !
 ! R33   R(28,29)                1.0921         estimate D2E/DX2                !
 ! R34   R(28,30)                1.0916         estimate D2E/DX2                !
 ! R35   R(28,31)                1.0867         estimate D2E/DX2                !
 ! R36   R(32,33)                1.381          estimate D2E/DX2                !
 ! R37   R(32,34)                1.7638         estimate D2E/DX2                !
 ! R38   R(33,35)                1.4088         estimate D2E/DX2                !
 ! R39   R(33,36)                1.078          estimate D2E/DX2                !
 ! R40   R(34,37)                1.7482         estimate D2E/DX2                !
 ! R41   R(35,37)                1.399          estimate D2E/DX2                !
 ! R42   R(35,38)                1.3598         estimate D2E/DX2                !
 ! R43   R(37,39)                1.4349         estimate D2E/DX2                !
 ! R44   R(38,40)                1.4246         estimate D2E/DX2                !
 ! R45   R(39,41)                1.3942         estimate D2E/DX2                !
 ! R46   R(39,42)                1.7621         estimate D2E/DX2                !
 ! R47   R(40,43)                1.0899         estimate D2E/DX2                !
 ! R48   R(40,44)                1.0979         estimate D2E/DX2                !
 ! R49   R(40,45)                1.0961         estimate D2E/DX2                !
 ! R50   R(41,46)                1.4237         estimate D2E/DX2                !
 ! R51   R(41,47)                1.3586         estimate D2E/DX2                !
 ! R52   R(42,48)                1.7264         estimate D2E/DX2                !
 ! R53   R(46,48)                1.3692         estimate D2E/DX2                !
 ! R54   R(46,49)                1.0814         estimate D2E/DX2                !
 ! R55   R(47,50)                1.423          estimate D2E/DX2                !
 ! R56   R(48,51)                1.0811         estimate D2E/DX2                !
 ! R57   R(50,52)                1.097          estimate D2E/DX2                !
 ! R58   R(50,53)                1.0889         estimate D2E/DX2                !
 ! R59   R(50,54)                1.0964         estimate D2E/DX2                !
 ! A1    A(2,1,19)             116.767          estimate D2E/DX2                !
 ! A2    A(2,1,20)             122.9113         estimate D2E/DX2                !
 ! A3    A(19,1,20)            120.3217         estimate D2E/DX2                !
 ! A4    A(1,2,3)              120.5473         estimate D2E/DX2                !
 ! A5    A(1,2,6)              119.3369         estimate D2E/DX2                !
 ! A6    A(3,2,6)              120.1056         estimate D2E/DX2                !
 ! A7    A(2,3,4)              120.3743         estimate D2E/DX2                !
 ! A8    A(2,3,7)              118.662          estimate D2E/DX2                !
 ! A9    A(4,3,7)              120.9617         estimate D2E/DX2                !
 ! A10   A(3,4,5)              120.4909         estimate D2E/DX2                !
 ! A11   A(3,4,14)             120.2702         estimate D2E/DX2                !
 ! A12   A(5,4,14)             119.2382         estimate D2E/DX2                !
 ! A13   A(4,5,19)             116.7341         estimate D2E/DX2                !
 ! A14   A(4,5,21)             122.024          estimate D2E/DX2                !
 ! A15   A(19,5,21)            121.2418         estimate D2E/DX2                !
 ! A16   A(2,6,9)              123.2421         estimate D2E/DX2                !
 ! A17   A(2,6,17)             117.1119         estimate D2E/DX2                !
 ! A18   A(9,6,17)             119.589          estimate D2E/DX2                !
 ! A19   A(3,7,8)              120.9519         estimate D2E/DX2                !
 ! A20   A(3,7,12)             117.1037         estimate D2E/DX2                !
 ! A21   A(8,7,12)             121.944          estimate D2E/DX2                !
 ! A22   A(7,8,9)              119.5639         estimate D2E/DX2                !
 ! A23   A(7,8,10)             117.3064         estimate D2E/DX2                !
 ! A24   A(9,8,10)             122.9922         estimate D2E/DX2                !
 ! A25   A(6,9,8)              117.3944         estimate D2E/DX2                !
 ! A26   A(6,9,32)             115.0236         estimate D2E/DX2                !
 ! A27   A(8,9,32)             127.5648         estimate D2E/DX2                !
 ! A28   A(8,10,18)            118.042          estimate D2E/DX2                !
 ! A29   A(8,10,23)            124.5436         estimate D2E/DX2                !
 ! A30   A(18,10,23)           117.4097         estimate D2E/DX2                !
 ! A31   A(12,11,18)           115.5202         estimate D2E/DX2                !
 ! A32   A(12,11,22)           122.7205         estimate D2E/DX2                !
 ! A33   A(18,11,22)           121.7534         estimate D2E/DX2                !
 ! A34   A(7,12,11)            120.8614         estimate D2E/DX2                !
 ! A35   A(7,12,13)            121.162          estimate D2E/DX2                !
 ! A36   A(11,12,13)           117.9699         estimate D2E/DX2                !
 ! A37   A(12,13,14)           120.9948         estimate D2E/DX2                !
 ! A38   A(12,13,16)           117.8401         estimate D2E/DX2                !
 ! A39   A(14,13,16)           121.1642         estimate D2E/DX2                !
 ! A40   A(4,14,13)            119.5003         estimate D2E/DX2                !
 ! A41   A(4,14,15)            118.9169         estimate D2E/DX2                !
 ! A42   A(13,14,15)           121.5811         estimate D2E/DX2                !
 ! A43   A(10,18,11)           126.0753         estimate D2E/DX2                !
 ! A44   A(10,18,24)           115.7508         estimate D2E/DX2                !
 ! A45   A(11,18,24)           118.1737         estimate D2E/DX2                !
 ! A46   A(1,19,5)             125.0856         estimate D2E/DX2                !
 ! A47   A(1,19,28)            116.2868         estimate D2E/DX2                !
 ! A48   A(5,19,28)            118.6276         estimate D2E/DX2                !
 ! A49   A(18,24,25)           109.8574         estimate D2E/DX2                !
 ! A50   A(18,24,26)           109.8979         estimate D2E/DX2                !
 ! A51   A(18,24,27)           107.5355         estimate D2E/DX2                !
 ! A52   A(25,24,26)           108.1108         estimate D2E/DX2                !
 ! A53   A(25,24,27)           110.8301         estimate D2E/DX2                !
 ! A54   A(26,24,27)           110.6124         estimate D2E/DX2                !
 ! A55   A(19,28,29)           109.6906         estimate D2E/DX2                !
 ! A56   A(19,28,30)           109.8136         estimate D2E/DX2                !
 ! A57   A(19,28,31)           107.7461         estimate D2E/DX2                !
 ! A58   A(29,28,30)           108.2991         estimate D2E/DX2                !
 ! A59   A(29,28,31)           110.6959         estimate D2E/DX2                !
 ! A60   A(30,28,31)           110.5924         estimate D2E/DX2                !
 ! A61   A(9,32,33)            130.8675         estimate D2E/DX2                !
 ! A62   A(9,32,34)            118.8075         estimate D2E/DX2                !
 ! A63   A(33,32,34)           110.0702         estimate D2E/DX2                !
 ! A64   A(32,33,35)           113.5648         estimate D2E/DX2                !
 ! A65   A(32,33,36)           122.8219         estimate D2E/DX2                !
 ! A66   A(35,33,36)           123.6113         estimate D2E/DX2                !
 ! A67   A(32,34,37)            92.6041         estimate D2E/DX2                !
 ! A68   A(33,35,37)           114.4152         estimate D2E/DX2                !
 ! A69   A(33,35,38)           126.5445         estimate D2E/DX2                !
 ! A70   A(37,35,38)           119.0403         estimate D2E/DX2                !
 ! A71   A(34,37,35)           109.3396         estimate D2E/DX2                !
 ! A72   A(34,37,39)           122.9502         estimate D2E/DX2                !
 ! A73   A(35,37,39)           127.6957         estimate D2E/DX2                !
 ! A74   A(35,38,40)           117.4788         estimate D2E/DX2                !
 ! A75   A(37,39,41)           127.6019         estimate D2E/DX2                !
 ! A76   A(37,39,42)           123.0876         estimate D2E/DX2                !
 ! A77   A(41,39,42)           109.3105         estimate D2E/DX2                !
 ! A78   A(38,40,43)           105.9782         estimate D2E/DX2                !
 ! A79   A(38,40,44)           111.1552         estimate D2E/DX2                !
 ! A80   A(38,40,45)           111.1953         estimate D2E/DX2                !
 ! A81   A(43,40,44)           109.2884         estimate D2E/DX2                !
 ! A82   A(43,40,45)           109.7949         estimate D2E/DX2                !
 ! A83   A(44,40,45)           109.3641         estimate D2E/DX2                !
 ! A84   A(39,41,46)           114.1507         estimate D2E/DX2                !
 ! A85   A(39,41,47)           119.2604         estimate D2E/DX2                !
 ! A86   A(46,41,47)           126.5884         estimate D2E/DX2                !
 ! A87   A(39,42,48)            91.8374         estimate D2E/DX2                !
 ! A88   A(41,46,48)           111.9565         estimate D2E/DX2                !
 ! A89   A(41,46,49)           124.462          estimate D2E/DX2                !
 ! A90   A(48,46,49)           123.5815         estimate D2E/DX2                !
 ! A91   A(41,47,50)           117.9636         estimate D2E/DX2                !
 ! A92   A(42,48,46)           112.7449         estimate D2E/DX2                !
 ! A93   A(42,48,51)           119.8085         estimate D2E/DX2                !
 ! A94   A(46,48,51)           127.4465         estimate D2E/DX2                !
 ! A95   A(47,50,52)           111.295          estimate D2E/DX2                !
 ! A96   A(47,50,53)           106.0196         estimate D2E/DX2                !
 ! A97   A(47,50,54)           111.2354         estimate D2E/DX2                !
 ! A98   A(52,50,53)           109.3833         estimate D2E/DX2                !
 ! A99   A(52,50,54)           109.4233         estimate D2E/DX2                !
 ! A100  A(53,50,54)           109.4095         estimate D2E/DX2                !
 ! D1    D(19,1,2,3)             0.1578         estimate D2E/DX2                !
 ! D2    D(19,1,2,6)          -178.6792         estimate D2E/DX2                !
 ! D3    D(20,1,2,3)          -179.8231         estimate D2E/DX2                !
 ! D4    D(20,1,2,6)             1.3399         estimate D2E/DX2                !
 ! D5    D(2,1,19,5)            -0.124          estimate D2E/DX2                !
 ! D6    D(2,1,19,28)          179.8267         estimate D2E/DX2                !
 ! D7    D(20,1,19,5)          179.8575         estimate D2E/DX2                !
 ! D8    D(20,1,19,28)          -0.1919         estimate D2E/DX2                !
 ! D9    D(1,2,3,4)              0.0571         estimate D2E/DX2                !
 ! D10   D(1,2,3,7)            179.5453         estimate D2E/DX2                !
 ! D11   D(6,2,3,4)            178.8851         estimate D2E/DX2                !
 ! D12   D(6,2,3,7)             -1.6266         estimate D2E/DX2                !
 ! D13   D(1,2,6,9)            178.625          estimate D2E/DX2                !
 ! D14   D(1,2,6,17)             1.3881         estimate D2E/DX2                !
 ! D15   D(3,2,6,9)             -0.2173         estimate D2E/DX2                !
 ! D16   D(3,2,6,17)          -177.4541         estimate D2E/DX2                !
 ! D17   D(2,3,4,5)             -0.3074         estimate D2E/DX2                !
 ! D18   D(2,3,4,14)           179.3968         estimate D2E/DX2                !
 ! D19   D(7,3,4,5)           -179.7837         estimate D2E/DX2                !
 ! D20   D(7,3,4,14)            -0.0795         estimate D2E/DX2                !
 ! D21   D(2,3,7,8)              1.0523         estimate D2E/DX2                !
 ! D22   D(2,3,7,12)          -178.712          estimate D2E/DX2                !
 ! D23   D(4,3,7,8)           -179.4626         estimate D2E/DX2                !
 ! D24   D(4,3,7,12)             0.7731         estimate D2E/DX2                !
 ! D25   D(3,4,5,19)             0.3343         estimate D2E/DX2                !
 ! D26   D(3,4,5,21)          -179.7799         estimate D2E/DX2                !
 ! D27   D(14,4,5,19)         -179.3729         estimate D2E/DX2                !
 ! D28   D(14,4,5,21)            0.5129         estimate D2E/DX2                !
 ! D29   D(3,4,14,13)           -0.4559         estimate D2E/DX2                !
 ! D30   D(3,4,14,15)         -179.9937         estimate D2E/DX2                !
 ! D31   D(5,4,14,13)          179.252          estimate D2E/DX2                !
 ! D32   D(5,4,14,15)           -0.2858         estimate D2E/DX2                !
 ! D33   D(4,5,19,1)            -0.1141         estimate D2E/DX2                !
 ! D34   D(4,5,19,28)          179.9364         estimate D2E/DX2                !
 ! D35   D(21,5,19,1)          179.9992         estimate D2E/DX2                !
 ! D36   D(21,5,19,28)           0.0496         estimate D2E/DX2                !
 ! D37   D(2,6,9,8)              2.5984         estimate D2E/DX2                !
 ! D38   D(2,6,9,32)          -176.0103         estimate D2E/DX2                !
 ! D39   D(17,6,9,8)           179.77           estimate D2E/DX2                !
 ! D40   D(17,6,9,32)            1.1613         estimate D2E/DX2                !
 ! D41   D(3,7,8,9)              1.3551         estimate D2E/DX2                !
 ! D42   D(3,7,8,10)          -174.5099         estimate D2E/DX2                !
 ! D43   D(12,7,8,9)          -178.8921         estimate D2E/DX2                !
 ! D44   D(12,7,8,10)            5.2428         estimate D2E/DX2                !
 ! D45   D(3,7,12,11)          178.0768         estimate D2E/DX2                !
 ! D46   D(3,7,12,13)           -0.9621         estimate D2E/DX2                !
 ! D47   D(8,7,12,11)           -1.685          estimate D2E/DX2                !
 ! D48   D(8,7,12,13)          179.2761         estimate D2E/DX2                !
 ! D49   D(7,8,9,6)             -3.0809         estimate D2E/DX2                !
 ! D50   D(7,8,9,32)           175.3285         estimate D2E/DX2                !
 ! D51   D(10,8,9,6)           172.5381         estimate D2E/DX2                !
 ! D52   D(10,8,9,32)           -9.0525         estimate D2E/DX2                !
 ! D53   D(7,8,10,18)           -4.7549         estimate D2E/DX2                !
 ! D54   D(7,8,10,23)          174.4235         estimate D2E/DX2                !
 ! D55   D(9,8,10,18)          179.5335         estimate D2E/DX2                !
 ! D56   D(9,8,10,23)           -1.2882         estimate D2E/DX2                !
 ! D57   D(6,9,32,33)         -156.5374         estimate D2E/DX2                !
 ! D58   D(6,9,32,34)           29.8961         estimate D2E/DX2                !
 ! D59   D(8,9,32,33)           25.0211         Frozen                          !
 ! D60   D(8,9,32,34)         -148.5454         estimate D2E/DX2                !
 ! D61   D(8,10,18,11)           0.7189         estimate D2E/DX2                !
 ! D62   D(8,10,18,24)        -179.4089         estimate D2E/DX2                !
 ! D63   D(23,10,18,11)       -178.5188         estimate D2E/DX2                !
 ! D64   D(23,10,18,24)          1.3535         estimate D2E/DX2                !
 ! D65   D(18,11,12,7)          -2.3856         estimate D2E/DX2                !
 ! D66   D(18,11,12,13)        176.6833         estimate D2E/DX2                !
 ! D67   D(22,11,12,7)         178.4862         estimate D2E/DX2                !
 ! D68   D(22,11,12,13)         -2.445          estimate D2E/DX2                !
 ! D69   D(12,11,18,10)          2.8444         estimate D2E/DX2                !
 ! D70   D(12,11,18,24)       -177.0251         estimate D2E/DX2                !
 ! D71   D(22,11,18,10)       -178.0181         estimate D2E/DX2                !
 ! D72   D(22,11,18,24)          2.1124         estimate D2E/DX2                !
 ! D73   D(7,12,13,14)           0.461          estimate D2E/DX2                !
 ! D74   D(7,12,13,16)        -179.8781         estimate D2E/DX2                !
 ! D75   D(11,12,13,14)       -178.6049         estimate D2E/DX2                !
 ! D76   D(11,12,13,16)          1.056          estimate D2E/DX2                !
 ! D77   D(12,13,14,4)           0.2708         estimate D2E/DX2                !
 ! D78   D(12,13,14,15)        179.7958         estimate D2E/DX2                !
 ! D79   D(16,13,14,4)        -179.3788         estimate D2E/DX2                !
 ! D80   D(16,13,14,15)          0.1463         estimate D2E/DX2                !
 ! D81   D(10,18,24,25)        -59.609          estimate D2E/DX2                !
 ! D82   D(10,18,24,26)         59.2209         estimate D2E/DX2                !
 ! D83   D(10,18,24,27)        179.6858         estimate D2E/DX2                !
 ! D84   D(11,18,24,25)        120.2739         estimate D2E/DX2                !
 ! D85   D(11,18,24,26)       -120.8962         estimate D2E/DX2                !
 ! D86   D(11,18,24,27)         -0.4313         estimate D2E/DX2                !
 ! D87   D(1,19,28,29)         -58.1407         estimate D2E/DX2                !
 ! D88   D(1,19,28,30)          60.7668         estimate D2E/DX2                !
 ! D89   D(1,19,28,31)        -178.7139         estimate D2E/DX2                !
 ! D90   D(5,19,28,29)         121.8132         estimate D2E/DX2                !
 ! D91   D(5,19,28,30)        -119.2792         estimate D2E/DX2                !
 ! D92   D(5,19,28,31)           1.2401         estimate D2E/DX2                !
 ! D93   D(9,32,33,35)        -174.2305         estimate D2E/DX2                !
 ! D94   D(9,32,33,36)           6.2663         estimate D2E/DX2                !
 ! D95   D(34,32,33,35)         -0.2306         estimate D2E/DX2                !
 ! D96   D(34,32,33,36)       -179.7338         estimate D2E/DX2                !
 ! D97   D(9,32,34,37)         175.382          estimate D2E/DX2                !
 ! D98   D(33,32,34,37)          0.5579         estimate D2E/DX2                !
 ! D99   D(32,33,35,37)         -0.3428         estimate D2E/DX2                !
 ! D100  D(32,33,35,38)        179.7189         estimate D2E/DX2                !
 ! D101  D(36,33,35,37)        179.1558         estimate D2E/DX2                !
 ! D102  D(36,33,35,38)         -0.7825         estimate D2E/DX2                !
 ! D103  D(32,34,37,35)         -0.7334         estimate D2E/DX2                !
 ! D104  D(32,34,37,39)        177.9761         estimate D2E/DX2                !
 ! D105  D(33,35,37,34)          0.7477         estimate D2E/DX2                !
 ! D106  D(33,35,37,39)       -177.8837         estimate D2E/DX2                !
 ! D107  D(38,35,37,34)       -179.309          estimate D2E/DX2                !
 ! D108  D(38,35,37,39)          2.0596         estimate D2E/DX2                !
 ! D109  D(33,35,38,40)          6.545          estimate D2E/DX2                !
 ! D110  D(37,35,38,40)       -173.3907         estimate D2E/DX2                !
 ! D111  D(34,37,39,41)          2.8229         estimate D2E/DX2                !
 ! D112  D(34,37,39,42)       -177.2022         estimate D2E/DX2                !
 ! D113  D(35,37,39,41)       -178.7161         estimate D2E/DX2                !
 ! D114  D(35,37,39,42)          1.2588         estimate D2E/DX2                !
 ! D115  D(35,38,40,43)        175.5237         estimate D2E/DX2                !
 ! D116  D(35,38,40,44)        -65.841          estimate D2E/DX2                !
 ! D117  D(35,38,40,45)         56.2582         estimate D2E/DX2                !
 ! D118  D(37,39,41,46)       -179.963          estimate D2E/DX2                !
 ! D119  D(37,39,41,47)         -0.1993         estimate D2E/DX2                !
 ! D120  D(42,39,41,46)          0.0592         estimate D2E/DX2                !
 ! D121  D(42,39,41,47)        179.823          estimate D2E/DX2                !
 ! D122  D(37,39,42,48)        179.9989         estimate D2E/DX2                !
 ! D123  D(41,39,42,48)         -0.0222         estimate D2E/DX2                !
 ! D124  D(39,41,46,48)         -0.0765         estimate D2E/DX2                !
 ! D125  D(39,41,46,49)       -179.9932         estimate D2E/DX2                !
 ! D126  D(47,41,46,48)       -179.8198         estimate D2E/DX2                !
 ! D127  D(47,41,46,49)          0.2636         estimate D2E/DX2                !
 ! D128  D(39,41,47,50)        178.4428         estimate D2E/DX2                !
 ! D129  D(46,41,47,50)         -1.8257         estimate D2E/DX2                !
 ! D130  D(39,42,48,46)         -0.0206         estimate D2E/DX2                !
 ! D131  D(39,42,48,51)        179.891          estimate D2E/DX2                !
 ! D132  D(41,46,48,42)          0.0575         estimate D2E/DX2                !
 ! D133  D(41,46,48,51)       -179.846          estimate D2E/DX2                !
 ! D134  D(49,46,48,42)        179.975          estimate D2E/DX2                !
 ! D135  D(49,46,48,51)          0.0715         estimate D2E/DX2                !
 ! D136  D(41,47,50,52)         62.0174         estimate D2E/DX2                !
 ! D137  D(41,47,50,53)       -179.1331         estimate D2E/DX2                !
 ! D138  D(41,47,50,54)        -60.2844         estimate D2E/DX2                !
 --------------------------------------------------------------------------------
 Trust Radius=3.00D-01 FncErr=1.00D-07 GrdErr=1.00D-06 EigMax=2.50D+02 EigMin=1.00D-04
 Number of steps in this run=    307 maximum allowed number of steps=    324.
 GradGradGradGradGradGradGradGradGradGradGradGradGradGradGradGradGradGrad

 Stoichiometry    C26H18N2O6S2
 Framework group  C1[X(C26H18N2O6S2)]
 Deg. of freedom   156
 Full point group                 C1      NOp   1
 Largest Abelian subgroup         C1      NOp   1
 Largest concise Abelian subgroup C1      NOp   1
                         Standard orientation:                         
 ---------------------------------------------------------------------
 Center     Atomic      Atomic             Coordinates (Angstroms)
 Number     Number       Type             X           Y           Z
 ---------------------------------------------------------------------
      1          6           0       -2.625740   -2.962216    0.559285
      2          6           0       -2.288959   -1.527209    0.365780
      3          6           0       -3.297198   -0.589483    0.041624
      4          6           0       -4.639469   -1.004870   -0.101472
      5          6           0       -5.010662   -2.433615    0.079679
      6          6           0       -0.983343   -1.121705    0.480987
      7          6           0       -2.931238    0.776916   -0.125150
      8          6           0       -1.569074    1.195845    0.008689
      9          6           0       -0.562175    0.230661    0.283811
     10          6           0       -1.294541    2.657031   -0.057421
     11          6           0       -3.693602    3.138434   -0.570455
     12          6           0       -3.973565    1.694151   -0.422377
     13          6           0       -5.287717    1.267594   -0.563333
     14          6           0       -5.628551   -0.081268   -0.407147
     15          1           0       -6.651040   -0.423932   -0.511773
     16          1           0       -6.040520    2.013726   -0.792444
     17          1           0       -0.245006   -1.887145    0.689124
     18          7           0       -2.369259    3.520363   -0.347765
     19          7           0       -3.969781   -3.321324    0.401404
     20          8           0       -1.789644   -3.808666    0.843234
     21          8           0       -6.161992   -2.824270   -0.041374
     22          8           0       -4.561272    3.955458   -0.852929
     23          8           0       -0.198565    3.167092    0.137491
     24          6           0       -2.039698    4.948534   -0.413901
     25          1           0       -1.630517    5.279106    0.541952
     26          1           0       -1.284098    5.120649   -1.184707
     27          1           0       -2.954810    5.485136   -0.648744
     28          6           0       -4.289688   -4.740590    0.590854
     29          1           0       -3.708796   -5.345287   -0.108774
     30          1           0       -4.029538   -5.046216    1.605986
     31          1           0       -5.354627   -4.866439    0.414881
     32          6           0        0.882211    0.446252    0.361097
     33          6           0        1.612092    1.582960    0.648116
     34         16           0        1.963650   -0.863501   -0.114145
     35          6           0        3.002393    1.412465    0.497755
     36          1           0        1.154924    2.506468    0.964660
     37          6           0        3.387427    0.129166    0.095186
     38          8           0        3.960756    2.354650    0.704765
     39          6           0        4.719783   -0.365746   -0.101927
     40          6           0        3.547457    3.603686    1.251251
     41          6           0        5.100574   -1.637864   -0.526834
     42         16           0        6.159789    0.610755    0.177033
     43          1           0        4.460106    4.177259    1.412673
     44          1           0        2.897010    4.146106    0.552546
     45          1           0        3.022622    3.465370    2.203578
     46          6           0        6.508959   -1.822270   -0.623890
     47          8           0        4.142265   -2.561946   -0.797987
     48          6           0        7.198515   -0.691972   -0.275075
     49          1           0        6.985671   -2.741255   -0.936241
     50          6           0        4.560470   -3.840490   -1.262046
     51          1           0        8.270658   -0.554139   -0.261048
     52          1           0        5.178800   -4.352910   -0.514694
     53          1           0        3.649011   -4.412013   -1.430278
     54          1           0        5.118052   -3.758736   -2.202480
 ---------------------------------------------------------------------
 Rotational constants (GHZ):           0.1523850           0.0599906           0.0442012
 Standard basis: 6-311+G(d,p) (5D, 7F)
 There are   952 symmetry adapted cartesian basis functions of A   symmetry.
 There are   916 symmetry adapted basis functions of A   symmetry.
   916 basis functions,  1468 primitive gaussians,   952 cartesian basis functions
   134 alpha electrons      134 beta electrons
       nuclear repulsion energy      4090.4078762130 Hartrees.
 NAtoms=   54 NActive=   54 NUniq=   54 SFac= 1.00D+00 NAtFMM=   60 NAOKFM=F Big=F
 Integral buffers will be    131072 words long.
 Raffenetti 2 integral format.
 Two-electron integral symmetry is turned on.
 One-electron integrals computed using PRISM.
 NBasis=   916 RedAO= T EigKep=  1.42D-06  NBF=   916
 NBsUse=   901 1.00D-06 EigRej=  9.02D-07 NBFU=   901
 ExpMin= 4.05D-02 ExpMax= 9.34D+04 ExpMxC= 3.17D+03 IAcc=3 IRadAn=         5 AccDes= 0.00D+00
 Harris functional with IExCor=  402 and IRadAn=       5 diagonalized for initial guess.
 HarFok:  IExCor=  402 AccDes= 0.00D+00 IRadAn=         5 IDoV= 1 UseB2=F ITyADJ=14
 ICtDFT=  3500011 ScaDFX=  1.000000  1.000000  1.000000  1.000000
 FoFCou: FMM=F IPFlag=           0 FMFlag=      100000 FMFlg1=           0
         NFxFlg=           0 DoJE=T BraDBF=F KetDBF=T FulRan=T
         wScrn=  0.000000 ICntrl=       500 IOpCl=  0 I1Cent=   200000004 NGrid=           0
         NMat0=    1 NMatS0=      1 NMatT0=    0 NMatD0=    1 NMtDS0=    0 NMtDT0=    0
 Petite list used in FoFCou.
 Requested convergence on RMS density matrix=1.00D-08 within 128 cycles.
 Requested convergence on MAX density matrix=1.00D-06.
 Requested convergence on             energy=1.00D-06.
 No special actions if energy rises.
 SCF Done:  E(RB3LYP) =  -2359.32719579     A.U. after   17 cycles
            NFock= 17  Conv=0.79D-08     -V/T= 2.0031

 **********************************************************************

            Population analysis using the SCF Density.

 **********************************************************************

 Orbital symmetries:
       Occupied  (A) (A) (A) (A) (A) (A) (A) (A) (A) (A) (A) (A)
                 (A) (A) (A) (A) (A) (A) (A) (A) (A) (A) (A) (A)
                 (A) (A) (A) (A) (A) (A) (A) (A) (A) (A) (A) (A)
                 (A) (A) (A) (A) (A) (A) (A) (A) (A) (A) (A) (A)
                 (A) (A) (A) (A) (A) (A) (A) (A) (A) (A) (A) (A)
                 (A) (A) (A) (A) (A) (A) (A) (A) (A) (A) (A) (A)
                 (A) (A) (A) (A) (A) (A) (A) (A) (A) (A) (A) (A)
                 (A) (A) (A) (A) (A) (A) (A) (A) (A) (A) (A) (A)
                 (A) (A) (A) (A) (A) (A) (A) (A) (A) (A) (A) (A)
                 (A) (A) (A) (A) (A) (A) (A) (A) (A) (A) (A) (A)
                 (A) (A) (A) (A) (A) (A) (A) (A) (A) (A) (A) (A)
                 (A) (A)
       Virtual   (A) (A) (A) (A) (A) (A) (A) (A) (A) (A) (A) (A)
                 (A) (A) (A) (A) (A) (A) (A) (A) (A) (A) (A) (A)
                 (A) (A) (A) (A) (A) (A) (A) (A) (A) (A) (A) (A)
                 (A) (A) (A) (A) (A) (A) (A) (A) (A) (A) (A) (A)
                 (A) (A) (A) (A) (A) (A) (A) (A) (A) (A) (A) (A)
                 (A) (A) (A) (A) (A) (A) (A) (A) (A) (A) (A) (A)
                 (A) (A) (A) (A) (A) (A) (A) (A) (A) (A) (A) (A)
                 (A) (A) (A) (A) (A) (A) (A) (A) (A) (A) (A) (A)
                 (A) (A) (A) (A) (A) (A) (A) (A) (A) (A) (A) (A)
                 (A) (A) (A) (A) (A) (A) (A) (A) (A) (A) (A) (A)
                 (A) (A) (A) (A) (A) (A) (A) (A) (A) (A) (A) (A)
                 (A) (A) (A) (A) (A) (A) (A) (A) (A) (A) (A) (A)
                 (A) (A) (A) (A) (A) (A) (A) (A) (A) (A) (A) (A)
                 (A) (A) (A) (A) (A) (A) (A) (A) (A) (A) (A) (A)
                 (A) (A) (A) (A) (A) (A) (A) (A) (A) (A) (A) (A)
                 (A) (A) (A) (A) (A) (A) (A) (A) (A) (A) (A) (A)
                 (A) (A) (A) (A) (A) (A) (A) (A) (A) (A) (A) (A)
                 (A) (A) (A) (A) (A) (A) (A) (A) (A) (A) (A) (A)
                 (A) (A) (A) (A) (A) (A) (A) (A) (A) (A) (A) (A)
                 (A) (A) (A) (A) (A) (A) (A) (A) (A) (A) (A) (A)
                 (A) (A) (A) (A) (A) (A) (A) (A) (A) (A) (A) (A)
                 (A) (A) (A) (A) (A) (A) (A) (A) (A) (A) (A) (A)
                 (A) (A) (A) (A) (A) (A) (A) (A) (A) (A) (A) (A)
                 (A) (A) (A) (A) (A) (A) (A) (A) (A) (A) (A) (A)
                 (A) (A) (A) (A) (A) (A) (A) (A) (A) (A) (A) (A)
                 (A) (A) (A) (A) (A) (A) (A) (A) (A) (A) (A) (A)
                 (A) (A) (A) (A) (A) (A) (A) (A) (A) (A) (A) (A)
                 (A) (A) (A) (A) (A) (A) (A) (A) (A) (A) (A) (A)
                 (A) (A) (A) (A) (A) (A) (A) (A) (A) (A) (A) (A)
                 (A) (A) (A) (A) (A) (A) (A) (A) (A) (A) (A) (A)
                 (A) (A) (A) (A) (A) (A) (A) (A) (A) (A) (A) (A)
                 (A) (A) (A) (A) (A) (A) (A) (A) (A) (A) (A) (A)
                 (A) (A) (A) (A) (A) (A) (A) (A) (A) (A) (A) (A)
                 (A) (A) (A) (A) (A) (A) (A) (A) (A) (A) (A) (A)
                 (A) (A) (A) (A) (A) (A) (A) (A) (A) (A) (A) (A)
                 (A) (A) (A) (A) (A) (A) (A) (A) (A) (A) (A) (A)
                 (A) (A) (A) (A) (A) (A) (A) (A) (A) (A) (A) (A)
                 (A) (A) (A) (A) (A) (A) (A) (A) (A) (A) (A) (A)
                 (A) (A) (A) (A) (A) (A) (A) (A) (A) (A) (A) (A)
                 (A) (A) (A) (A) (A) (A) (A) (A) (A) (A) (A) (A)
                 (A) (A) (A) (A) (A) (A) (A) (A) (A) (A) (A) (A)
                 (A) (A) (A) (A) (A) (A) (A) (A) (A) (A) (A) (A)
                 (A) (A) (A) (A) (A) (A) (A) (A) (A) (A) (A) (A)
                 (A) (A) (A) (A) (A) (A) (A) (A) (A) (A) (A) (A)
                 (A) (A) (A) (A) (A) (A) (A) (A) (A) (A) (A) (A)
                 (A) (A) (A) (A) (A) (A) (A) (A) (A) (A) (A) (A)
                 (A) (A) (A) (A) (A) (A) (A) (A) (A) (A) (A) (A)
                 (A) (A) (A) (A) (A) (A) (A) (A) (A) (A) (A) (A)
                 (A) (A) (A) (A) (A) (A) (A) (A) (A) (A) (A) (A)
                 (A) (A) (A) (A) (A) (A) (A) (A) (A) (A) (A) (A)
                 (A) (A) (A) (A) (A) (A) (A) (A) (A) (A) (A) (A)
                 (A) (A) (A) (A) (A) (A) (A) (A) (A) (A) (A) (A)
                 (A) (A) (A) (A) (A) (A) (A) (A) (A) (A) (A) (A)
                 (A) (A) (A) (A) (A) (A) (A) (A) (A) (A) (A) (A)
                 (A) (A) (A) (A) (A) (A) (A) (A) (A) (A) (A) (A)
                 (A) (A) (A) (A) (A) (A) (A) (A) (A) (A) (A) (A)
                 (A) (A) (A) (A) (A) (A) (A) (A) (A) (A) (A) (A)
                 (A) (A) (A) (A) (A) (A) (A) (A) (A) (A) (A) (A)
                 (A) (A) (A) (A) (A) (A) (A) (A) (A) (A) (A) (A)
                 (A) (A) (A) (A) (A) (A) (A) (A) (A) (A) (A) (A)
                 (A) (A) (A) (A) (A) (A) (A) (A) (A) (A) (A) (A)
                 (A) (A) (A) (A) (A) (A) (A) (A) (A) (A) (A) (A)
                 (A) (A) (A) (A) (A) (A) (A) (A) (A) (A) (A) (A)
                 (A) (A) (A) (A) (A) (A) (A) (A) (A) (A) (A)
 The electronic state is 1-A.
 Alpha  occ. eigenvalues --  -88.88642 -88.88358 -19.17461 -19.16759 -19.12320
 Alpha  occ. eigenvalues --  -19.12302 -19.11917 -19.11607 -14.38569 -14.38246
 Alpha  occ. eigenvalues --  -10.31008 -10.30971 -10.30837 -10.30260 -10.25168
 Alpha  occ. eigenvalues --  -10.24325 -10.24053 -10.23972 -10.23299 -10.22888
 Alpha  occ. eigenvalues --  -10.22623 -10.22607 -10.22398 -10.22196 -10.22125
 Alpha  occ. eigenvalues --  -10.22058 -10.22014 -10.21808 -10.21405 -10.21350
 Alpha  occ. eigenvalues --  -10.20945 -10.20909 -10.20810 -10.20779 -10.19268
 Alpha  occ. eigenvalues --  -10.17780  -7.97182  -7.96924  -5.93493  -5.93247
 Alpha  occ. eigenvalues --   -5.93104  -5.92856  -5.92750  -5.92460  -1.09003
 Alpha  occ. eigenvalues --   -1.08367  -1.08323  -1.08278  -1.06440  -1.06180
 Alpha  occ. eigenvalues --   -0.96114  -0.95753  -0.92198  -0.90345  -0.88793
 Alpha  occ. eigenvalues --   -0.86442  -0.84072  -0.80378  -0.78288  -0.77748
 Alpha  occ. eigenvalues --   -0.76442  -0.75246  -0.75088  -0.73309  -0.72350
 Alpha  occ. eigenvalues --   -0.71696  -0.70442  -0.68786  -0.67184  -0.65728
 Alpha  occ. eigenvalues --   -0.65524  -0.64656  -0.61164  -0.59830  -0.58522
 Alpha  occ. eigenvalues --   -0.57314  -0.56822  -0.56475  -0.55371  -0.54873
 Alpha  occ. eigenvalues --   -0.53323  -0.51530  -0.50898  -0.50014  -0.49596
 Alpha  occ. eigenvalues --   -0.49530  -0.48896  -0.48576  -0.48521  -0.48255
 Alpha  occ. eigenvalues --   -0.48114  -0.47409  -0.46329  -0.46185  -0.45873
 Alpha  occ. eigenvalues --   -0.45694  -0.45006  -0.44294  -0.44132  -0.43143
 Alpha  occ. eigenvalues --   -0.42811  -0.42482  -0.42305  -0.41799  -0.41684
 Alpha  occ. eigenvalues --   -0.41537  -0.41154  -0.41125  -0.40465  -0.39656
 Alpha  occ. eigenvalues --   -0.39456  -0.39067  -0.38691  -0.37636  -0.37281
 Alpha  occ. eigenvalues --   -0.36423  -0.35937  -0.34455  -0.34104  -0.33578
 Alpha  occ. eigenvalues --   -0.33442  -0.31967  -0.30823  -0.30457  -0.29722
 Alpha  occ. eigenvalues --   -0.29232  -0.28869  -0.28628  -0.27985  -0.27147
 Alpha  occ. eigenvalues --   -0.26110  -0.24873  -0.24458  -0.19583
 Alpha virt. eigenvalues --   -0.12983  -0.07572  -0.06593  -0.04640  -0.03670
 Alpha virt. eigenvalues --   -0.00766  -0.00548  -0.00378   0.00018   0.00411
 Alpha virt. eigenvalues --    0.00817   0.01159   0.01426   0.01528   0.01852
 Alpha virt. eigenvalues --    0.02123   0.02197   0.02550   0.02842   0.03284
 Alpha virt. eigenvalues --    0.03668   0.03681   0.03885   0.04304   0.04371
 Alpha virt. eigenvalues --    0.04814   0.04924   0.05178   0.05578   0.05936
 Alpha virt. eigenvalues --    0.06117   0.06271   0.06493   0.06600   0.07012
 Alpha virt. eigenvalues --    0.07172   0.07466   0.07620   0.07857   0.08249
 Alpha virt. eigenvalues --    0.08453   0.08636   0.08952   0.09258   0.09692
 Alpha virt. eigenvalues --    0.09755   0.09888   0.10117   0.10536   0.10793
 Alpha virt. eigenvalues --    0.10897   0.11442   0.11675   0.11948   0.12042
 Alpha virt. eigenvalues --    0.12453   0.12781   0.12962   0.13217   0.13424
 Alpha virt. eigenvalues --    0.13606   0.13824   0.14044   0.14334   0.14436
 Alpha virt. eigenvalues --    0.14562   0.14814   0.14956   0.15239   0.15430
 Alpha virt. eigenvalues --    0.15570   0.15843   0.15946   0.16193   0.16394
 Alpha virt. eigenvalues --    0.16799   0.17013   0.17236   0.17564   0.17733
 Alpha virt. eigenvalues --    0.17854   0.18064   0.18332   0.18538   0.18657
 Alpha virt. eigenvalues --    0.18924   0.19127   0.19317   0.19558   0.19599
 Alpha virt. eigenvalues --    0.19762   0.19888   0.20144   0.20218   0.20550
 Alpha virt. eigenvalues --    0.20645   0.20911   0.21103   0.21271   0.21345
 Alpha virt. eigenvalues --    0.21729   0.22094   0.22207   0.22263   0.22662
 Alpha virt. eigenvalues --    0.22930   0.23036   0.23230   0.23340   0.23529
 Alpha virt. eigenvalues --    0.23670   0.23863   0.24015   0.24095   0.24399
 Alpha virt. eigenvalues --    0.24555   0.24818   0.24990   0.25511   0.25548
 Alpha virt. eigenvalues --    0.25688   0.25925   0.26224   0.26365   0.26569
 Alpha virt. eigenvalues --    0.26642   0.26854   0.27035   0.27190   0.27297
 Alpha virt. eigenvalues --    0.27583   0.27610   0.27952   0.28526   0.28656
 Alpha virt. eigenvalues --    0.28750   0.28810   0.29022   0.29253   0.29369
 Alpha virt. eigenvalues --    0.29802   0.29948   0.30060   0.30315   0.30626
 Alpha virt. eigenvalues --    0.31376   0.31614   0.31793   0.32185   0.32387
 Alpha virt. eigenvalues --    0.32576   0.32813   0.32964   0.33143   0.33526
 Alpha virt. eigenvalues --    0.34017   0.34080   0.34376   0.34531   0.34908
 Alpha virt. eigenvalues --    0.35083   0.35160   0.35567   0.36058   0.36273
 Alpha virt. eigenvalues --    0.36885   0.37165   0.37364   0.37634   0.38025
 Alpha virt. eigenvalues --    0.38205   0.38418   0.38878   0.39132   0.39325
 Alpha virt. eigenvalues --    0.39868   0.40430   0.40996   0.41360   0.42093
 Alpha virt. eigenvalues --    0.42278   0.42514   0.42824   0.43112   0.43594
 Alpha virt. eigenvalues --    0.44181   0.44402   0.44518   0.45061   0.45426
 Alpha virt. eigenvalues --    0.45538   0.45754   0.45900   0.46434   0.46883
 Alpha virt. eigenvalues --    0.47340   0.47529   0.48145   0.48776   0.49402
 Alpha virt. eigenvalues --    0.49712   0.50133   0.50568   0.50823   0.51002
 Alpha virt. eigenvalues --    0.51659   0.52913   0.53329   0.53489   0.53988
 Alpha virt. eigenvalues --    0.54449   0.54742   0.55089   0.55308   0.55945
 Alpha virt. eigenvalues --    0.56086   0.56428   0.56746   0.57062   0.57212
 Alpha virt. eigenvalues --    0.57431   0.58383   0.58537   0.58767   0.59352
 Alpha virt. eigenvalues --    0.59576   0.60180   0.60429   0.60749   0.60802
 Alpha virt. eigenvalues --    0.61483   0.61821   0.62318   0.62883   0.63504
 Alpha virt. eigenvalues --    0.63725   0.64252   0.64458   0.64823   0.64877
 Alpha virt. eigenvalues --    0.65275   0.65495   0.65670   0.65988   0.66403
 Alpha virt. eigenvalues --    0.66629   0.67214   0.67285   0.68010   0.68261
 Alpha virt. eigenvalues --    0.68643   0.69222   0.69705   0.70078   0.70547
 Alpha virt. eigenvalues --    0.70735   0.71375   0.71826   0.72285   0.72508
 Alpha virt. eigenvalues --    0.72887   0.73248   0.73381   0.73998   0.74323
 Alpha virt. eigenvalues --    0.74679   0.74753   0.75074   0.75378   0.75728
 Alpha virt. eigenvalues --    0.76062   0.76495   0.76910   0.77569   0.77849
 Alpha virt. eigenvalues --    0.78273   0.78436   0.78666   0.79200   0.79746
 Alpha virt. eigenvalues --    0.80306   0.80967   0.81824   0.82190   0.82711
 Alpha virt. eigenvalues --    0.83182   0.83792   0.84246   0.84657   0.85857
 Alpha virt. eigenvalues --    0.86560   0.87278   0.87571   0.88360   0.88869
 Alpha virt. eigenvalues --    0.89114   0.89344   0.90186   0.90777   0.91486
 Alpha virt. eigenvalues --    0.91639   0.92221   0.92747   0.93168   0.93366
 Alpha virt. eigenvalues --    0.93777   0.94152   0.94507   0.94826   0.95259
 Alpha virt. eigenvalues --    0.95870   0.96140   0.96636   0.97039   0.97518
 Alpha virt. eigenvalues --    0.97894   0.98273   0.98850   0.98945   1.00008
 Alpha virt. eigenvalues --    1.00588   1.01073   1.01667   1.01772   1.02134
 Alpha virt. eigenvalues --    1.02902   1.03112   1.03488   1.03825   1.04564
 Alpha virt. eigenvalues --    1.05164   1.05349   1.05661   1.05786   1.06334
 Alpha virt. eigenvalues --    1.06702   1.07025   1.07546   1.07992   1.08314
 Alpha virt. eigenvalues --    1.08740   1.09394   1.09925   1.10517   1.10764
 Alpha virt. eigenvalues --    1.10984   1.12149   1.13360   1.14166   1.14951
 Alpha virt. eigenvalues --    1.15258   1.15655   1.16532   1.17375   1.17658
 Alpha virt. eigenvalues --    1.18444   1.18948   1.19355   1.20777   1.21342
 Alpha virt. eigenvalues --    1.21865   1.23045   1.23352   1.24640   1.24885
 Alpha virt. eigenvalues --    1.25235   1.26046   1.26340   1.27029   1.27868
 Alpha virt. eigenvalues --    1.28581   1.29628   1.30180   1.30415   1.31901
 Alpha virt. eigenvalues --    1.32090   1.32325   1.33340   1.33678   1.34898
 Alpha virt. eigenvalues --    1.35799   1.35888   1.37007   1.37792   1.40185
 Alpha virt. eigenvalues --    1.40792   1.41483   1.41994   1.42250   1.42721
 Alpha virt. eigenvalues --    1.42825   1.43368   1.43783   1.44025   1.44570
 Alpha virt. eigenvalues --    1.45020   1.45136   1.45621   1.45789   1.46455
 Alpha virt. eigenvalues --    1.47039   1.47111   1.47785   1.48531   1.49037
 Alpha virt. eigenvalues --    1.49393   1.51081   1.51421   1.52187   1.53054
 Alpha virt. eigenvalues --    1.53473   1.53817   1.54550   1.54969   1.55286
 Alpha virt. eigenvalues --    1.55444   1.55644   1.56114   1.56445   1.57223
 Alpha virt. eigenvalues --    1.57622   1.58618   1.60085   1.61025   1.62111
 Alpha virt. eigenvalues --    1.62323   1.62636   1.63266   1.63729   1.64016
 Alpha virt. eigenvalues --    1.65343   1.66146   1.66445   1.66699   1.67487
 Alpha virt. eigenvalues --    1.68120   1.68601   1.68973   1.69559   1.69945
 Alpha virt. eigenvalues --    1.70280   1.70762   1.70967   1.71319   1.71907
 Alpha virt. eigenvalues --    1.73325   1.74305   1.74588   1.75260   1.75702
 Alpha virt. eigenvalues --    1.76849   1.77029   1.77623   1.78222   1.78733
 Alpha virt. eigenvalues --    1.79030   1.79320   1.80236   1.81122   1.82172
 Alpha virt. eigenvalues --    1.83625   1.84508   1.85310   1.85914   1.86388
 Alpha virt. eigenvalues --    1.86752   1.87141   1.87381   1.87878   1.88669
 Alpha virt. eigenvalues --    1.89344   1.90069   1.90310   1.90979   1.91942
 Alpha virt. eigenvalues --    1.92801   1.93183   1.93775   1.94600   1.95120
 Alpha virt. eigenvalues --    1.95871   1.96448   1.97530   1.97797   1.99261
 Alpha virt. eigenvalues --    2.00035   2.00454   2.01037   2.01821   2.02473
 Alpha virt. eigenvalues --    2.02784   2.03612   2.04077   2.04685   2.05539
 Alpha virt. eigenvalues --    2.06159   2.06696   2.07113   2.07581   2.07913
 Alpha virt. eigenvalues --    2.08471   2.09329   2.10828   2.11452   2.11751
 Alpha virt. eigenvalues --    2.12600   2.13600   2.14386   2.14773   2.15034
 Alpha virt. eigenvalues --    2.16114   2.16295   2.17742   2.18874   2.19057
 Alpha virt. eigenvalues --    2.19986   2.20151   2.21239   2.22442   2.22683
 Alpha virt. eigenvalues --    2.23954   2.26142   2.26402   2.27868   2.29886
 Alpha virt. eigenvalues --    2.31527   2.32272   2.32997   2.35045   2.37241
 Alpha virt. eigenvalues --    2.38362   2.39347   2.39800   2.41449   2.42566
 Alpha virt. eigenvalues --    2.43073   2.43964   2.44232   2.44912   2.45892
 Alpha virt. eigenvalues --    2.46754   2.47447   2.48443   2.48922   2.49281
 Alpha virt. eigenvalues --    2.50033   2.51433   2.52295   2.52500   2.52668
 Alpha virt. eigenvalues --    2.52976   2.53207   2.53899   2.54439   2.56386
 Alpha virt. eigenvalues --    2.57094   2.58199   2.58886   2.59124   2.60110
 Alpha virt. eigenvalues --    2.62564   2.63093   2.63592   2.65212   2.66716
 Alpha virt. eigenvalues --    2.67245   2.67381   2.67695   2.68358   2.68822
 Alpha virt. eigenvalues --    2.69240   2.69736   2.70648   2.71044   2.71354
 Alpha virt. eigenvalues --    2.72833   2.73035   2.73397   2.74083   2.75717
 Alpha virt. eigenvalues --    2.76284   2.76762   2.77233   2.78378   2.80968
 Alpha virt. eigenvalues --    2.82023   2.82686   2.82852   2.83376   2.84159
 Alpha virt. eigenvalues --    2.84573   2.84704   2.85975   2.86536   2.87165
 Alpha virt. eigenvalues --    2.88352   2.88482   2.89195   2.89844   2.90158
 Alpha virt. eigenvalues --    2.91187   2.92557   2.93018   2.93722   2.94104
 Alpha virt. eigenvalues --    2.95330   2.95537   2.96152   2.98082   2.99702
 Alpha virt. eigenvalues --    3.02277   3.03047   3.04068   3.04365   3.04853
 Alpha virt. eigenvalues --    3.06329   3.07996   3.08186   3.09186   3.11443
 Alpha virt. eigenvalues --    3.12792   3.13030   3.14003   3.15001   3.15775
 Alpha virt. eigenvalues --    3.16745   3.17746   3.19020   3.20094   3.21720
 Alpha virt. eigenvalues --    3.23026   3.23588   3.23860   3.24892   3.26679
 Alpha virt. eigenvalues --    3.28592   3.29130   3.30504   3.31801   3.33982
 Alpha virt. eigenvalues --    3.34099   3.34584   3.34933   3.36154   3.37391
 Alpha virt. eigenvalues --    3.38311   3.40079   3.41139   3.42375   3.43815
 Alpha virt. eigenvalues --    3.44421   3.45688   3.45959   3.48835   3.49041
 Alpha virt. eigenvalues --    3.51058   3.53073   3.55402   3.57854   3.59809
 Alpha virt. eigenvalues --    3.60372   3.62151   3.65271   3.66206   3.66754
 Alpha virt. eigenvalues --    3.69868   3.70336   3.72188   3.72545   3.75431
 Alpha virt. eigenvalues --    3.75766   3.76769   3.80948   3.82463   3.84506
 Alpha virt. eigenvalues --    3.85470   3.86433   3.90490   3.91007   3.92911
 Alpha virt. eigenvalues --    3.93313   3.94387   3.96922   4.01695   4.02528
 Alpha virt. eigenvalues --    4.04705   4.08191   4.10091   4.12797   4.13921
 Alpha virt. eigenvalues --    4.20231   4.23708   4.25390   4.27910   4.35472
 Alpha virt. eigenvalues --    4.40318   4.40908   4.52884   4.70781   4.84257
 Alpha virt. eigenvalues --    4.85523   4.87573   4.90510   5.01069   5.02829
 Alpha virt. eigenvalues --    5.03965   5.05534   5.05741   5.07865   5.11402
 Alpha virt. eigenvalues --    5.13432   5.25134   5.27119   5.29359   5.36558
 Alpha virt. eigenvalues --    5.41994   5.43403   5.75635   5.76698   5.80087
 Alpha virt. eigenvalues --    5.80536   5.82105   5.85049   8.02065   8.03871
 Alpha virt. eigenvalues --   17.28744  17.31587  17.49182  17.52096  17.57072
 Alpha virt. eigenvalues --   17.62612  23.48749  23.56668  23.71472  23.78581
 Alpha virt. eigenvalues --   23.81968  23.82426  23.83895  23.86657  23.86726
 Alpha virt. eigenvalues --   23.88159  23.88633  23.90033  23.91137  23.92970
 Alpha virt. eigenvalues --   23.94612  23.95281  23.96064  23.98011  24.00546
 Alpha virt. eigenvalues --   24.01219  24.02061  24.05067  24.12960  24.13287
 Alpha virt. eigenvalues --   24.14002  24.14128  35.56218  35.59267  49.95744
 Alpha virt. eigenvalues --   49.97829  50.02073  50.04053  50.05792  50.07480
 Alpha virt. eigenvalues --  189.19274 189.21633
          Condensed to atoms (all electrons):
 Mulliken charges:
               1
     1  C    0.324582
     2  C   -0.074291
     3  C    0.140909
     4  C    0.260464
     5  C    0.223860
     6  C   -0.324527
     7  C    0.202355
     8  C    0.196091
     9  C    0.544839
    10  C   -0.316145
    11  C    0.161887
    12  C    0.221183
    13  C   -0.463458
    14  C   -0.617539
    15  H    0.159295
    16  H    0.161973
    17  H    0.170911
    18  N   -0.164924
    19  N   -0.130567
    20  O   -0.279840
    21  O   -0.273744
    22  O   -0.277217
    23  O   -0.226845
    24  C   -0.203957
    25  H    0.171089
    26  H    0.173629
    27  H    0.185977
    28  C   -0.198534
    29  H    0.173683
    30  H    0.174341
    31  H    0.182269
    32  C   -0.320744
    33  C   -0.347119
    34  S   -0.693066
    35  C   -0.095419
    36  H    0.161596
    37  C    0.745684
    38  O   -0.128368
    39  C    0.860732
    40  C   -0.236018
    41  C    0.037195
    42  S   -0.254273
    43  H    0.163167
    44  H    0.160614
    45  H    0.148513
    46  C   -0.600819
    47  O   -0.123825
    48  C   -0.270576
    49  H    0.133227
    50  C   -0.241644
    51  H    0.162588
    52  H    0.145709
    53  H    0.169799
    54  H    0.145300
 Sum of Mulliken charges =  -0.00000
 Mulliken charges with hydrogens summed into heavy atoms:
               1
     1  C    0.324582
     2  C   -0.074291
     3  C    0.140909
     4  C    0.260464
     5  C    0.223860
     6  C   -0.153616
     7  C    0.202355
     8  C    0.196091
     9  C    0.544839
    10  C   -0.316145
    11  C    0.161887
    12  C    0.221183
    13  C   -0.301486
    14  C   -0.458245
    18  N   -0.164924
    19  N   -0.130567
    20  O   -0.279840
    21  O   -0.273744
    22  O   -0.277217
    23  O   -0.226845
    24  C    0.326739
    28  C    0.331759
    32  C   -0.320744
    33  C   -0.185524
    34  S   -0.693066
    35  C   -0.095419
    37  C    0.745684
    38  O   -0.128368
    39  C    0.860732
    40  C    0.236275
    41  C    0.037195
    42  S   -0.254273
    46  C   -0.467592
    47  O   -0.123825
    48  C   -0.107989
    50  C    0.219163
 Electronic spatial extent (au):  <R**2>=          22380.2440
 Charge=             -0.0000 electrons
 Dipole moment (field-independent basis, Debye):
    X=              4.8734    Y=             -0.6422    Z=              0.0046  Tot=              4.9155
 Quadrupole moment (field-independent basis, Debye-Ang):
   XX=           -217.3138   YY=           -209.9944   ZZ=           -221.4338
   XY=             -5.0082   XZ=             -6.4292   YZ=             11.9528
 Traceless Quadrupole moment (field-independent basis, Debye-Ang):
   XX=             -1.0665   YY=              6.2529   ZZ=             -5.1864
   XY=             -5.0082   XZ=             -6.4292   YZ=             11.9528
 Octapole moment (field-independent basis, Debye-Ang**2):
  XXX=            374.9608  YYY=            -23.0620  ZZZ=              2.6120  XYY=            136.0474
  XXY=            -82.0106  XXZ=             -4.5494  XZZ=             -0.1317  YZZ=             -0.9906
  YYZ=             -0.1149  XYZ=             31.1785
 Hexadecapole moment (field-independent basis, Debye-Ang**3):
 XXXX=         -20777.4435 YYYY=          -7798.5189 ZZZZ=           -656.6225 XXXY=           -576.1265
 XXXZ=           -233.0354 YYYX=            239.1014 YYYZ=            192.9796 ZZZX=             -8.8283
 ZZZY=             13.8952 XXYY=          -4921.1394 XXZZ=          -3750.7821 YYZZ=          -1448.5617
 XXYZ=            214.3473 YYXZ=           -142.0032 ZZXY=             35.6706
 N-N= 4.090407876213D+03 E-N=-1.372077162317D+04  KE= 2.351955863642D+03
 Calling FoFJK, ICntrl=      2127 FMM=F ISym2X=0 I1Cent= 0 IOpClX= 0 NMat=1 NMatS=1 NMatT=0.
 ***** Axes restored to original set *****
 -------------------------------------------------------------------
 Center     Atomic                   Forces (Hartrees/Bohr)
 Number     Number              X              Y              Z
 -------------------------------------------------------------------
      1        6           0.004402047   -0.005720974    0.000227624
      2        6           0.003669064    0.000798612   -0.001209995
      3        6          -0.001745077    0.000183409    0.000120270
      4        6           0.001704006    0.001533907    0.000546853
      5        6          -0.005830567   -0.001841863   -0.000129998
      6        6          -0.003585928   -0.000130668   -0.007075999
      7        6          -0.000782081   -0.000078272    0.001214467
      8        6           0.000280329    0.002498513    0.008850741
      9        6           0.006056630   -0.001616040   -0.000117829
     10        6          -0.005783892   -0.001665734   -0.002272927
     11        6          -0.005212861    0.003635970   -0.000190912
     12        6           0.000893227    0.000255796    0.000315441
     13        6          -0.000872986   -0.001825618   -0.000474763
     14        6           0.000623186    0.001512244    0.000224519
     15        1           0.000631521    0.000765200    0.000015836
     16        1           0.000587695   -0.001120774   -0.000307114
     17        1          -0.000358162    0.000418157    0.002829297
     18        7           0.001713592   -0.001562877   -0.002072349
     19        7           0.000916807    0.001338641   -0.000085909
     20        8          -0.006150545    0.006346415    0.000679309
     21        8           0.007445958    0.002131044    0.000168230
     22        8           0.006171930   -0.005220262   -0.000363794
     23        8          -0.025032196    0.013176500   -0.000677154
     24        6           0.000866071    0.002398282   -0.000912512
     25        1          -0.000733724    0.000061929   -0.000213008
     26        1          -0.001343254   -0.000531657    0.001142877
     27        1           0.000983887    0.000003963    0.000120157
     28        6          -0.000462942   -0.001957231   -0.000668922
     29        1          -0.000685791    0.000382769    0.000992133
     30        1          -0.000454344    0.000395267   -0.000505574
     31        1           0.000941536   -0.000361122   -0.000023167
     32        6          -0.005583629    0.005356883   -0.002276619
     33        6           0.019432023   -0.002303956    0.005033686
     34       16           0.000027628   -0.002069016    0.000026865
     35        6          -0.001069028   -0.006522390   -0.001382195
     36        1           0.009812889   -0.009976368   -0.003524099
     37        6           0.000214640    0.001493942    0.002011988
     38        8          -0.001022772   -0.001976822    0.001054393
     39        6           0.000351545   -0.000768298   -0.002539219
     40        6          -0.001483294    0.003689522    0.000717015
     41        6           0.000444955    0.000941279    0.001177833
     42       16          -0.000047511   -0.000538421   -0.001166049
     43        1          -0.000521465   -0.000764061    0.000019224
     44        1           0.001264294   -0.001923598    0.000631753
     45        1           0.001041436    0.000306465   -0.000959286
     46        6          -0.000923699    0.000317769    0.000353210
     47        8           0.001811745    0.001409005    0.000162988
     48        6          -0.000855450   -0.000609914   -0.000034508
     49        1          -0.000121631    0.000746229    0.000562540
     50        6           0.001177800   -0.002250772   -0.001521439
     51        1          -0.001228331   -0.000075654    0.000399521
     52        1          -0.001169900    0.000953532   -0.000031549
     53        1           0.000251463    0.000234068    0.000236439
     54        1          -0.000656843    0.000127051    0.000901679
 -------------------------------------------------------------------
 Cartesian Forces:  Max     0.025032196 RMS     0.003721218

 GradGradGradGradGradGradGradGradGradGradGradGradGradGradGradGradGradGrad
 Berny optimization.
 FormGI is forming the generalized inverse of G from B-inverse, IUseBI=4.
 Internal  Forces:  Max     0.079736374 RMS     0.009555957
 Search for a local minimum.
 Step number   1 out of a maximum of  307
 All quantities printed in internal units (Hartrees-Bohrs-Radians)
 Mixed Optimization -- RFO/linear search
 Second derivative matrix not updated -- first step.
 ITU=  0
     Eigenvalues ---    0.00803   0.00803   0.01176   0.01203   0.01245
     Eigenvalues ---    0.01292   0.01308   0.01311   0.01366   0.01388
     Eigenvalues ---    0.01419   0.01429   0.01458   0.01496   0.01516
     Eigenvalues ---    0.01568   0.01570   0.01577   0.01627   0.01652
     Eigenvalues ---    0.01693   0.01711   0.01712   0.01719   0.01754
     Eigenvalues ---    0.01783   0.01803   0.01847   0.01963   0.02040
     Eigenvalues ---    0.02045   0.02068   0.02073   0.02079   0.02135
     Eigenvalues ---    0.02149   0.02163   0.02180   0.02197   0.02224
     Eigenvalues ---    0.02239   0.02246   0.07556   0.07572   0.07690
     Eigenvalues ---    0.07700   0.10062   0.10076   0.10635   0.10637
     Eigenvalues ---    0.15983   0.15999   0.15999   0.16000   0.16000
     Eigenvalues ---    0.16000   0.16000   0.16000   0.16000   0.16000
     Eigenvalues ---    0.16000   0.16000   0.16000   0.16000   0.16000
     Eigenvalues ---    0.16000   0.16000   0.16000   0.22530   0.22583
     Eigenvalues ---    0.23518   0.23582   0.24516   0.24747   0.24866
     Eigenvalues ---    0.24931   0.24952   0.24985   0.24987   0.24988
     Eigenvalues ---    0.24992   0.24994   0.24997   0.24997   0.24998
     Eigenvalues ---    0.24998   0.25000   0.25000   0.25000   0.25000
     Eigenvalues ---    0.25000   0.25000   0.25000   0.25000   0.25000
     Eigenvalues ---    0.25000   0.28835   0.28853   0.30111   0.32135
     Eigenvalues ---    0.32582   0.32774   0.33111   0.33787   0.33910
     Eigenvalues ---    0.34014   0.34088   0.34113   0.34354   0.34466
     Eigenvalues ---    0.34577   0.34629   0.34693   0.34819   0.34940
     Eigenvalues ---    0.35198   0.35218   0.35468   0.35553   0.35582
     Eigenvalues ---    0.35830   0.35867   0.36078   0.36083   0.36238
     Eigenvalues ---    0.36396   0.36662   0.39352   0.40194   0.40292
     Eigenvalues ---    0.40651   0.40722   0.41524   0.41772   0.42012
     Eigenvalues ---    0.42300   0.42719   0.43455   0.43860   0.44092
     Eigenvalues ---    0.44527   0.44594   0.45014   0.45406   0.46251
     Eigenvalues ---    0.47305   0.47638   0.49310   0.49511   0.52990
     Eigenvalues ---    0.53230   0.93281   0.93432   0.93989   0.94585
     Eigenvalues --- 1000.000001000.000001000.000001000.000001000.00000
     Eigenvalues --- 1000.000001000.000001000.000001000.000001000.00000
     Eigenvalues --- 1000.000001000.000001000.000001000.000001000.00000
     Eigenvalues --- 1000.000001000.000001000.000001000.000001000.00000
     Eigenvalues --- 1000.000001000.000001000.000001000.000001000.00000
     Eigenvalues --- 1000.000001000.000001000.000001000.000001000.00000
     Eigenvalues --- 1000.000001000.000001000.000001000.000001000.00000
     Eigenvalues --- 1000.000001000.000001000.000001000.000001000.00000
     Eigenvalues --- 1000.000001000.000001000.000001000.000001000.00000
     Eigenvalues --- 1000.000001000.000001000.000001000.000001000.00000
     Eigenvalues --- 1000.000001000.000001000.000001000.000001000.00000
     Eigenvalues --- 1000.000001000.000001000.000001000.000001000.00000
     Eigenvalues --- 1000.000001000.000001000.000001000.000001000.00000
     Eigenvalues --- 1000.000001000.000001000.000001000.000001000.00000
     Eigenvalues --- 1000.000001000.000001000.000001000.000001000.00000
     Eigenvalues --- 1000.000001000.000001000.000001000.000001000.00000
     Eigenvalues --- 1000.000001000.000001000.000001000.000001000.00000
     Eigenvalues --- 1000.000001000.000001000.000001000.000001000.00000
     Eigenvalues --- 1000.000001000.000001000.000001000.000001000.00000
     Eigenvalues --- 1000.000001000.000001000.000001000.000001000.00000
     Eigenvalues --- 1000.000001000.000001000.000001000.000001000.00000
     Eigenvalues --- 1000.000001000.000001000.000001000.000001000.00000
     Eigenvalues --- 1000.000001000.000001000.000001000.000001000.00000
     Eigenvalues --- 1000.000001000.000001000.000001000.000001000.00000
     Eigenvalues --- 1000.000001000.000001000.000001000.000001000.00000
     Eigenvalues --- 1000.000001000.000001000.000001000.000001000.00000
     Eigenvalues --- 1000.000001000.000001000.000001000.000001000.00000
     Eigenvalues --- 1000.000001000.000001000.000001000.000001000.00000
     Eigenvalues --- 1000.000001000.00000
 RFO step:  Lambda=-7.80039543D-02 EMin= 8.02933640D-03
 Linear search not attempted -- first point.
 Maximum step size (   0.300) exceeded in Quadratic search.
    -- Step size scaled by   0.637
 Iteration  1 RMS(Cart)=  0.30406204 RMS(Int)=  0.00747346
 Iteration  2 RMS(Cart)=  0.09310675 RMS(Int)=  0.00061724
 Iteration  3 RMS(Cart)=  0.00204406 RMS(Int)=  0.00028617
 Iteration  4 RMS(Cart)=  0.00000107 RMS(Int)=  0.00028617
 Iteration  5 RMS(Cart)=  0.00000000 RMS(Int)=  0.00028617
 Iteration  1 RMS(Cart)=  0.00000894 RMS(Int)=  0.00000160
 Iteration  2 RMS(Cart)=  0.00000508 RMS(Int)=  0.00000179
 Iteration  3 RMS(Cart)=  0.00000289 RMS(Int)=  0.00000203
 Iteration  4 RMS(Cart)=  0.00000164 RMS(Int)=  0.00000219
 Iteration  5 RMS(Cart)=  0.00000093 RMS(Int)=  0.00000229
 Variable       Old X    -DE/DX   Delta X   Delta X   Delta X     New X
                                 (Linear)    (Quad)   (Total)
    R1        2.80935  -0.00017   0.00000  -0.00071  -0.00071   2.80864
    R2        2.64584  -0.00405   0.00000  -0.00499  -0.00498   2.64086
    R3        2.31147  -0.00886   0.00000  -0.00555  -0.00555   2.30592
    R4        2.67311  -0.00922   0.00000  -0.01359  -0.01368   2.65943
    R5        2.59267  -0.01395   0.00000  -0.01765  -0.01772   2.57496
    R6        2.66894   0.00080   0.00000   0.00113   0.00113   2.67007
    R7        2.69164   0.00332   0.00000   0.00627   0.00627   2.69791
    R8        2.81049  -0.00056   0.00000  -0.00040  -0.00041   2.81008
    R9        2.62173  -0.00602   0.00000  -0.00791  -0.00796   2.61377
   R10        2.65570  -0.00382   0.00000  -0.00446  -0.00447   2.65123
   R11        2.30889  -0.00774   0.00000  -0.00482  -0.00482   2.30407
   R12        2.70248   0.00016   0.00000  -0.00087  -0.00085   2.70162
   R13        2.04786  -0.00095   0.00000  -0.00139  -0.00139   2.04647
   R14        2.70495   0.02075   0.00000   0.03222   0.03242   2.73737
   R15        2.68322   0.00543   0.00000   0.00906   0.00909   2.69231
   R16        2.68655   0.04153   0.00000   0.05487   0.05501   2.74156
   R17        2.81233   0.01482   0.00000   0.02382   0.02395   2.83628
   R18        2.76359   0.01836   0.00000   0.02632   0.02632   2.78992
   R19        2.66221  -0.00477   0.00000  -0.00697  -0.00696   2.65524
   R20        2.31391  -0.01772   0.00000  -0.01116  -0.01116   2.30275
   R21        2.79415  -0.01108   0.00000  -0.01765  -0.01781   2.77634
   R22        2.63842  -0.01259   0.00000  -0.01668  -0.01679   2.62162
   R23        2.31456  -0.00807   0.00000  -0.00509  -0.00509   2.30947
   R24        2.62448  -0.00155   0.00000  -0.00176  -0.00176   2.62272
   R25        2.64561  -0.00929   0.00000  -0.01209  -0.01214   2.63347
   R26        2.04921  -0.00123   0.00000  -0.00181  -0.00181   2.04740
   R27        2.04741  -0.00084   0.00000  -0.00124  -0.00124   2.04617
   R28        2.77259   0.00182   0.00000   0.00265   0.00265   2.77524
   R29        2.77252   0.00165   0.00000   0.00240   0.00240   2.77492
   R30        2.06176  -0.00056   0.00000  -0.00084  -0.00084   2.06092
   R31        2.06551  -0.00179   0.00000  -0.00271  -0.00271   2.06281
   R32        2.05322  -0.00084   0.00000  -0.00124  -0.00124   2.05198
   R33        2.06368  -0.00125   0.00000  -0.00188  -0.00188   2.06180
   R34        2.06281  -0.00077   0.00000  -0.00115  -0.00115   2.06166
   R35        2.05355  -0.00090   0.00000  -0.00133  -0.00133   2.05222
   R36        2.60975   0.00896   0.00000   0.01069   0.01073   2.62048
   R37        3.33301   0.00470   0.00000   0.00894   0.00898   3.34198
   R38        2.66218  -0.00110   0.00000  -0.00143  -0.00143   2.66074
   R39        2.03711  -0.01278   0.00000  -0.01850  -0.01850   2.01861
   R40        3.30370  -0.00534   0.00000  -0.00951  -0.00954   3.29416
   R41        2.64371  -0.00727   0.00000  -0.00937  -0.00941   2.63429
   R42        2.56963  -0.00062   0.00000  -0.00065  -0.00065   2.56898
   R43        2.71159  -0.00040   0.00000  -0.00053  -0.00053   2.71106
   R44        2.69215   0.00114   0.00000   0.00147   0.00147   2.69362
   R45        2.63468  -0.00177   0.00000  -0.00209  -0.00209   2.63260
   R46        3.32988  -0.00102   0.00000  -0.00166  -0.00166   3.32823
   R47        2.05969  -0.00082   0.00000  -0.00123  -0.00123   2.05846
   R48        2.07482  -0.00231   0.00000  -0.00353  -0.00353   2.07129
   R49        2.07139  -0.00128   0.00000  -0.00195  -0.00195   2.06944
   R50        2.69044  -0.00201   0.00000  -0.00266  -0.00266   2.68778
   R51        2.56739  -0.00126   0.00000  -0.00132  -0.00132   2.56607
   R52        3.26242  -0.00147   0.00000  -0.00225  -0.00225   3.26017
   R53        2.58743  -0.00165   0.00000  -0.00182  -0.00182   2.58561
   R54        2.04348  -0.00091   0.00000  -0.00133  -0.00133   2.04215
   R55        2.68907   0.00087   0.00000   0.00111   0.00111   2.69019
   R56        2.04290  -0.00126   0.00000  -0.00184  -0.00184   2.04106
   R57        2.07306  -0.00139   0.00000  -0.00212  -0.00212   2.07094
   R58        2.05772  -0.00037   0.00000  -0.00055  -0.00055   2.05717
   R59        2.07181  -0.00097   0.00000  -0.00148  -0.00148   2.07033
    A1        2.03797   0.00102   0.00000   0.00070   0.00070   2.03866
    A2        2.14521  -0.00074   0.00000  -0.00079  -0.00079   2.14442
    A3        2.10001  -0.00028   0.00000   0.00009   0.00009   2.10010
    A4        2.10395   0.00439   0.00000   0.01050   0.01054   2.11449
    A5        2.08282  -0.00510   0.00000  -0.00604  -0.00600   2.07683
    A6        2.09624   0.00071   0.00000  -0.00443  -0.00452   2.09172
    A7        2.10093  -0.00579   0.00000  -0.01276  -0.01277   2.08816
    A8        2.07104   0.00047   0.00000  -0.00118  -0.00126   2.06978
    A9        2.11118   0.00533   0.00000   0.01396   0.01405   2.12523
   A10        2.10296   0.00296   0.00000   0.00647   0.00647   2.10944
   A11        2.09911   0.00218   0.00000   0.00353   0.00350   2.10261
   A12        2.08110  -0.00514   0.00000  -0.01000  -0.00996   2.07114
   A13        2.03739   0.00042   0.00000   0.00132   0.00129   2.03868
   A14        2.12972   0.00022   0.00000   0.00017   0.00018   2.12991
   A15        2.11607  -0.00064   0.00000  -0.00149  -0.00147   2.11460
   A16        2.15098   0.01763   0.00000   0.03239   0.03238   2.18336
   A17        2.04399  -0.00854   0.00000  -0.01526  -0.01534   2.02864
   A18        2.08722  -0.00895   0.00000  -0.01647  -0.01651   2.07071
   A19        2.11101   0.00789   0.00000   0.01608   0.01601   2.12702
   A20        2.04385  -0.01391   0.00000  -0.02908  -0.02915   2.01469
   A21        2.12832   0.00603   0.00000   0.01303   0.01315   2.14147
   A22        2.08678  -0.01642   0.00000  -0.02654  -0.02659   2.06019
   A23        2.04738  -0.02509   0.00000  -0.04601  -0.04600   2.00138
   A24        2.14662   0.04181   0.00000   0.07465   0.07422   2.22084
   A25        2.04892  -0.01021   0.00000  -0.01656  -0.01630   2.03262
   A26        2.00754  -0.06956   0.00000  -0.13658  -0.13682   1.87072
   A27        2.22643   0.07974   0.00000   0.15360   0.15339   2.37982
   A28        2.06022   0.01215   0.00000   0.02513   0.02530   2.08552
   A29        2.17370   0.01928   0.00000   0.03675   0.03662   2.21032
   A30        2.04919  -0.03141   0.00000  -0.06171  -0.06184   1.98735
   A31        2.01621  -0.00304   0.00000  -0.00868  -0.00894   2.00727
   A32        2.14188   0.00196   0.00000   0.00522   0.00535   2.14722
   A33        2.12500   0.00109   0.00000   0.00353   0.00365   2.12865
   A34        2.10943   0.00518   0.00000   0.01089   0.01076   2.12019
   A35        2.11468   0.00697   0.00000   0.01548   0.01558   2.13026
   A36        2.05896  -0.01213   0.00000  -0.02629  -0.02628   2.03268
   A37        2.11176   0.00186   0.00000   0.00367   0.00363   2.11539
   A38        2.05670  -0.00051   0.00000  -0.00070  -0.00068   2.05602
   A39        2.11471  -0.00135   0.00000  -0.00296  -0.00294   2.11177
   A40        2.08567  -0.00239   0.00000  -0.00741  -0.00751   2.07816
   A41        2.07549   0.00173   0.00000   0.00515   0.00519   2.08068
   A42        2.12199   0.00067   0.00000   0.00230   0.00235   2.12434
   A43        2.20043   0.00499   0.00000   0.00688   0.00682   2.20725
   A44        2.02023  -0.00180   0.00000  -0.00209  -0.00206   2.01817
   A45        2.06252  -0.00319   0.00000  -0.00479  -0.00476   2.05776
   A46        2.18316  -0.00300   0.00000  -0.00621  -0.00623   2.17693
   A47        2.02959   0.00165   0.00000   0.00340   0.00341   2.03299
   A48        2.07044   0.00135   0.00000   0.00281   0.00282   2.07326
   A49        1.91737  -0.00002   0.00000   0.00000   0.00000   1.91738
   A50        1.91808   0.00004   0.00000   0.00022   0.00022   1.91830
   A51        1.87685   0.00062   0.00000   0.00150   0.00150   1.87835
   A52        1.88689   0.00025   0.00000   0.00099   0.00099   1.88788
   A53        1.93435  -0.00050   0.00000  -0.00158  -0.00158   1.93277
[...]
 Alpha  occ. eigenvalues --   -0.53374  -0.51490  -0.50353  -0.49814  -0.49539
 Alpha  occ. eigenvalues --   -0.49234  -0.49090  -0.48693  -0.48600  -0.48386
 Alpha  occ. eigenvalues --   -0.48187  -0.46935  -0.46511  -0.46199  -0.45904
 Alpha  occ. eigenvalues --   -0.45716  -0.44740  -0.44361  -0.43984  -0.43424
 Alpha  occ. eigenvalues --   -0.42968  -0.42652  -0.42425  -0.41976  -0.41922
 Alpha  occ. eigenvalues --   -0.41658  -0.41017  -0.40977  -0.40373  -0.39974
 Alpha  occ. eigenvalues --   -0.39391  -0.39196  -0.38995  -0.37859  -0.37412
 Alpha  occ. eigenvalues --   -0.36659  -0.36110  -0.34589  -0.34294  -0.33771
 Alpha  occ. eigenvalues --   -0.33660  -0.31869  -0.30831  -0.30389  -0.29600
 Alpha  occ. eigenvalues --   -0.29164  -0.28684  -0.28529  -0.27836  -0.27225
 Alpha  occ. eigenvalues --   -0.25973  -0.24935  -0.24812  -0.19651
 Alpha virt. eigenvalues --   -0.12849  -0.07690  -0.06277  -0.04327  -0.03665
 Alpha virt. eigenvalues --   -0.00860  -0.00491  -0.00332  -0.00070   0.00369
 Alpha virt. eigenvalues --    0.00828   0.01246   0.01431   0.01739   0.01923
 Alpha virt. eigenvalues --    0.02028   0.02184   0.02426   0.02725   0.03166
 Alpha virt. eigenvalues --    0.03630   0.03647   0.03974   0.04281   0.04471
 Alpha virt. eigenvalues --    0.04797   0.04906   0.05068   0.05538   0.05796
 Alpha virt. eigenvalues --    0.06185   0.06408   0.06491   0.06693   0.06967
 Alpha virt. eigenvalues --    0.07119   0.07399   0.07673   0.07823   0.08203
 Alpha virt. eigenvalues --    0.08390   0.08526   0.08931   0.09250   0.09461
 Alpha virt. eigenvalues --    0.09677   0.09895   0.10095   0.10356   0.10641
 Alpha virt. eigenvalues --    0.10695   0.11167   0.11547   0.11753   0.12053
 Alpha virt. eigenvalues --    0.12388   0.12617   0.12832   0.13200   0.13269
 Alpha virt. eigenvalues --    0.13450   0.13844   0.14103   0.14162   0.14407
 Alpha virt. eigenvalues --    0.14666   0.14770   0.14978   0.15241   0.15477
 Alpha virt. eigenvalues --    0.15602   0.15816   0.15957   0.16228   0.16434
 Alpha virt. eigenvalues --    0.16559   0.16725   0.17244   0.17507   0.17576
 Alpha virt. eigenvalues --    0.17849   0.18011   0.18368   0.18453   0.18743
 Alpha virt. eigenvalues --    0.18872   0.19048   0.19407   0.19576   0.19762
 Alpha virt. eigenvalues --    0.19840   0.19975   0.20047   0.20205   0.20571
 Alpha virt. eigenvalues --    0.20701   0.20782   0.20995   0.21335   0.21494
 Alpha virt. eigenvalues --    0.21835   0.21915   0.22306   0.22394   0.22549
 Alpha virt. eigenvalues --    0.22611   0.23068   0.23182   0.23452   0.23663
 Alpha virt. eigenvalues --    0.23882   0.23909   0.24163   0.24227   0.24376
 Alpha virt. eigenvalues --    0.24674   0.24850   0.24957   0.25500   0.25684
 Alpha virt. eigenvalues --    0.25783   0.25945   0.26023   0.26185   0.26539
 Alpha virt. eigenvalues --    0.26608   0.26905   0.27066   0.27255   0.27396
 Alpha virt. eigenvalues --    0.27660   0.27853   0.28103   0.28482   0.28548
 Alpha virt. eigenvalues --    0.28571   0.28813   0.28969   0.29295   0.29520
 Alpha virt. eigenvalues --    0.29668   0.29995   0.30099   0.30626   0.30966
 Alpha virt. eigenvalues --    0.31325   0.31576   0.31873   0.32100   0.32285
 Alpha virt. eigenvalues --    0.32389   0.32516   0.33150   0.33333   0.33538
 Alpha virt. eigenvalues --    0.33944   0.34001   0.34198   0.34453   0.34620
 Alpha virt. eigenvalues --    0.34897   0.35368   0.35753   0.35992   0.36209
 Alpha virt. eigenvalues --    0.36414   0.37072   0.37296   0.37672   0.38314
 Alpha virt. eigenvalues --    0.38386   0.38640   0.38987   0.39246   0.39390
 Alpha virt. eigenvalues --    0.40154   0.40661   0.40743   0.41653   0.41733
 Alpha virt. eigenvalues --    0.41994   0.42469   0.43071   0.43259   0.43634
 Alpha virt. eigenvalues --    0.43828   0.44106   0.44541   0.45181   0.45434
 Alpha virt. eigenvalues --    0.45588   0.45711   0.46500   0.46927   0.47142
 Alpha virt. eigenvalues --    0.47436   0.47841   0.48306   0.48903   0.49084
 Alpha virt. eigenvalues --    0.49660   0.50118   0.50270   0.50452   0.51209
 Alpha virt. eigenvalues --    0.51869   0.52565   0.52695   0.53409   0.54055
 Alpha virt. eigenvalues --    0.54252   0.54791   0.55071   0.55250   0.55805
 Alpha virt. eigenvalues --    0.56259   0.56358   0.56583   0.56812   0.57271
 Alpha virt. eigenvalues --    0.57792   0.58463   0.58642   0.58734   0.59320
 Alpha virt. eigenvalues --    0.59977   0.60264   0.60852   0.61045   0.61079
 Alpha virt. eigenvalues --    0.61570   0.61838   0.62528   0.62738   0.63257
 Alpha virt. eigenvalues --    0.63626   0.63933   0.64227   0.64955   0.65221
 Alpha virt. eigenvalues --    0.65238   0.65535   0.65881   0.66068   0.66299
 Alpha virt. eigenvalues --    0.66685   0.66909   0.67533   0.67729   0.68843
 Alpha virt. eigenvalues --    0.69038   0.69570   0.69868   0.70126   0.70321
 Alpha virt. eigenvalues --    0.70886   0.71411   0.71562   0.71999   0.72327
 Alpha virt. eigenvalues --    0.72678   0.72759   0.73417   0.73757   0.74102
 Alpha virt. eigenvalues --    0.74523   0.74875   0.75043   0.75224   0.75942
 Alpha virt. eigenvalues --    0.76131   0.76251   0.76557   0.76770   0.77391
 Alpha virt. eigenvalues --    0.77614   0.78380   0.78702   0.78904   0.79339
 Alpha virt. eigenvalues --    0.80170   0.80305   0.80871   0.81198   0.82077
 Alpha virt. eigenvalues --    0.83010   0.83614   0.83785   0.84165   0.85749
 Alpha virt. eigenvalues --    0.86208   0.86515   0.87224   0.88316   0.88729
 Alpha virt. eigenvalues --    0.89151   0.89233   0.89908   0.90598   0.91013
 Alpha virt. eigenvalues --    0.91431   0.92298   0.92630   0.92713   0.93567
 Alpha virt. eigenvalues --    0.93958   0.94285   0.94548   0.94724   0.95345
 Alpha virt. eigenvalues --    0.95663   0.95944   0.96111   0.96866   0.97430
 Alpha virt. eigenvalues --    0.97612   0.98430   0.98595   0.99093   1.00230
 Alpha virt. eigenvalues --    1.00385   1.01156   1.01392   1.01674   1.02381
 Alpha virt. eigenvalues --    1.03127   1.03537   1.03963   1.04079   1.04228
 Alpha virt. eigenvalues --    1.04809   1.05247   1.05506   1.05984   1.06366
 Alpha virt. eigenvalues --    1.06917   1.07345   1.07499   1.07808   1.08321
 Alpha virt. eigenvalues --    1.08619   1.09138   1.09401   1.10126   1.10539
 Alpha virt. eigenvalues --    1.11441   1.12431   1.12976   1.14543   1.14971
 Alpha virt. eigenvalues --    1.15266   1.15595   1.17013   1.17451   1.18275
 Alpha virt. eigenvalues --    1.18564   1.19095   1.19819   1.21019   1.22280
 Alpha virt. eigenvalues --    1.22523   1.23116   1.23923   1.24147   1.24753
 Alpha virt. eigenvalues --    1.25719   1.25854   1.26337   1.26898   1.27289
 Alpha virt. eigenvalues --    1.28806   1.29519   1.30186   1.30995   1.31714
 Alpha virt. eigenvalues --    1.31741   1.33020   1.33241   1.34631   1.34904
 Alpha virt. eigenvalues --    1.34942   1.35843   1.37397   1.38081   1.38368
 Alpha virt. eigenvalues --    1.39566   1.40733   1.41681   1.41894   1.42046
 Alpha virt. eigenvalues --    1.42957   1.43349   1.43630   1.43934   1.44538
 Alpha virt. eigenvalues --    1.44940   1.45440   1.45610   1.45833   1.46057
 Alpha virt. eigenvalues --    1.46373   1.46989   1.47591   1.48666   1.49144
 Alpha virt. eigenvalues --    1.49801   1.50860   1.51505   1.51790   1.52299
 Alpha virt. eigenvalues --    1.53250   1.53423   1.53869   1.54273   1.54792
 Alpha virt. eigenvalues --    1.55091   1.55490   1.56066   1.56706   1.56946
 Alpha virt. eigenvalues --    1.57809   1.58021   1.59721   1.60901   1.61055
 Alpha virt. eigenvalues --    1.62268   1.62604   1.62846   1.63507   1.63858
 Alpha virt. eigenvalues --    1.65555   1.65901   1.66178   1.66785   1.67548
 Alpha virt. eigenvalues --    1.68185   1.68586   1.69170   1.69637   1.69922
 Alpha virt. eigenvalues --    1.70012   1.71367   1.71605   1.71925   1.72073
 Alpha virt. eigenvalues --    1.72505   1.73822   1.74503   1.75042   1.75422
 Alpha virt. eigenvalues --    1.75944   1.76842   1.77480   1.77838   1.78677
 Alpha virt. eigenvalues --    1.78870   1.79400   1.79536   1.80757   1.82361
 Alpha virt. eigenvalues --    1.83170   1.84318   1.84561   1.85062   1.86511
 Alpha virt. eigenvalues --    1.86773   1.86839   1.87262   1.88067   1.88907
 Alpha virt. eigenvalues --    1.89683   1.90169   1.90515   1.91138   1.91968
 Alpha virt. eigenvalues --    1.92126   1.93203   1.93312   1.94871   1.95044
 Alpha virt. eigenvalues --    1.96528   1.97099   1.97957   1.98206   1.98652
 Alpha virt. eigenvalues --    1.99903   2.00045   2.00794   2.01917   2.02373
 Alpha virt. eigenvalues --    2.02704   2.03147   2.03711   2.04425   2.04839
 Alpha virt. eigenvalues --    2.06037   2.06110   2.06719   2.07475   2.07609
 Alpha virt. eigenvalues --    2.08214   2.09201   2.10095   2.11024   2.11558
 Alpha virt. eigenvalues --    2.11915   2.13431   2.13876   2.14782   2.15028
 Alpha virt. eigenvalues --    2.16585   2.16783   2.18026   2.18135   2.19172
 Alpha virt. eigenvalues --    2.19394   2.20101   2.21400   2.21672   2.22601
 Alpha virt. eigenvalues --    2.24063   2.24929   2.26479   2.26860   2.29020
 Alpha virt. eigenvalues --    2.31657   2.32462   2.33672   2.35615   2.37527
 Alpha virt. eigenvalues --    2.38491   2.39064   2.39901   2.41664   2.42625
 Alpha virt. eigenvalues --    2.43076   2.43430   2.44365   2.44854   2.46146
 Alpha virt. eigenvalues --    2.46499   2.47453   2.48488   2.48775   2.49477
 Alpha virt. eigenvalues --    2.50510   2.51622   2.51848   2.52451   2.52481
 Alpha virt. eigenvalues --    2.52847   2.53551   2.54177   2.54425   2.55747
 Alpha virt. eigenvalues --    2.56812   2.57635   2.59077   2.59297   2.60727
 Alpha virt. eigenvalues --    2.62879   2.63488   2.63532   2.65030   2.66634
 Alpha virt. eigenvalues --    2.67135   2.67490   2.67654   2.67762   2.68901
 Alpha virt. eigenvalues --    2.69300   2.70333   2.70942   2.71511   2.71765
 Alpha virt. eigenvalues --    2.72107   2.73073   2.73769   2.74153   2.75693
 Alpha virt. eigenvalues --    2.76645   2.76842   2.77514   2.78837   2.81241
 Alpha virt. eigenvalues --    2.81706   2.82207   2.83089   2.83168   2.84043
 Alpha virt. eigenvalues --    2.84198   2.84697   2.85719   2.86488   2.87223
 Alpha virt. eigenvalues --    2.88197   2.88533   2.89202   2.89808   2.90614
 Alpha virt. eigenvalues --    2.91635   2.92067   2.92671   2.93547   2.94681
 Alpha virt. eigenvalues --    2.95222   2.95549   2.96351   2.97824   2.98432
 Alpha virt. eigenvalues --    3.00137   3.02344   3.02763   3.03845   3.05403
 Alpha virt. eigenvalues --    3.05779   3.06671   3.07763   3.09295   3.10545
 Alpha virt. eigenvalues --    3.11769   3.13523   3.14448   3.14497   3.15216
 Alpha virt. eigenvalues --    3.16921   3.17911   3.18934   3.20590   3.21496
 Alpha virt. eigenvalues --    3.23046   3.23554   3.23933   3.25332   3.26575
 Alpha virt. eigenvalues --    3.28953   3.29144   3.30697   3.31962   3.34733
 Alpha virt. eigenvalues --    3.35266   3.35596   3.35713   3.37226   3.37478
 Alpha virt. eigenvalues --    3.39224   3.40131   3.41036   3.43341   3.44224
 Alpha virt. eigenvalues --    3.44551   3.45556   3.46231   3.48569   3.49691
 Alpha virt. eigenvalues --    3.51569   3.53831   3.55635   3.58475   3.60532
 Alpha virt. eigenvalues --    3.60872   3.62708   3.65616   3.66309   3.67059
 Alpha virt. eigenvalues --    3.69239   3.70389   3.72680   3.73798   3.75596
 Alpha virt. eigenvalues --    3.76314   3.76841   3.80732   3.82535   3.84398
 Alpha virt. eigenvalues --    3.85643   3.86323   3.90079   3.91394   3.93089
 Alpha virt. eigenvalues --    3.93515   3.95375   3.96944   4.01701   4.02755
 Alpha virt. eigenvalues --    4.04371   4.07939   4.10060   4.12695   4.13979
 Alpha virt. eigenvalues --    4.19754   4.23491   4.25392   4.27510   4.35591
 Alpha virt. eigenvalues --    4.39993   4.40795   4.52784   4.70487   4.84732
 Alpha virt. eigenvalues --    4.85416   4.87436   4.90187   5.00953   5.02413
 Alpha virt. eigenvalues --    5.04165   5.05713   5.06355   5.10623   5.11586
 Alpha virt. eigenvalues --    5.12799   5.25295   5.27115   5.28530   5.29929
 Alpha virt. eigenvalues --    5.41585   5.42930   5.75985   5.76730   5.80027
 Alpha virt. eigenvalues --    5.80285   5.82522   5.84232   8.02218   8.04634
 Alpha virt. eigenvalues --   17.28630  17.31456  17.49224  17.52110  17.57443
 Alpha virt. eigenvalues --   17.63058  23.48781  23.56596  23.71449  23.79084
 Alpha virt. eigenvalues --   23.82603  23.83347  23.84993  23.87360  23.87560
 Alpha virt. eigenvalues --   23.88550  23.89212  23.90125  23.91137  23.93580
 Alpha virt. eigenvalues --   23.95036  23.95966  23.96379  23.98912  24.01238
 Alpha virt. eigenvalues --   24.01428  24.02560  24.05688  24.12530  24.14188
 Alpha virt. eigenvalues --   24.14500  24.14992  35.56086  35.58588  49.95698
 Alpha virt. eigenvalues --   49.97413  50.02614  50.04323  50.06292  50.07562
 Alpha virt. eigenvalues --  189.19469 189.22533
          Condensed to atoms (all electrons):
 Mulliken charges:
               1
     1  C    0.278258
     2  C   -0.078978
     3  C    0.190782
     4  C    0.201449
     5  C    0.230608
     6  C   -0.023629
     7  C    0.227626
     8  C    0.509692
     9  C    0.267774
    10  C   -0.713640
    11  C    0.223591
    12  C    0.128783
    13  C   -0.479196
    14  C   -0.584432
    15  H    0.157935
    16  H    0.160501
    17  H    0.170603
    18  N   -0.085363
    19  N   -0.141104
    20  O   -0.284953
    21  O   -0.268438
    22  O   -0.279702
    23  O   -0.236924
    24  C   -0.171418
    25  H    0.165913
    26  H    0.177467
    27  H    0.182933
    28  C   -0.199002
    29  H    0.173138
    30  H    0.173916
    31  H    0.181760
    32  C    0.006260
    33  C   -0.442139
    34  S   -0.658628
    35  C   -0.235245
    36  H    0.141618
    37  C    0.710578
    38  O   -0.127350
    39  C    0.877952
    40  C   -0.241425
    41  C   -0.003361
    42  S   -0.247254
    43  H    0.166221
    44  H    0.164036
    45  H    0.145451
    46  C   -0.622604
    47  O   -0.128151
    48  C   -0.281199
    49  H    0.133433
    50  C   -0.240860
    51  H    0.162793
    52  H    0.147169
    53  H    0.171103
    54  H    0.145652
 Sum of Mulliken charges =  -0.00000
 Mulliken charges with hydrogens summed into heavy atoms:
               1
     1  C    0.278258
     2  C   -0.078978
     3  C    0.190782
     4  C    0.201449
     5  C    0.230608
     6  C    0.146975
     7  C    0.227626
     8  C    0.509692
     9  C    0.267774
    10  C   -0.713640
    11  C    0.223591
    12  C    0.128783
    13  C   -0.318695
    14  C   -0.426497
    18  N   -0.085363
    19  N   -0.141104
    20  O   -0.284953
    21  O   -0.268438
    22  O   -0.279702
    23  O   -0.236924
    24  C    0.354895
    28  C    0.329812
    32  C    0.006260
    33  C   -0.300521
    34  S   -0.658628
    35  C   -0.235245
    37  C    0.710578
    38  O   -0.127350
    39  C    0.877952
    40  C    0.234283
    41  C   -0.003361
    42  S   -0.247254
    46  C   -0.489171
    47  O   -0.128151
    48  C   -0.118406
    50  C    0.223064
 Electronic spatial extent (au):  <R**2>=          22421.8028
 Charge=             -0.0000 electrons
 Dipole moment (field-independent basis, Debye):
    X=              5.3681    Y=             -0.6472    Z=              0.3619  Tot=              5.4191
 Quadrupole moment (field-independent basis, Debye-Ang):
   XX=           -215.5022   YY=           -210.4751   ZZ=           -220.7718
   XY=             -4.6117   XZ=             -1.0316   YZ=             11.1866
 Traceless Quadrupole moment (field-independent basis, Debye-Ang):
   XX=              0.0808   YY=              5.1079   ZZ=             -5.1887
   XY=             -4.6117   XZ=             -1.0316   YZ=             11.1866
 Octapole moment (field-independent basis, Debye-Ang**2):
  XXX=            397.8535  YYY=            -19.2528  ZZZ=             -2.5030  XYY=            138.5290
  XXY=            -88.0403  XXZ=            -28.8761  XZZ=             -3.6766  YZZ=             -1.2114
  YYZ=             -0.5352  XYZ=             39.7348
 Hexadecapole moment (field-independent basis, Debye-Ang**3):
 XXXX=         -20795.0196 YYYY=          -7723.1909 ZZZZ=           -681.5377 XXXY=           -591.1161
 XXXZ=            -60.5096 YYYX=            272.4372 YYYZ=            117.7081 ZZZX=             -6.3150
 ZZZY=              8.7724 XXYY=          -4942.8818 XXZZ=          -3776.0688 YYZZ=          -1399.8050
 XXYZ=            225.1851 YYXZ=            -26.6860 ZZXY=             10.8014
 N-N= 4.088706454045D+03 E-N=-1.371741938207D+04  KE= 2.352059644955D+03
 Unable to Open any file for archive entry.
 1\1\GINC-CX3-3-22\FOpt\RB3LYP\6-311+G(d,p)\C26H18N2O6S2\NS5018\26-Nov-
 2020\0\\# opt=modredundant b3lyp/6-311+g(d,p)\\NDI_25.pdb\\0,1\C,-2.60
 63006985,-2.9142883008,-0.7186853014\C,-2.2940922434,-1.4821872295,-0.
 4690876841\C,-3.3069161123,-0.5901521592,-0.0469854237\C,-4.62403035,-
 1.0475289867,0.1555708143\C,-4.968954032,-2.4765287586,-0.0718653896\C
 ,-1.0066109087,-1.0406814996,-0.6121077278\C,-2.9686319647,0.776671479
 6,0.1554495601\C,-1.6308092397,1.2390079482,-0.0425841591\C,-0.6082856
 736,0.31063392,-0.3739916138\C,-1.4145159646,2.7101175492,-0.021426620
 2\C,-3.7507545146,3.0907198528,0.7710361848\C,-4.0089588257,1.64955629
 47,0.5632873637\C,-5.2977728058,1.1778804464,0.7709898813\C,-5.6131576
 668,-0.1681654174,0.5682604419\H,-6.6179437836,-0.5395499839,0.7224170
 023\H,-6.0533014992,1.8844954996,1.0904362431\H,-0.2614648149,-1.77877
 79455,-0.879336259\N,-2.4666079439,3.5250972093,0.4391930568\N,-3.9286
 119114,-3.3173168801,-0.5033048233\O,-1.7703671329,-3.7167760336,-1.09
 20764991\O,-6.094186424,-2.9055519627,0.1011319461\O,-4.6032563328,3.8
 607563772,1.1796341759\O,-0.3926944757,3.2598350848,-0.3968710585\C,-2
 .1843598511,4.9661576991,0.4995085791\H,-1.3089506725,5.1444144042,1.1
 237291172\H,-1.9754451563,5.3473132814,-0.5005801973\H,-3.0575161507,5
 .4562483846,0.918406159\C,-4.22599697,-4.7355527127,-0.7492631506\H,-3
 .9923790661,-4.9857367319,-1.7843022931\H,-3.6133108022,-5.3588764986,
 -0.0974699679\H,-5.2802553803,-4.895445656,-0.5470458552\C,0.829056498
 1,0.5507450415,-0.4060564945\C,1.6078504129,1.4775541897,0.2593769391\
 S,1.8496573539,-0.4940863828,-1.3916807441\C,2.9820198079,1.34715761,0
 .0002542176\H,1.1979074034,2.2261464559,0.9140284529\C,3.3080193576,0.
 3247262637,-0.895401193\O,3.9787422449,2.1066998842,0.5234948154\C,4.6
 089187811,-0.0338047483,-1.3816059136\C,3.6140237303,3.2113227532,1.34
 87156002\C,4.9325952528,-1.0633626444,-2.2612667775\S,6.0767676026,0.8
 212251138,-0.9197243622\H,4.546169504,3.7111510287,1.6054944168\H,2.95
 94872793,3.9030776903,0.8100525812\H,3.1199868652,2.870249516,2.264204
 8867\C,6.3194778374,-1.1625273063,-2.5556970603\O,3.9447409121,-1.8547
 906228,-2.7486662472\C,7.049653101,-0.2092685591,-1.9009303663\H,6.755
 4511513,-1.8983752767,-3.2152589782\C,4.3014581524,-2.9147356515,-3.63
 26456756\H,8.1173256576,-0.0563889197,-1.9404167035\H,4.9756588091,-3.
 6243359209,-3.14293353\H,3.3696143684,-3.4160012293,-3.8869982919\H,4.
 7678572849,-2.5261669595,-4.5434060736\\Version=ES64L-G16RevC.01\State
 =1-A\HF=-2359.3378356\RMSD=2.862e-09\RMSF=5.339e-04\Dipole=2.0982244,-
 0.2195479,-0.307877\Quadrupole=-0.4063386,-1.776335,2.1826736,-1.39105
 85,-1.6889196,9.3455588\PG=C01 [X(C26H18N2O6S2)]\\@
 The archive entry for this job was punched.


 ACHIEVEMENT--  THE MAN WHO ROWS THE BOAT GENERALLY 
                DOESN'T HAVE TIME TO ROCK IT.

                   -- FROM THE BACK OF A SUGAR PACKET
 Job cpu time:       3 days 11 hours  8 minutes 29.4 seconds.
 Elapsed time:       0 days  5 hours 14 minutes 16.6 seconds.
 File lengths (MBytes):  RWF=    496 Int=      0 D2E=      0 Chk=     61 Scr=      1
 Normal termination of Gaussian 16 at Thu Nov 26 12:17:42 2020.
