 Entering Gaussian System, Link 0=g16
 Input=pg2T_TT_-5.gjf
 Output=pg2T_TT_-5.log
 Initial command:
 /apps/gaussian/g16-c01-avx/g16/l1.exe "/tmp/pbs.4730634[170].pbs/Gau-1306373.inp" -scrdir="/tmp/pbs.4730634[170].pbs/"
 Entering Link 1 = /apps/gaussian/g16-c01-avx/g16/l1.exe PID=   1306374.
  
 Copyright (c) 1988-2019, Gaussian, Inc.  All Rights Reserved.
  
 This is part of the Gaussian(R) 16 program.  It is based on
 the Gaussian(R) 09 system (copyright 2009, Gaussian, Inc.),
 the Gaussian(R) 03 system (copyright 2003, Gaussian, Inc.),
 the Gaussian(R) 98 system (copyright 1998, Gaussian, Inc.),
 the Gaussian(R) 94 system (copyright 1995, Gaussian, Inc.),
 the Gaussian 92(TM) system (copyright 1992, Gaussian, Inc.),
 the Gaussian 90(TM) system (copyright 1990, Gaussian, Inc.),
 the Gaussian 88(TM) system (copyright 1988, Gaussian, Inc.),
 the Gaussian 86(TM) system (copyright 1986, Carnegie Mellon
 University), and the Gaussian 82(TM) system (copyright 1983,
 Carnegie Mellon University). Gaussian is a federally registered
 trademark of Gaussian, Inc.
  
 This software contains proprietary and confidential information,
 including trade secrets, belonging to Gaussian, Inc.
  
 This software is provided under written license and may be
 used, copied, transmitted, or stored only in accord with that
 written license.
  
 The following legend is applicable only to US Government
 contracts under FAR:
  
                    RESTRICTED RIGHTS LEGEND
  
 Use, reproduction and disclosure by the US Government is
 subject to restrictions as set forth in subparagraphs (a)
 and (c) of the Commercial Computer Software - Restricted
 Rights clause in FAR 52.227-19.
  
 Gaussian, Inc.
 340 Quinnipiac St., Bldg. 40, Wallingford CT 06492
  
  
 ---------------------------------------------------------------
 Warning -- This program may not be used in any manner that
 competes with the business of Gaussian, Inc. or will provide
 assistance to any competitor of Gaussian, Inc.  The licensee
 of this program is prohibited from giving any competitor of
 Gaussian, Inc. access to this program.  By using this program,
 the user acknowledges that Gaussian, Inc. is engaged in the
 business of creating and licensing software in the field of
 computational chemistry and represents and warrants to the
 licensee that it is not a competitor of Gaussian, Inc. and that
 it will not use this program in any manner prohibited above.
 ---------------------------------------------------------------
  

 Cite this work as:
 Gaussian 16, Revision C.01,
 M. J. Frisch, G. W. Trucks, H. B. Schlegel, G. E. Scuseria, 
 M. A. Robb, J. R. Cheeseman, G. Scalmani, V. Barone, 
 G. A. Petersson, H. Nakatsuji, X. Li, M. Caricato, A. V. Marenich, 
 J. Bloino, B. G. Janesko, R. Gomperts, B. Mennucci, H. P. Hratchian, 
 J. V. Ortiz, A. F. Izmaylov, J. L. Sonnenberg, D. Williams-Young, 
 F. Ding, F. Lipparini, F. Egidi, J. Goings, B. Peng, A. Petrone, 
 T. Henderson, D. Ranasinghe, V. G. Zakrzewski, J. Gao, N. Rega, 
 G. Zheng, W. Liang, M. Hada, M. Ehara, K. Toyota, R. Fukuda, 
 J. Hasegawa, M. Ishida, T. Nakajima, Y. Honda, O. Kitao, H. Nakai, 
 T. Vreven, K. Throssell, J. A. Montgomery, Jr., J. E. Peralta, 
 F. Ogliaro, M. J. Bearpark, J. J. Heyd, E. N. Brothers, K. N. Kudin, 
 V. N. Staroverov, T. A. Keith, R. Kobayashi, J. Normand, 
 K. Raghavachari, A. P. Rendell, J. C. Burant, S. S. Iyengar, 
 J. Tomasi, M. Cossi, J. M. Millam, M. Klene, C. Adamo, R. Cammi, 
 J. W. Ochterski, R. L. Martin, K. Morokuma, O. Farkas, 
 J. B. Foresman, and D. J. Fox, Gaussian, Inc., Wallingford CT, 2019.
 
 ******************************************
 Gaussian 16:  ES64L-G16RevC.01  3-Jul-2019
                17-Oct-2021 
 ******************************************
 %mem=10GB
 %nprocshared=8
 Will use up to    8 processors via shared memory.
 -------------------------------------
 # opt=modredundant b3lyp/6-311+g(d,p)
 -------------------------------------
 1/18=120,19=15,26=3,38=1/1,3;
 2/9=110,12=2,17=6,18=5,40=1/2;
 3/5=4,6=6,7=111,11=2,25=1,30=1,71=1,74=-5/1,2,3;
 4//1;
 5/5=2,38=5/2;
 6/7=2,8=2,9=2,10=2,28=1/1;
 7//1,2,3,16;
 1/18=20,19=15,26=3/3(2);
 2/9=110/2;
 99//99;
 2/9=110/2;
 3/5=4,6=6,7=111,11=2,25=1,30=1,71=1,74=-5/1,2,3;
 4/5=5,16=3,69=1/1;
 5/5=2,38=5/2;
 7//1,2,3,16;
 1/18=20,19=15,26=3/3(-5);
 2/9=110/2;
 6/7=2,8=2,9=2,10=2,19=2,28=1/1;
 99/9=1/99;
 --------------
 pg2T_TT_-5.pdb
 --------------
 Symbolic Z-matrix:
 Charge =  0 Multiplicity = 1
 C                    -4.25     -1.36     -0.21 
 C                    -2.93     -0.95     -0.61 
 C                    -1.97     -2.05     -0.62 
 C                    -4.33     -2.76      0.1 
 S                    -2.8      -3.56     -0.11 
 H                    -5.23     -3.27      0.41 
 C                    -0.56     -2.13     -0.97 
 S                     0.33     -0.732    -1.647 
 C                     1.811    -1.619    -1.754 
 C                     1.68     -2.967    -1.262 
 C                     0.355    -3.261    -0.803 
 H                     0.109    -4.157    -0.254 
 S                     3.181    -3.618    -0.691 
 C                     4.03     -2.127    -1.102 
 C                     3.145    -1.126    -1.654 
 H                     5.049    -1.937    -0.795 
 H                     3.411    -0.074    -1.71 
 H                    -2.89      0.24     -0.97 
 O                    -5.6      -0.36     -0.4 
 H                    -5.76      0.85     -0.75 
 
 Add virtual bond connecting atoms H20        and O19        Dist= 2.40D+00.
 Add virtual bond connecting atoms O19        and C1         Dist= 3.20D+00.
 The following ModRedundant input section has been read:
 D       2       3       7       8 F                                           
 

 GradGradGradGradGradGradGradGradGradGradGradGradGradGradGradGradGradGrad
 Berny optimization.
 Initialization pass.
                           ----------------------------
                           !    Initial Parameters    !
                           ! (Angstroms and Degrees)  !
 --------------------------                            --------------------------
 ! Name  Definition              Value          Derivative Info.                !
 --------------------------------------------------------------------------------
 ! R1    R(1,2)                  1.4389         estimate D2E/DX2                !
 ! R2    R(1,4)                  1.4361         estimate D2E/DX2                !
 ! R3    R(1,19)                 1.6907         estimate D2E/DX2                !
 ! R4    R(2,3)                  1.46           estimate D2E/DX2                !
 ! R5    R(2,18)                 1.2439         estimate D2E/DX2                !
 ! R6    R(3,5)                  1.797          estimate D2E/DX2                !
 ! R7    R(3,7)                  1.455          estimate D2E/DX2                !
 ! R8    R(4,5)                  1.7393         estimate D2E/DX2                !
 ! R9    R(4,6)                  1.0799         estimate D2E/DX2                !
 ! R10   R(7,8)                  1.7902         estimate D2E/DX2                !
 ! R11   R(7,11)                 1.4643         estimate D2E/DX2                !
 ! R12   R(8,9)                  1.7296         estimate D2E/DX2                !
 ! R13   R(9,10)                 1.4409         estimate D2E/DX2                !
 ! R14   R(9,15)                 1.4257         estimate D2E/DX2                !
 ! R15   R(10,11)                1.4327         estimate D2E/DX2                !
 ! R16   R(10,13)                1.7329         estimate D2E/DX2                !
 ! R17   R(11,12)                1.0792         estimate D2E/DX2                !
 ! R18   R(13,14)                1.7643         estimate D2E/DX2                !
 ! R19   R(14,15)                1.4457         estimate D2E/DX2                !
 ! R20   R(14,16)                1.0811         estimate D2E/DX2                !
 ! R21   R(15,17)                1.0866         estimate D2E/DX2                !
 ! R22   R(19,20)                1.2697         estimate D2E/DX2                !
 ! A1    A(2,1,4)              112.8843         estimate D2E/DX2                !
 ! A2    A(2,1,19)             122.1887         estimate D2E/DX2                !
 ! A3    A(4,1,19)             123.8039         estimate D2E/DX2                !
 ! A4    A(1,2,3)              112.9799         estimate D2E/DX2                !
 ! A5    A(1,2,18)             112.491          estimate D2E/DX2                !
 ! A6    A(3,2,18)             134.2373         estimate D2E/DX2                !
 ! A7    A(2,3,5)              109.1138         estimate D2E/DX2                !
 ! A8    A(2,3,7)              132.8639         estimate D2E/DX2                !
 ! A9    A(5,3,7)              118.0132         estimate D2E/DX2                !
 ! A10   A(1,4,5)              111.9209         estimate D2E/DX2                !
 ! A11   A(1,4,6)              124.6643         estimate D2E/DX2                !
 ! A12   A(5,4,6)              123.4062         estimate D2E/DX2                !
 ! A13   A(3,5,4)               93.0997         estimate D2E/DX2                !
 ! A14   A(3,7,8)              121.9925         estimate D2E/DX2                !
 ! A15   A(3,7,11)             128.3577         estimate D2E/DX2                !
 ! A16   A(8,7,11)             109.611          estimate D2E/DX2                !
 ! A17   A(7,8,9)               92.786          estimate D2E/DX2                !
 ! A18   A(8,9,10)             112.3822         estimate D2E/DX2                !
 ! A19   A(8,9,15)             128.2806         estimate D2E/DX2                !
 ! A20   A(10,9,15)            112.6194         estimate D2E/DX2                !
 ! A21   A(9,10,11)            112.6703         estimate D2E/DX2                !
 ! A22   A(9,10,13)            112.6565         estimate D2E/DX2                !
 ! A23   A(11,10,13)           128.1996         estimate D2E/DX2                !
 ! A24   A(7,11,10)            112.5099         estimate D2E/DX2                !
 ! A25   A(7,11,12)            123.8361         estimate D2E/DX2                !
 ! A26   A(10,11,12)           122.9654         estimate D2E/DX2                !
 ! A27   A(10,13,14)            91.2937         estimate D2E/DX2                !
 ! A28   A(13,14,15)           112.3039         estimate D2E/DX2                !
 ! A29   A(13,14,16)           122.4085         estimate D2E/DX2                !
 ! A30   A(15,14,16)           124.3168         estimate D2E/DX2                !
 ! A31   A(9,15,14)            111.1095         estimate D2E/DX2                !
 ! A32   A(9,15,17)            124.0731         estimate D2E/DX2                !
 ! A33   A(14,15,17)           122.698          estimate D2E/DX2                !
 ! A34   A(1,19,20)            134.0455         estimate D2E/DX2                !
 ! D1    D(4,1,2,3)              0.3915         estimate D2E/DX2                !
 ! D2    D(4,1,2,18)           175.0898         estimate D2E/DX2                !
 ! D3    D(19,1,2,3)          -167.9154         estimate D2E/DX2                !
 ! D4    D(19,1,2,18)            6.7829         estimate D2E/DX2                !
 ! D5    D(2,1,4,5)             -0.3845         estimate D2E/DX2                !
 ! D6    D(2,1,4,6)           -179.3471         estimate D2E/DX2                !
 ! D7    D(19,1,4,5)           167.7032         estimate D2E/DX2                !
 ! D8    D(19,1,4,6)           -11.2593         estimate D2E/DX2                !
 ! D9    D(2,1,19,20)           -7.6334         estimate D2E/DX2                !
 ! D10   D(4,1,19,20)         -174.6479         estimate D2E/DX2                !
 ! D11   D(1,2,3,5)             -0.2224         estimate D2E/DX2                !
 ! D12   D(1,2,3,7)            178.6265         estimate D2E/DX2                !
 ! D13   D(18,2,3,5)          -173.3787         estimate D2E/DX2                !
 ! D14   D(18,2,3,7)             5.4701         estimate D2E/DX2                !
 ! D15   D(2,3,5,4)              0.0033         estimate D2E/DX2                !
 ! D16   D(7,3,5,4)           -179.041          estimate D2E/DX2                !
 ! D17   D(2,3,7,8)             -5.0008         Frozen                          !
 ! D18   D(2,3,7,11)           172.4905         estimate D2E/DX2                !
 ! D19   D(5,3,7,8)            173.7672         estimate D2E/DX2                !
 ! D20   D(5,3,7,11)            -8.7415         estimate D2E/DX2                !
 ! D21   D(1,4,5,3)              0.2153         estimate D2E/DX2                !
 ! D22   D(6,4,5,3)            179.1932         estimate D2E/DX2                !
 ! D23   D(3,7,8,9)            179.7609         estimate D2E/DX2                !
 ! D24   D(11,7,8,9)             1.849          estimate D2E/DX2                !
 ! D25   D(3,7,11,10)         -179.8131         estimate D2E/DX2                !
 ! D26   D(3,7,11,12)           -9.094          estimate D2E/DX2                !
 ! D27   D(8,7,11,10)           -2.0717         estimate D2E/DX2                !
 ! D28   D(8,7,11,12)          168.6474         estimate D2E/DX2                !
 ! D29   D(7,8,9,10)            -1.1904         estimate D2E/DX2                !
 ! D30   D(7,8,9,15)          -149.936          estimate D2E/DX2                !
 ! D31   D(8,9,10,11)            0.1838         estimate D2E/DX2                !
 ! D32   D(8,9,10,13)         -154.0505         estimate D2E/DX2                !
 ! D33   D(15,9,10,11)         154.002          estimate D2E/DX2                !
 ! D34   D(15,9,10,13)          -0.2323         estimate D2E/DX2                !
 ! D35   D(8,9,15,14)          149.7407         estimate D2E/DX2                !
 ! D36   D(8,9,15,17)          -14.0409         estimate D2E/DX2                !
 ! D37   D(10,9,15,14)           1.0549         estimate D2E/DX2                !
 ! D38   D(10,9,15,17)        -162.7268         estimate D2E/DX2                !
 ! D39   D(9,10,11,7)            1.2527         estimate D2E/DX2                !
 ! D40   D(9,10,11,12)        -169.5597         estimate D2E/DX2                !
 ! D41   D(13,10,11,7)         150.5586         estimate D2E/DX2                !
 ! D42   D(13,10,11,12)        -20.2538         estimate D2E/DX2                !
 ! D43   D(9,10,13,14)          -0.5016         estimate D2E/DX2                !
 ! D44   D(11,10,13,14)       -149.8109         estimate D2E/DX2                !
 ! D45   D(10,13,14,15)          1.1072         estimate D2E/DX2                !
 ! D46   D(10,13,14,16)        170.2763         estimate D2E/DX2                !
 ! D47   D(13,14,15,9)          -1.4277         estimate D2E/DX2                !
 ! D48   D(13,14,15,17)        162.6153         estimate D2E/DX2                !
 ! D49   D(16,14,15,9)        -170.3537         estimate D2E/DX2                !
 ! D50   D(16,14,15,17)         -6.3106         estimate D2E/DX2                !
 --------------------------------------------------------------------------------
 Trust Radius=3.00D-01 FncErr=1.00D-07 GrdErr=1.00D-06 EigMax=2.50D+02 EigMin=1.00D-04
 Number of steps in this run=    116 maximum allowed number of steps=    120.
 GradGradGradGradGradGradGradGradGradGradGradGradGradGradGradGradGradGrad

                          Input orientation:                          
 ---------------------------------------------------------------------
 Center     Atomic      Atomic             Coordinates (Angstroms)
 Number     Number       Type             X           Y           Z
 ---------------------------------------------------------------------
      1          6           0       -4.250000   -1.360000   -0.210000
      2          6           0       -2.930000   -0.950000   -0.610000
      3          6           0       -1.970000   -2.050000   -0.620000
      4          6           0       -4.330000   -2.760000    0.100000
      5         16           0       -2.800000   -3.560000   -0.110000
      6          1           0       -5.230000   -3.270000    0.410000
      7          6           0       -0.560000   -2.130000   -0.970000
      8         16           0        0.330000   -0.732000   -1.647000
      9          6           0        1.811000   -1.619000   -1.754000
     10          6           0        1.680000   -2.967000   -1.262000
     11          6           0        0.355000   -3.261000   -0.803000
     12          1           0        0.109000   -4.157000   -0.254000
     13         16           0        3.181000   -3.618000   -0.691000
     14          6           0        4.030000   -2.127000   -1.102000
     15          6           0        3.145000   -1.126000   -1.654000
     16          1           0        5.049000   -1.937000   -0.795000
     17          1           0        3.411000   -0.074000   -1.710000
     18          1           0       -2.890000    0.240000   -0.970000
     19          8           0       -5.600000   -0.360000   -0.400000
     20          1           0       -5.760000    0.850000   -0.750000
 ---------------------------------------------------------------------
                    Distance matrix (angstroms):
                    1          2          3          4          5
     1  C    0.000000
     2  C    1.438923   0.000000
     3  C    2.417147   1.460034   0.000000
     4  C    1.436141   2.395871   2.567509   0.000000
     5  S    2.636759   2.660639   1.796970   1.739253   0.000000
     6  H    2.234480   3.422397   3.630000   1.079907   2.501879
     7  C    3.845335   2.671872   1.454991   3.969219   2.793224
     8  S    4.841049   3.427899   2.842860   5.374048   4.489638
     9  C    6.259931   4.922741   3.970854   6.515449   5.266074
    10  C    6.233302   5.074002   3.817794   6.165873   4.663599
    11  C    5.017118   4.021094   2.627857   4.797461   3.244021
    12  H    5.179385   4.432506   2.982557   4.667081   2.973117
    13  S    7.781368   6.668516   5.384837   7.601116   6.009433
    14  C    8.363154   7.075945   6.019822   8.469657   7.048862
    15  C    7.538297   6.166566   5.299637   7.849974   6.606914
    16  H    9.335232   8.041942   7.022091   9.457484   8.044262
    17  H    7.911682   6.495049   5.835052   8.391292   7.299912
    18  H    2.233204   1.243905   2.492589   3.495497   3.897140
    19  O    1.690739   2.742462   4.010162   2.760960   4.261936
    20  H    2.730531   3.356859   4.773992   3.974858   5.349701
                    6          7          8          9         10
     6  H    0.000000
     7  C    5.001290   0.000000
     8  S    6.448744   1.790205   0.000000
     9  C    7.548800   2.549003   1.729618   0.000000
    10  C    7.115862   2.409032   2.639309   1.440947   0.000000
    11  C    5.715214   1.464334   2.666234   2.391757   1.432739
    12  H    5.452759   2.251432   3.704040   3.404152   2.213641
    13  S    8.489890   4.035724   4.167869   2.646294   1.732871
    14  C    9.451994   4.591899   3.991622   2.367938   2.500740
    15  C    8.888051   3.899089   2.842448   1.425695   2.385198
    16  H   10.434882   5.615047   4.944380   3.391968   3.553752
    17  H    9.453872   4.532502   3.151110   2.224626   3.400958
    18  H    4.438479   3.323522   3.430964   5.115656   5.590618
    19  O    3.043206   5.372095   6.071103   7.638149   7.780610
    20  H    4.312876   5.997399   6.355740   8.026457   8.377663
                   11         12         13         14         15
    11  C    0.000000
    12  H    1.079228   0.000000
    13  S    2.850661   3.149393   0.000000
    14  C    3.857588   4.496025   1.764314   0.000000
    15  C    3.614765   4.512677   2.671840   1.445659   0.000000
    16  H    4.877159   5.442856   2.515154   1.081069   2.240718
    17  H    4.507633   5.449223   3.694753   2.228819   1.086552
    18  H    4.776496   5.370313   7.198545   7.314815   6.225354
    19  O    6.636282   6.857930   9.370443   9.815905   8.867598
    20  H    7.368606   7.730539   9.995398  10.238678   9.166287
                   16         17         18         19         20
    16  H    0.000000
    17  H    2.644057   0.000000
    18  H    8.233934   6.352070   0.000000
    19  O   10.772379   9.110215   2.833549   0.000000
    20  H   11.162611   9.267287   2.942346   1.269724   0.000000
 Stoichiometry    C10H6OS3
 Framework group  C1[X(C10H6OS3)]
 Deg. of freedom    54
 Full point group                 C1      NOp   1
 Largest Abelian subgroup         C1      NOp   1
 Largest concise Abelian subgroup C1      NOp   1
                         Standard orientation:                         
 ---------------------------------------------------------------------
 Center     Atomic      Atomic             Coordinates (Angstroms)
 Number     Number       Type             X           Y           Z
 ---------------------------------------------------------------------
      1          6           0       -3.888982    0.309142    0.248032
      2          6           0       -2.579495    0.903194    0.194686
      3          6           0       -1.517084   -0.076631   -0.012501
      4          6           0       -3.861255   -1.118504    0.094551
      5         16           0       -2.242749   -1.716825   -0.123278
      6          1           0       -4.734848   -1.753355    0.094688
      7          6           0       -0.074280    0.043488   -0.157029
      8         16           0        0.742513    1.634878   -0.228863
      9          6           0        2.309080    0.918392   -0.384095
     10          6           0        2.258927   -0.521448   -0.358090
     11          6           0        0.925348   -1.025039   -0.214198
     12          1           0        0.708088   -2.062646   -0.011950
     13         16           0        3.738305   -1.230932    0.199510
     14          6           0        4.472628    0.360698    0.400228
     15          6           0        3.562923    1.431493    0.059988
     16          1           0        5.421563    0.502330    0.898397
     17          1           0        3.723782    2.459761    0.372052
     18          1           0       -2.618950    2.145962    0.230343
     19          8           0       -5.301714    1.235410    0.178618
     20          1           0       -5.541886    2.482026    0.200209
 ---------------------------------------------------------------------
 Rotational constants (GHZ):           1.3745586           0.2310232           0.1997182
 Standard basis: 6-311+G(d,p) (5D, 7F)
 There are   382 symmetry adapted cartesian basis functions of A   symmetry.
 There are   368 symmetry adapted basis functions of A   symmetry.
   368 basis functions,   594 primitive gaussians,   382 cartesian basis functions
    61 alpha electrons       61 beta electrons
       nuclear repulsion energy      1077.0406143830 Hartrees.
 NAtoms=   20 NActive=   20 NUniq=   20 SFac= 1.00D+00 NAtFMM=   60 NAOKFM=F Big=F
 Integral buffers will be    131072 words long.
 Raffenetti 2 integral format.
 Two-electron integral symmetry is turned on.
 One-electron integrals computed using PRISM.
 NBasis=   368 RedAO= T EigKep=  2.46D-06  NBF=   368
 NBsUse=   367 1.00D-06 EigRej=  3.87D-07 NBFU=   367
 ExpMin= 4.05D-02 ExpMax= 9.34D+04 ExpMxC= 3.17D+03 IAcc=3 IRadAn=         5 AccDes= 0.00D+00
 Harris functional with IExCor=  402 and IRadAn=       5 diagonalized for initial guess.
 HarFok:  IExCor=  402 AccDes= 0.00D+00 IRadAn=         5 IDoV= 1 UseB2=F ITyADJ=14
 ICtDFT=  3500011 ScaDFX=  1.000000  1.000000  1.000000  1.000000
 FoFCou: FMM=F IPFlag=           0 FMFlag=      100000 FMFlg1=           0
         NFxFlg=           0 DoJE=T BraDBF=F KetDBF=T FulRan=T
         wScrn=  0.000000 ICntrl=       500 IOpCl=  0 I1Cent=   200000004 NGrid=           0
         NMat0=    1 NMatS0=      1 NMatT0=    0 NMatD0=    1 NMtDS0=    0 NMtDT0=    0
 Petite list used in FoFCou.
 Requested convergence on RMS density matrix=1.00D-08 within 128 cycles.
 Requested convergence on MAX density matrix=1.00D-06.
 Requested convergence on             energy=1.00D-06.
 No special actions if energy rises.
 SCF Done:  E(RB3LYP) =  -1654.46408730     A.U. after   17 cycles
            NFock= 17  Conv=0.64D-08     -V/T= 2.0032

 **********************************************************************

            Population analysis using the SCF Density.

 **********************************************************************

 Orbital symmetries:
       Occupied  (A) (A) (A) (A) (A) (A) (A) (A) (A) (A) (A) (A)
                 (A) (A) (A) (A) (A) (A) (A) (A) (A) (A) (A) (A)
                 (A) (A) (A) (A) (A) (A) (A) (A) (A) (A) (A) (A)
                 (A) (A) (A) (A) (A) (A) (A) (A) (A) (A) (A) (A)
                 (A) (A) (A) (A) (A) (A) (A) (A) (A) (A) (A) (A)
                 (A)
       Virtual   (A) (A) (A) (A) (A) (A) (A) (A) (A) (A) (A) (A)
                 (A) (A) (A) (A) (A) (A) (A) (A) (A) (A) (A) (A)
                 (A) (A) (A) (A) (A) (A) (A) (A) (A) (A) (A) (A)
                 (A) (A) (A) (A) (A) (A) (A) (A) (A) (A) (A) (A)
                 (A) (A) (A) (A) (A) (A) (A) (A) (A) (A) (A) (A)
                 (A) (A) (A) (A) (A) (A) (A) (A) (A) (A) (A) (A)
                 (A) (A) (A) (A) (A) (A) (A) (A) (A) (A) (A) (A)
                 (A) (A) (A) (A) (A) (A) (A) (A) (A) (A) (A) (A)
                 (A) (A) (A) (A) (A) (A) (A) (A) (A) (A) (A) (A)
                 (A) (A) (A) (A) (A) (A) (A) (A) (A) (A) (A) (A)
                 (A) (A) (A) (A) (A) (A) (A) (A) (A) (A) (A) (A)
                 (A) (A) (A) (A) (A) (A) (A) (A) (A) (A) (A) (A)
                 (A) (A) (A) (A) (A) (A) (A) (A) (A) (A) (A) (A)
                 (A) (A) (A) (A) (A) (A) (A) (A) (A) (A) (A) (A)
                 (A) (A) (A) (A) (A) (A) (A) (A) (A) (A) (A) (A)
                 (A) (A) (A) (A) (A) (A) (A) (A) (A) (A) (A) (A)
                 (A) (A) (A) (A) (A) (A) (A) (A) (A) (A) (A) (A)
                 (A) (A) (A) (A) (A) (A) (A) (A) (A) (A) (A) (A)
                 (A) (A) (A) (A) (A) (A) (A) (A) (A) (A) (A) (A)
                 (A) (A) (A) (A) (A) (A) (A) (A) (A) (A) (A) (A)
                 (A) (A) (A) (A) (A) (A) (A) (A) (A) (A) (A) (A)
                 (A) (A) (A) (A) (A) (A) (A) (A) (A) (A) (A) (A)
                 (A) (A) (A) (A) (A) (A) (A) (A) (A) (A) (A) (A)
                 (A) (A) (A) (A) (A) (A) (A) (A) (A) (A) (A) (A)
                 (A) (A) (A) (A) (A) (A) (A) (A) (A) (A) (A) (A)
                 (A) (A) (A) (A) (A) (A)
 The electronic state is 1-A.
 Alpha  occ. eigenvalues --  -88.90575 -88.89692 -88.89465 -19.15519 -10.27349
 Alpha  occ. eigenvalues --  -10.25261 -10.24714 -10.22799 -10.22720 -10.22658
 Alpha  occ. eigenvalues --  -10.22577 -10.22552 -10.21247 -10.20888  -7.99018
 Alpha  occ. eigenvalues --   -7.98213  -7.97997  -5.95336  -5.94978  -5.94572
 Alpha  occ. eigenvalues --   -5.94525  -5.94328  -5.94166  -5.93960  -5.93766
 Alpha  occ. eigenvalues --   -5.93517  -0.93505  -0.91329  -0.88463  -0.84347
 Alpha  occ. eigenvalues --   -0.78162  -0.75699  -0.74674  -0.71711  -0.69192
 Alpha  occ. eigenvalues --   -0.62573  -0.58424  -0.56372  -0.54296  -0.53373
 Alpha  occ. eigenvalues --   -0.50479  -0.49673  -0.45787  -0.44214  -0.42240
 Alpha  occ. eigenvalues --   -0.41623  -0.40574  -0.40446  -0.39990  -0.39651
 Alpha  occ. eigenvalues --   -0.38335  -0.36605  -0.35084  -0.34705  -0.32446
 Alpha  occ. eigenvalues --   -0.31849  -0.30008  -0.27324  -0.25536  -0.24200
 Alpha  occ. eigenvalues --   -0.20412
 Alpha virt. eigenvalues --   -0.08784  -0.08285  -0.03922  -0.01615  -0.01342
 Alpha virt. eigenvalues --   -0.01122  -0.00202   0.00174   0.00555   0.00953
 Alpha virt. eigenvalues --    0.01887   0.02728   0.02907   0.03488   0.03679
 Alpha virt. eigenvalues --    0.03945   0.04859   0.05129   0.05345   0.05785
 Alpha virt. eigenvalues --    0.06496   0.06662   0.07612   0.08353   0.08637
 Alpha virt. eigenvalues --    0.08914   0.09186   0.09759   0.10015   0.11084
 Alpha virt. eigenvalues --    0.11323   0.11782   0.11857   0.12302   0.12608
 Alpha virt. eigenvalues --    0.12869   0.13673   0.14390   0.14814   0.15276
 Alpha virt. eigenvalues --    0.15646   0.15763   0.16448   0.16567   0.17061
 Alpha virt. eigenvalues --    0.17701   0.18233   0.18610   0.18822   0.19057
 Alpha virt. eigenvalues --    0.19543   0.19783   0.20155   0.20490   0.20763
 Alpha virt. eigenvalues --    0.21130   0.21183   0.21535   0.22122   0.22351
 Alpha virt. eigenvalues --    0.22817   0.23437   0.23784   0.24138   0.24547
 Alpha virt. eigenvalues --    0.25175   0.26217   0.26388   0.27283   0.28587
 Alpha virt. eigenvalues --    0.29092   0.29306   0.29684   0.30602   0.31034
 Alpha virt. eigenvalues --    0.32006   0.32756   0.33079   0.33765   0.33921
 Alpha virt. eigenvalues --    0.34287   0.35290   0.35522   0.36433   0.38080
 Alpha virt. eigenvalues --    0.39229   0.39846   0.41493   0.43037   0.43582
 Alpha virt. eigenvalues --    0.44363   0.45340   0.48247   0.49066   0.51611
 Alpha virt. eigenvalues --    0.53510   0.54071   0.54813   0.55385   0.55759
 Alpha virt. eigenvalues --    0.56395   0.57114   0.57625   0.59788   0.60149
 Alpha virt. eigenvalues --    0.61158   0.61483   0.62295   0.62637   0.63447
 Alpha virt. eigenvalues --    0.65955   0.66556   0.66976   0.68218   0.69226
 Alpha virt. eigenvalues --    0.69778   0.70760   0.71186   0.72473   0.73131
 Alpha virt. eigenvalues --    0.73700   0.73922   0.74698   0.75651   0.76627
 Alpha virt. eigenvalues --    0.77633   0.78123   0.79477   0.79743   0.80938
 Alpha virt. eigenvalues --    0.82066   0.82639   0.83675   0.84023   0.85273
 Alpha virt. eigenvalues --    0.86213   0.87491   0.88160   0.90106   0.91010
 Alpha virt. eigenvalues --    0.91532   0.92470   0.92753   0.93258   0.94639
 Alpha virt. eigenvalues --    0.96393   0.98076   0.98824   1.00163   1.00665
 Alpha virt. eigenvalues --    1.01264   1.04635   1.04782   1.06442   1.07646
 Alpha virt. eigenvalues --    1.10175   1.11350   1.13806   1.14888   1.17258
 Alpha virt. eigenvalues --    1.19846   1.20267   1.23429   1.25541   1.28768
 Alpha virt. eigenvalues --    1.34120   1.34794   1.35473   1.36948   1.39118
 Alpha virt. eigenvalues --    1.41498   1.45253   1.46210   1.49200   1.50188
 Alpha virt. eigenvalues --    1.50793   1.52283   1.53991   1.56358   1.58558
 Alpha virt. eigenvalues --    1.60053   1.60977   1.61089   1.62414   1.64399
 Alpha virt. eigenvalues --    1.65275   1.66470   1.67592   1.68010   1.69895
 Alpha virt. eigenvalues --    1.70907   1.72034   1.74233   1.74883   1.75449
 Alpha virt. eigenvalues --    1.77761   1.78908   1.80590   1.83325   1.83671
 Alpha virt. eigenvalues --    1.85001   1.86844   1.88730   1.89680   1.91199
 Alpha virt. eigenvalues --    1.93495   1.95230   1.96511   1.97455   1.97931
 Alpha virt. eigenvalues --    1.98803   1.99202   2.02200   2.03621   2.05641
 Alpha virt. eigenvalues --    2.07447   2.07799   2.10530   2.11775   2.13532
 Alpha virt. eigenvalues --    2.15052   2.16822   2.21529   2.24274   2.31110
 Alpha virt. eigenvalues --    2.33359   2.33949   2.35580   2.41885   2.45962
 Alpha virt. eigenvalues --    2.47907   2.53238   2.55082   2.59618   2.63375
 Alpha virt. eigenvalues --    2.64490   2.64689   2.68608   2.69109   2.70142
 Alpha virt. eigenvalues --    2.70753   2.73331   2.74157   2.76509   2.79159
 Alpha virt. eigenvalues --    2.79918   2.83288   2.87154   2.89731   2.91263
 Alpha virt. eigenvalues --    2.92298   2.93991   2.95009   2.96991   3.00295
 Alpha virt. eigenvalues --    3.01681   3.02840   3.04404   3.09719   3.18507
 Alpha virt. eigenvalues --    3.19232   3.24247   3.26108   3.30554   3.35806
 Alpha virt. eigenvalues --    3.38617   3.46943   3.48043   3.57910   3.59227
 Alpha virt. eigenvalues --    3.77558   3.82365   3.92386   4.03134   4.12044
 Alpha virt. eigenvalues --    4.30507   4.47628   5.01393   5.11890   5.25039
 Alpha virt. eigenvalues --    7.93243   7.95351   7.97199  17.26176  17.27881
 Alpha virt. eigenvalues --   17.28837  17.42000  17.44307  17.45855  17.47044
 Alpha virt. eigenvalues --   17.50233  17.52831  23.41009  23.55708  23.66244
 Alpha virt. eigenvalues --   23.75346  23.79554  23.84750  23.85764  23.88067
 Alpha virt. eigenvalues --   23.93648  23.95364  49.84442 189.09437 189.11807
 Alpha virt. eigenvalues --  189.14088
          Condensed to atoms (all electrons):
               1          2          3          4          5          6
     1  C    7.594213  -1.112872   0.198789  -1.115939   0.735643   0.070204
     2  C   -1.112872  13.145583  -3.646764   0.417879  -2.627653  -0.038317
     3  C    0.198789  -3.646764   9.393017  -0.271632   0.783829   0.026517
     4  C   -1.115939   0.417879  -0.271632   7.211927  -0.511649   0.324423
     5  S    0.735643  -2.627653   0.783829  -0.511649  17.511729  -0.022371
     6  H    0.070204  -0.038317   0.026517   0.324423  -0.022371   0.460660
     7  C   -0.016535  -0.604573  -0.442571  -0.036053   0.789065  -0.001929
     8  S   -0.069595  -0.402184   0.536414   0.079013   0.083413  -0.000729
     9  C   -0.069731  -0.566549  -0.250880  -0.008145   0.236435  -0.000056
    10  C    0.117177   0.137920   0.221247  -0.080767  -0.341061   0.000147
    11  C   -0.136200   0.216764  -0.548270  -0.080395  -0.169217   0.002224
    12  H   -0.003592   0.004010   0.010017   0.004484   0.012925   0.000003
    13  S   -0.003169   0.035674   0.021351   0.002943  -0.021420   0.000003
    14  C   -0.000078  -0.014694  -0.024912  -0.000405   0.002299  -0.000000
    15  C   -0.006077  -0.060090   0.042416   0.006753   0.010651  -0.000007
    16  H    0.000000  -0.000018   0.000092  -0.000001   0.000018   0.000000
    17  H    0.000068   0.000265  -0.001143  -0.000014   0.000002   0.000000
    18  H   -0.110546   0.265931   0.148625  -0.029095   0.011951  -0.000111
    19  O    0.317235  -0.030726  -0.013276  -0.141474   0.013380  -0.001243
    20  H   -0.089241   0.000960   0.032800   0.053370  -0.003188  -0.000194
               7          8          9         10         11         12
     1  C   -0.016535  -0.069595  -0.069731   0.117177  -0.136200  -0.003592
     2  C   -0.604573  -0.402184  -0.566549   0.137920   0.216764   0.004010
     3  C   -0.442571   0.536414  -0.250880   0.221247  -0.548270   0.010017
     4  C   -0.036053   0.079013  -0.008145  -0.080767  -0.080395   0.004484
     5  S    0.789065   0.083413   0.236435  -0.341061  -0.169217   0.012925
     6  H   -0.001929  -0.000729  -0.000056   0.000147   0.002224   0.000003
     7  C   10.641434   0.831727  -0.623646   1.593871  -4.992722   0.143483
     8  S    0.831727  17.712497  -0.760025   1.309388  -2.716787   0.015137
     9  C   -0.623646  -0.760025  13.928432  -6.697635   2.227747  -0.052437
    10  C    1.593871   1.309388  -6.697635  21.453765 -10.312333   0.051416
    11  C   -4.992722  -2.716787   2.227747 -10.312333  20.222879   0.160810
    12  H    0.143483   0.015137  -0.052437   0.051416   0.160810   0.514645
    13  S   -0.539722   0.091084   0.494223  -1.191579   0.832132   0.005854
    14  C    0.195238   0.013965   0.646129  -0.241696  -0.534549   0.001979
    15  C   -0.370275  -0.129720  -2.543717  -0.239664   1.165578  -0.014981
    16  H   -0.003673  -0.000042  -0.026370   0.006155   0.015004  -0.000002
    17  H    0.011906   0.024923   0.028891  -0.038139  -0.012331   0.000017
    18  H    0.010261   0.018951   0.006176  -0.002663   0.000357   0.000003
    19  O    0.013154   0.003509   0.000180   0.000041  -0.000019  -0.000000
    20  H    0.001064   0.001814   0.000048   0.000062  -0.000002  -0.000000
              13         14         15         16         17         18
     1  C   -0.003169  -0.000078  -0.006077   0.000000   0.000068  -0.110546
     2  C    0.035674  -0.014694  -0.060090  -0.000018   0.000265   0.265931
     3  C    0.021351  -0.024912   0.042416   0.000092  -0.001143   0.148625
     4  C    0.002943  -0.000405   0.006753  -0.000001  -0.000014  -0.029095
     5  S   -0.021420   0.002299   0.010651   0.000018   0.000002   0.011951
     6  H    0.000003  -0.000000  -0.000007   0.000000   0.000000  -0.000111
     7  C   -0.539722   0.195238  -0.370275  -0.003673   0.011906   0.010261
     8  S    0.091084   0.013965  -0.129720  -0.000042   0.024923   0.018951
     9  C    0.494223   0.646129  -2.543717  -0.026370   0.028891   0.006176
    10  C   -1.191579  -0.241696  -0.239664   0.006155  -0.038139  -0.002663
    11  C    0.832132  -0.534549   1.165578   0.015004  -0.012331   0.000357
    12  H    0.005854   0.001979  -0.014981  -0.000002   0.000017   0.000003
    13  S   16.596540   0.298107  -0.498961  -0.021498   0.003530  -0.000063
    14  C    0.298107   5.560012  -0.015544   0.367527   0.008264   0.000099
    15  C   -0.498961  -0.015544   8.321926   0.018303   0.321129  -0.000372
    16  H   -0.021498   0.367527   0.018303   0.471234  -0.003655  -0.000000
    17  H    0.003530   0.008264   0.321129  -0.003655   0.513984  -0.000000
    18  H   -0.000063   0.000099  -0.000372  -0.000000  -0.000000   0.535291
    19  O   -0.000008   0.000004   0.000018  -0.000000   0.000000  -0.001219
    20  H   -0.000000   0.000000   0.000002  -0.000000  -0.000000   0.001306
              19         20
     1  C    0.317235  -0.089241
     2  C   -0.030726   0.000960
     3  C   -0.013276   0.032800
     4  C   -0.141474   0.053370
     5  S    0.013380  -0.003188
     6  H   -0.001243  -0.000194
     7  C    0.013154   0.001064
     8  S    0.003509   0.001814
     9  C    0.000180   0.000048
    10  C    0.000041   0.000062
    11  C   -0.000019  -0.000002
    12  H   -0.000000  -0.000000
    13  S   -0.000008  -0.000000
    14  C    0.000004   0.000000
    15  C    0.000018   0.000002
    16  H   -0.000000  -0.000000
    17  H    0.000000  -0.000000
    18  H   -0.001219   0.001306
    19  O    8.103127   0.186769
    20  H    0.186769   0.528566
 Mulliken charges:
               1
     1  C   -0.299753
     2  C    0.879455
     3  C   -0.215667
     4  C    0.174776
     5  S   -0.494780
     6  H    0.180776
     7  C   -0.599507
     8  S   -0.642754
     9  C    0.030929
    10  C    0.254347
    11  C    0.659328
    12  H    0.146231
    13  S   -0.105021
    14  C   -0.261745
    15  C   -0.007368
    16  H    0.176924
    17  H    0.142304
    18  H    0.145115
    19  O   -0.449453
    20  H    0.285863
 Sum of Mulliken charges =  -0.00000
 Mulliken charges with hydrogens summed into heavy atoms:
               1
     1  C   -0.299753
     2  C    1.024570
     3  C   -0.215667
     4  C    0.355552
     5  S   -0.494780
     7  C   -0.599507
     8  S   -0.642754
     9  C    0.030929
    10  C    0.254347
    11  C    0.805559
    13  S   -0.105021
    14  C   -0.084820
    15  C    0.134936
    19  O   -0.163590
 Electronic spatial extent (au):  <R**2>=           4994.4147
 Charge=             -0.0000 electrons
 Dipole moment (field-independent basis, Debye):
    X=              1.4514    Y=              0.9297    Z=              0.9590  Tot=              1.9724
 Quadrupole moment (field-independent basis, Debye-Ang):
   XX=           -101.6478   YY=            -88.8523   ZZ=           -109.9798
   XY=             -1.9813   XZ=              4.7941   YZ=              1.3987
 Traceless Quadrupole moment (field-independent basis, Debye-Ang):
   XX=             -1.4878   YY=             11.3076   ZZ=             -9.8198
   XY=             -1.9813   XZ=              4.7941   YZ=              1.3987
 Octapole moment (field-independent basis, Debye-Ang**2):
  XXX=             63.7487  YYY=             23.8910  ZZZ=              1.2879  XYY=            -47.7481
  XXY=             37.5415  XXZ=             25.2063  XZZ=              1.7077  YZZ=             -0.5636
  YYZ=              4.9690  XYZ=              0.6939
 Hexadecapole moment (field-independent basis, Debye-Ang**3):
 XXXX=          -5699.1325 YYYY=           -920.4826 ZZZZ=           -176.7831 XXXY=           -123.5637
 XXXZ=            156.2609 YYYX=           -111.7592 YYYZ=             12.5911 ZZZX=             11.5374
 ZZZY=             -0.2148 XXYY=           -825.6851 XXZZ=          -1051.2090 YYZZ=           -214.4326
 XXYZ=             25.3242 YYXZ=              4.3643 ZZXY=             -6.9237
 N-N= 1.077040614383D+03 E-N=-6.063388696557D+03  KE= 1.649106935137D+03
 Calling FoFJK, ICntrl=      2127 FMM=F ISym2X=0 I1Cent= 0 IOpClX= 0 NMat=1 NMatS=1 NMatT=0.
 ***** Axes restored to original set *****
 -------------------------------------------------------------------
 Center     Atomic                   Forces (Hartrees/Bohr)
 Number     Number              X              Y              Z
 -------------------------------------------------------------------
      1        6          -0.013476087    0.009295800   -0.020291556
      2        6           0.001465744    0.025702316   -0.015814762
      3        6          -0.030145528    0.027225775   -0.000238770
      4        6          -0.015479225    0.057814582   -0.008420408
      5       16          -0.004253294    0.026414429   -0.002341167
      6        1           0.003117637   -0.003800664   -0.000609513
      7        6           0.032096017   -0.031822571    0.005907331
      8       16          -0.014910910   -0.009509380   -0.003210625
      9        6           0.016376895   -0.023634116    0.022899840
     10        6          -0.027503126    0.030690467    0.005308636
     11        6          -0.020556797    0.046027212   -0.012043579
     12        1          -0.004418534   -0.001808782   -0.002230800
     13       16           0.012250409    0.009625070   -0.010186080
     14        6          -0.039885177    0.039193698   -0.018266593
     15        6           0.026224714   -0.039789937    0.028368640
     16        1           0.000886582   -0.006251173   -0.003810632
     17        1           0.002957277   -0.005081188   -0.007053507
     18        1           0.014005501   -0.069599669    0.018735875
     19        8           0.018700624    0.025715158   -0.006684310
     20        1           0.042547279   -0.106407029    0.029981978
 -------------------------------------------------------------------
 Cartesian Forces:  Max     0.106407029 RMS     0.026874434

 GradGradGradGradGradGradGradGradGradGradGradGradGradGradGradGradGradGrad
 Berny optimization.
 FormGI is forming the generalized inverse of G from B-inverse, IUseBI=4.
 Internal  Forces:  Max     0.115027900 RMS     0.022653048
 Search for a local minimum.
 Step number   1 out of a maximum of  116
 All quantities printed in internal units (Hartrees-Bohrs-Radians)
 Mixed Optimization -- RFO/linear search
 Second derivative matrix not updated -- first step.
 ITU=  0
     Eigenvalues ---    0.00230   0.00983   0.01058   0.01223   0.01273
     Eigenvalues ---    0.01297   0.01386   0.01417   0.01418   0.01464
     Eigenvalues ---    0.01493   0.01554   0.01596   0.01770   0.02198
     Eigenvalues ---    0.02650   0.15072   0.15682   0.15739   0.15872
     Eigenvalues ---    0.15997   0.16000   0.18002   0.18458   0.20203
     Eigenvalues ---    0.21719   0.22444   0.23321   0.23380   0.23776
     Eigenvalues ---    0.23980   0.24292   0.24979   0.24995   0.26219
     Eigenvalues ---    0.26559   0.28453   0.30834   0.31271   0.31610
     Eigenvalues ---    0.34829   0.35214   0.35849   0.35865   0.36006
     Eigenvalues ---    0.36088   0.36311   0.37598   0.38223   0.38494
     Eigenvalues ---    0.39449   0.39684   0.406701000.000001000.00000
     Eigenvalues --- 1000.000001000.000001000.000001000.000001000.00000
     Eigenvalues --- 1000.000001000.000001000.000001000.000001000.00000
     Eigenvalues --- 1000.000001000.000001000.000001000.000001000.00000
     Eigenvalues --- 1000.000001000.000001000.000001000.000001000.00000
     Eigenvalues --- 1000.000001000.000001000.000001000.000001000.00000
     Eigenvalues --- 1000.000001000.000001000.000001000.000001000.00000
     Eigenvalues --- 1000.000001000.000001000.000001000.000001000.00000
     Eigenvalues --- 1000.000001000.000001000.000001000.000001000.00000
     Eigenvalues --- 1000.000001000.000001000.000001000.000001000.00000
     Eigenvalues --- 1000.000001000.000001000.000001000.000001000.00000
     Eigenvalues --- 1000.00000
 RFO step:  Lambda=-1.43937328D-01 EMin= 2.30000000D-03
 Linear search not attempted -- first point.
 Maximum step size (   0.300) exceeded in Quadratic search.
    -- Step size scaled by   0.486
 Iteration  1 RMS(Cart)=  0.06155114 RMS(Int)=  0.00162087
 Iteration  2 RMS(Cart)=  0.00192039 RMS(Int)=  0.00007192
 Iteration  3 RMS(Cart)=  0.00001059 RMS(Int)=  0.00007161
 Iteration  4 RMS(Cart)=  0.00000000 RMS(Int)=  0.00007161
 Iteration  1 RMS(Cart)=  0.00000121 RMS(Int)=  0.00000062
 Iteration  2 RMS(Cart)=  0.00000066 RMS(Int)=  0.00000070
 Variable       Old X    -DE/DX   Delta X   Delta X   Delta X     New X
                                 (Linear)    (Quad)   (Total)
    R1        2.71917  -0.02242   0.00000  -0.02115  -0.02107   2.69810
    R2        2.71391  -0.06324   0.00000  -0.05683  -0.05679   2.65712
    R3        3.19503  -0.09925   0.00000  -0.14671  -0.14671   3.04833
    R4        2.75906  -0.06503   0.00000  -0.06182  -0.06180   2.69726
    R5        2.35064  -0.07156   0.00000  -0.09622  -0.09622   2.25442
    R6        3.39578  -0.01722   0.00000  -0.01942  -0.01948   3.37630
    R7        2.74954  -0.01776   0.00000  -0.01659  -0.01659   2.73295
    R8        3.28671  -0.01397   0.00000  -0.01399  -0.01404   3.27268
    R9        2.04073  -0.00098   0.00000  -0.00094  -0.00094   2.03979
   R10        3.38300  -0.01225   0.00000  -0.01344  -0.01349   3.36951
   R11        2.76719  -0.05936   0.00000  -0.05698  -0.05700   2.71019
   R12        3.26850   0.00117   0.00000   0.00187   0.00187   3.27038
   R13        2.72300  -0.03066   0.00000  -0.02821  -0.02810   2.69489
   R14        2.69417  -0.00325   0.00000  -0.00361  -0.00355   2.69062
   R15        2.70748  -0.01426   0.00000  -0.01348  -0.01345   2.69404
   R16        3.27465   0.00136   0.00000   0.00227   0.00226   3.27691
   R17        2.03945   0.00137   0.00000   0.00132   0.00132   2.04077
   R18        3.33407  -0.01205   0.00000  -0.01289  -0.01295   3.32112
   R19        2.73190  -0.05781   0.00000  -0.05327  -0.05328   2.67862
   R20        2.04292  -0.00135   0.00000  -0.00130  -0.00130   2.04162
   R21        2.05329  -0.00383   0.00000  -0.00375  -0.00375   2.04954
   R22        2.39943  -0.11503   0.00000  -0.16145  -0.16145   2.23798
    A1        1.97020   0.02007   0.00000   0.02322   0.02333   1.99354
    A2        2.13260   0.00504   0.00000   0.00780   0.00775   2.14035
    A3        2.16079  -0.02452   0.00000  -0.02929  -0.02939   2.13140
    A4        1.97187  -0.00244   0.00000  -0.00504  -0.00494   1.96693
    A5        1.96334   0.02032   0.00000   0.03323   0.03318   1.99652
    A6        2.34288  -0.01770   0.00000  -0.02754  -0.02760   2.31528
    A7        1.90440  -0.00062   0.00000  -0.00002  -0.00005   1.90434
    A8        2.31891  -0.00992   0.00000  -0.01261  -0.01260   2.30632
    A9        2.05972   0.01055   0.00000   0.01263   0.01265   2.07237
   A10        1.95339  -0.01458   0.00000  -0.01916  -0.01916   1.93423
   A11        2.17580   0.01219   0.00000   0.01743   0.01743   2.19323
   A12        2.15384   0.00241   0.00000   0.00179   0.00179   2.15563
   A13        1.62490  -0.00243   0.00000   0.00102   0.00083   1.62573
   A14        2.12917  -0.00563   0.00000  -0.00674  -0.00674   2.12243
   A15        2.24026  -0.00182   0.00000  -0.00206  -0.00206   2.23820
   A16        1.91307   0.00752   0.00000   0.00892   0.00892   1.92199
   A17        1.61942  -0.00703   0.00000  -0.00673  -0.00671   1.61272
   A18        1.96144  -0.01026   0.00000  -0.01104  -0.01115   1.95029
   A19        2.23892   0.00814   0.00000   0.01395   0.01378   2.25270
   A20        1.96558   0.00583   0.00000   0.00701   0.00706   1.97264
   A21        1.96647   0.00781   0.00000   0.00879   0.00880   1.97527
   A22        1.96623  -0.01316   0.00000  -0.01448  -0.01455   1.95167
   A23        2.23751   0.00877   0.00000   0.01469   0.01455   2.25205
   A24        1.96367   0.00198   0.00000   0.00008   0.00014   1.96381
   A25        2.16135  -0.00375   0.00000  -0.00398  -0.00404   2.15731
   A26        2.14615   0.00233   0.00000   0.00562   0.00555   2.15170
   A27        1.59338   0.00017   0.00000   0.00157   0.00157   1.59494
   A28        1.96007   0.00164   0.00000   0.00114   0.00111   1.96118
   A29        2.13643  -0.00479   0.00000  -0.00632  -0.00638   2.13005
   A30        2.16974   0.00417   0.00000   0.00816   0.00812   2.17785
   A31        1.93923   0.00551   0.00000   0.00473   0.00479   1.94401
   A32        2.16548   0.00004   0.00000   0.00344   0.00331   2.16880
   A33        2.14148  -0.00362   0.00000  -0.00260  -0.00274   2.13874
   A34        2.33954  -0.06779   0.00000  -0.10830  -0.10830   2.23123
    D1        0.00683  -0.00109   0.00000  -0.00343  -0.00345   0.00339
    D2        3.05589  -0.00059   0.00000   0.00071   0.00087   3.05677
    D3       -2.93068  -0.00127   0.00000  -0.00883  -0.00905  -2.93973
    D4        0.11838  -0.00076   0.00000  -0.00469  -0.00473   0.11365
    D5       -0.00671   0.00075   0.00000   0.00193   0.00194  -0.00477
    D6       -3.13020  -0.00082   0.00000  -0.00176  -0.00174  -3.13194
    D7        2.92697   0.00506   0.00000   0.01261   0.01251   2.93948
    D8       -0.19651   0.00348   0.00000   0.00892   0.00883  -0.18769
    D9       -0.13323   0.00171   0.00000   0.00223   0.00218  -0.13105
   D10       -3.04818  -0.00422   0.00000  -0.01057  -0.01052  -3.05870
   D11       -0.00388   0.00109   0.00000   0.00348   0.00343  -0.00045
   D12        3.11762   0.00199   0.00000   0.00365   0.00360   3.12122
   D13       -3.02603  -0.00264   0.00000  -0.00675  -0.00670  -3.03273
   D14        0.09547  -0.00174   0.00000  -0.00658  -0.00653   0.08894
   D15        0.00006  -0.00051   0.00000  -0.00197  -0.00195  -0.00189
   D16       -3.12486  -0.00101   0.00000  -0.00180  -0.00179  -3.12664
   D17       -0.08728  -0.00205   0.00000   0.00000  -0.00000  -0.08728
   D18        3.01053   0.00026   0.00000   0.00415   0.00415   3.01468
   D19        3.03281  -0.00121   0.00000   0.00004   0.00004   3.03285
   D20       -0.15257   0.00110   0.00000   0.00418   0.00419  -0.14838
   D21        0.00376  -0.00014   0.00000   0.00003   0.00001   0.00377
   D22        3.12751   0.00153   0.00000   0.00387   0.00380   3.13131
   D23        3.13742   0.00115   0.00000   0.00234   0.00234   3.13975
   D24        0.03227  -0.00063   0.00000  -0.00094  -0.00096   0.03131
   D25       -3.13833  -0.00198   0.00000  -0.00423  -0.00421   3.14064
   D26       -0.15872   0.00203   0.00000   0.00783   0.00783  -0.15089
   D27       -0.03616  -0.00015   0.00000  -0.00079  -0.00074  -0.03689
   D28        2.94345   0.00387   0.00000   0.01127   0.01131   2.95476
   D29       -0.02078   0.00157   0.00000   0.00281   0.00279  -0.01799
   D30       -2.61688  -0.00720   0.00000  -0.01930  -0.01932  -2.63619
   D31        0.00321  -0.00156   0.00000  -0.00342  -0.00338  -0.00017
   D32       -2.68869  -0.01043   0.00000  -0.02421  -0.02398  -2.71267
   D33        2.68784   0.00751   0.00000   0.01847   0.01834   2.70618
   D34       -0.00405  -0.00136   0.00000  -0.00232  -0.00227  -0.00632
   D35        2.61347   0.00600   0.00000   0.01990   0.02006   2.63353
   D36       -0.24506  -0.00068   0.00000  -0.00043  -0.00036  -0.24542
   D37        0.01841   0.00126   0.00000   0.00228   0.00225   0.02066
   D38       -2.84012  -0.00542   0.00000  -0.01805  -0.01817  -2.85828
   D39        0.02186   0.00110   0.00000   0.00266   0.00263   0.02449
   D40       -2.95938  -0.00222   0.00000  -0.00826  -0.00834  -2.96772
   D41        2.62774   0.00466   0.00000   0.01778   0.01795   2.64569
   D42       -0.35350   0.00133   0.00000   0.00687   0.00698  -0.34652
   D43       -0.00875   0.00110   0.00000   0.00154   0.00151  -0.00724
   D44       -2.61469  -0.00766   0.00000  -0.01935  -0.01931  -2.63400
   D45        0.01932  -0.00027   0.00000  -0.00015  -0.00015   0.01918
   D46        2.97188   0.00591   0.00000   0.01732   0.01724   2.98912
   D47       -0.02492  -0.00042   0.00000  -0.00109  -0.00106  -0.02597
   D48        2.83817   0.00682   0.00000   0.02004   0.02007   2.85824
   D49       -2.97323  -0.00559   0.00000  -0.01708  -0.01713  -2.99036
   D50       -0.11014   0.00164   0.00000   0.00405   0.00400  -0.10614
         Item               Value     Threshold  Converged?
 Maximum Force            0.115028     0.000450     NO 
 RMS     Force            0.022759     0.000300     NO 
 Maximum Displacement     0.419935     0.001800     NO 
 RMS     Displacement     0.061039     0.001200     NO 
 Predicted change in Energy=-5.974050D-02
 GradGradGradGradGradGradGradGradGradGradGradGradGradGradGradGradGradGrad

                          Input orientation:                          
 ---------------------------------------------------------------------
 Center     Atomic      Atomic             Coordinates (Angstroms)
 Number     Number       Type             X           Y           Z
 ---------------------------------------------------------------------
      1          6           0       -4.225494   -1.365381   -0.228046
      2          6           0       -2.912127   -0.964789   -0.619357
      3          6           0       -1.982372   -2.047758   -0.616941
      4          6           0       -4.343100   -2.731460    0.083541
      5         16           0       -2.824509   -3.540576   -0.112500
      6          1           0       -5.249172   -3.231060    0.391040
      7          6           0       -0.578285   -2.121996   -0.955413
      8         16           0        0.297314   -0.719743   -1.623500
      9          6           0        1.782287   -1.602758   -1.724222
     10          6           0        1.637972   -2.936131   -1.239469
     11          6           0        0.317652   -3.229412   -0.788759
     12          1           0        0.061762   -4.129320   -0.249381
     13         16           0        3.148466   -3.591127   -0.695061
     14          6           0        3.992020   -2.107885   -1.115862
     15          6           0        3.119799   -1.121716   -1.641126
     16          1           0        5.021062   -1.934582   -0.836107
     17          1           0        3.398329   -0.076122   -1.714886
     18          1           0       -2.828234    0.171856   -0.971806
     19          8           0       -5.514587   -0.411881   -0.404644
     20          1           0       -5.537780    0.723841   -0.739502
 ---------------------------------------------------------------------
                    Distance matrix (angstroms):
                    1          2          3          4          5
     1  C    0.000000
     2  C    1.427771   0.000000
     3  C    2.376652   1.427330   0.000000
     4  C    1.406090   2.379679   2.555614   0.000000
     5  S    2.589900   2.626644   1.786663   1.731826   0.000000
     6  H    2.216290   3.408616   3.617764   1.079409   2.495665
     7  C    3.795216   2.626572   1.446214   3.952810   2.787184
     8  S    4.777021   3.371774   2.823783   5.338018   4.470570
     9  C    6.195831   4.864694   3.949272   6.485548   5.251224
    10  C    6.153899   4.997413   3.779370   6.129068   4.642107
    11  C    4.942589   3.948252   2.591513   4.767754   3.229137
    12  H    5.101018   4.358343   2.940491   4.633321   2.948884
    13  S    7.716691   6.605616   5.358506   7.580818   6.001530
    14  C    8.298618   7.015727   5.995489   8.444030   7.037358
    15  C    7.483949   6.119867   5.285702   7.826916   6.597149
    16  H    9.283993   7.995184   7.007776   9.442896   8.040883
    17  H    7.873726   6.466202   5.834789   8.379432   7.300260
    18  H    2.206493   1.192988   2.401686   3.440613   3.810587
    19  O    1.613105   2.669196   3.898423   2.644078   4.136496
    20  H    2.519629   3.124093   4.509735   3.747501   5.093155
                    6          7          8          9         10
     6  H    0.000000
     7  C    4.985995   0.000000
     8  S    6.413158   1.783067   0.000000
     9  C    7.521111   2.536331   1.730609   0.000000
    10  C    7.083665   2.378087   2.618630   1.426076   0.000000
    11  C    5.690471   1.434171   2.644929   2.380388   1.425622
    12  H    5.424300   2.222047   3.683600   3.393947   2.210976
    13  S    8.475234   4.014324   4.151616   2.622828   1.734067
    14  C    9.430372   4.573142   3.979383   2.346950   2.498562
    15  C    8.866719   3.891862   2.851020   1.423814   2.376813
    16  H   10.424224   5.603753   4.940609   3.374688   3.551210
    17  H    9.442872   4.536062   3.168421   2.223128   3.391832
    18  H    4.392964   3.213144   3.314921   4.997227   5.447772
    19  O    2.941314   5.253086   5.946308   7.510249   7.630719
    20  H    4.123429   5.722062   6.075665   7.743779   8.070736
                   11         12         13         14         15
    11  C    0.000000
    12  H    1.079927   0.000000
    13  S    2.855367   3.164810   0.000000
    14  C    3.855619   4.503767   1.757460   0.000000
    15  C    3.608453   4.509348   2.644589   1.417463   0.000000
    16  H    4.878615   5.454885   2.504127   1.080381   2.218920
    17  H    4.504610   5.450578   3.668478   2.199854   1.084567
    18  H    4.636672   5.232025   7.068066   7.192623   6.123758
    19  O    6.488531   6.703665   9.232574   9.682863   8.751307
    20  H    7.065177   7.426188   9.699061   9.948739   8.897903
                   16         17         18         19         20
    16  H    0.000000
    17  H    2.619043   0.000000
    18  H    8.128157   6.275647   0.000000
    19  O   10.653857   9.014962   2.806941   0.000000
    20  H   10.888787   9.024708   2.774940   1.184286   0.000000
 Stoichiometry    C10H6OS3
 Framework group  C1[X(C10H6OS3)]
 Deg. of freedom    54
 Full point group                 C1      NOp   1
 Largest Abelian subgroup         C1      NOp   1
 Largest concise Abelian subgroup C1      NOp   1
                         Standard orientation:                         
 ---------------------------------------------------------------------
 Center     Atomic      Atomic             Coordinates (Angstroms)
 Number     Number       Type             X           Y           Z
 ---------------------------------------------------------------------
      1          6           0       -3.845190    0.329158    0.235807
      2          6           0       -2.538802    0.902829    0.183076
      3          6           0       -1.516017   -0.073500   -0.011770
      4          6           0       -3.867363   -1.069329    0.091477
      5         16           0       -2.265172   -1.691921   -0.119667
      6          1           0       -4.751628   -1.688352    0.094500
      7          6           0       -0.080575    0.038729   -0.147579
      8         16           0        0.730347    1.625229   -0.216508
      9          6           0        2.294843    0.900586   -0.365669
     10          6           0        2.222004   -0.523416   -0.341028
     11          6           0        0.891131   -1.014759   -0.200464
     12          1           0        0.659525   -2.051753   -0.007472
     13         16           0        3.710980   -1.235941    0.190242
     14          6           0        4.452257    0.346902    0.374043
     15          6           0        3.559439    1.400884    0.055928
     16          1           0        5.417890    0.476913    0.840814
     17          1           0        3.742534    2.428972    0.348841
     18          1           0       -2.522775    2.095322    0.213501
     19          8           0       -5.189176    1.219134    0.174532
     20          1           0       -5.280988    2.399448    0.205558
 ---------------------------------------------------------------------
 Rotational constants (GHZ):           1.4098929           0.2352331           0.2034045
 Standard basis: 6-311+G(d,p) (5D, 7F)
 There are   382 symmetry adapted cartesian basis functions of A   symmetry.
 There are   368 symmetry adapted basis functions of A   symmetry.
   368 basis functions,   594 primitive gaussians,   382 cartesian basis functions
    61 alpha electrons       61 beta electrons
       nuclear repulsion energy      1087.3262030694 Hartrees.
 NAtoms=   20 NActive=   20 NUniq=   20 SFac= 1.00D+00 NAtFMM=   60 NAOKFM=F Big=F
 Integral buffers will be    131072 words long.
 Raffenetti 2 integral format.
 Two-electron integral symmetry is turned on.
 One-electron integrals computed using PRISM.
 NBasis=   368 RedAO= T EigKep=  2.19D-06  NBF=   368
 NBsUse=   367 1.00D-06 EigRej=  3.46D-07 NBFU=   367
 Initial guess from the checkpoint file:  "/tmp/pbs.4730634[170].pbs/Gau-1306374.chk"
 B after Tr=     0.000000    0.000000   -0.000000
         Rot=    0.999996   -0.000303   -0.000399    0.002635 Ang=  -0.31 deg.
 ExpMin= 4.05D-02 ExpMax= 9.34D+04 ExpMxC= 3.17D+03 IAcc=3 IRadAn=         5 AccDes= 0.00D+00
 Harris functional with IExCor=  402 and IRadAn=       5 diagonalized for initial guess.
 HarFok:  IExCor=  402 AccDes= 0.00D+00 IRadAn=         5 IDoV= 1 UseB2=F ITyADJ=14
 ICtDFT=  3500011 ScaDFX=  1.000000  1.000000  1.000000  1.000000
 FoFCou: FMM=F IPFlag=           0 FMFlag=      100000 FMFlg1=           0
         NFxFlg=           0 DoJE=T BraDBF=F KetDBF=T FulRan=T
         wScrn=  0.000000 ICntrl=       500 IOpCl=  0 I1Cent=   200000004 NGrid=           0
         NMat0=    1 NMatS0=      1 NMatT0=    0 NMatD0=    1 NMtDS0=    0 NMtDT0=    0
 Petite list used in FoFCou.
 Requested convergence on RMS density matrix=1.00D-08 within 128 cycles.
 Requested convergence on MAX density matrix=1.00D-06.
 Requested convergence on             energy=1.00D-06.
 No special actions if energy rises.
 SCF Done:  E(RB3LYP) =  -1654.52883664     A.U. after   14 cycles
            NFock= 14  Conv=0.48D-08     -V/T= 2.0029
 Calling FoFJK, ICntrl=      2127 FMM=F ISym2X=0 I1Cent= 0 IOpClX= 0 NMat=1 NMatS=1 NMatT=0.
 ***** Axes restored to original set *****
 -------------------------------------------------------------------
 Center     Atomic                   Forces (Hartrees/Bohr)
 Number     Number              X              Y              Z
 -------------------------------------------------------------------
      1        6          -0.032864342    0.025224924   -0.020450257
      2        6           0.001793878    0.025222691   -0.013708198
      3        6          -0.024317494    0.018275557    0.000365048
      4        6          -0.010751665    0.042692012   -0.005138610
      5       16           0.000646045    0.015590805   -0.001153690
      6        1           0.002596009   -0.003229516   -0.000841745
      7        6           0.026658990   -0.023795873    0.003899614
      8       16          -0.012633288   -0.005655916   -0.004518493
      9        6           0.011277410   -0.017326683    0.018875371
     10        6          -0.017131724    0.024402251    0.005409427
     11        6          -0.016657114    0.032665953   -0.008141272
     12        1          -0.003480660   -0.001764818   -0.002577866
     13       16           0.010678574    0.003754439   -0.007992580
     14        6          -0.029120656    0.029310636   -0.012235637
     15        6           0.019755013   -0.027195888    0.021247111
     16        1           0.001045240   -0.005751969   -0.003403131
     17        1           0.002198192   -0.003482963   -0.007125360
     18        1           0.010761277   -0.054850549    0.015318042
     19        8           0.031846580    0.029843653   -0.007765619
     20        1           0.027699735   -0.103928746    0.029937844
 -------------------------------------------------------------------
 Cartesian Forces:  Max     0.103928746 RMS     0.023196977

 GradGradGradGradGradGradGradGradGradGradGradGradGradGradGradGradGradGrad
 Berny optimization.
 Using GEDIIS/GDIIS optimizer.
 FormGI is forming the generalized inverse of G from B-inverse, IUseBI=4.
 Internal  Forces:  Max     0.108674222 RMS     0.018784327
 Search for a local minimum.
 Step number   2 out of a maximum of  116
 All quantities printed in internal units (Hartrees-Bohrs-Radians)
 Mixed Optimization -- RFO/linear search
 Update second derivatives using D2CorX and points    1    2
 DE= -6.47D-02 DEPred=-5.97D-02 R= 1.08D+00
 TightC=F SS=  1.41D+00  RLast= 3.08D-01 DXNew= 5.0454D-01 9.2314D-01
 Trust test= 1.08D+00 RLast= 3.08D-01 DXMaxT set to 5.05D-01
 ITU=  1  0
 Use linear search instead of GDIIS.
 Linear search step of   0.600 exceeds DXMaxT=   0.505 but not scaled.
 Quartic linear search produced a step of  2.00000.
 Iteration  1 RMS(Cart)=  0.10498139 RMS(Int)=  0.01889066
 Iteration  2 RMS(Cart)=  0.02198304 RMS(Int)=  0.00042956
 Iteration  3 RMS(Cart)=  0.00007539 RMS(Int)=  0.00042860
 Iteration  4 RMS(Cart)=  0.00000001 RMS(Int)=  0.00042860
 Iteration  1 RMS(Cart)=  0.00000677 RMS(Int)=  0.00000362
 Iteration  2 RMS(Cart)=  0.00000369 RMS(Int)=  0.00000404
 Iteration  3 RMS(Cart)=  0.00000201 RMS(Int)=  0.00000456
 Iteration  4 RMS(Cart)=  0.00000110 RMS(Int)=  0.00000491
 Iteration  5 RMS(Cart)=  0.00000060 RMS(Int)=  0.00000511
 Variable       Old X    -DE/DX   Delta X   Delta X   Delta X     New X
                                 (Linear)    (Quad)   (Total)
    R1        2.69810  -0.01206  -0.04215   0.00000  -0.04166   2.65643
    R2        2.65712  -0.04250  -0.11358   0.00000  -0.11332   2.54381
    R3        3.04833  -0.09380  -0.29341   0.00000  -0.29341   2.75491
    R4        2.69726  -0.04347  -0.12360   0.00000  -0.12346   2.57380
    R5        2.25442  -0.05603  -0.19244   0.00000  -0.19244   2.06198
    R6        3.37630  -0.01264  -0.03896   0.00000  -0.03935   3.33695
    R7        2.73295  -0.00826  -0.03318   0.00000  -0.03318   2.69977
    R8        3.27268  -0.00634  -0.02807   0.00000  -0.02838   3.24430
    R9        2.03979  -0.00092  -0.00189   0.00000  -0.00189   2.03790
   R10        3.36951  -0.00818  -0.02698   0.00000  -0.02728   3.34223
   R11        2.71019  -0.04222  -0.11400   0.00000  -0.11412   2.59607
   R12        3.27038   0.00282   0.00374   0.00000   0.00375   3.27413
   R13        2.69489  -0.02131  -0.05620   0.00000  -0.05558   2.63932
   R14        2.69062  -0.00087  -0.00711   0.00000  -0.00679   2.68383
   R15        2.69404  -0.00748  -0.02690   0.00000  -0.02669   2.66734
   R16        3.27691   0.00281   0.00452   0.00000   0.00445   3.28136
   R17        2.04077   0.00101   0.00264   0.00000   0.00264   2.04341
   R18        3.32112  -0.00795  -0.02590   0.00000  -0.02629   3.29482
   R19        2.67862  -0.04027  -0.10657   0.00000  -0.10666   2.57196
   R20        2.04162  -0.00081  -0.00260   0.00000  -0.00260   2.03902
   R21        2.04954  -0.00231  -0.00750   0.00000  -0.00750   2.04203
   R22        2.23798  -0.10867  -0.32291   0.00000  -0.32291   1.91507
    A1        1.99354   0.01129   0.04667   0.00000   0.04735   2.04089
    A2        2.14035   0.00636   0.01551   0.00000   0.01521   2.15556
    A3        2.13140  -0.01704  -0.05878   0.00000  -0.05936   2.07204
    A4        1.96693  -0.00106  -0.00988   0.00000  -0.00926   1.95767
    A5        1.99652   0.01698   0.06636   0.00000   0.06604   2.06256
    A6        2.31528  -0.01573  -0.05520   0.00000  -0.05559   2.25969
    A7        1.90434   0.00096  -0.00011   0.00000  -0.00026   1.90408
    A8        2.30632  -0.00841  -0.02519   0.00000  -0.02511   2.28120
    A9        2.07237   0.00747   0.02530   0.00000   0.02538   2.09774
   A10        1.93423  -0.00789  -0.03832   0.00000  -0.03832   1.89591
   A11        2.19323   0.00805   0.03485   0.00000   0.03483   2.22806
   A12        2.15563  -0.00014   0.00358   0.00000   0.00356   2.15919
   A13        1.62573  -0.00330   0.00167   0.00000   0.00047   1.62620
   A14        2.12243  -0.00495  -0.01348   0.00000  -0.01351   2.10892
   A15        2.23820  -0.00048  -0.00412   0.00000  -0.00415   2.23405
   A16        1.92199   0.00549   0.01784   0.00000   0.01786   1.93986
   A17        1.61272  -0.00496  -0.01341   0.00000  -0.01330   1.59941
   A18        1.95029  -0.00724  -0.02230   0.00000  -0.02293   1.92736
   A19        2.25270   0.00660   0.02756   0.00000   0.02655   2.27925
   A20        1.97264   0.00391   0.01412   0.00000   0.01440   1.98704
   A21        1.97527   0.00487   0.01761   0.00000   0.01769   1.99296
   A22        1.95167  -0.00878  -0.02910   0.00000  -0.02952   1.92216
   A23        2.25205   0.00699   0.02909   0.00000   0.02823   2.28028
   A24        1.96381   0.00187   0.00029   0.00000   0.00068   1.96449
   A25        2.15731  -0.00282  -0.00807   0.00000  -0.00843   2.14888
   A26        2.15170   0.00145   0.01110   0.00000   0.01072   2.16242
   A27        1.59494  -0.00072   0.00313   0.00000   0.00308   1.59802
   A28        1.96118   0.00205   0.00222   0.00000   0.00206   1.96324
   A29        2.13005  -0.00479  -0.01276   0.00000  -0.01312   2.11693
   A30        2.17785   0.00363   0.01623   0.00000   0.01596   2.19382
   A31        1.94401   0.00354   0.00958   0.00000   0.00992   1.95393
   A32        2.16880  -0.00006   0.00662   0.00000   0.00586   2.17465
   A33        2.13874  -0.00185  -0.00548   0.00000  -0.00630   2.13244
   A34        2.23123  -0.05718  -0.21661   0.00000  -0.21661   2.01463
    D1        0.00339  -0.00078  -0.00690   0.00000  -0.00700  -0.00362
    D2        3.05677   0.00005   0.00175   0.00000   0.00270   3.05947
    D3       -2.93973  -0.00221  -0.01811   0.00000  -0.01938  -2.95911
    D4        0.11365  -0.00138  -0.00946   0.00000  -0.00967   0.10398
    D5       -0.00477   0.00053   0.00388   0.00000   0.00393  -0.00084
    D6       -3.13194  -0.00082  -0.00349   0.00000  -0.00336  -3.13530
    D7        2.93948   0.00490   0.02502   0.00000   0.02442   2.96390
    D8       -0.18769   0.00355   0.01765   0.00000   0.01713  -0.17056
    D9       -0.13105   0.00130   0.00436   0.00000   0.00402  -0.12702
   D10       -3.05870  -0.00367  -0.02103   0.00000  -0.02070  -3.07939
   D11       -0.00045   0.00071   0.00685   0.00000   0.00653   0.00608
   D12        3.12122   0.00168   0.00720   0.00000   0.00690   3.12812
   D13       -3.03273  -0.00276  -0.01341   0.00000  -0.01310  -3.04584
   D14        0.08894  -0.00179  -0.01306   0.00000  -0.01274   0.07620
   D15       -0.00189  -0.00034  -0.00390   0.00000  -0.00380  -0.00569
   D16       -3.12664  -0.00096  -0.00358   0.00000  -0.00349  -3.13014
   D17       -0.08728  -0.00206  -0.00001   0.00000   0.00000  -0.08728
   D18        3.01468   0.00021   0.00831   0.00000   0.00835   3.02303
   D19        3.03285  -0.00109   0.00007   0.00000   0.00008   3.03293
   D20       -0.14838   0.00117   0.00839   0.00000   0.00843  -0.13994
   D21        0.00377  -0.00011   0.00003   0.00000  -0.00009   0.00368
   D22        3.13131   0.00128   0.00760   0.00000   0.00717   3.13848
   D23        3.13975   0.00108   0.00467   0.00000   0.00466  -3.13877
   D24        0.03131  -0.00074  -0.00193   0.00000  -0.00206   0.02925
   D25        3.14064  -0.00168  -0.00842   0.00000  -0.00832   3.13232
   D26       -0.15089   0.00207   0.01566   0.00000   0.01565  -0.13524
   D27       -0.03689   0.00019  -0.00147   0.00000  -0.00118  -0.03807
   D28        2.95476   0.00394   0.02261   0.00000   0.02280   2.97756
   D29       -0.01799   0.00132   0.00558   0.00000   0.00546  -0.01253
   D30       -2.63619  -0.00646  -0.03864   0.00000  -0.03871  -2.67490
   D31       -0.00017  -0.00118  -0.00676   0.00000  -0.00655  -0.00673
   D32       -2.71267  -0.00900  -0.04796   0.00000  -0.04658  -2.75925
   D33        2.70618   0.00681   0.03667   0.00000   0.03584   2.74202
   D34       -0.00632  -0.00101  -0.00453   0.00000  -0.00419  -0.01051
   D35        2.63353   0.00604   0.04011   0.00000   0.04103   2.67455
   D36       -0.24542  -0.00035  -0.00072   0.00000  -0.00031  -0.24574
   D37        0.02066   0.00082   0.00450   0.00000   0.00433   0.02500
   D38       -2.85828  -0.00557  -0.03633   0.00000  -0.03701  -2.89529
   D39        0.02449   0.00066   0.00526   0.00000   0.00510   0.02959
   D40       -2.96772  -0.00265  -0.01669   0.00000  -0.01718  -2.98490
   D41        2.64569   0.00519   0.03590   0.00000   0.03685   2.68255
   D42       -0.34652   0.00188   0.01395   0.00000   0.01458  -0.33194
   D43       -0.00724   0.00091   0.00303   0.00000   0.00285  -0.00439
   D44       -2.63400  -0.00673  -0.03862   0.00000  -0.03840  -2.67240
   D45        0.01918  -0.00038  -0.00030   0.00000  -0.00030   0.01887
   D46        2.98912   0.00542   0.03447   0.00000   0.03395   3.02307
   D47       -0.02597  -0.00011  -0.00211   0.00000  -0.00193  -0.02790
   D48        2.85824   0.00644   0.04014   0.00000   0.04031   2.89856
   D49       -2.99036  -0.00511  -0.03425   0.00000  -0.03451  -3.02487
   D50       -0.10614   0.00144   0.00800   0.00000   0.00773  -0.09841
         Item               Value     Threshold  Converged?
 Maximum Force            0.108674     0.000450     NO 
 RMS     Force            0.018871     0.000300     NO 
 Maximum Displacement     0.750942     0.001800     NO 
 RMS     Displacement     0.118438     0.001200     NO 
 Predicted change in Energy=-9.530128D-02
 GradGradGradGradGradGradGradGradGradGradGradGradGradGradGradGradGradGrad

                          Input orientation:                          
 ---------------------------------------------------------------------
 Center     Atomic      Atomic             Coordinates (Angstroms)
 Number     Number       Type             X           Y           Z
 ---------------------------------------------------------------------
      1          6           0       -4.173039   -1.370718   -0.264907
      2          6           0       -2.872137   -0.991045   -0.638489
      3          6           0       -2.003312   -2.039614   -0.612324
      4          6           0       -4.364085   -2.666000    0.047822
      5         16           0       -2.870778   -3.496439   -0.119017
      6          1           0       -5.283386   -3.142300    0.349472
      7          6           0       -0.611384   -2.104334   -0.927618
      8         16           0        0.236913   -0.695812   -1.579165
      9          6           0        1.728855   -1.572400   -1.666278
     10          6           0        1.556661   -2.875875   -1.195129
     11          6           0        0.245120   -3.165449   -0.761162
     12          1           0       -0.031617   -4.072190   -0.241062
     13         16           0        3.083624   -3.539930   -0.702615
     14          6           0        3.917150   -2.072681   -1.141211
     15          6           0        3.072908   -1.116344   -1.615610
     16          1           0        4.963046   -1.933409   -0.915473
     17          1           0        3.375383   -0.084776   -1.725452
     18          1           0       -2.710546    0.035509   -0.971191
     19          8           0       -5.337978   -0.507371   -0.416027
     20          1           0       -5.140398    0.443182   -0.706565
 ---------------------------------------------------------------------
                    Distance matrix (angstroms):
                    1          2          3          4          5
     1  C    0.000000
     2  C    1.405724   0.000000
     3  C    2.296919   1.361998   0.000000
     4  C    1.346126   2.345721   2.530099   0.000000
     5  S    2.497170   2.558682   1.765839   1.716808   0.000000
     6  H    2.179183   3.379066   3.591637   1.078411   2.483058
     7  C    3.696318   2.536536   1.428658   3.917871   2.774284
     8  S    4.650855   3.261630   2.785533   5.262880   4.430947
     9  C    6.069339   4.750100   3.906172   6.423240   5.220399
    10  C    5.996688   4.845274   3.703026   6.053445   4.598405
    11  C    4.794523   3.802679   2.518948   4.706237   3.198550
    12  H    4.944684   4.209508   2.856008   4.564110   2.899521
    13  S    7.586582   6.478581   5.304340   7.536264   5.983091
    14  C    8.167730   6.893264   5.944130   8.387173   7.010558
    15  C    7.375151   6.026111   5.256141   7.776715   6.575108
    16  H    9.176487   7.896509   6.973760   9.405317   8.027839
    17  H    7.795223   6.405803   5.830163   8.349046   7.296205
    18  H    2.148301   1.091153   2.221509   3.327271   3.636830
    19  O    1.457837   2.522658   3.675092   2.413152   3.887136
    20  H    2.102636   2.684521   4.001808   3.292230   4.584431
                    6          7          8          9         10
     6  H    0.000000
     7  C    4.953377   0.000000
     8  S    6.338663   1.768631   0.000000
     9  C    7.463201   2.511034   1.732595   0.000000
    10  C    7.017337   2.316733   2.577186   1.396667   0.000000
    11  C    5.639009   1.373779   2.601596   2.357649   1.411496
    12  H    5.366052   2.163318   3.641779   3.373344   2.205456
    13  S    8.442266   3.970472   4.118387   2.575892   1.736421
    14  C    9.381689   4.533678   3.953696   2.305344   2.493980
    15  C    8.820073   3.876011   2.867235   1.420222   2.360457
    16  H   10.394753   5.577063   4.930361   3.339764   3.545407
    17  H    9.414247   4.539764   3.200743   2.219815   3.373311
    18  H    4.296758   2.997884   3.097092   4.772505   5.170625
    19  O    2.744416   5.015248   5.698054   7.255174   7.331634
    20  H    3.740500   5.201027   5.565449   7.222899   7.490356
                   11         12         13         14         15
    11  C    0.000000
    12  H    1.081326   0.000000
    13  S    2.863699   3.193909   0.000000
    14  C    3.849985   4.516753   1.743546   0.000000
    15  C    3.595177   4.501608   2.589873   1.361022   0.000000
    16  H    4.878582   5.475022   2.481622   1.079006   2.174950
    17  H    4.496549   5.450737   3.615164   2.141640   1.080597
    18  H    4.361904   4.958119   6.813832   6.956991   5.932148
    19  O    6.193180   6.395000   8.955553   9.414536   8.517796
    20  H    6.482978   6.834101   9.137820   9.410508   8.409333
                   16         17         18         19         20
    16  H    0.000000
    17  H    2.567915   0.000000
    18  H    7.922358   6.133670   0.000000
    19  O   10.411250   8.821329   2.739767   0.000000
    20  H   10.381301   8.592753   2.477984   1.013411   0.000000
 Stoichiometry    C10H6OS3
 Framework group  C1[X(C10H6OS3)]
 Deg. of freedom    54
 Full point group                 C1      NOp   1
 Largest Abelian subgroup         C1      NOp   1
 Largest concise Abelian subgroup C1      NOp   1
                         Standard orientation:                         
 ---------------------------------------------------------------------
 Center     Atomic      Atomic             Coordinates (Angstroms)
 Number     Number       Type             X           Y           Z
 ---------------------------------------------------------------------
      1          6           0       -3.757647    0.366359    0.211760
      2          6           0       -2.457791    0.899122    0.160780
      3          6           0       -1.512891   -0.066764   -0.010296
      4          6           0       -3.874902   -0.968600    0.084527
      5         16           0       -2.307396   -1.640425   -0.112969
      6          1           0       -4.780423   -1.554209    0.092655
      7          6           0       -0.092449    0.030029   -0.128790
      8         16           0        0.706510    1.606623   -0.192587
      9          6           0        2.266849    0.865981   -0.329250
     10          6           0        2.149594   -0.525579   -0.307099
     11          6           0        0.824206   -0.992237   -0.173319
[...]
 Largest Abelian subgroup         C1      NOp   1
 Largest concise Abelian subgroup C1      NOp   1
                         Standard orientation:                         
 ---------------------------------------------------------------------
 Center     Atomic      Atomic             Coordinates (Angstroms)
 Number     Number       Type             X           Y           Z
 ---------------------------------------------------------------------
      1          6           0       -3.829004    0.420521    0.041219
      2          6           0       -2.486937    0.897931    0.059375
      3          6           0       -1.551347   -0.110103    0.003191
      4          6           0       -3.918742   -0.940884   -0.029431
      5         16           0       -2.344726   -1.668870   -0.081618
      6          1           0       -4.809945   -1.546526   -0.053564
      7          6           0       -0.108126   -0.003325   -0.004671
      8         16           0        0.660328    1.592750   -0.069930
      9          6           0        2.246216    0.870672   -0.029707
     10          6           0        2.153076   -0.513914    0.024677
     11          6           0        0.825896   -1.012504    0.041851
     12          1           0        0.563368   -2.060416    0.093039
     13         16           0        3.740339   -1.234332    0.064982
     14          6           0        4.484967    0.346890    0.006075
     15          6           0        3.578624    1.367948   -0.040755
     16          1           0        5.561762    0.419425    0.009538
     17          1           0        3.855192    2.412240   -0.080944
     18          1           0       -2.227678    1.948059    0.121067
     19          8           0       -4.940908    1.214493    0.092006
     20          1           0       -4.678234    2.139116    0.128931
 ---------------------------------------------------------------------
 Rotational constants (GHZ):           1.5066603           0.2397409           0.2069692

 **********************************************************************

            Population analysis using the SCF Density.

 **********************************************************************

 Orbital symmetries:
       Occupied  (A) (A) (A) (A) (A) (A) (A) (A) (A) (A) (A) (A)
                 (A) (A) (A) (A) (A) (A) (A) (A) (A) (A) (A) (A)
                 (A) (A) (A) (A) (A) (A) (A) (A) (A) (A) (A) (A)
                 (A) (A) (A) (A) (A) (A) (A) (A) (A) (A) (A) (A)
                 (A) (A) (A) (A) (A) (A) (A) (A) (A) (A) (A) (A)
                 (A)
       Virtual   (A) (A) (A) (A) (A) (A) (A) (A) (A) (A) (A) (A)
                 (A) (A) (A) (A) (A) (A) (A) (A) (A) (A) (A) (A)
                 (A) (A) (A) (A) (A) (A) (A) (A) (A) (A) (A) (A)
                 (A) (A) (A) (A) (A) (A) (A) (A) (A) (A) (A) (A)
                 (A) (A) (A) (A) (A) (A) (A) (A) (A) (A) (A) (A)
                 (A) (A) (A) (A) (A) (A) (A) (A) (A) (A) (A) (A)
                 (A) (A) (A) (A) (A) (A) (A) (A) (A) (A) (A) (A)
                 (A) (A) (A) (A) (A) (A) (A) (A) (A) (A) (A) (A)
                 (A) (A) (A) (A) (A) (A) (A) (A) (A) (A) (A) (A)
                 (A) (A) (A) (A) (A) (A) (A) (A) (A) (A) (A) (A)
                 (A) (A) (A) (A) (A) (A) (A) (A) (A) (A) (A) (A)
                 (A) (A) (A) (A) (A) (A) (A) (A) (A) (A) (A) (A)
                 (A) (A) (A) (A) (A) (A) (A) (A) (A) (A) (A) (A)
                 (A) (A) (A) (A) (A) (A) (A) (A) (A) (A) (A) (A)
                 (A) (A) (A) (A) (A) (A) (A) (A) (A) (A) (A) (A)
                 (A) (A) (A) (A) (A) (A) (A) (A) (A) (A) (A) (A)
                 (A) (A) (A) (A) (A) (A) (A) (A) (A) (A) (A) (A)
                 (A) (A) (A) (A) (A) (A) (A) (A) (A) (A) (A) (A)
                 (A) (A) (A) (A) (A) (A) (A) (A) (A) (A) (A) (A)
                 (A) (A) (A) (A) (A) (A) (A) (A) (A) (A) (A) (A)
                 (A) (A) (A) (A) (A) (A) (A) (A) (A) (A) (A) (A)
                 (A) (A) (A) (A) (A) (A) (A) (A) (A) (A) (A) (A)
                 (A) (A) (A) (A) (A) (A) (A) (A) (A) (A) (A) (A)
                 (A) (A) (A) (A) (A) (A) (A) (A) (A) (A) (A) (A)
                 (A) (A) (A) (A) (A) (A) (A) (A) (A) (A) (A) (A)
                 (A) (A) (A) (A) (A)
 The electronic state is 1-A.
 Alpha  occ. eigenvalues --  -88.88826 -88.88824 -88.88551 -19.16577 -10.24686
 Alpha  occ. eigenvalues --  -10.23058 -10.22895 -10.21650 -10.21591 -10.21408
 Alpha  occ. eigenvalues --  -10.19788 -10.19783 -10.19740 -10.19133  -7.97410
 Alpha  occ. eigenvalues --   -7.97396  -7.97152  -5.93737  -5.93709  -5.93466
 Alpha  occ. eigenvalues --   -5.93376  -5.93343  -5.93088  -5.92945  -5.92922
 Alpha  occ. eigenvalues --   -5.92706  -1.07590  -0.92188  -0.89515  -0.85368
 Alpha  occ. eigenvalues --   -0.77747  -0.76555  -0.74607  -0.71807  -0.70674
 Alpha  occ. eigenvalues --   -0.63368  -0.58965  -0.58075  -0.55836  -0.54859
 Alpha  occ. eigenvalues --   -0.53243  -0.50242  -0.48573  -0.44327  -0.43821
 Alpha  occ. eigenvalues --   -0.43322  -0.42029  -0.41904  -0.40160  -0.39842
 Alpha  occ. eigenvalues --   -0.37991  -0.37665  -0.37485  -0.35636  -0.34536
 Alpha  occ. eigenvalues --   -0.33942  -0.29642  -0.27222  -0.24531  -0.24185
 Alpha  occ. eigenvalues --   -0.20556
 Alpha virt. eigenvalues --   -0.07012  -0.01686  -0.01578  -0.00941  -0.00547
 Alpha virt. eigenvalues --    0.00804   0.01073   0.01689   0.01836   0.02212
 Alpha virt. eigenvalues --    0.02964   0.03241   0.04038   0.04150   0.04452
 Alpha virt. eigenvalues --    0.05082   0.05453   0.05622   0.06602   0.06851
 Alpha virt. eigenvalues --    0.07560   0.07794   0.07909   0.08782   0.09077
 Alpha virt. eigenvalues --    0.09552   0.09886   0.10997   0.11512   0.11631
 Alpha virt. eigenvalues --    0.11980   0.12182   0.12343   0.13007   0.13354
 Alpha virt. eigenvalues --    0.13723   0.14668   0.15121   0.15960   0.16164
 Alpha virt. eigenvalues --    0.16422   0.16698   0.17115   0.17478   0.17636
 Alpha virt. eigenvalues --    0.18253   0.18465   0.19002   0.19523   0.19653
 Alpha virt. eigenvalues --    0.19994   0.20388   0.20706   0.21371   0.21815
 Alpha virt. eigenvalues --    0.21912   0.22426   0.22773   0.23171   0.23617
 Alpha virt. eigenvalues --    0.23811   0.24935   0.26279   0.26775   0.27135
 Alpha virt. eigenvalues --    0.28078   0.28349   0.29278   0.29892   0.30800
 Alpha virt. eigenvalues --    0.31068   0.32131   0.32628   0.33177   0.33448
 Alpha virt. eigenvalues --    0.33672   0.34398   0.34599   0.34986   0.37462
 Alpha virt. eigenvalues --    0.37755   0.38624   0.40147   0.40684   0.41649
 Alpha virt. eigenvalues --    0.43634   0.44157   0.46511   0.46932   0.47284
 Alpha virt. eigenvalues --    0.49150   0.52155   0.53607   0.54168   0.54527
 Alpha virt. eigenvalues --    0.55182   0.55440   0.55875   0.56104   0.56907
 Alpha virt. eigenvalues --    0.58392   0.59753   0.60405   0.61789   0.62325
 Alpha virt. eigenvalues --    0.62590   0.62938   0.64284   0.67180   0.67544
 Alpha virt. eigenvalues --    0.68138   0.70696   0.71297   0.71672   0.72297
 Alpha virt. eigenvalues --    0.73203   0.73501   0.74476   0.75090   0.75869
 Alpha virt. eigenvalues --    0.77636   0.78031   0.78585   0.78626   0.80325
 Alpha virt. eigenvalues --    0.81793   0.82330   0.82610   0.83155   0.84165
 Alpha virt. eigenvalues --    0.84789   0.84821   0.86984   0.87841   0.88356
 Alpha virt. eigenvalues --    0.88909   0.90374   0.91141   0.92594   0.93618
 Alpha virt. eigenvalues --    0.94761   0.95860   0.97500   0.99735   1.00510
 Alpha virt. eigenvalues --    1.02019   1.02456   1.02857   1.04242   1.05248
 Alpha virt. eigenvalues --    1.05812   1.06090   1.07421   1.08474   1.12698
 Alpha virt. eigenvalues --    1.13349   1.13872   1.15182   1.15685   1.17762
 Alpha virt. eigenvalues --    1.20488   1.21015   1.25118   1.27311   1.33629
 Alpha virt. eigenvalues --    1.34512   1.35723   1.38028   1.40221   1.41434
 Alpha virt. eigenvalues --    1.43537   1.52021   1.52583   1.54847   1.55956
 Alpha virt. eigenvalues --    1.56424   1.58117   1.59550   1.59700   1.60365
 Alpha virt. eigenvalues --    1.62039   1.64758   1.66113   1.67926   1.68243
 Alpha virt. eigenvalues --    1.68665   1.71833   1.72034   1.73274   1.75241
 Alpha virt. eigenvalues --    1.76497   1.77771   1.80277   1.81308   1.84864
 Alpha virt. eigenvalues --    1.85539   1.86762   1.87957   1.90565   1.92236
 Alpha virt. eigenvalues --    1.95497   1.96223   1.96779   1.97955   1.98795
 Alpha virt. eigenvalues --    2.00634   2.02243   2.03621   2.05105   2.05329
 Alpha virt. eigenvalues --    2.07056   2.07666   2.08903   2.10555   2.12119
 Alpha virt. eigenvalues --    2.12448   2.14703   2.17781   2.19687   2.20203
 Alpha virt. eigenvalues --    2.22400   2.29179   2.31952   2.36928   2.40787
 Alpha virt. eigenvalues --    2.41836   2.44957   2.49687   2.52832   2.58927
 Alpha virt. eigenvalues --    2.62306   2.65679   2.68435   2.68610   2.69525
 Alpha virt. eigenvalues --    2.70109   2.70816   2.72776   2.73339   2.74467
 Alpha virt. eigenvalues --    2.76009   2.77653   2.81323   2.83758   2.89143
 Alpha virt. eigenvalues --    2.90652   2.92739   2.93350   2.96935   3.00914
 Alpha virt. eigenvalues --    3.05200   3.07914   3.10913   3.12948   3.16844
 Alpha virt. eigenvalues --    3.18456   3.22238   3.26485   3.28257   3.29198
 Alpha virt. eigenvalues --    3.33577   3.36396   3.43763   3.46035   3.46860
 Alpha virt. eigenvalues --    3.55733   3.60835   3.64345   3.85038   3.87702
 Alpha virt. eigenvalues --    3.96085   4.08382   4.11688   4.21606   4.37579
 Alpha virt. eigenvalues --    4.58339   4.99426   5.42261   5.74021   7.97428
 Alpha virt. eigenvalues --    7.99980   8.00333  17.27185  17.28090  17.29005
 Alpha virt. eigenvalues --   17.45125  17.47551  17.50307  17.53665  17.55237
 Alpha virt. eigenvalues --   17.58285  23.47206  23.62914  23.75374  23.81290
 Alpha virt. eigenvalues --   23.86930  24.01641  24.08661  24.10637  24.12228
 Alpha virt. eigenvalues --   24.14570  49.93360 189.14132 189.17226 189.17320
          Condensed to atoms (all electrons):
               1          2          3          4          5          6
     1  C   10.237846  -3.290437   0.207044  -1.062932   0.637922   0.084458
     2  C   -3.290437  14.421542  -3.009342   1.272914  -2.943768  -0.048457
     3  C    0.207044  -3.009342   9.506880  -0.735916   0.849909   0.035271
     4  C   -1.062932   1.272914  -0.735916   6.890836  -0.430364   0.324381
     5  S    0.637922  -2.943768   0.849909  -0.430364  17.628559  -0.028893
     6  H    0.084458  -0.048457   0.035271   0.324381  -0.028893   0.478363
     7  C   -0.062902  -0.316050  -0.392449  -0.062138   0.787362  -0.001816
     8  S   -0.259814  -0.072342   0.455650   0.101757   0.103692  -0.001037
     9  C   -0.001256  -1.017346  -0.441336  -0.075576   0.274019  -0.000172
    10  C   -0.033343   0.254719  -0.150230  -0.041345  -0.182895   0.000449
    11  C    0.135840  -0.340852  -0.758443  -0.271571  -0.214489   0.004096
    12  H   -0.005068   0.010443   0.028528   0.006254   0.017485  -0.000001
    13  S   -0.004919   0.046899   0.008683   0.001065  -0.031212   0.000009
    14  C   -0.004522  -0.028867  -0.051049   0.000132   0.005169  -0.000001
    15  C    0.034868  -0.063993   0.237223  -0.006430   0.031545  -0.000009
    16  H    0.000001   0.000044   0.000109  -0.000000  -0.000003   0.000000
    17  H    0.000030  -0.000306  -0.001177  -0.000006   0.000026   0.000000
    18  H   -0.149880   0.310325   0.132061  -0.055704   0.024898  -0.000068
    19  O    0.237069  -0.041433   0.035525  -0.241200   0.027604  -0.006280
    20  H   -0.043320  -0.011504  -0.021658   0.092166  -0.008614   0.000221
               7          8          9         10         11         12
     1  C   -0.062902  -0.259814  -0.001256  -0.033343   0.135840  -0.005068
     2  C   -0.316050  -0.072342  -1.017346   0.254719  -0.340852   0.010443
     3  C   -0.392449   0.455650  -0.441336  -0.150230  -0.758443   0.028528
     4  C   -0.062138   0.101757  -0.075576  -0.041345  -0.271571   0.006254
     5  S    0.787362   0.103692   0.274019  -0.182895  -0.214489   0.017485
     6  H   -0.001816  -0.001037  -0.000172   0.000449   0.004096  -0.000001
     7  C   10.357006   0.902813  -0.900163  -2.378378  -0.828259   0.070507
     8  S    0.902813  17.824607   0.046131  -1.307129  -0.908657   0.021902
     9  C   -0.900163   0.046131  14.713617  -4.098518   0.046533  -0.098473
    10  C   -2.378378  -1.307129  -4.098518  11.955456   1.249050  -0.092320
    11  C   -0.828259  -0.908657   0.046533   1.249050   7.984037   0.369738
    12  H    0.070507   0.021902  -0.098473  -0.092320   0.369738   0.521442
    13  S   -1.130503   0.028341   0.032013  -0.241699   0.195601   0.012432
    14  C   -0.227105  -0.029698   0.841768  -0.773961   0.093764  -0.002773
    15  C    0.262180  -0.347087  -3.471800   1.441771  -0.951982   0.000741
    16  H    0.006662  -0.001172   0.025335   0.025697   0.000635  -0.000004
    17  H   -0.008543   0.023023   0.013484  -0.078793  -0.002760   0.000005
    18  H    0.026785   0.035543   0.010265   0.004492   0.000732   0.000038
    19  O   -0.007577   0.006815   0.001002  -0.001891  -0.003821  -0.000003
    20  H    0.001175   0.003200  -0.000222   0.000215  -0.000632   0.000000
              13         14         15         16         17         18
     1  C   -0.004919  -0.004522   0.034868   0.000001   0.000030  -0.149880
     2  C    0.046899  -0.028867  -0.063993   0.000044  -0.000306   0.310325
     3  C    0.008683  -0.051049   0.237223   0.000109  -0.001177   0.132061
     4  C    0.001065   0.000132  -0.006430  -0.000000  -0.000006  -0.055704
     5  S   -0.031212   0.005169   0.031545  -0.000003   0.000026   0.024898
     6  H    0.000009  -0.000001  -0.000009   0.000000   0.000000  -0.000068
     7  C   -1.130503  -0.227105   0.262180   0.006662  -0.008543   0.026785
     8  S    0.028341  -0.029698  -0.347087  -0.001172   0.023023   0.035543
     9  C    0.032013   0.841768  -3.471800   0.025335   0.013484   0.010265
    10  C   -0.241699  -0.773961   1.441771   0.025697  -0.078793   0.004492
    11  C    0.195601   0.093764  -0.951982   0.000635  -0.002760   0.000732
    12  H    0.012432  -0.002773   0.000741  -0.000004   0.000005   0.000038
    13  S   17.580941   0.437489  -0.483279  -0.040543   0.011470   0.000050
    14  C    0.437489   5.632182  -0.141024   0.382056   0.026407   0.000223
    15  C   -0.483279  -0.141024   9.295238  -0.039203   0.365718  -0.001036
    16  H   -0.040543   0.382056  -0.039203   0.476291  -0.004867  -0.000000
    17  H    0.011470   0.026407   0.365718  -0.004867   0.521193   0.000000
    18  H    0.000050   0.000223  -0.001036  -0.000000   0.000000   0.544335
    19  O   -0.000048   0.000006   0.000015   0.000000   0.000000  -0.004795
    20  H    0.000002   0.000001   0.000015   0.000000  -0.000000   0.003771
              19         20
     1  C    0.237069  -0.043320
     2  C   -0.041433  -0.011504
     3  C    0.035525  -0.021658
     4  C   -0.241200   0.092166
     5  S    0.027604  -0.008614
     6  H   -0.006280   0.000221
     7  C   -0.007577   0.001175
     8  S    0.006815   0.003200
     9  C    0.001002  -0.000222
    10  C   -0.001891   0.000215
    11  C   -0.003821  -0.000632
    12  H   -0.000003   0.000000
    13  S   -0.000048   0.000002
    14  C    0.000006   0.000001
    15  C    0.000015   0.000015
    16  H    0.000000   0.000000
    17  H    0.000000  -0.000000
    18  H   -0.004795   0.003771
    19  O    8.024700   0.247885
    20  H    0.247885   0.485111
 Mulliken charges:
               1
     1  C   -0.656685
     2  C    0.867813
     3  C    0.064717
     4  C    0.293679
     5  S   -0.547954
     6  H    0.159485
     7  C   -0.098607
     8  S   -0.626538
     9  C    0.100694
    10  C    0.448653
    11  C    0.201437
    12  H    0.139129
    13  S   -0.422790
    14  C   -0.160197
    15  C   -0.163472
    16  H    0.168961
    17  H    0.135095
    18  H    0.117964
    19  O   -0.273573
    20  H    0.252188
 Sum of Mulliken charges =  -0.00000
 Mulliken charges with hydrogens summed into heavy atoms:
               1
     1  C   -0.656685
     2  C    0.985778
     3  C    0.064717
     4  C    0.453164
     5  S   -0.547954
     7  C   -0.098607
     8  S   -0.626538
     9  C    0.100694
    10  C    0.448653
    11  C    0.340566
    13  S   -0.422790
    14  C    0.008764
    15  C   -0.028377
    19  O   -0.021385
 Electronic spatial extent (au):  <R**2>=           4792.1577
 Charge=              0.0000 electrons
 Dipole moment (field-independent basis, Debye):
    X=              1.1404    Y=              1.4950    Z=              0.0828  Tot=              1.8821
 Quadrupole moment (field-independent basis, Debye-Ang):
   XX=            -97.6585   YY=            -91.3897   ZZ=           -108.9493
   XY=             -0.4890   XZ=             -0.1994   YZ=              0.2072
 Traceless Quadrupole moment (field-independent basis, Debye-Ang):
   XX=              1.6740   YY=              7.9428   ZZ=             -9.6168
   XY=             -0.4890   XZ=             -0.1994   YZ=              0.2072
 Octapole moment (field-independent basis, Debye-Ang**2):
  XXX=             77.0971  YYY=             21.7042  ZZZ=              0.3308  XYY=            -29.3720
  XXY=             22.5901  XXZ=             -0.4322  XZZ=             -7.8068  YZZ=              1.0786
  YYZ=              0.9009  XYZ=             -2.7239
 Hexadecapole moment (field-independent basis, Debye-Ang**3):
 XXXX=          -5361.5922 YYYY=           -891.0344 ZZZZ=           -138.9190 XXXY=             65.9629
 XXXZ=              3.2429 YYYX=            -65.1919 YYYZ=              1.9706 ZZZX=             -1.5423
 ZZZY=              0.6769 XXYY=           -904.9369 XXZZ=          -1012.7865 YYZZ=           -197.7155
 XXYZ=              5.7861 YYXZ=             -5.1166 ZZXY=            -15.2021
 N-N= 1.105100983454D+03 E-N=-6.121307759910D+03  KE= 1.651070797303D+03
 Unable to Open any file for archive entry.
 1\1\GINC-CX3-12-15\FOpt\RB3LYP\6-311+G(d,p)\C10H6O1S3\NS5018\17-Oct-20
 21\0\\# opt=modredundant b3lyp/6-311+g(d,p)\\pg2T_TT_-5.pdb\\0,1\C,-4.
 2828273364,-1.3644784993,-0.4184976814\C,-2.9283616441,-1.0075030417,-
 0.6780822098\C,-2.0555661194,-2.0649976082,-0.5574557064\C,-4.44437646
 77,-2.6839393935,-0.1032337906\S,-2.9253651266,-3.5220001235,-0.125031
 3298\H,-5.3588437156,-3.2014507532,0.1366810391\C,-0.62149751,-2.07900
 4698,-0.7513692901\S,0.2063921353,-0.6241649937,-1.334699109\C,1.74911
 63021,-1.4328738023,-1.2711052454\C,1.598907639,-2.7410248218,-0.82964
 28544\C,0.2626644332,-3.1101155818,-0.5321163673\H,-0.0400385916,-4.08
 22734479,-0.1675075258\S,3.1430828745,-3.5482275001,-0.7665756584\C,3.
 9474710253,-2.1040722996,-1.3371724408\C,3.0912516839,-1.0638286694,-1
 .5629873876\H,5.0182820131,-2.1188900006,-1.4709828902\H,3.4090868773,
 -0.0933316135,-1.9176231311\H,-2.6145333836,-0.0028869211,-0.935080342
 3\O,-5.3410276195,-0.5000625088,-0.466434438\H,-5.0328174692,0.3771262
 782,-0.7130836408\\Version=ES64L-G16RevC.01\State=1-A\HF=-1654.6326156
 \RMSD=6.706e-09\RMSF=1.623e-04\Dipole=0.4762274,0.5380799,-0.1788567\Q
 uadrupole=1.0518069,5.0900122,-6.141819,-0.4347021,-1.1092863,-3.18766
 19\PG=C01 [X(C10H6O1S3)]\\@
 The archive entry for this job was punched.


 A CHEMICAL PHYSICIST MAKES PRECISE MEASUREMENTS ON IMPURE COMPOUNDS.
 A THEORETICAL PHYSICAL CHEMIST MAKES IMPRECISE
     MEASUREMENTS ON PURE COMPOUNDS.
 AN EXPERIMENTAL PHYSICAL CHEMIST MAKES IMPRECISE
     MEASUREMENTS ON IMPURE COMPOUNDS.
 Job cpu time:       0 days  1 hours 59 minutes 43.6 seconds.
 Elapsed time:       0 days  0 hours 15 minutes 10.5 seconds.
 File lengths (MBytes):  RWF=     86 Int=      0 D2E=      0 Chk=     11 Scr=      1
 Normal termination of Gaussian 16 at Sun Oct 17 19:44:15 2021.
