 Entering Gaussian System, Link 0=g16
 Input=pg2T_TT_165.gjf
 Output=pg2T_TT_165.log
 Initial command:
 /apps/gaussian/g16-c01-avx/g16/l1.exe "/tmp/pbs.4730634[340].pbs/Gau-4139552.inp" -scrdir="/tmp/pbs.4730634[340].pbs/"
 Entering Link 1 = /apps/gaussian/g16-c01-avx/g16/l1.exe PID=   4139553.
  
 Copyright (c) 1988-2019, Gaussian, Inc.  All Rights Reserved.
  
 This is part of the Gaussian(R) 16 program.  It is based on
 the Gaussian(R) 09 system (copyright 2009, Gaussian, Inc.),
 the Gaussian(R) 03 system (copyright 2003, Gaussian, Inc.),
 the Gaussian(R) 98 system (copyright 1998, Gaussian, Inc.),
 the Gaussian(R) 94 system (copyright 1995, Gaussian, Inc.),
 the Gaussian 92(TM) system (copyright 1992, Gaussian, Inc.),
 the Gaussian 90(TM) system (copyright 1990, Gaussian, Inc.),
 the Gaussian 88(TM) system (copyright 1988, Gaussian, Inc.),
 the Gaussian 86(TM) system (copyright 1986, Carnegie Mellon
 University), and the Gaussian 82(TM) system (copyright 1983,
 Carnegie Mellon University). Gaussian is a federally registered
 trademark of Gaussian, Inc.
  
 This software contains proprietary and confidential information,
 including trade secrets, belonging to Gaussian, Inc.
  
 This software is provided under written license and may be
 used, copied, transmitted, or stored only in accord with that
 written license.
  
 The following legend is applicable only to US Government
 contracts under FAR:
  
                    RESTRICTED RIGHTS LEGEND
  
 Use, reproduction and disclosure by the US Government is
 subject to restrictions as set forth in subparagraphs (a)
 and (c) of the Commercial Computer Software - Restricted
 Rights clause in FAR 52.227-19.
  
 Gaussian, Inc.
 340 Quinnipiac St., Bldg. 40, Wallingford CT 06492
  
  
 ---------------------------------------------------------------
 Warning -- This program may not be used in any manner that
 competes with the business of Gaussian, Inc. or will provide
 assistance to any competitor of Gaussian, Inc.  The licensee
 of this program is prohibited from giving any competitor of
 Gaussian, Inc. access to this program.  By using this program,
 the user acknowledges that Gaussian, Inc. is engaged in the
 business of creating and licensing software in the field of
 computational chemistry and represents and warrants to the
 licensee that it is not a competitor of Gaussian, Inc. and that
 it will not use this program in any manner prohibited above.
 ---------------------------------------------------------------
  

 Cite this work as:
 Gaussian 16, Revision C.01,
 M. J. Frisch, G. W. Trucks, H. B. Schlegel, G. E. Scuseria, 
 M. A. Robb, J. R. Cheeseman, G. Scalmani, V. Barone, 
 G. A. Petersson, H. Nakatsuji, X. Li, M. Caricato, A. V. Marenich, 
 J. Bloino, B. G. Janesko, R. Gomperts, B. Mennucci, H. P. Hratchian, 
 J. V. Ortiz, A. F. Izmaylov, J. L. Sonnenberg, D. Williams-Young, 
 F. Ding, F. Lipparini, F. Egidi, J. Goings, B. Peng, A. Petrone, 
 T. Henderson, D. Ranasinghe, V. G. Zakrzewski, J. Gao, N. Rega, 
 G. Zheng, W. Liang, M. Hada, M. Ehara, K. Toyota, R. Fukuda, 
 J. Hasegawa, M. Ishida, T. Nakajima, Y. Honda, O. Kitao, H. Nakai, 
 T. Vreven, K. Throssell, J. A. Montgomery, Jr., J. E. Peralta, 
 F. Ogliaro, M. J. Bearpark, J. J. Heyd, E. N. Brothers, K. N. Kudin, 
 V. N. Staroverov, T. A. Keith, R. Kobayashi, J. Normand, 
 K. Raghavachari, A. P. Rendell, J. C. Burant, S. S. Iyengar, 
 J. Tomasi, M. Cossi, J. M. Millam, M. Klene, C. Adamo, R. Cammi, 
 J. W. Ochterski, R. L. Martin, K. Morokuma, O. Farkas, 
 J. B. Foresman, and D. J. Fox, Gaussian, Inc., Wallingford CT, 2019.
 
 ******************************************
 Gaussian 16:  ES64L-G16RevC.01  3-Jul-2019
                17-Oct-2021 
 ******************************************
 %mem=10GB
 %nprocshared=8
 Will use up to    8 processors via shared memory.
 -------------------------------------
 # opt=modredundant b3lyp/6-311+g(d,p)
 -------------------------------------
 1/18=120,19=15,26=3,38=1/1,3;
 2/9=110,12=2,17=6,18=5,40=1/2;
 3/5=4,6=6,7=111,11=2,25=1,30=1,71=1,74=-5/1,2,3;
 4//1;
 5/5=2,38=5/2;
 6/7=2,8=2,9=2,10=2,28=1/1;
 7//1,2,3,16;
 1/18=20,19=15,26=3/3(2);
 2/9=110/2;
 99//99;
 2/9=110/2;
 3/5=4,6=6,7=111,11=2,25=1,30=1,71=1,74=-5/1,2,3;
 4/5=5,16=3,69=1/1;
 5/5=2,38=5/2;
 7//1,2,3,16;
 1/18=20,19=15,26=3/3(-5);
 2/9=110/2;
 6/7=2,8=2,9=2,10=2,19=2,28=1/1;
 99/9=1/99;
 ---------------
 pg2T_TT_165.pdb
 ---------------
 Symbolic Z-matrix:
 Charge =  0 Multiplicity = 1
 C                    -4.25     -1.36     -0.21 
 C                    -2.93     -0.95     -0.61 
 C                    -1.97     -2.05     -0.62 
 C                    -4.33     -2.76      0.1 
 S                    -2.8      -3.56     -0.11 
 H                    -5.23     -3.27      0.41 
 C                    -0.56     -2.13     -0.97 
 S                     0.452    -3.534    -0.512 
 C                     1.862    -2.868    -1.263 
 C                     1.601    -1.6      -1.894 
 C                     0.238    -1.182    -1.75 
 H                    -0.18     -0.347    -2.29 
 S                     2.692    -1.265    -3.197 
 C                     3.538    -2.792    -2.934 
 C                     2.956    -3.562    -1.859 
 H                     4.276    -3.171    -3.626 
 H                     3.149    -4.624    -1.726 
 H                    -2.89      0.24     -0.97 
 O                    -5.6      -0.36     -0.4 
 H                    -5.76      0.85     -0.75 
 
 Add virtual bond connecting atoms H20        and O19        Dist= 2.40D+00.
 Add virtual bond connecting atoms O19        and C1         Dist= 3.20D+00.
 The following ModRedundant input section has been read:
 D       2       3       7       8 F                                           
 

 GradGradGradGradGradGradGradGradGradGradGradGradGradGradGradGradGradGrad
 Berny optimization.
 Initialization pass.
                           ----------------------------
                           !    Initial Parameters    !
                           ! (Angstroms and Degrees)  !
 --------------------------                            --------------------------
 ! Name  Definition              Value          Derivative Info.                !
 --------------------------------------------------------------------------------
 ! R1    R(1,2)                  1.4389         estimate D2E/DX2                !
 ! R2    R(1,4)                  1.4361         estimate D2E/DX2                !
 ! R3    R(1,19)                 1.6907         estimate D2E/DX2                !
 ! R4    R(2,3)                  1.46           estimate D2E/DX2                !
 ! R5    R(2,18)                 1.2439         estimate D2E/DX2                !
 ! R6    R(3,5)                  1.797          estimate D2E/DX2                !
 ! R7    R(3,7)                  1.455          estimate D2E/DX2                !
 ! R8    R(4,5)                  1.7393         estimate D2E/DX2                !
 ! R9    R(4,6)                  1.0799         estimate D2E/DX2                !
 ! R10   R(7,8)                  1.7903         estimate D2E/DX2                !
 ! R11   R(7,11)                 1.4642         estimate D2E/DX2                !
 ! R12   R(8,9)                  1.7308         estimate D2E/DX2                !
 ! R13   R(9,10)                 1.4402         estimate D2E/DX2                !
 ! R14   R(9,15)                 1.4261         estimate D2E/DX2                !
 ! R15   R(10,11)                1.4329         estimate D2E/DX2                !
 ! R16   R(10,13)                1.7321         estimate D2E/DX2                !
 ! R17   R(11,12)                1.0787         estimate D2E/DX2                !
 ! R18   R(13,14)                1.7654         estimate D2E/DX2                !
 ! R19   R(14,15)                1.4447         estimate D2E/DX2                !
 ! R20   R(14,16)                1.0803         estimate D2E/DX2                !
 ! R21   R(15,17)                1.0876         estimate D2E/DX2                !
 ! R22   R(19,20)                1.2697         estimate D2E/DX2                !
 ! A1    A(2,1,4)              112.8843         estimate D2E/DX2                !
 ! A2    A(2,1,19)             122.1887         estimate D2E/DX2                !
 ! A3    A(4,1,19)             123.8039         estimate D2E/DX2                !
 ! A4    A(1,2,3)              112.9799         estimate D2E/DX2                !
 ! A5    A(1,2,18)             112.491          estimate D2E/DX2                !
 ! A6    A(3,2,18)             134.2373         estimate D2E/DX2                !
 ! A7    A(2,3,5)              109.1138         estimate D2E/DX2                !
 ! A8    A(2,3,7)              132.8639         estimate D2E/DX2                !
 ! A9    A(5,3,7)              118.0132         estimate D2E/DX2                !
 ! A10   A(1,4,5)              111.9209         estimate D2E/DX2                !
 ! A11   A(1,4,6)              124.6643         estimate D2E/DX2                !
 ! A12   A(5,4,6)              123.4062         estimate D2E/DX2                !
 ! A13   A(3,5,4)               93.0997         estimate D2E/DX2                !
 ! A14   A(3,7,8)              121.9632         estimate D2E/DX2                !
 ! A15   A(3,7,11)             128.367          estimate D2E/DX2                !
 ! A16   A(8,7,11)             109.6306         estimate D2E/DX2                !
 ! A17   A(7,8,9)               92.7358         estimate D2E/DX2                !
 ! A18   A(8,9,10)             112.412          estimate D2E/DX2                !
 ! A19   A(8,9,15)             128.2458         estimate D2E/DX2                !
 ! A20   A(10,9,15)            112.6056         estimate D2E/DX2                !
 ! A21   A(9,10,11)            112.6558         estimate D2E/DX2                !
 ! A22   A(9,10,13)            112.6887         estimate D2E/DX2                !
 ! A23   A(11,10,13)           128.1925         estimate D2E/DX2                !
 ! A24   A(7,11,10)            112.5245         estimate D2E/DX2                !
 ! A25   A(7,11,12)            123.826          estimate D2E/DX2                !
 ! A26   A(10,11,12)           122.9639         estimate D2E/DX2                !
 ! A27   A(10,13,14)            91.2883         estimate D2E/DX2                !
 ! A28   A(13,14,15)           112.2595         estimate D2E/DX2                !
 ! A29   A(13,14,16)           122.3693         estimate D2E/DX2                !
 ! A30   A(15,14,16)           124.3902         estimate D2E/DX2                !
 ! A31   A(9,15,14)            111.1396         estimate D2E/DX2                !
 ! A32   A(9,15,17)            124.0726         estimate D2E/DX2                !
 ! A33   A(14,15,17)           122.6804         estimate D2E/DX2                !
 ! A34   A(1,19,20)            134.0455         estimate D2E/DX2                !
 ! D1    D(4,1,2,3)              0.3915         estimate D2E/DX2                !
 ! D2    D(4,1,2,18)           175.0898         estimate D2E/DX2                !
 ! D3    D(19,1,2,3)          -167.9154         estimate D2E/DX2                !
 ! D4    D(19,1,2,18)            6.7829         estimate D2E/DX2                !
 ! D5    D(2,1,4,5)             -0.3845         estimate D2E/DX2                !
 ! D6    D(2,1,4,6)           -179.3471         estimate D2E/DX2                !
 ! D7    D(19,1,4,5)           167.7032         estimate D2E/DX2                !
 ! D8    D(19,1,4,6)           -11.2593         estimate D2E/DX2                !
 ! D9    D(2,1,19,20)           -7.6334         estimate D2E/DX2                !
 ! D10   D(4,1,19,20)         -174.6479         estimate D2E/DX2                !
 ! D11   D(1,2,3,5)             -0.2224         estimate D2E/DX2                !
 ! D12   D(1,2,3,7)            178.6265         estimate D2E/DX2                !
 ! D13   D(18,2,3,5)          -173.3787         estimate D2E/DX2                !
 ! D14   D(18,2,3,7)             5.4701         estimate D2E/DX2                !
 ! D15   D(2,3,5,4)              0.0033         estimate D2E/DX2                !
 ! D16   D(7,3,5,4)           -179.041          estimate D2E/DX2                !
 ! D17   D(2,3,7,8)            165.0014         Frozen                          !
 ! D18   D(2,3,7,11)           -17.5201         estimate D2E/DX2                !
 ! D19   D(5,3,7,8)            -16.2306         estimate D2E/DX2                !
 ! D20   D(5,3,7,11)           161.2479         estimate D2E/DX2                !
 ! D21   D(1,4,5,3)              0.2153         estimate D2E/DX2                !
 ! D22   D(6,4,5,3)            179.1932         estimate D2E/DX2                !
 ! D23   D(3,7,8,9)            179.7693         estimate D2E/DX2                !
 ! D24   D(11,7,8,9)             1.868          estimate D2E/DX2                !
 ! D25   D(3,7,11,10)         -179.8095         estimate D2E/DX2                !
 ! D26   D(3,7,11,12)           -9.0694         estimate D2E/DX2                !
 ! D27   D(8,7,11,10)           -2.0806         estimate D2E/DX2                !
 ! D28   D(8,7,11,12)          168.6596         estimate D2E/DX2                !
 ! D29   D(7,8,9,10)            -1.2165         estimate D2E/DX2                !
 ! D30   D(7,8,9,15)          -149.921          estimate D2E/DX2                !
 ! D31   D(8,9,10,11)            0.21           estimate D2E/DX2                !
 ! D32   D(8,9,10,13)         -154.0416         estimate D2E/DX2                !
 ! D33   D(15,9,10,11)         153.9843         estimate D2E/DX2                !
 ! D34   D(15,9,10,13)          -0.2673         estimate D2E/DX2                !
 ! D35   D(8,9,15,14)          149.766          estimate D2E/DX2                !
 ! D36   D(8,9,15,17)          -14.058          estimate D2E/DX2                !
 ! D37   D(10,9,15,14)           1.1103         estimate D2E/DX2                !
 ! D38   D(10,9,15,17)        -162.7137         estimate D2E/DX2                !
 ! D39   D(9,10,11,7)            1.2417         estimate D2E/DX2                !
 ! D40   D(9,10,11,12)        -169.5906         estimate D2E/DX2                !
 ! D41   D(13,10,11,7)         150.5801         estimate D2E/DX2                !
 ! D42   D(13,10,11,12)        -20.2522         estimate D2E/DX2                !
 ! D43   D(9,10,13,14)          -0.497          estimate D2E/DX2                !
 ! D44   D(11,10,13,14)       -149.8272         estimate D2E/DX2                !
 ! D45   D(10,13,14,15)          1.1339         estimate D2E/DX2                !
 ! D46   D(10,13,14,16)        170.2558         estimate D2E/DX2                !
 ! D47   D(13,14,15,9)          -1.4788         estimate D2E/DX2                !
 ! D48   D(13,14,15,17)        162.609          estimate D2E/DX2                !
 ! D49   D(16,14,15,9)        -170.3417         estimate D2E/DX2                !
 ! D50   D(16,14,15,17)         -6.2539         estimate D2E/DX2                !
 --------------------------------------------------------------------------------
 Trust Radius=3.00D-01 FncErr=1.00D-07 GrdErr=1.00D-06 EigMax=2.50D+02 EigMin=1.00D-04
 Number of steps in this run=    116 maximum allowed number of steps=    120.
 GradGradGradGradGradGradGradGradGradGradGradGradGradGradGradGradGradGrad

                          Input orientation:                          
 ---------------------------------------------------------------------
 Center     Atomic      Atomic             Coordinates (Angstroms)
 Number     Number       Type             X           Y           Z
 ---------------------------------------------------------------------
      1          6           0       -4.250000   -1.360000   -0.210000
      2          6           0       -2.930000   -0.950000   -0.610000
      3          6           0       -1.970000   -2.050000   -0.620000
      4          6           0       -4.330000   -2.760000    0.100000
      5         16           0       -2.800000   -3.560000   -0.110000
      6          1           0       -5.230000   -3.270000    0.410000
      7          6           0       -0.560000   -2.130000   -0.970000
      8         16           0        0.452000   -3.534000   -0.512000
      9          6           0        1.862000   -2.868000   -1.263000
     10          6           0        1.601000   -1.600000   -1.894000
     11          6           0        0.238000   -1.182000   -1.750000
     12          1           0       -0.180000   -0.347000   -2.290000
     13         16           0        2.692000   -1.265000   -3.197000
     14          6           0        3.538000   -2.792000   -2.934000
     15          6           0        2.956000   -3.562000   -1.859000
     16          1           0        4.276000   -3.171000   -3.626000
     17          1           0        3.149000   -4.624000   -1.726000
     18          1           0       -2.890000    0.240000   -0.970000
     19          8           0       -5.600000   -0.360000   -0.400000
     20          1           0       -5.760000    0.850000   -0.750000
 ---------------------------------------------------------------------
                    Distance matrix (angstroms):
                    1          2          3          4          5
     1  C    0.000000
     2  C    1.438923   0.000000
     3  C    2.417147   1.460034   0.000000
     4  C    1.436141   2.395871   2.567509   0.000000
     5  S    2.636759   2.660639   1.796970   1.739253   0.000000
     6  H    2.234480   3.422397   3.630000   1.079907   2.501879
     7  C    3.845335   2.671872   1.454991   3.969219   2.793224
     8  S    5.189054   4.257298   2.842535   4.882739   3.276856
     9  C    6.382744   5.202730   3.970743   6.341159   4.852063
    10  C    6.093247   4.754063   3.818065   6.363835   5.137417
    11  C    4.748203   3.374855   2.627849   5.174863   4.192127
    12  H    4.681610   3.278492   2.982148   5.362571   4.684033
    13  S    7.557947   6.196667   5.384366   7.900235   6.705122
    14  C    8.373992   7.115403   6.020235   8.432770   6.981049
    15  C    7.713264   6.559538   5.299693   7.587271   6.015857
    16  H    9.361701   8.121301   7.021766   9.386971   7.910964
    17  H    8.227828   7.190130   5.835484   7.921124   6.255730
    18  H    2.233204   1.243905   2.492589   3.495497   3.897140
    19  O    1.690739   2.742462   4.010162   2.760960   4.261936
    20  H    2.730531   3.356859   4.773992   3.974858   5.349701
                    6          7          8          9         10
     6  H    0.000000
     7  C    5.001290   0.000000
     8  S    5.762370   1.790286   0.000000
     9  C    7.297739   2.548838   1.730797   0.000000
    10  C    7.399992   2.409273   2.640167   1.440176   0.000000
    11  C    6.238940   1.464209   2.666523   2.391054   1.432909
    12  H    6.429341   2.250753   3.703738   3.402930   2.213320
    13  S    8.932444   4.035252   4.168355   2.645537   1.732142
    14  C    9.396204   4.592292   3.992498   2.367909   2.500886
    15  C    8.499660   3.899128   2.843450   1.426074   2.384679
    16  H   10.327785   5.614705   4.944870   3.391603   3.552955
    17  H    8.752340   4.533018   3.152095   2.225820   3.401339
    18  H    4.438479   3.323522   5.061798   5.685685   4.940492
    19  O    3.043206   5.372095   6.834729   7.919361   7.458152
    20  H    4.312876   5.997399   7.606908   8.495974   7.841910
                   11         12         13         14         15
    11  C    0.000000
    12  H    1.078679   0.000000
    13  S    2.850055   3.148612   0.000000
    14  C    3.857973   4.496252   1.765393   0.000000
    15  C    3.614389   4.511816   2.671357   1.444731   0.000000
    16  H    4.876571   5.442041   2.515141   1.080347   2.239993
    17  H    4.507977   5.449134   3.695345   2.228634   1.087558
    18  H    3.523474   3.071005   6.195424   7.373568   7.030024
    19  O    6.048176   5.740093   8.797698   9.789731   9.251304
    20  H    6.411320   5.911075   9.049715  10.221880   9.831799
                   16         17         18         19         20
    16  H    0.000000
    17  H    2.644114   0.000000
    18  H    8.369039   7.790992   0.000000
    19  O   10.763093   9.822676   2.833549   0.000000
    20  H   11.187543  10.501787   2.942346   1.269724   0.000000
 Stoichiometry    C10H6OS3
 Framework group  C1[X(C10H6OS3)]
 Deg. of freedom    54
 Full point group                 C1      NOp   1
 Largest Abelian subgroup         C1      NOp   1
 Largest concise Abelian subgroup C1      NOp   1
                         Standard orientation:                         
 ---------------------------------------------------------------------
 Center     Atomic      Atomic             Coordinates (Angstroms)
 Number     Number       Type             X           Y           Z
 ---------------------------------------------------------------------
      1          6           0        3.864803    0.623413   -0.061983
      2          6           0        2.522025    1.077636   -0.309226
      3          6           0        1.523283    0.027561   -0.131584
      4          6           0        3.927303   -0.765855    0.296524
      5         16           0        2.349881   -1.497295    0.338151
      6          1           0        4.836386   -1.299212    0.531682
      7          6           0        0.072450    0.012853   -0.240520
      8         16           0       -0.854522   -1.515065   -0.346882
      9          6           0       -2.371203   -0.685690   -0.433329
     10          6           0       -2.220114    0.744480   -0.356575
     11          6           0       -0.851181    1.148957   -0.231480
     12          1           0       -0.556924    2.160215    0.001588
     13         16           0       -3.631036    1.532909    0.266318
     14          6           0       -4.470596   -0.011447    0.429769
     15          6           0       -3.646541   -1.127658    0.026960
     16          1           0       -5.413659   -0.105046    0.948442
     17          1           0       -3.871160   -2.154407    0.306448
     18          1           0        2.465585    2.301684   -0.523285
     19          8           0        5.163499    1.694619    0.094560
     20          1           0        5.301263    2.945532   -0.074074
 ---------------------------------------------------------------------
 Rotational constants (GHZ):           1.3255185           0.2322912           0.2009918
 Standard basis: 6-311+G(d,p) (5D, 7F)
 There are   382 symmetry adapted cartesian basis functions of A   symmetry.
 There are   368 symmetry adapted basis functions of A   symmetry.
   368 basis functions,   594 primitive gaussians,   382 cartesian basis functions
    61 alpha electrons       61 beta electrons
       nuclear repulsion energy      1080.1302475758 Hartrees.
 NAtoms=   20 NActive=   20 NUniq=   20 SFac= 1.00D+00 NAtFMM=   60 NAOKFM=F Big=F
 Integral buffers will be    131072 words long.
 Raffenetti 2 integral format.
 Two-electron integral symmetry is turned on.
 One-electron integrals computed using PRISM.
 NBasis=   368 RedAO= T EigKep=  2.42D-06  NBF=   368
 NBsUse=   367 1.00D-06 EigRej=  4.10D-07 NBFU=   367
 ExpMin= 4.05D-02 ExpMax= 9.34D+04 ExpMxC= 3.17D+03 IAcc=3 IRadAn=         5 AccDes= 0.00D+00
 Harris functional with IExCor=  402 and IRadAn=       5 diagonalized for initial guess.
 HarFok:  IExCor=  402 AccDes= 0.00D+00 IRadAn=         5 IDoV= 1 UseB2=F ITyADJ=14
 ICtDFT=  3500011 ScaDFX=  1.000000  1.000000  1.000000  1.000000
 FoFCou: FMM=F IPFlag=           0 FMFlag=      100000 FMFlg1=           0
         NFxFlg=           0 DoJE=T BraDBF=F KetDBF=T FulRan=T
         wScrn=  0.000000 ICntrl=       500 IOpCl=  0 I1Cent=   200000004 NGrid=           0
         NMat0=    1 NMatS0=      1 NMatT0=    0 NMatD0=    1 NMtDS0=    0 NMtDT0=    0
 Petite list used in FoFCou.
 Requested convergence on RMS density matrix=1.00D-08 within 128 cycles.
 Requested convergence on MAX density matrix=1.00D-06.
 Requested convergence on             energy=1.00D-06.
 No special actions if energy rises.
 SCF Done:  E(RB3LYP) =  -1654.46257199     A.U. after   16 cycles
            NFock= 16  Conv=0.87D-08     -V/T= 2.0032

 **********************************************************************

            Population analysis using the SCF Density.

 **********************************************************************

 Orbital symmetries:
       Occupied  (A) (A) (A) (A) (A) (A) (A) (A) (A) (A) (A) (A)
                 (A) (A) (A) (A) (A) (A) (A) (A) (A) (A) (A) (A)
                 (A) (A) (A) (A) (A) (A) (A) (A) (A) (A) (A) (A)
                 (A) (A) (A) (A) (A) (A) (A) (A) (A) (A) (A) (A)
                 (A) (A) (A) (A) (A) (A) (A) (A) (A) (A) (A) (A)
                 (A)
       Virtual   (A) (A) (A) (A) (A) (A) (A) (A) (A) (A) (A) (A)
                 (A) (A) (A) (A) (A) (A) (A) (A) (A) (A) (A) (A)
                 (A) (A) (A) (A) (A) (A) (A) (A) (A) (A) (A) (A)
                 (A) (A) (A) (A) (A) (A) (A) (A) (A) (A) (A) (A)
                 (A) (A) (A) (A) (A) (A) (A) (A) (A) (A) (A) (A)
                 (A) (A) (A) (A) (A) (A) (A) (A) (A) (A) (A) (A)
                 (A) (A) (A) (A) (A) (A) (A) (A) (A) (A) (A) (A)
                 (A) (A) (A) (A) (A) (A) (A) (A) (A) (A) (A) (A)
                 (A) (A) (A) (A) (A) (A) (A) (A) (A) (A) (A) (A)
                 (A) (A) (A) (A) (A) (A) (A) (A) (A) (A) (A) (A)
                 (A) (A) (A) (A) (A) (A) (A) (A) (A) (A) (A) (A)
                 (A) (A) (A) (A) (A) (A) (A) (A) (A) (A) (A) (A)
                 (A) (A) (A) (A) (A) (A) (A) (A) (A) (A) (A) (A)
                 (A) (A) (A) (A) (A) (A) (A) (A) (A) (A) (A) (A)
                 (A) (A) (A) (A) (A) (A) (A) (A) (A) (A) (A) (A)
                 (A) (A) (A) (A) (A) (A) (A) (A) (A) (A) (A) (A)
                 (A) (A) (A) (A) (A) (A) (A) (A) (A) (A) (A) (A)
                 (A) (A) (A) (A) (A) (A) (A) (A) (A) (A) (A) (A)
                 (A) (A) (A) (A) (A) (A) (A) (A) (A) (A) (A) (A)
                 (A) (A) (A) (A) (A) (A) (A) (A) (A) (A) (A) (A)
                 (A) (A) (A) (A) (A) (A) (A) (A) (A) (A) (A) (A)
                 (A) (A) (A) (A) (A) (A) (A) (A) (A) (A) (A) (A)
                 (A) (A) (A) (A) (A) (A) (A) (A) (A) (A) (A) (A)
                 (A) (A) (A) (A) (A) (A) (A) (A) (A) (A) (A) (A)
                 (A) (A) (A) (A) (A) (A) (A) (A) (A) (A) (A) (A)
                 (A) (A) (A) (A) (A) (A)
 The electronic state is 1-A.
 Alpha  occ. eigenvalues --  -88.90583 -88.89702 -88.89526 -19.15541 -10.27345
 Alpha  occ. eigenvalues --  -10.25199 -10.24617 -10.22796 -10.22690 -10.22664
 Alpha  occ. eigenvalues --  -10.22604 -10.22556 -10.21181 -10.20911  -7.99033
 Alpha  occ. eigenvalues --   -7.98223  -7.98073  -5.95346  -5.94990  -5.94593
 Alpha  occ. eigenvalues --   -5.94535  -5.94404  -5.94177  -5.94036  -5.93776
 Alpha  occ. eigenvalues --   -5.93588  -0.93525  -0.91353  -0.88484  -0.84344
 Alpha  occ. eigenvalues --   -0.78101  -0.75697  -0.74701  -0.71657  -0.69232
 Alpha  occ. eigenvalues --   -0.62523  -0.58317  -0.56329  -0.54550  -0.53278
 Alpha  occ. eigenvalues --   -0.50514  -0.49550  -0.45861  -0.44191  -0.42248
 Alpha  occ. eigenvalues --   -0.41253  -0.40909  -0.40284  -0.39757  -0.39724
 Alpha  occ. eigenvalues --   -0.38522  -0.36720  -0.35145  -0.34579  -0.32451
 Alpha  occ. eigenvalues --   -0.31755  -0.30120  -0.27106  -0.25704  -0.24120
 Alpha  occ. eigenvalues --   -0.20518
 Alpha virt. eigenvalues --   -0.08725  -0.08356  -0.03910  -0.02621  -0.01470
 Alpha virt. eigenvalues --   -0.00885   0.00051   0.00153   0.00496   0.01429
 Alpha virt. eigenvalues --    0.02353   0.02522   0.03008   0.03335   0.03897
 Alpha virt. eigenvalues --    0.04045   0.04706   0.05167   0.05877   0.06103
 Alpha virt. eigenvalues --    0.06448   0.07158   0.07275   0.08213   0.08577
 Alpha virt. eigenvalues --    0.09163   0.09504   0.09777   0.10123   0.10967
 Alpha virt. eigenvalues --    0.11206   0.11437   0.11852   0.12275   0.12837
 Alpha virt. eigenvalues --    0.12886   0.13945   0.14362   0.14479   0.14664
 Alpha virt. eigenvalues --    0.15234   0.15863   0.16070   0.16827   0.17502
 Alpha virt. eigenvalues --    0.17929   0.17962   0.18322   0.18615   0.18795
 Alpha virt. eigenvalues --    0.19049   0.19602   0.19895   0.20438   0.20519
 Alpha virt. eigenvalues --    0.20820   0.21516   0.21651   0.22235   0.22773
 Alpha virt. eigenvalues --    0.22994   0.23557   0.24442   0.24682   0.25039
 Alpha virt. eigenvalues --    0.25629   0.26176   0.26595   0.27431   0.27569
 Alpha virt. eigenvalues --    0.28788   0.29283   0.29554   0.30111   0.31413
 Alpha virt. eigenvalues --    0.31984   0.32560   0.33299   0.33396   0.33432
 Alpha virt. eigenvalues --    0.35045   0.35798   0.35924   0.36381   0.37673
 Alpha virt. eigenvalues --    0.38873   0.39922   0.41331   0.42136   0.43519
 Alpha virt. eigenvalues --    0.44187   0.45889   0.47131   0.49001   0.50449
 Alpha virt. eigenvalues --    0.52987   0.53429   0.54852   0.55278   0.56004
 Alpha virt. eigenvalues --    0.56137   0.57298   0.58303   0.58934   0.60486
 Alpha virt. eigenvalues --    0.60781   0.60980   0.62300   0.62444   0.64166
 Alpha virt. eigenvalues --    0.64425   0.65973   0.67755   0.68633   0.68966
 Alpha virt. eigenvalues --    0.69450   0.70723   0.71209   0.72667   0.73113
 Alpha virt. eigenvalues --    0.73602   0.73636   0.75397   0.75925   0.76866
 Alpha virt. eigenvalues --    0.77522   0.77956   0.79218   0.80257   0.80317
 Alpha virt. eigenvalues --    0.81569   0.82573   0.83526   0.85196   0.85896
 Alpha virt. eigenvalues --    0.86402   0.87365   0.87798   0.89671   0.90445
 Alpha virt. eigenvalues --    0.91329   0.91998   0.92335   0.93321   0.94510
 Alpha virt. eigenvalues --    0.96065   0.96662   0.98125   0.98825   1.00895
 Alpha virt. eigenvalues --    1.02022   1.03885   1.06454   1.07345   1.08452
 Alpha virt. eigenvalues --    1.10013   1.11751   1.13786   1.14133   1.17881
 Alpha virt. eigenvalues --    1.20688   1.21361   1.25370   1.26488   1.27471
 Alpha virt. eigenvalues --    1.31512   1.34310   1.34815   1.36656   1.39497
 Alpha virt. eigenvalues --    1.41425   1.43087   1.46789   1.48738   1.50349
 Alpha virt. eigenvalues --    1.51940   1.53904   1.55825   1.56614   1.57585
 Alpha virt. eigenvalues --    1.60496   1.60782   1.62570   1.63722   1.64076
 Alpha virt. eigenvalues --    1.65691   1.66238   1.67760   1.68372   1.69728
 Alpha virt. eigenvalues --    1.71201   1.71779   1.73552   1.74814   1.75228
 Alpha virt. eigenvalues --    1.77153   1.78820   1.79490   1.82631   1.83837
 Alpha virt. eigenvalues --    1.85767   1.87232   1.88713   1.89887   1.91970
 Alpha virt. eigenvalues --    1.94052   1.94426   1.95968   1.96642   1.98307
 Alpha virt. eigenvalues --    1.99336   1.99887   2.01248   2.02860   2.03284
 Alpha virt. eigenvalues --    2.06923   2.07425   2.08746   2.12722   2.13521
 Alpha virt. eigenvalues --    2.14625   2.17490   2.21731   2.24230   2.29640
 Alpha virt. eigenvalues --    2.32623   2.34411   2.36294   2.41956   2.45831
 Alpha virt. eigenvalues --    2.47890   2.52730   2.54318   2.58861   2.62434
 Alpha virt. eigenvalues --    2.64498   2.64623   2.68916   2.69385   2.70026
 Alpha virt. eigenvalues --    2.70887   2.73222   2.74464   2.76423   2.79617
 Alpha virt. eigenvalues --    2.80557   2.83211   2.87157   2.89996   2.91577
 Alpha virt. eigenvalues --    2.92160   2.93878   2.95018   2.96595   3.00056
 Alpha virt. eigenvalues --    3.00712   3.03526   3.04191   3.10123   3.14700
 Alpha virt. eigenvalues --    3.19677   3.25160   3.26816   3.30485   3.35620
 Alpha virt. eigenvalues --    3.38745   3.46759   3.49568   3.58014   3.59722
 Alpha virt. eigenvalues --    3.76046   3.82102   3.92497   4.03663   4.10669
 Alpha virt. eigenvalues --    4.29413   4.50080   5.01438   5.11993   5.24914
 Alpha virt. eigenvalues --    7.91984   7.95263   8.01303  17.26291  17.28041
 Alpha virt. eigenvalues --   17.29338  17.41906  17.43368  17.45507  17.46072
 Alpha virt. eigenvalues --   17.50603  17.51413  23.40634  23.56811  23.65754
 Alpha virt. eigenvalues --   23.75362  23.79423  23.84472  23.86435  23.88036
 Alpha virt. eigenvalues --   23.93716  23.95356  49.84315 189.08170 189.11576
 Alpha virt. eigenvalues --  189.19020
          Condensed to atoms (all electrons):
               1          2          3          4          5          6
     1  C    7.357653  -1.282999  -0.199922  -0.895403   0.993063   0.051365
     2  C   -1.282999  15.070056  -3.866577   0.441040  -3.385934  -0.019775
     3  C   -0.199922  -3.866577  10.450221  -0.261727   0.310018   0.016019
     4  C   -0.895403   0.441040  -0.261727   7.065522  -0.761909   0.344866
     5  S    0.993063  -3.385934   0.310018  -0.761909  18.110268  -0.025000
     6  H    0.051365  -0.019775   0.016019   0.344866  -0.025000   0.459535
     7  C    0.093307  -0.167538  -1.484194  -0.049020   1.041378  -0.003530
     8  S   -0.066685   1.110240   0.779571   0.050628  -0.737445   0.000206
     9  C    0.072047   0.145949  -0.356182  -0.033182  -0.075414   0.000159
    10  C   -0.167561  -0.007966   0.471400   0.044300  -0.067053  -0.000172
    11  C    0.193964  -2.904055   0.137729  -0.063818   0.974473  -0.000803
    12  H    0.001183   0.019421   0.003815  -0.000283  -0.002190   0.000000
    13  S    0.012354  -0.029955  -0.004285   0.000926   0.009693  -0.000005
    14  C   -0.000228   0.018316  -0.009679   0.000069  -0.020306   0.000002
    15  C    0.010147  -0.056125   0.028158  -0.015485   0.077838   0.000002
    16  H    0.000001   0.000033   0.000155  -0.000000  -0.000009   0.000000
    17  H   -0.000018  -0.000042  -0.001370   0.000029   0.000427   0.000000
    18  H   -0.106690   0.280431   0.135613  -0.032812   0.011802  -0.000093
    19  O    0.314616  -0.056873   0.011430  -0.134759   0.014842  -0.001180
    20  H   -0.059023  -0.015310   0.023935   0.050642  -0.003485  -0.000176
               7          8          9         10         11         12
     1  C    0.093307  -0.066685   0.072047  -0.167561   0.193964   0.001183
     2  C   -0.167538   1.110240   0.145949  -0.007966  -2.904055   0.019421
     3  C   -1.484194   0.779571  -0.356182   0.471400   0.137729   0.003815
     4  C   -0.049020   0.050628  -0.033182   0.044300  -0.063818  -0.000283
     5  S    1.041378  -0.737445  -0.075414  -0.067053   0.974473  -0.002190
     6  H   -0.003530   0.000206   0.000159  -0.000172  -0.000803   0.000000
     7  C   11.054439   0.106486  -1.073783   1.596535  -4.247346   0.137055
     8  S    0.106486  18.781691  -0.886202   1.821032  -4.139543   0.018325
     9  C   -1.073783  -0.886202  14.238935  -6.615184   2.586906  -0.058021
    10  C    1.596535   1.821032  -6.615184  18.734582  -8.389508   0.106957
    11  C   -4.247346  -4.139543   2.586906  -8.389508  19.669073   0.118917
    12  H    0.137055   0.018325  -0.058021   0.106957   0.118917   0.520565
    13  S   -0.437347   0.075092   0.564598  -1.360534   0.803546   0.008203
    14  C    0.193405   0.045889   0.799137  -0.316692  -0.403417   0.002924
    15  C   -0.525085  -0.354613  -3.359891  -0.061686   1.238057  -0.017820
    16  H   -0.004043   0.000927  -0.020611   0.003654   0.012138  -0.000003
    17  H    0.009195   0.024870   0.033206  -0.040070  -0.006873   0.000017
    18  H   -0.004473  -0.002617  -0.001119   0.011306   0.028087   0.000056
    19  O    0.008226  -0.000595  -0.000100  -0.000385   0.003655  -0.000002
    20  H    0.001824   0.000165  -0.000014  -0.000069  -0.000077  -0.000001
              13         14         15         16         17         18
     1  C    0.012354  -0.000228   0.010147   0.000001  -0.000018  -0.106690
     2  C   -0.029955   0.018316  -0.056125   0.000033  -0.000042   0.280431
     3  C   -0.004285  -0.009679   0.028158   0.000155  -0.001370   0.135613
     4  C    0.000926   0.000069  -0.015485  -0.000000   0.000029  -0.032812
     5  S    0.009693  -0.020306   0.077838  -0.000009   0.000427   0.011802
     6  H   -0.000005   0.000002   0.000002   0.000000   0.000000  -0.000093
     7  C   -0.437347   0.193405  -0.525085  -0.004043   0.009195  -0.004473
     8  S    0.075092   0.045889  -0.354613   0.000927   0.024870  -0.002617
     9  C    0.564598   0.799137  -3.359891  -0.020611   0.033206  -0.001119
    10  C   -1.360534  -0.316692  -0.061686   0.003654  -0.040070   0.011306
    11  C    0.803546  -0.403417   1.238057   0.012138  -0.006873   0.028087
    12  H    0.008203   0.002924  -0.017820  -0.000003   0.000017   0.000056
    13  S   16.584608   0.249923  -0.335271  -0.020824   0.003912   0.000203
    14  C    0.249923   5.740304  -0.409481   0.367691   0.007961  -0.000011
    15  C   -0.335271  -0.409481   9.452118   0.016365   0.316107   0.000050
    16  H   -0.020824   0.367691   0.016365   0.471125  -0.003620   0.000000
    17  H    0.003912   0.007961   0.316107  -0.003620   0.513581  -0.000000
    18  H    0.000203  -0.000011   0.000050   0.000000  -0.000000   0.542434
    19  O    0.000006  -0.000003   0.000010  -0.000000   0.000000  -0.002393
    20  H    0.000001  -0.000000   0.000000   0.000000  -0.000000   0.000785
              19         20
     1  C    0.314616  -0.059023
     2  C   -0.056873  -0.015310
     3  C    0.011430   0.023935
     4  C   -0.134759   0.050642
     5  S    0.014842  -0.003485
     6  H   -0.001180  -0.000176
     7  C    0.008226   0.001824
     8  S   -0.000595   0.000165
     9  C   -0.000100  -0.000014
    10  C   -0.000385  -0.000069
    11  C    0.003655  -0.000077
    12  H   -0.000002  -0.000001
    13  S    0.000006   0.000001
    14  C   -0.000003  -0.000000
    15  C    0.000010   0.000000
    16  H   -0.000000   0.000000
    17  H    0.000000  -0.000000
    18  H   -0.002393   0.000785
    19  O    8.107012   0.186369
    20  H    0.186369   0.528674
 Mulliken charges:
               1
     1  C   -0.321173
     2  C    0.707664
     3  C   -0.184128
     4  C    0.250378
     5  S   -0.465058
     6  H    0.178582
     7  C   -0.245493
     8  S   -0.627421
     9  C    0.038767
    10  C    0.237114
    11  C    0.388896
    12  H    0.140882
    13  S   -0.124844
    14  C   -0.265803
    15  C   -0.003396
    16  H    0.177021
    17  H    0.142689
    18  H    0.139440
    19  O   -0.449877
    20  H    0.285762
 Sum of Mulliken charges =  -0.00000
 Mulliken charges with hydrogens summed into heavy atoms:
               1
     1  C   -0.321173
     2  C    0.847104
     3  C   -0.184128
     4  C    0.428960
     5  S   -0.465058
     7  C   -0.245493
     8  S   -0.627421
     9  C    0.038767
    10  C    0.237114
    11  C    0.529778
    13  S   -0.124844
    14  C   -0.088782
    15  C    0.139293
    19  O   -0.164116
 Electronic spatial extent (au):  <R**2>=           4980.7843
 Charge=             -0.0000 electrons
 Dipole moment (field-independent basis, Debye):
    X=             -1.5228    Y=              0.8361    Z=              0.9527  Tot=              1.9814
 Quadrupole moment (field-independent basis, Debye-Ang):
   XX=           -102.1951   YY=            -88.9075   ZZ=           -109.4945
   XY=              5.7522   XZ=             -5.0958   YZ=             -2.4790
 Traceless Quadrupole moment (field-independent basis, Debye-Ang):
   XX=             -1.9961   YY=             11.2915   ZZ=             -9.2954
   XY=              5.7522   XZ=             -5.0958   YZ=             -2.4790
 Octapole moment (field-independent basis, Debye-Ang**2):
  XXX=            -69.8395  YYY=             36.3857  ZZZ=              4.8396  XYY=             48.4333
  XXY=              1.0465  XXZ=             26.5924  XZZ=             -0.4085  YZZ=             -0.8814
  YYZ=              2.1468  XYZ=             -8.9430
 Hexadecapole moment (field-independent basis, Debye-Ang**3):
 XXXX=          -5697.1384 YYYY=           -887.2848 ZZZZ=           -200.6350 XXXY=            108.0148
 XXXZ=           -151.8253 YYYX=            209.5541 YYYZ=            -13.3983 ZZZX=             -4.0907
 ZZZY=              1.7496 XXYY=           -838.7787 XXZZ=          -1035.6468 YYZZ=           -217.5438
 XXYZ=            -46.6221 YYXZ=            -15.5545 ZZXY=             -4.7095
 N-N= 1.080130247576D+03 E-N=-6.069571142509D+03  KE= 1.649115896355D+03
 Calling FoFJK, ICntrl=      2127 FMM=F ISym2X=0 I1Cent= 0 IOpClX= 0 NMat=1 NMatS=1 NMatT=0.
 ***** Axes restored to original set *****
 -------------------------------------------------------------------
 Center     Atomic                   Forces (Hartrees/Bohr)
 Number     Number              X              Y              Z
 -------------------------------------------------------------------
      1        6          -0.012824832    0.009364489   -0.021843531
      2        6           0.000967841    0.026325852   -0.016139957
      3        6          -0.029551610    0.027571086    0.003874721
      4        6          -0.015353942    0.056671653   -0.008217749
      5       16          -0.006055994    0.027198947   -0.001440649
      6        1           0.003141308   -0.003796392   -0.000604859
      7        6           0.027962284    0.037698765   -0.029474644
      8       16          -0.008071681    0.012696115    0.007993096
      9        6           0.005281071    0.016514447   -0.032280308
     10        6          -0.029148287   -0.026662958    0.014120878
     11        6          -0.015617000   -0.039497812    0.029466470
     12        1          -0.003569137    0.002688666    0.003986994
     13       16           0.015382011   -0.009967777    0.005080144
     14        6          -0.029427620   -0.029158327    0.041517919
     15        6           0.012096984    0.030016699   -0.044091545
     16        1           0.003354116    0.006306413    0.001449934
     17        1           0.006122259    0.006179301    0.003763764
     18        1           0.014220947   -0.069527218    0.019540169
     19        8           0.018560903    0.025774495   -0.006753260
     20        1           0.042530377   -0.106396446    0.030052416
 -------------------------------------------------------------------
 Cartesian Forces:  Max     0.106396446 RMS     0.027161222

 GradGradGradGradGradGradGradGradGradGradGradGradGradGradGradGradGradGrad
 Berny optimization.
 FormGI is forming the generalized inverse of G from B-inverse, IUseBI=4.
 Internal  Forces:  Max     0.115035235 RMS     0.022651295
 Search for a local minimum.
 Step number   1 out of a maximum of  116
 All quantities printed in internal units (Hartrees-Bohrs-Radians)
 Mixed Optimization -- RFO/linear search
 Second derivative matrix not updated -- first step.
 ITU=  0
     Eigenvalues ---    0.00230   0.00983   0.01057   0.01222   0.01274
     Eigenvalues ---    0.01298   0.01386   0.01417   0.01424   0.01464
     Eigenvalues ---    0.01493   0.01554   0.01597   0.01772   0.02200
     Eigenvalues ---    0.02651   0.15077   0.15683   0.15737   0.15872
     Eigenvalues ---    0.15997   0.16000   0.18002   0.18458   0.20203
     Eigenvalues ---    0.21719   0.22444   0.23321   0.23380   0.23776
     Eigenvalues ---    0.23978   0.24292   0.24978   0.24995   0.26219
     Eigenvalues ---    0.26552   0.28371   0.30834   0.31334   0.31510
     Eigenvalues ---    0.34853   0.35096   0.35849   0.35952   0.36006
     Eigenvalues ---    0.36154   0.36366   0.37598   0.38323   0.38494
     Eigenvalues ---    0.39449   0.39664   0.406301000.000001000.00000
     Eigenvalues --- 1000.000001000.000001000.000001000.000001000.00000
     Eigenvalues --- 1000.000001000.000001000.000001000.000001000.00000
     Eigenvalues --- 1000.000001000.000001000.000001000.000001000.00000
     Eigenvalues --- 1000.000001000.000001000.000001000.000001000.00000
     Eigenvalues --- 1000.000001000.000001000.000001000.000001000.00000
     Eigenvalues --- 1000.000001000.000001000.000001000.000001000.00000
     Eigenvalues --- 1000.000001000.000001000.000001000.000001000.00000
     Eigenvalues --- 1000.000001000.000001000.000001000.000001000.00000
     Eigenvalues --- 1000.000001000.000001000.000001000.000001000.00000
     Eigenvalues --- 1000.000001000.000001000.000001000.000001000.00000
     Eigenvalues --- 1000.00000
 RFO step:  Lambda=-1.43990955D-01 EMin= 2.30000000D-03
 Linear search not attempted -- first point.
 Maximum step size (   0.300) exceeded in Quadratic search.
    -- Step size scaled by   0.486
 Iteration  1 RMS(Cart)=  0.06465667 RMS(Int)=  0.00174547
 Iteration  2 RMS(Cart)=  0.00210201 RMS(Int)=  0.00007400
 Iteration  3 RMS(Cart)=  0.00001148 RMS(Int)=  0.00007365
 Iteration  4 RMS(Cart)=  0.00000000 RMS(Int)=  0.00007365
 Iteration  1 RMS(Cart)=  0.00000181 RMS(Int)=  0.00000067
 Iteration  2 RMS(Cart)=  0.00000099 RMS(Int)=  0.00000075
 Variable       Old X    -DE/DX   Delta X   Delta X   Delta X     New X
                                 (Linear)    (Quad)   (Total)
    R1        2.71917  -0.02272   0.00000  -0.02141  -0.02133   2.69784
    R2        2.71391  -0.06276   0.00000  -0.05639  -0.05635   2.65757
    R3        3.19503  -0.09908   0.00000  -0.14642  -0.14642   3.04862
    R4        2.75906  -0.06454   0.00000  -0.06134  -0.06132   2.69775
    R5        2.35064  -0.07171   0.00000  -0.09640  -0.09640   2.25424
    R6        3.39578  -0.01648   0.00000  -0.01853  -0.01859   3.37719
    R7        2.74954  -0.01589   0.00000  -0.01484  -0.01484   2.73469
    R8        3.28671  -0.01487   0.00000  -0.01494  -0.01498   3.27173
    R9        2.04073  -0.00100   0.00000  -0.00096  -0.00096   2.03977
   R10        3.38315  -0.01082   0.00000  -0.01176  -0.01182   3.37134
   R11        2.76695  -0.06011   0.00000  -0.05767  -0.05770   2.70925
   R12        3.27073   0.00067   0.00000   0.00135   0.00136   3.27209
   R13        2.72154  -0.03044   0.00000  -0.02795  -0.02784   2.69370
   R14        2.69489  -0.00336   0.00000  -0.00372  -0.00366   2.69123
   R15        2.70781  -0.01404   0.00000  -0.01329  -0.01326   2.69455
   R16        3.27327   0.00167   0.00000   0.00259   0.00258   3.27585
   R17        2.03841   0.00147   0.00000   0.00141   0.00141   2.03982
   R18        3.33611  -0.01225   0.00000  -0.01313  -0.01320   3.32291
   R19        2.73015  -0.05743   0.00000  -0.05278  -0.05280   2.67735
   R20        2.04156  -0.00085   0.00000  -0.00082  -0.00082   2.04074
   R21        2.05519  -0.00449   0.00000  -0.00440  -0.00440   2.05078
   R22        2.39943  -0.11504   0.00000  -0.16142  -0.16142   2.23801
    A1        1.97020   0.02045   0.00000   0.02372   0.02384   1.99404
    A2        2.13260   0.00493   0.00000   0.00770   0.00765   2.14024
    A3        2.16079  -0.02474   0.00000  -0.02952  -0.02963   2.13115
    A4        1.97187  -0.00235   0.00000  -0.00492  -0.00482   1.96705
    A5        1.96334   0.02025   0.00000   0.03309   0.03304   1.99638
    A6        2.34288  -0.01773   0.00000  -0.02758  -0.02764   2.31524
    A7        1.90440  -0.00129   0.00000  -0.00085  -0.00088   1.90352
    A8        2.31891  -0.01178   0.00000  -0.01491  -0.01489   2.30402
    A9        2.05972   0.01307   0.00000   0.01573   0.01575   2.07547
   A10        1.95339  -0.01498   0.00000  -0.01969  -0.01969   1.93370
   A11        2.17580   0.01240   0.00000   0.01771   0.01771   2.19351
   A12        2.15384   0.00260   0.00000   0.00205   0.00204   2.15589
   A13        1.62490  -0.00183   0.00000   0.00176   0.00156   1.62646
   A14        2.12866  -0.00007   0.00000   0.00014   0.00014   2.12880
   A15        2.24043  -0.00676   0.00000  -0.00813  -0.00813   2.23230
   A16        1.91342   0.00690   0.00000   0.00815   0.00815   1.92156
   A17        1.61854  -0.00666   0.00000  -0.00626  -0.00624   1.61231
   A18        1.96196  -0.01060   0.00000  -0.01144  -0.01155   1.95041
   A19        2.23831   0.00834   0.00000   0.01427   0.01411   2.25242
   A20        1.96534   0.00604   0.00000   0.00728   0.00732   1.97266
   A21        1.96621   0.00800   0.00000   0.00903   0.00905   1.97527
   A22        1.96679  -0.01336   0.00000  -0.01472  -0.01480   1.95199
   A23        2.23738   0.00878   0.00000   0.01465   0.01450   2.25188
   A24        1.96392   0.00240   0.00000   0.00061   0.00068   1.96460
   A25        2.16117  -0.00490   0.00000  -0.00579  -0.00585   2.15532
   A26        2.14612   0.00302   0.00000   0.00676   0.00670   2.15282
   A27        1.59328   0.00023   0.00000   0.00166   0.00165   1.59494
   A28        1.95930   0.00173   0.00000   0.00126   0.00123   1.96052
   A29        2.13575  -0.00475   0.00000  -0.00622  -0.00628   2.12946
   A30        2.17102   0.00406   0.00000   0.00800   0.00796   2.17897
   A31        1.93975   0.00535   0.00000   0.00451   0.00457   1.94432
   A32        2.16548   0.00008   0.00000   0.00349   0.00335   2.16883
   A33        2.14118  -0.00350   0.00000  -0.00240  -0.00254   2.13864
   A34        2.33954  -0.06773   0.00000  -0.10818  -0.10818   2.23136
    D1        0.00683  -0.00061   0.00000  -0.00190  -0.00191   0.00493
    D2        3.05589  -0.00029   0.00000   0.00164   0.00181   3.05770
    D3       -2.93068  -0.00104   0.00000  -0.00813  -0.00836  -2.93903
    D4        0.11838  -0.00072   0.00000  -0.00459  -0.00464   0.11374
    D5       -0.00671   0.00061   0.00000   0.00154   0.00154  -0.00517
    D6       -3.13020  -0.00103   0.00000  -0.00240  -0.00238  -3.13257
    D7        2.92697   0.00520   0.00000   0.01308   0.01297   2.93994
    D8       -0.19651   0.00356   0.00000   0.00914   0.00905  -0.18747
    D9       -0.13323   0.00183   0.00000   0.00254   0.00248  -0.13074
   D10       -3.04818  -0.00446   0.00000  -0.01126  -0.01120  -3.05938
   D11       -0.00388   0.00049   0.00000   0.00157   0.00152  -0.00236
   D12        3.11762   0.00100   0.00000   0.00054   0.00051   3.11813
   D13       -3.02603  -0.00301   0.00000  -0.00789  -0.00785  -3.03388
   D14        0.09547  -0.00249   0.00000  -0.00892  -0.00887   0.08661
   D15        0.00006  -0.00007   0.00000  -0.00053  -0.00051  -0.00045
   D16       -3.12486  -0.00020   0.00000   0.00069   0.00072  -3.12413
   D17        2.87982  -0.00201   0.00000   0.00000  -0.00000   2.87982
   D18       -0.30578   0.00070   0.00000   0.00545   0.00546  -0.30032
   D19       -0.28328  -0.00162   0.00000  -0.00129  -0.00129  -0.28457
   D20        2.81431   0.00109   0.00000   0.00416   0.00417   2.81848
   D21        0.00376  -0.00033   0.00000  -0.00059  -0.00060   0.00316
   D22        3.12751   0.00141   0.00000   0.00349   0.00342   3.13093
   D23        3.13757   0.00069   0.00000   0.00121   0.00123   3.13879
   D24        0.03260  -0.00128   0.00000  -0.00298  -0.00302   0.02959
   D25       -3.13827  -0.00186   0.00000  -0.00361  -0.00357   3.14134
   D26       -0.15829   0.00199   0.00000   0.00769   0.00770  -0.15059
   D27       -0.03631   0.00048   0.00000   0.00119   0.00125  -0.03507
   D28        2.94367   0.00433   0.00000   0.01249   0.01252   2.95618
   D29       -0.02123   0.00210   0.00000   0.00445   0.00442  -0.01681
   D30       -2.61661  -0.00684   0.00000  -0.01810  -0.01812  -2.63474
   D31        0.00367  -0.00181   0.00000  -0.00419  -0.00415  -0.00049
   D32       -2.68853  -0.01068   0.00000  -0.02490  -0.02467  -2.71320
   D33        2.68753   0.00743   0.00000   0.01814   0.01799   2.70553
   D34       -0.00467  -0.00144   0.00000  -0.00258  -0.00252  -0.00719
   D35        2.61391   0.00607   0.00000   0.02029   0.02046   2.63437
   D36       -0.24536  -0.00067   0.00000  -0.00023  -0.00015  -0.24551
   D37        0.01938   0.00131   0.00000   0.00242   0.00239   0.02177
   D38       -2.83989  -0.00543   0.00000  -0.01810  -0.01822  -2.85811
   D39        0.02167   0.00086   0.00000   0.00185   0.00183   0.02350
   D40       -2.95992  -0.00210   0.00000  -0.00800  -0.00808  -2.96800
   D41        2.62812   0.00436   0.00000   0.01684   0.01700   2.64512
   D42       -0.35347   0.00139   0.00000   0.00698   0.00709  -0.34638
   D43       -0.00867   0.00117   0.00000   0.00178   0.00175  -0.00692
   D44       -2.61498  -0.00762   0.00000  -0.01909  -0.01905  -2.63403
   D45        0.01979  -0.00032   0.00000  -0.00031  -0.00031   0.01948
   D46        2.97152   0.00591   0.00000   0.01733   0.01725   2.98878
   D47       -0.02581  -0.00041   0.00000  -0.00104  -0.00101  -0.02682
   D48        2.83806   0.00687   0.00000   0.02024   0.02028   2.85834
   D49       -2.97302  -0.00565   0.00000  -0.01726  -0.01730  -2.99033
   D50       -0.10915   0.00162   0.00000   0.00402   0.00398  -0.10517
         Item               Value     Threshold  Converged?
 Maximum Force            0.115035     0.000450     NO 
 RMS     Force            0.022757     0.000300     NO 
 Maximum Displacement     0.440427     0.001800     NO 
 RMS     Displacement     0.064034     0.001200     NO 
 Predicted change in Energy=-5.976197D-02
 GradGradGradGradGradGradGradGradGradGradGradGradGradGradGradGradGradGrad

                          Input orientation:                          
 ---------------------------------------------------------------------
 Center     Atomic      Atomic             Coordinates (Angstroms)
 Number     Number       Type             X           Y           Z
 ---------------------------------------------------------------------
      1          6           0       -4.223496   -1.354338   -0.226175
      2          6           0       -2.910704   -0.964136   -0.629239
      3          6           0       -1.987385   -2.052934   -0.627620
      4          6           0       -4.347514   -2.717644    0.095946
      5         16           0       -2.835565   -3.536758   -0.105420
      6          1           0       -5.254288   -3.209502    0.413650
      7          6           0       -0.586222   -2.135140   -0.980029
      8         16           0        0.423901   -3.530951   -0.517278
      9          6           0        1.826587   -2.860396   -1.279497
     10          6           0        1.543425   -1.608173   -1.898894
     11          6           0        0.184624   -1.202659   -1.749249
     12          1           0       -0.247001   -0.367014   -2.278926
     13         16           0        2.650708   -1.260597   -3.186590
     14          6           0        3.511458   -2.768903   -2.910695
     15          6           0        2.937770   -3.532410   -1.864160
     16          1           0        4.274779   -3.124315   -3.586888
     17          1           0        3.160635   -4.584609   -1.719489
     18          1           0       -2.822669    0.169743   -0.989179
     19          8           0       -5.508107   -0.393976   -0.399625
     20          1           0       -5.526936    0.739712   -0.741642
 ---------------------------------------------------------------------
                    Distance matrix (angstroms):
                    1          2          3          4          5
     1  C    0.000000
     2  C    1.427634   0.000000
     3  C    2.376844   1.427586   0.000000
     4  C    1.406323   2.380147   2.556481   0.000000
     5  S    2.589187   2.626483   1.787131   1.731324   0.000000
     6  H    2.216651   3.409056   3.618639   1.079398   2.495346
     7  C    3.795749   2.626313   1.447137   3.955293   2.790882
     8  S    5.140106   4.209592   2.830372   4.878925   3.285389
     9  C    6.323069   5.143983   3.952634   6.327063   4.855058
    10  C    6.009975   4.676118   3.778964   6.317711   5.109946
    11  C    4.666292   3.300360   2.588174   5.122518   4.155928
    12  H    4.582697   3.189568   2.932248   5.289582   4.633797
    13  S    7.485154   6.128396   5.356121   7.865947   6.691316
    14  C    8.308860   7.050277   5.996859   8.414627   6.981682
    15  C    7.662293   6.505822   5.289143   7.588229   6.035279
    16  H    9.308485   8.065062   7.008553   9.384699   7.927656
    17  H    8.196953   7.152456   5.839834   7.946928   6.297431
    18  H    2.206199   1.192891   2.401815   3.440878   3.810426
    19  O    1.613259   2.669139   3.898667   2.644238   4.135953
    20  H    2.519863   3.124164   4.510022   3.747786   5.092785
                    6          7          8          9         10
     6  H    0.000000
     7  C    4.988731   0.000000
     8  S    5.762967   1.784034   0.000000
     9  C    7.288855   2.537188   1.731516   0.000000
    10  C    7.356699   2.378530   2.619021   1.425446   0.000000
    11  C    6.187675   1.433675   2.644986   2.380085   1.425895
    12  H    6.356306   2.220017   3.682935   3.393461   2.211453
    13  S    8.902186   4.013907   4.151915   2.622125   1.733506
    14  C    9.385292   4.573851   3.980223   2.346907   2.498838
    15  C    8.508966   3.892631   2.851952   1.424136   2.376572
    16  H   10.335119   5.603884   4.941368   3.374515   3.550817
    17  H    8.789320   4.537140   3.169420   2.224003   3.392156
    18  H    4.393176   3.211582   4.945507   5.557122   4.801181
    19  O    2.941602   5.252948   6.711421   7.788140   7.310689
    20  H    4.123751   5.721211   7.328122   8.205143   7.539350
                   11         12         13         14         15
    11  C    0.000000
    12  H    1.079426   0.000000
    13  S    2.854974   3.165290   0.000000
    14  C    3.856152   4.504911   1.758407   0.000000
    15  C    3.608429   4.509383   2.644307   1.416791   0.000000
    16  H    4.878427   5.455270   2.504254   1.079913   2.218541
    17  H    4.505010   5.450969   3.668987   2.199735   1.085228
    18  H    3.391902   2.930123   6.068965   7.242170   6.903201
    19  O    5.906152   5.586746   8.665129   9.659104   9.128388
    20  H    6.116371   5.609439   8.766577   9.935177   9.547897
                   16         17         18         19         20
    16  H    0.000000
    17  H    2.619342   0.000000
    18  H    8.244554   7.677053   0.000000
    19  O   10.645104   9.718566   2.806587   0.000000
    20  H   10.913283  10.236136   2.774744   1.184306   0.000000
 Stoichiometry    C10H6OS3
 Framework group  C1[X(C10H6OS3)]
 Deg. of freedom    54
 Full point group                 C1      NOp   1
 Largest Abelian subgroup         C1      NOp   1
 Largest concise Abelian subgroup C1      NOp   1
                         Standard orientation:                         
 ---------------------------------------------------------------------
 Center     Atomic      Atomic             Coordinates (Angstroms)
 Number     Number       Type             X           Y           Z
 ---------------------------------------------------------------------
      1          6           0        3.817164    0.644991   -0.062489
      2          6           0        2.476940    1.076812   -0.298012
      3          6           0        1.521920    0.030413   -0.121980
      4          6           0        3.933768   -0.712319    0.286593
      5         16           0        2.377919   -1.470236    0.335356
      6          1           0        4.855223   -1.227697    0.511106
      7          6           0        0.078680    0.008791   -0.225892
      8         16           0       -0.837658   -1.517916   -0.336640
      9          6           0       -2.354145   -0.685951   -0.415678
     10          6           0       -2.185934    0.727394   -0.337856
     11          6           0       -0.822000    1.124160   -0.213610
     12          1           0       -0.516134    2.134276    0.012824
     13         16           0       -3.610351    1.514484    0.259280
     14          6           0       -4.451781   -0.022940    0.401825
     15          6           0       -3.638887   -1.118859    0.020432
     16          1           0       -5.412005   -0.106955    0.888778
     17          1           0       -3.883074   -2.144303    0.278422
     18          1           0        2.365592    2.246215   -0.505583
     19          8           0        5.051337    1.674793    0.075088
     20          1           0        5.046792    2.843865   -0.114199
 ---------------------------------------------------------------------
 Rotational constants (GHZ):           1.3602926           0.2362978           0.2045272
 Standard basis: 6-311+G(d,p) (5D, 7F)
 There are   382 symmetry adapted cartesian basis functions of A   symmetry.
 There are   368 symmetry adapted basis functions of A   symmetry.
   368 basis functions,   594 primitive gaussians,   382 cartesian basis functions
    61 alpha electrons       61 beta electrons
       nuclear repulsion energy      1089.8918705227 Hartrees.
 NAtoms=   20 NActive=   20 NUniq=   20 SFac= 1.00D+00 NAtFMM=   60 NAOKFM=F Big=F
 Integral buffers will be    131072 words long.
 Raffenetti 2 integral format.
 Two-electron integral symmetry is turned on.
 One-electron integrals computed using PRISM.
 NBasis=   368 RedAO= T EigKep=  2.14D-06  NBF=   368
 NBsUse=   367 1.00D-06 EigRej=  3.71D-07 NBFU=   367
 Initial guess from the checkpoint file:  "/tmp/pbs.4730634[340].pbs/Gau-4139553.chk"
 B after Tr=    -0.000000    0.000000   -0.000000
         Rot=    0.999996    0.001389   -0.000134   -0.002470 Ang=   0.33 deg.
 ExpMin= 4.05D-02 ExpMax= 9.34D+04 ExpMxC= 3.17D+03 IAcc=3 IRadAn=         5 AccDes= 0.00D+00
 Harris functional with IExCor=  402 and IRadAn=       5 diagonalized for initial guess.
 HarFok:  IExCor=  402 AccDes= 0.00D+00 IRadAn=         5 IDoV= 1 UseB2=F ITyADJ=14
 ICtDFT=  3500011 ScaDFX=  1.000000  1.000000  1.000000  1.000000
 FoFCou: FMM=F IPFlag=           0 FMFlag=      100000 FMFlg1=           0
         NFxFlg=           0 DoJE=T BraDBF=F KetDBF=T FulRan=T
         wScrn=  0.000000 ICntrl=       500 IOpCl=  0 I1Cent=   200000004 NGrid=           0
         NMat0=    1 NMatS0=      1 NMatT0=    0 NMatD0=    1 NMtDS0=    0 NMtDT0=    0
 Petite list used in FoFCou.
 Requested convergence on RMS density matrix=1.00D-08 within 128 cycles.
 Requested convergence on MAX density matrix=1.00D-06.
 Requested convergence on             energy=1.00D-06.
 No special actions if energy rises.
 SCF Done:  E(RB3LYP) =  -1654.52733595     A.U. after   15 cycles
            NFock= 15  Conv=0.18D-08     -V/T= 2.0029
 Calling FoFJK, ICntrl=      2127 FMM=F ISym2X=0 I1Cent= 0 IOpClX= 0 NMat=1 NMatS=1 NMatT=0.
 ***** Axes restored to original set *****
 -------------------------------------------------------------------
 Center     Atomic                   Forces (Hartrees/Bohr)
 Number     Number              X              Y              Z
 -------------------------------------------------------------------
      1        6          -0.032305261    0.025301610   -0.021803408
      2        6           0.001534986    0.025657738   -0.014433142
      3        6          -0.023582093    0.017796582    0.004793775
      4        6          -0.010351207    0.041830566   -0.005214470
      5       16          -0.000420567    0.016388327   -0.000676952
      6        1           0.002590337   -0.003225209   -0.000803990
      7        6           0.023315103    0.027456212   -0.022660550
      8       16          -0.006582084    0.008830755    0.008700426
      9        6           0.001751984    0.011757078   -0.025163460
     10        6          -0.019360531   -0.022059786    0.008174659
     11        6          -0.012957052   -0.027391590    0.021525393
     12        1          -0.002325360    0.002513288    0.003617954
     13       16           0.013313361   -0.004097403    0.002708833
     14        6          -0.021782586   -0.022244209    0.029570894
     15        6           0.008820214    0.019992780   -0.032664296
     16        1           0.003083371    0.005838492    0.001193088
     17        1           0.005374515    0.004589771    0.004468446
     18        1           0.010775034   -0.054701450    0.016426368
     19        8           0.031823373    0.029654840   -0.008245904
     20        1           0.027284462   -0.103888393    0.030486334
 -------------------------------------------------------------------
 Cartesian Forces:  Max     0.103888393 RMS     0.023352955

 GradGradGradGradGradGradGradGradGradGradGradGradGradGradGradGradGradGrad
 Berny optimization.
 Using GEDIIS/GDIIS optimizer.
 FormGI is forming the generalized inverse of G from B-inverse, IUseBI=4.
 Internal  Forces:  Max     0.108686339 RMS     0.018783608
 Search for a local minimum.
 Step number   2 out of a maximum of  116
 All quantities printed in internal units (Hartrees-Bohrs-Radians)
 Mixed Optimization -- RFO/linear search
 Update second derivatives using D2CorX and points    1    2
 DE= -6.48D-02 DEPred=-5.98D-02 R= 1.08D+00
 TightC=F SS=  1.41D+00  RLast= 3.08D-01 DXNew= 5.0454D-01 9.2342D-01
 Trust test= 1.08D+00 RLast= 3.08D-01 DXMaxT set to 5.05D-01
 ITU=  1  0
 Use linear search instead of GDIIS.
 Linear search step of   0.600 exceeds DXMaxT=   0.505 but not scaled.
 Quartic linear search produced a step of  2.00000.
 Iteration  1 RMS(Cart)=  0.11234054 RMS(Int)=  0.01926466
 Iteration  2 RMS(Cart)=  0.02243389 RMS(Int)=  0.00044270
 Iteration  3 RMS(Cart)=  0.00008537 RMS(Int)=  0.00044031
 Iteration  4 RMS(Cart)=  0.00000002 RMS(Int)=  0.00044031
 Iteration  1 RMS(Cart)=  0.00000989 RMS(Int)=  0.00000384
 Iteration  2 RMS(Cart)=  0.00000538 RMS(Int)=  0.00000429
 Iteration  3 RMS(Cart)=  0.00000293 RMS(Int)=  0.00000484
 Iteration  4 RMS(Cart)=  0.00000159 RMS(Int)=  0.00000520
 Iteration  5 RMS(Cart)=  0.00000087 RMS(Int)=  0.00000542
 Variable       Old X    -DE/DX   Delta X   Delta X   Delta X     New X
                                 (Linear)    (Quad)   (Total)
    R1        2.69784  -0.01241  -0.04267   0.00000  -0.04217   2.65567
    R2        2.65757  -0.04208  -0.11269   0.00000  -0.11242   2.54515
    R3        3.04862  -0.09365  -0.29284   0.00000  -0.29284   2.75578
    R4        2.69775  -0.04319  -0.12264   0.00000  -0.12250   2.57525
    R5        2.25424  -0.05616  -0.19281   0.00000  -0.19281   2.06143
    R6        3.37719  -0.01243  -0.03718   0.00000  -0.03760   3.33959
    R7        2.73469  -0.00728  -0.02968   0.00000  -0.02968   2.70501
    R8        3.27173  -0.00704  -0.02996   0.00000  -0.03027   3.24146
    R9        2.03977  -0.00094  -0.00192   0.00000  -0.00192   2.03784
   R10        3.37134  -0.00753  -0.02363   0.00000  -0.02396   3.34738
   R11        2.70925  -0.04253  -0.11540   0.00000  -0.11555   2.59371
   R12        3.27209   0.00239   0.00272   0.00000   0.00274   3.27483
   R13        2.69370  -0.02105  -0.05567   0.00000  -0.05501   2.63870
   R14        2.69123  -0.00093  -0.00733   0.00000  -0.00700   2.68423
   R15        2.69455  -0.00751  -0.02651   0.00000  -0.02630   2.66825
   R16        3.27585   0.00309   0.00516   0.00000   0.00508   3.28093
   R17        2.03982   0.00110   0.00282   0.00000   0.00282   2.04264
   R18        3.32291  -0.00812  -0.02640   0.00000  -0.02680   3.29611
   R19        2.67735  -0.03999  -0.10560   0.00000  -0.10569   2.57165
   R20        2.04074  -0.00049  -0.00164   0.00000  -0.00164   2.03910
   R21        2.05078  -0.00275  -0.00880   0.00000  -0.00880   2.04198
   R22        2.23801  -0.10869  -0.32284   0.00000  -0.32284   1.91518
    A1        1.99404   0.01156   0.04768   0.00000   0.04839   2.04242
    A2        2.14024   0.00631   0.01530   0.00000   0.01498   2.15522
    A3        2.13115  -0.01720  -0.05926   0.00000  -0.05988   2.07127
    A4        1.96705  -0.00113  -0.00964   0.00000  -0.00900   1.95805
    A5        1.99638   0.01698   0.06608   0.00000   0.06577   2.06215
    A6        2.31524  -0.01567  -0.05528   0.00000  -0.05567   2.25957
    A7        1.90352   0.00070  -0.00176   0.00000  -0.00194   1.90158
    A8        2.30402  -0.01010  -0.02978   0.00000  -0.02969   2.27434
    A9        2.07547   0.00941   0.03150   0.00000   0.03158   2.10705
   A10        1.93370  -0.00813  -0.03938   0.00000  -0.03934   1.89436
   A11        2.19351   0.00816   0.03541   0.00000   0.03537   2.22888
   A12        2.15589  -0.00001   0.00408   0.00000   0.00404   2.15993
   A13        1.62646  -0.00299   0.00313   0.00000   0.00191   1.62837
   A14        2.12880  -0.00032   0.00028   0.00000   0.00027   2.12906
   A15        2.23230  -0.00486  -0.01626   0.00000  -0.01628   2.21601
   A16        1.92156   0.00524   0.01629   0.00000   0.01627   1.93783
   A17        1.61231  -0.00483  -0.01247   0.00000  -0.01238   1.59993
   A18        1.95041  -0.00733  -0.02310   0.00000  -0.02375   1.92666
   A19        2.25242   0.00671   0.02822   0.00000   0.02721   2.27963
   A20        1.97266   0.00395   0.01465   0.00000   0.01489   1.98755
   A21        1.97527   0.00492   0.01810   0.00000   0.01823   1.99349
   A22        1.95199  -0.00886  -0.02959   0.00000  -0.02999   1.92200
   A23        2.25188   0.00700   0.02899   0.00000   0.02807   2.27995
   A24        1.96460   0.00204   0.00136   0.00000   0.00176   1.96636
   A25        2.15532  -0.00350  -0.01169   0.00000  -0.01203   2.14329
   A26        2.15282   0.00193   0.01339   0.00000   0.01303   2.16585
   A27        1.59494  -0.00071   0.00331   0.00000   0.00326   1.59819
   A28        1.96052   0.00214   0.00245   0.00000   0.00229   1.96281
   A29        2.12946  -0.00476  -0.01256   0.00000  -0.01294   2.11653
   A30        2.17897   0.00352   0.01591   0.00000   0.01564   2.19461
   A31        1.94432   0.00348   0.00914   0.00000   0.00949   1.95381
   A32        2.16883  -0.00007   0.00671   0.00000   0.00592   2.17475
   A33        2.13864  -0.00178  -0.00508   0.00000  -0.00591   2.13273
   A34        2.23136  -0.05714  -0.21636   0.00000  -0.21636   2.01500
    D1        0.00493  -0.00035  -0.00382   0.00000  -0.00385   0.00108
    D2        3.05770   0.00038   0.00361   0.00000   0.00459   3.06229
    D3       -2.93903  -0.00205  -0.01671   0.00000  -0.01801  -2.95704
    D4        0.11374  -0.00133  -0.00928   0.00000  -0.00957   0.10417
    D5       -0.00517   0.00040   0.00309   0.00000   0.00313  -0.00204
    D6       -3.13257  -0.00103  -0.00476   0.00000  -0.00462  -3.13719
    D7        2.93994   0.00505   0.02593   0.00000   0.02529   2.96523
    D8       -0.18747   0.00362   0.01809   0.00000   0.01755  -0.16992
    D9       -0.13074   0.00140   0.00497   0.00000   0.00459  -0.12615
   D10       -3.05938  -0.00390  -0.02241   0.00000  -0.02203  -3.08142
   D11       -0.00236   0.00020   0.00304   0.00000   0.00278   0.00042
   D12        3.11813   0.00077   0.00101   0.00000   0.00083   3.11895
   D13       -3.03388  -0.00314  -0.01570   0.00000  -0.01545  -3.04933
   D14        0.08661  -0.00257  -0.01773   0.00000  -0.01741   0.06920
   D15       -0.00045   0.00005  -0.00102   0.00000  -0.00088  -0.00133
   D16       -3.12413  -0.00019   0.00145   0.00000   0.00167  -3.12246
   D17        2.87982  -0.00205  -0.00001   0.00000   0.00000   2.87982
   D18       -0.30032   0.00054   0.01092   0.00000   0.01098  -0.28935
   D19       -0.28457  -0.00154  -0.00258   0.00000  -0.00258  -0.28715
   D20        2.81848   0.00105   0.00834   0.00000   0.00839   2.82687
   D21        0.00316  -0.00026  -0.00120   0.00000  -0.00128   0.00187
   D22        3.13093   0.00121   0.00683   0.00000   0.00641   3.13733
   D23        3.13879   0.00076   0.00246   0.00000   0.00257   3.14136
   D24        0.02959  -0.00123  -0.00603   0.00000  -0.00622   0.02337
   D25        3.14134  -0.00162  -0.00715   0.00000  -0.00694   3.13440
   D26       -0.15059   0.00195   0.01540   0.00000   0.01541  -0.13518
   D27       -0.03507   0.00065   0.00249   0.00000   0.00283  -0.03224
   D28        2.95618   0.00421   0.02503   0.00000   0.02518   2.98136
   D29       -0.01681   0.00171   0.00884   0.00000   0.00862  -0.00820
   D30       -2.63474  -0.00620  -0.03625   0.00000  -0.03638  -2.67112
   D31       -0.00049  -0.00140  -0.00831   0.00000  -0.00811  -0.00860
   D32       -2.71320  -0.00917  -0.04934   0.00000  -0.04792  -2.76112
   D33        2.70553   0.00673   0.03598   0.00000   0.03510   2.74062
   D34       -0.00719  -0.00104  -0.00505   0.00000  -0.00471  -0.01190
   D35        2.63437   0.00615   0.04092   0.00000   0.04189   2.67626
   D36       -0.24551  -0.00028  -0.00030   0.00000   0.00015  -0.24536
   D37        0.02177   0.00083   0.00478   0.00000   0.00463   0.02640
   D38       -2.85811  -0.00560  -0.03644   0.00000  -0.03711  -2.89522
   D39        0.02350   0.00050   0.00366   0.00000   0.00351   0.02701
   D40       -2.96800  -0.00251  -0.01617   0.00000  -0.01666  -2.98466
   D41        2.64512   0.00495   0.03401   0.00000   0.03496   2.68008
   D42       -0.34638   0.00194   0.01418   0.00000   0.01479  -0.33159
   D43       -0.00692   0.00095   0.00351   0.00000   0.00333  -0.00358
   D44       -2.63403  -0.00664  -0.03810   0.00000  -0.03783  -2.67186
   D45        0.01948  -0.00041  -0.00062   0.00000  -0.00064   0.01884
   D46        2.98878   0.00542   0.03450   0.00000   0.03399   3.02276
   D47       -0.02682  -0.00009  -0.00201   0.00000  -0.00182  -0.02863
   D48        2.85834   0.00649   0.04055   0.00000   0.04075   2.89909
   D49       -2.99033  -0.00514  -0.03460   0.00000  -0.03487  -3.02520
   D50       -0.10517   0.00143   0.00796   0.00000   0.00770  -0.09747
         Item               Value     Threshold  Converged?
 Maximum Force            0.108686     0.000450     NO 
 RMS     Force            0.018871     0.000300     NO 
 Maximum Displacement     0.787781     0.001800     NO 
 RMS     Displacement     0.123781     0.001200     NO 
 Predicted change in Energy=-9.532566D-02
 GradGradGradGradGradGradGradGradGradGradGradGradGradGradGradGradGradGrad

                          Input orientation:                          
 ---------------------------------------------------------------------
 Center     Atomic      Atomic             Coordinates (Angstroms)
 Number     Number       Type             X           Y           Z
 ---------------------------------------------------------------------
      1          6           0       -4.166876   -1.337879   -0.259849
      2          6           0       -2.867875   -0.989452   -0.667428
      3          6           0       -2.017937   -2.054415   -0.643437
      4          6           0       -4.376355   -2.623235    0.083578
      5         16           0       -2.903503   -3.483370   -0.098478
      6          1           0       -5.297425   -3.075660    0.415008
      7          6           0       -0.634529   -2.143332   -1.000178
      8         16           0        0.369263   -3.524445   -0.528345
      9          6           0        1.758502   -2.847347   -1.312391
     10          6           0        1.434412   -1.626510   -1.907606
     11          6           0        0.084929   -1.243651   -1.746365
     12          1           0       -0.372137   -0.406148   -2.254365
     13         16           0        2.572967   -1.253761   -3.164240
     14          6           0        3.457822   -2.726890   -2.865512
     15          6           0        2.900560   -3.476522   -1.875839
     16          1           0        4.267166   -3.034470   -3.509481
     17          1           0        3.178819   -4.507083   -1.708068
     18          1           0       -2.694997    0.027772   -1.021476
     19          8           0       -5.318746   -0.454928   -0.402050
     20          1           0       -5.110061    0.486326   -0.714476
 ---------------------------------------------------------------------
                    Distance matrix (angstroms):
                    1          2          3          4          5
     1  C    0.000000
     2  C    1.405320   0.000000
     3  C    2.297499   1.362761   0.000000
     4  C    1.346835   2.347077   2.532635   0.000000
     5  S    2.495052   2.558242   1.767235   1.715305   0.000000
     6  H    2.180242   3.380332   3.594202   1.078380   2.482088
     7  C    3.697880   2.535744   1.431429   3.925060   2.785141
     8  S    5.042789   4.113952   2.805879   4.869037   3.301131
     9  C    6.204551   5.027039   3.916342   6.295668   4.859259
    10  C    5.845754   4.522562   3.701343   6.222804   5.053551
    11  C    4.505159   3.154009   2.509150   5.015476   4.081985
    12  H    4.387056   3.014518   2.832054   5.139573   4.530448
    13  S    7.339485   5.992219   5.298291   7.792102   6.660463
    14  C    8.176482   6.918433   5.947586   8.371512   6.978194
    15  C    7.558695   6.396923   5.266195   7.584253   6.070107
    16  H    9.196282   7.947842   6.976908   9.369613   7.953298
    17  H    8.130217   7.072423   5.844253   7.989964   6.374434
    18  H    2.147442   1.090863   2.221897   3.328055   3.636416
    19  O    1.458297   2.522481   3.675863   2.413606   3.885488
    20  H    2.103332   2.684684   4.002704   3.293112   4.583322
                    6          7          8          9         10
     6  H    0.000000
     7  C    4.961309   0.000000
     8  S    5.762176   1.771355   0.000000
     9  C    7.267884   2.513904   1.732967   0.000000
    10  C    7.267200   2.317552   2.576638   1.396338   0.000000
    11  C    6.082559   1.372530   2.601238   2.358182   1.411979
    12  H    6.205667   2.158620   3.640411   3.374373   2.207520
    13  S    8.835915   3.970205   4.118283   2.575309   1.736196
    14  C    9.356164   4.535124   3.954446   2.305294   2.494515
    15  C    8.521480   3.878277   2.868013   1.420433   2.360751
    16  H   10.338506   5.578292   4.931622   3.340002   3.545822
    17  H    8.854554   4.542031   3.201707   2.220041   3.373495
    18  H    4.297372   2.993271   4.717108   5.308917   4.535845
    19  O    2.745227   5.015013   6.464622   7.525945   7.017439
    20  H    3.741468   5.198761   6.792931   7.658201   6.979811
                   11         12         13         14         15
    11  C    0.000000
    12  H    1.080919   0.000000
    13  S    2.863705   3.196867   0.000000
    14  C    3.850831   4.519727   1.744224   0.000000
    15  C    3.595866   4.503446   2.589973   1.360861   0.000000
    16  H    4.879213   5.477822   2.482021   1.079046   2.175272
    17  H    4.497067   5.452100   3.615466   2.141636   1.080569
    18  H    3.141651   2.665329   5.829683   6.988978   6.657347
    19  O    5.623964   5.282272   8.399224   9.394605   8.880263
    20  H    5.571852   5.061194   8.249737   9.400018   9.012379
                   16         17         18         19         20
    16  H    0.000000
    17  H    2.568691   0.000000
    18  H    8.002451   7.452384   0.000000
    19  O   10.401918   9.504434   2.738750   0.000000
    20  H   10.399060   9.727635   2.477308   1.013469   0.000000
 Stoichiometry    C10H6OS3
 Framework group  C1[X(C10H6OS3)]
 Deg. of freedom    54
 Full point group                 C1      NOp   1
 Largest Abelian subgroup         C1      NOp   1
 Largest concise Abelian subgroup C1      NOp   1
                         Standard orientation:                         
 ---------------------------------------------------------------------
 Center     Atomic      Atomic             Coordinates (Angstroms)
 Number     Number       Type             X           Y           Z
 ---------------------------------------------------------------------
      1          6           0        3.722011    0.684888   -0.064291
      2          6           0        2.387736    1.071420   -0.276962
      3          6           0        1.518300    0.036373   -0.104116
      4          6           0        3.941015   -0.602461    0.265457
      5         16           0        2.430977   -1.413644    0.328999
      6          1           0        4.886485   -1.079505    0.468972
      7          6           0        0.090360    0.001021   -0.197539
      8         16           0       -0.804814   -1.522949   -0.315341
      9          6           0       -2.320956   -0.686078   -0.379644
     10          6           0       -2.118929    0.693347   -0.301335
     11          6           0       -0.764781    1.074457   -0.179997
[...]
 Stoichiometry    C10H6OS3
 Framework group  C1[X(C10H6OS3)]
 Deg. of freedom    54
 Full point group                 C1      NOp   1
 Largest Abelian subgroup         C1      NOp   1
 Largest concise Abelian subgroup C1      NOp   1
                         Standard orientation:                         
 ---------------------------------------------------------------------
 Center     Atomic      Atomic             Coordinates (Angstroms)
 Number     Number       Type             X           Y           Z
 ---------------------------------------------------------------------
      1          6           0        3.761542    0.778822   -0.066838
      2          6           0        2.378617    1.098027   -0.175751
      3          6           0        1.556784    0.002875   -0.026266
      4          6           0        3.996127   -0.548279    0.163990
      5         16           0        2.510087   -1.433508    0.269523
      6          1           0        4.946547   -1.044749    0.272394
      7          6           0        0.107679   -0.022763   -0.035158
      8         16           0       -0.778223   -1.544686   -0.221764
      9          6           0       -2.304245   -0.712783   -0.107748
     10          6           0       -2.107673    0.653285    0.050189
     11          6           0       -0.747020    1.047875    0.099748
     12          1           0       -0.405220    2.061644    0.253926
     13         16           0       -3.637100    1.483587    0.165432
     14          6           0       -4.497915   -0.029808   -0.005036
     15          6           0       -3.670535   -1.107918   -0.139887
     16          1           0       -5.577078   -0.022565    0.005322
     17          1           0       -4.024090   -2.122954   -0.255444
     18          1           0        2.008948    2.094011   -0.385951
     19          8           0        4.783617    1.679506   -0.186293
     20          1           0        4.425565    2.556279   -0.354416
 ---------------------------------------------------------------------
 Rotational constants (GHZ):           1.4448848           0.2406530           0.2074961

 **********************************************************************

            Population analysis using the SCF Density.

 **********************************************************************

 Orbital symmetries:
       Occupied  (A) (A) (A) (A) (A) (A) (A) (A) (A) (A) (A) (A)
                 (A) (A) (A) (A) (A) (A) (A) (A) (A) (A) (A) (A)
                 (A) (A) (A) (A) (A) (A) (A) (A) (A) (A) (A) (A)
                 (A) (A) (A) (A) (A) (A) (A) (A) (A) (A) (A) (A)
                 (A) (A) (A) (A) (A) (A) (A) (A) (A) (A) (A) (A)
                 (A)
       Virtual   (A) (A) (A) (A) (A) (A) (A) (A) (A) (A) (A) (A)
                 (A) (A) (A) (A) (A) (A) (A) (A) (A) (A) (A) (A)
                 (A) (A) (A) (A) (A) (A) (A) (A) (A) (A) (A) (A)
                 (A) (A) (A) (A) (A) (A) (A) (A) (A) (A) (A) (A)
                 (A) (A) (A) (A) (A) (A) (A) (A) (A) (A) (A) (A)
                 (A) (A) (A) (A) (A) (A) (A) (A) (A) (A) (A) (A)
                 (A) (A) (A) (A) (A) (A) (A) (A) (A) (A) (A) (A)
                 (A) (A) (A) (A) (A) (A) (A) (A) (A) (A) (A) (A)
                 (A) (A) (A) (A) (A) (A) (A) (A) (A) (A) (A) (A)
                 (A) (A) (A) (A) (A) (A) (A) (A) (A) (A) (A) (A)
                 (A) (A) (A) (A) (A) (A) (A) (A) (A) (A) (A) (A)
                 (A) (A) (A) (A) (A) (A) (A) (A) (A) (A) (A) (A)
                 (A) (A) (A) (A) (A) (A) (A) (A) (A) (A) (A) (A)
                 (A) (A) (A) (A) (A) (A) (A) (A) (A) (A) (A) (A)
                 (A) (A) (A) (A) (A) (A) (A) (A) (A) (A) (A) (A)
                 (A) (A) (A) (A) (A) (A) (A) (A) (A) (A) (A) (A)
                 (A) (A) (A) (A) (A) (A) (A) (A) (A) (A) (A) (A)
                 (A) (A) (A) (A) (A) (A) (A) (A) (A) (A) (A) (A)
                 (A) (A) (A) (A) (A) (A) (A) (A) (A) (A) (A) (A)
                 (A) (A) (A) (A) (A) (A) (A) (A) (A) (A) (A) (A)
                 (A) (A) (A) (A) (A) (A) (A) (A) (A) (A) (A) (A)
                 (A) (A) (A) (A) (A) (A) (A) (A) (A) (A) (A) (A)
                 (A) (A) (A) (A) (A) (A) (A) (A) (A) (A) (A) (A)
                 (A) (A) (A) (A) (A) (A) (A) (A) (A) (A) (A) (A)
                 (A) (A) (A) (A) (A) (A) (A) (A) (A) (A) (A) (A)
                 (A) (A) (A) (A) (A)
 The electronic state is 1-A.
 Alpha  occ. eigenvalues --  -88.88802 -88.88789 -88.88602 -19.16597 -10.24690
 Alpha  occ. eigenvalues --  -10.23015 -10.22853 -10.21613 -10.21550 -10.21380
 Alpha  occ. eigenvalues --  -10.19773 -10.19750 -10.19700 -10.19088  -7.97376
 Alpha  occ. eigenvalues --   -7.97372  -7.97202  -5.93696  -5.93689  -5.93510
 Alpha  occ. eigenvalues --   -5.93334  -5.93324  -5.93133  -5.92923  -5.92890
 Alpha  occ. eigenvalues --   -5.92766  -1.07602  -0.92157  -0.89518  -0.85337
 Alpha  occ. eigenvalues --   -0.77806  -0.76376  -0.74626  -0.71785  -0.70640
 Alpha  occ. eigenvalues --   -0.63334  -0.59097  -0.57897  -0.55257  -0.54941
 Alpha  occ. eigenvalues --   -0.53745  -0.50313  -0.48590  -0.44213  -0.43798
 Alpha  occ. eigenvalues --   -0.43282  -0.42024  -0.41487  -0.40498  -0.39551
 Alpha  occ. eigenvalues --   -0.38183  -0.37674  -0.37237  -0.35894  -0.34371
 Alpha  occ. eigenvalues --   -0.33902  -0.29700  -0.26991  -0.24807  -0.23852
 Alpha  occ. eigenvalues --   -0.20664
 Alpha virt. eigenvalues --   -0.06875  -0.02447  -0.01553  -0.00946  -0.00417
 Alpha virt. eigenvalues --    0.00472   0.01432   0.01707   0.01833   0.02686
 Alpha virt. eigenvalues --    0.02835   0.03291   0.04038   0.04222   0.04754
 Alpha virt. eigenvalues --    0.04835   0.05270   0.05778   0.06908   0.07433
 Alpha virt. eigenvalues --    0.07874   0.08124   0.08280   0.08762   0.09118
 Alpha virt. eigenvalues --    0.09478   0.09819   0.10957   0.11091   0.11519
 Alpha virt. eigenvalues --    0.12041   0.12298   0.12638   0.12976   0.13489
 Alpha virt. eigenvalues --    0.13677   0.14115   0.15329   0.15527   0.16064
 Alpha virt. eigenvalues --    0.16335   0.16507   0.16738   0.16914   0.17876
 Alpha virt. eigenvalues --    0.18139   0.18478   0.18845   0.19211   0.19653
 Alpha virt. eigenvalues --    0.20005   0.20301   0.20960   0.21412   0.21611
 Alpha virt. eigenvalues --    0.22132   0.22487   0.23066   0.23389   0.23541
 Alpha virt. eigenvalues --    0.24408   0.25116   0.25385   0.25963   0.26617
 Alpha virt. eigenvalues --    0.26959   0.28125   0.28770   0.29528   0.30238
 Alpha virt. eigenvalues --    0.30554   0.31612   0.32147   0.33098   0.33267
 Alpha virt. eigenvalues --    0.33818   0.34414   0.35304   0.36298   0.36422
 Alpha virt. eigenvalues --    0.37519   0.37759   0.39449   0.39624   0.41445
 Alpha virt. eigenvalues --    0.42656   0.44555   0.44892   0.45178   0.49076
 Alpha virt. eigenvalues --    0.50070   0.51132   0.52143   0.53946   0.54305
 Alpha virt. eigenvalues --    0.54889   0.55439   0.55821   0.57017   0.58028
 Alpha virt. eigenvalues --    0.58054   0.58450   0.60092   0.60641   0.62016
 Alpha virt. eigenvalues --    0.62436   0.62630   0.63492   0.65991   0.67349
 Alpha virt. eigenvalues --    0.69146   0.69986   0.70615   0.71834   0.72206
 Alpha virt. eigenvalues --    0.72755   0.73865   0.74602   0.75292   0.76877
 Alpha virt. eigenvalues --    0.77354   0.78107   0.78549   0.78986   0.80018
 Alpha virt. eigenvalues --    0.81852   0.82247   0.82722   0.83602   0.84459
 Alpha virt. eigenvalues --    0.85022   0.85580   0.86424   0.86855   0.87934
 Alpha virt. eigenvalues --    0.88922   0.89613   0.90577   0.90937   0.93211
 Alpha virt. eigenvalues --    0.93964   0.95769   0.96849   0.97242   0.99094
 Alpha virt. eigenvalues --    1.01517   1.02861   1.04191   1.04657   1.05523
 Alpha virt. eigenvalues --    1.06005   1.06644   1.07690   1.08733   1.11474
 Alpha virt. eigenvalues --    1.12762   1.13892   1.15381   1.16846   1.18025
 Alpha virt. eigenvalues --    1.19893   1.22212   1.26865   1.27540   1.33765
 Alpha virt. eigenvalues --    1.34613   1.36054   1.36499   1.38464   1.41909
 Alpha virt. eigenvalues --    1.43389   1.49741   1.52093   1.54797   1.56386
 Alpha virt. eigenvalues --    1.57866   1.59096   1.59810   1.60905   1.61479
 Alpha virt. eigenvalues --    1.62305   1.63253   1.65684   1.67901   1.68483
 Alpha virt. eigenvalues --    1.69981   1.71524   1.71941   1.74300   1.76132
 Alpha virt. eigenvalues --    1.76440   1.78143   1.80076   1.80605   1.83905
 Alpha virt. eigenvalues --    1.84475   1.85766   1.88889   1.90093   1.93416
 Alpha virt. eigenvalues --    1.94233   1.95456   1.97226   1.97737   1.99493
 Alpha virt. eigenvalues --    2.01120   2.02043   2.02879   2.03601   2.04933
 Alpha virt. eigenvalues --    2.06786   2.07795   2.08960   2.09271   2.10834
 Alpha virt. eigenvalues --    2.11586   2.15171   2.16541   2.17532   2.21595
 Alpha virt. eigenvalues --    2.24485   2.27838   2.29874   2.35891   2.39742
 Alpha virt. eigenvalues --    2.41167   2.44139   2.49377   2.52915   2.58182
 Alpha virt. eigenvalues --    2.62124   2.66453   2.67235   2.68707   2.69536
 Alpha virt. eigenvalues --    2.69893   2.70987   2.72836   2.73303   2.73636
 Alpha virt. eigenvalues --    2.76199   2.78217   2.81520   2.83857   2.87534
 Alpha virt. eigenvalues --    2.91179   2.93517   2.94588   2.96720   3.00870
 Alpha virt. eigenvalues --    3.04928   3.07909   3.10759   3.12468   3.16908
 Alpha virt. eigenvalues --    3.17494   3.18589   3.24932   3.28718   3.29406
 Alpha virt. eigenvalues --    3.34265   3.36047   3.43801   3.45575   3.47959
 Alpha virt. eigenvalues --    3.56467   3.62107   3.65769   3.80564   3.87688
 Alpha virt. eigenvalues --    3.96307   4.09302   4.11656   4.21766   4.36399
 Alpha virt. eigenvalues --    4.60966   4.99551   5.42147   5.73905   7.96180
 Alpha virt. eigenvalues --    7.99066   8.02737  17.27316  17.28279  17.29762
 Alpha virt. eigenvalues --   17.45066  17.46563  17.49743  17.52173  17.54539
 Alpha virt. eigenvalues --   17.57597  23.46843  23.63595  23.75451  23.81145
 Alpha virt. eigenvalues --   23.86529  24.01528  24.07891  24.10040  24.12219
 Alpha virt. eigenvalues --   24.14653  49.93161 189.12790 189.15921 189.20224
          Condensed to atoms (all electrons):
               1          2          3          4          5          6
     1  C    8.364644  -1.665541   0.011648  -0.812095   0.652728   0.063751
     2  C   -1.665541  14.591336  -2.558725   1.130110  -3.589242  -0.034563
     3  C    0.011648  -2.558725  10.172632  -0.761579   0.197164   0.024803
     4  C   -0.812095   1.130110  -0.761579   6.686674  -0.614871   0.355395
     5  S    0.652728  -3.589242   0.197164  -0.614871  18.059904  -0.031508
     6  H    0.063751  -0.034563   0.024803   0.355395  -0.031508   0.477047
     7  C    0.330850  -0.365415  -1.771966  -0.149988   1.323641  -0.005044
     8  S    0.064278   0.905394   0.771475   0.000680  -0.515593   0.000509
     9  C   -0.021115   0.329102  -0.539103   0.033402  -0.181781   0.000106
    10  C   -0.061650  -1.428078   0.161912  -0.029832   0.436616  -0.000319
    11  C   -0.428431  -2.258461  -0.349655  -0.028344   0.798857  -0.001673
    12  H    0.009173   0.004274   0.015352  -0.001428   0.000948  -0.000000
    13  S   -0.002907  -0.067303  -0.052058   0.001934   0.014538  -0.000005
    14  C    0.003513  -0.003251  -0.024753  -0.001437  -0.005434   0.000001
    15  C   -0.006480   0.171212   0.462486   0.008857  -0.114772  -0.000005
    16  H   -0.000001   0.000013  -0.000059  -0.000000  -0.000001   0.000000
    17  H   -0.000008  -0.000128  -0.001292   0.000013   0.000275   0.000000
    18  H   -0.055226   0.251216   0.124346  -0.059517   0.025815  -0.000025
    19  O    0.221119  -0.064308   0.040865  -0.229757   0.030934  -0.006468
    20  H   -0.006659  -0.050279  -0.007773   0.082439  -0.008238   0.000305
               7          8          9         10         11         12
     1  C    0.330850   0.064278  -0.021115  -0.061650  -0.428431   0.009173
     2  C   -0.365415   0.905394   0.329102  -1.428078  -2.258461   0.004274
     3  C   -1.771966   0.771475  -0.539103   0.161912  -0.349655   0.015352
     4  C   -0.149988   0.000680   0.033402  -0.029832  -0.028344  -0.001428
     5  S    1.323641  -0.515593  -0.181781   0.436616   0.798857   0.000948
     6  H   -0.005044   0.000509   0.000106  -0.000319  -0.001673  -0.000000
     7  C   11.516151  -0.079928  -1.050249  -2.154488  -0.307350   0.017238
     8  S   -0.079928  18.209267  -0.339037  -1.079735  -1.488965   0.015935
     9  C   -1.050249  -0.339037  14.270384  -4.141847   0.101440  -0.093733
    10  C   -2.154488  -1.079735  -4.141847  12.399431   1.539815  -0.034528
    11  C   -0.307350  -1.488965   0.101440   1.539815   9.035224   0.384311
    12  H    0.017238   0.015935  -0.093733  -0.034528   0.384311   0.535842
    13  S   -0.929626   0.059468   0.464421  -0.478517  -0.009011   0.017688
    14  C   -0.184496  -0.051524   0.441314  -0.669883   0.052191  -0.004093
    15  C   -0.181412   0.068797  -3.647803   1.283838  -1.098693   0.005877
    16  H    0.006440  -0.001137   0.039220   0.021425   0.002040  -0.000004
    17  H   -0.008256   0.019731   0.010039  -0.067485  -0.000775   0.000006
    18  H    0.010800  -0.001840  -0.002655   0.011021   0.033101   0.000749
    19  O   -0.004766  -0.003114  -0.001112   0.002108   0.017576  -0.000046
    20  H    0.002218   0.000190   0.000090  -0.000429  -0.001093   0.000003
              13         14         15         16         17         18
     1  C   -0.002907   0.003513  -0.006480  -0.000001  -0.000008  -0.055226
     2  C   -0.067303  -0.003251   0.171212   0.000013  -0.000128   0.251216
     3  C   -0.052058  -0.024753   0.462486  -0.000059  -0.001292   0.124346
     4  C    0.001934  -0.001437   0.008857  -0.000000   0.000013  -0.059517
     5  S    0.014538  -0.005434  -0.114772  -0.000001   0.000275   0.025815
     6  H   -0.000005   0.000001  -0.000005   0.000000   0.000000  -0.000025
     7  C   -0.929626  -0.184496  -0.181412   0.006440  -0.008256   0.010800
     8  S    0.059468  -0.051524   0.068797  -0.001137   0.019731  -0.001840
     9  C    0.464421   0.441314  -3.647803   0.039220   0.010039  -0.002655
    10  C   -0.478517  -0.669883   1.283838   0.021425  -0.067485   0.011021
    11  C   -0.009011   0.052191  -1.098693   0.002040  -0.000775   0.033101
    12  H    0.017688  -0.004093   0.005877  -0.000004   0.000006   0.000749
    13  S   17.423750   0.408879  -0.415291  -0.041768   0.012789   0.000422
    14  C    0.408879   5.639969   0.136520   0.384487   0.019718   0.000125
    15  C   -0.415291   0.136520   9.240147  -0.051084   0.364176  -0.000580
    16  H   -0.041768   0.384487  -0.051084   0.476451  -0.004835   0.000000
    17  H    0.012789   0.019718   0.364176  -0.004835   0.519805   0.000000
    18  H    0.000422   0.000125  -0.000580   0.000000   0.000000   0.551990
    19  O    0.000067  -0.000010  -0.000084   0.000000   0.000000  -0.005386
    20  H   -0.000012   0.000000   0.000006   0.000000  -0.000000   0.003260
              19         20
     1  C    0.221119  -0.006659
     2  C   -0.064308  -0.050279
     3  C    0.040865  -0.007773
     4  C   -0.229757   0.082439
     5  S    0.030934  -0.008238
     6  H   -0.006468   0.000305
     7  C   -0.004766   0.002218
     8  S   -0.003114   0.000190
     9  C   -0.001112   0.000090
    10  C    0.002108  -0.000429
    11  C    0.017576  -0.001093
    12  H   -0.000046   0.000003
    13  S    0.000067  -0.000012
    14  C   -0.000010   0.000000
    15  C   -0.000084   0.000006
    16  H    0.000000   0.000000
    17  H    0.000000  -0.000000
    18  H   -0.005386   0.003260
    19  O    8.025774   0.248065
    20  H    0.248065   0.485915
 Mulliken charges:
               1
     1  C   -0.661592
     2  C    0.702638
     3  C    0.084279
     4  C    0.389344
     5  S   -0.479980
     6  H    0.157692
     7  C   -0.014351
     8  S   -0.554849
     9  C    0.328917
    10  C    0.290623
    11  C    0.007894
    12  H    0.126436
    13  S   -0.407458
    14  C   -0.141837
    15  C   -0.225713
    16  H    0.168813
    17  H    0.136227
    18  H    0.112384
    19  O   -0.271458
    20  H    0.251991
 Sum of Mulliken charges =  -0.00000
 Mulliken charges with hydrogens summed into heavy atoms:
               1
     1  C   -0.661592
     2  C    0.815022
     3  C    0.084279
     4  C    0.547036
     5  S   -0.479980
     7  C   -0.014351
     8  S   -0.554849
     9  C    0.328917
    10  C    0.290623
    11  C    0.134330
    13  S   -0.407458
    14  C    0.026975
    15  C   -0.089486
    19  O   -0.019466
 Electronic spatial extent (au):  <R**2>=           4791.8076
 Charge=              0.0000 electrons
 Dipole moment (field-independent basis, Debye):
    X=             -1.2542    Y=              1.3492    Z=             -0.2373  Tot=              1.8573
 Quadrupole moment (field-independent basis, Debye-Ang):
   XX=            -98.0418   YY=            -91.6217   ZZ=           -108.5049
   XY=              5.6160   XZ=             -0.2391   YZ=             -0.9674
 Traceless Quadrupole moment (field-independent basis, Debye-Ang):
   XX=              1.3476   YY=              7.7678   ZZ=             -9.1154
   XY=              5.6160   XZ=             -0.2391   YZ=             -0.9674
 Octapole moment (field-independent basis, Debye-Ang**2):
  XXX=            -80.1495  YYY=             28.5036  ZZZ=             -0.5641  XYY=             27.8589
  XXY=            -19.1904  XXZ=             -0.9866  XZZ=              8.7030  YZZ=              2.4292
  YYZ=             -4.0014  XYZ=             -9.0118
 Hexadecapole moment (field-independent basis, Debye-Ang**3):
 XXXX=          -5296.6240 YYYY=           -882.4382 ZZZZ=           -155.7237 XXXY=            -33.8523
 XXXZ=             11.0383 YYYX=            140.1323 YYYZ=            -10.4040 ZZZX=             -5.8680
 ZZZY=             -2.2730 XXYY=           -943.3240 XXZZ=          -1006.0211 YYZZ=           -197.7445
 XXYZ=            -20.3379 YYXZ=            -12.2368 ZZXY=              9.9060
 N-N= 1.106544140941D+03 E-N=-6.124215792175D+03  KE= 1.651071018952D+03
 Unable to Open any file for archive entry.
 1\1\GINC-CX3-7-7\FOpt\RB3LYP\6-311+G(d,p)\C10H6O1S3\NS5018\17-Oct-2021
 \0\\# opt=modredundant b3lyp/6-311+g(d,p)\\pg2T_TT_165.pdb\\0,1\C,-4.2
 264334806,-1.2552377964,-0.2480301913\C,-2.9105972511,-1.0174437312,-0
 .7361537752\C,-2.1100918807,-2.1377997599,-0.7028712577\C,-4.431311069
 7,-2.5456168148,0.155028026\S,-3.0055047039,-3.5031923177,-0.075643995
 \H,-5.3274569279,-2.9761500781,0.5710740498\C,-0.7409882593,-2.2600772
 531,-1.1624867562\S,0.2602542957,-3.6433876219,-0.6935963382\C,1.60175
 14982,-3.0338995953,-1.6224214193\C,1.2698076081,-1.83073553,-2.232287
 4326\C,-0.0550240931,-1.3927119389,-1.9823069359\H,-0.4980190863,-0.50
 05886519,-2.4020643312\S,2.6142176772,-1.2234398767,-3.1626547539\C,3.
 585928349,-2.6035310855,-2.7027081456\C,2.9261855106,-3.4796927977,-1.
 8889859335\H,4.5980874973,-2.6771611661,-3.0699468501\H,3.3676049353,-
 4.3890412648,-1.5057275378\H,-2.5623559955,-0.04810645,-1.0707218218\O
 ,-5.2118795451,-0.310762344,-0.1643561013\H,-4.8801750783,0.5335760739
 ,-0.4841384993\\Version=ES64L-G16RevC.01\State=1-A\HF=-1654.6312314\RM
 SD=8.763e-09\RMSF=3.244e-04\Dipole=0.4585522,0.4883079,-0.2919754\Quad
 rupole=0.5817992,4.8681089,-5.4499081,-4.8017084,-0.8734877,-2.7270356
 \PG=C01 [X(C10H6O1S3)]\\@
 The archive entry for this job was punched.


 HERE WE GO......
 SLIDING DOWN THE RAZOR BLADE OF LIFE......
                                 TOM LEHRER
 Job cpu time:       0 days  2 hours 57 minutes 48.7 seconds.
 Elapsed time:       0 days  0 hours 22 minutes 23.9 seconds.
 File lengths (MBytes):  RWF=     86 Int=      0 D2E=      0 Chk=     11 Scr=      1
 Normal termination of Gaussian 16 at Sun Oct 17 20:01:36 2021.
