 Entering Gaussian System, Link 0=g16
 Input=pg2T_TT_100.gjf
 Output=pg2T_TT_100.log
 Initial command:
 /apps/gaussian/g16-c01-avx/g16/l1.exe "/tmp/pbs.4730634[275].pbs/Gau-218821.inp" -scrdir="/tmp/pbs.4730634[275].pbs/"
 Entering Link 1 = /apps/gaussian/g16-c01-avx/g16/l1.exe PID=    218822.
  
 Copyright (c) 1988-2019, Gaussian, Inc.  All Rights Reserved.
  
 This is part of the Gaussian(R) 16 program.  It is based on
 the Gaussian(R) 09 system (copyright 2009, Gaussian, Inc.),
 the Gaussian(R) 03 system (copyright 2003, Gaussian, Inc.),
 the Gaussian(R) 98 system (copyright 1998, Gaussian, Inc.),
 the Gaussian(R) 94 system (copyright 1995, Gaussian, Inc.),
 the Gaussian 92(TM) system (copyright 1992, Gaussian, Inc.),
 the Gaussian 90(TM) system (copyright 1990, Gaussian, Inc.),
 the Gaussian 88(TM) system (copyright 1988, Gaussian, Inc.),
 the Gaussian 86(TM) system (copyright 1986, Carnegie Mellon
 University), and the Gaussian 82(TM) system (copyright 1983,
 Carnegie Mellon University). Gaussian is a federally registered
 trademark of Gaussian, Inc.
  
 This software contains proprietary and confidential information,
 including trade secrets, belonging to Gaussian, Inc.
  
 This software is provided under written license and may be
 used, copied, transmitted, or stored only in accord with that
 written license.
  
 The following legend is applicable only to US Government
 contracts under FAR:
  
                    RESTRICTED RIGHTS LEGEND
  
 Use, reproduction and disclosure by the US Government is
 subject to restrictions as set forth in subparagraphs (a)
 and (c) of the Commercial Computer Software - Restricted
 Rights clause in FAR 52.227-19.
  
 Gaussian, Inc.
 340 Quinnipiac St., Bldg. 40, Wallingford CT 06492
  
  
 ---------------------------------------------------------------
 Warning -- This program may not be used in any manner that
 competes with the business of Gaussian, Inc. or will provide
 assistance to any competitor of Gaussian, Inc.  The licensee
 of this program is prohibited from giving any competitor of
 Gaussian, Inc. access to this program.  By using this program,
 the user acknowledges that Gaussian, Inc. is engaged in the
 business of creating and licensing software in the field of
 computational chemistry and represents and warrants to the
 licensee that it is not a competitor of Gaussian, Inc. and that
 it will not use this program in any manner prohibited above.
 ---------------------------------------------------------------
  

 Cite this work as:
 Gaussian 16, Revision C.01,
 M. J. Frisch, G. W. Trucks, H. B. Schlegel, G. E. Scuseria, 
 M. A. Robb, J. R. Cheeseman, G. Scalmani, V. Barone, 
 G. A. Petersson, H. Nakatsuji, X. Li, M. Caricato, A. V. Marenich, 
 J. Bloino, B. G. Janesko, R. Gomperts, B. Mennucci, H. P. Hratchian, 
 J. V. Ortiz, A. F. Izmaylov, J. L. Sonnenberg, D. Williams-Young, 
 F. Ding, F. Lipparini, F. Egidi, J. Goings, B. Peng, A. Petrone, 
 T. Henderson, D. Ranasinghe, V. G. Zakrzewski, J. Gao, N. Rega, 
 G. Zheng, W. Liang, M. Hada, M. Ehara, K. Toyota, R. Fukuda, 
 J. Hasegawa, M. Ishida, T. Nakajima, Y. Honda, O. Kitao, H. Nakai, 
 T. Vreven, K. Throssell, J. A. Montgomery, Jr., J. E. Peralta, 
 F. Ogliaro, M. J. Bearpark, J. J. Heyd, E. N. Brothers, K. N. Kudin, 
 V. N. Staroverov, T. A. Keith, R. Kobayashi, J. Normand, 
 K. Raghavachari, A. P. Rendell, J. C. Burant, S. S. Iyengar, 
 J. Tomasi, M. Cossi, J. M. Millam, M. Klene, C. Adamo, R. Cammi, 
 J. W. Ochterski, R. L. Martin, K. Morokuma, O. Farkas, 
 J. B. Foresman, and D. J. Fox, Gaussian, Inc., Wallingford CT, 2019.
 
 ******************************************
 Gaussian 16:  ES64L-G16RevC.01  3-Jul-2019
                17-Oct-2021 
 ******************************************
 %mem=10GB
 %nprocshared=8
 Will use up to    8 processors via shared memory.
 -------------------------------------
 # opt=modredundant b3lyp/6-311+g(d,p)
 -------------------------------------
 1/18=120,19=15,26=3,38=1/1,3;
 2/9=110,12=2,17=6,18=5,40=1/2;
 3/5=4,6=6,7=111,11=2,25=1,30=1,71=1,74=-5/1,2,3;
 4//1;
 5/5=2,38=5/2;
 6/7=2,8=2,9=2,10=2,28=1/1;
 7//1,2,3,16;
 1/18=20,19=15,26=3/3(2);
 2/9=110/2;
 99//99;
 2/9=110/2;
 3/5=4,6=6,7=111,11=2,25=1,30=1,71=1,74=-5/1,2,3;
 4/5=5,16=3,69=1/1;
 5/5=2,38=5/2;
 7//1,2,3,16;
 1/18=20,19=15,26=3/3(-5);
 2/9=110/2;
 6/7=2,8=2,9=2,10=2,19=2,28=1/1;
 99/9=1/99;
 ---------------
 pg2T_TT_100.pdb
 ---------------
 Symbolic Z-matrix:
 Charge =  0 Multiplicity = 1
 C                    -4.25     -1.36     -0.21 
 C                    -2.93     -0.95     -0.61 
 C                    -1.97     -2.05     -0.62 
 C                    -4.33     -2.76      0.1 
 S                    -2.8      -3.56     -0.11 
 H                    -5.23     -3.27      0.41 
 C                    -0.56     -2.13     -0.97 
 S                     0.727    -2.131     0.274 
 C                     1.985    -2.249    -0.907 
 C                     1.471    -2.319    -2.252 
 C                     0.04     -2.27     -2.298 
 H                    -0.526    -2.472    -3.195 
 S                     2.551    -3.127    -3.339 
 C                     3.725    -3.383    -2.045 
 C                     3.264    -2.867    -0.777 
 H                     4.59     -4.02     -2.166 
 H                     3.703    -3.163     0.172 
 H                    -2.89      0.24     -0.97 
 O                    -5.6      -0.36     -0.4 
 H                    -5.76      0.85     -0.75 
 
 Add virtual bond connecting atoms H20        and O19        Dist= 2.40D+00.
 Add virtual bond connecting atoms O19        and C1         Dist= 3.20D+00.
 The following ModRedundant input section has been read:
 D       2       3       7       8 F                                           
 

 GradGradGradGradGradGradGradGradGradGradGradGradGradGradGradGradGradGrad
 Berny optimization.
 Initialization pass.
                           ----------------------------
                           !    Initial Parameters    !
                           ! (Angstroms and Degrees)  !
 --------------------------                            --------------------------
 ! Name  Definition              Value          Derivative Info.                !
 --------------------------------------------------------------------------------
 ! R1    R(1,2)                  1.4389         estimate D2E/DX2                !
 ! R2    R(1,4)                  1.4361         estimate D2E/DX2                !
 ! R3    R(1,19)                 1.6907         estimate D2E/DX2                !
 ! R4    R(2,3)                  1.46           estimate D2E/DX2                !
 ! R5    R(2,18)                 1.2439         estimate D2E/DX2                !
 ! R6    R(3,5)                  1.797          estimate D2E/DX2                !
 ! R7    R(3,7)                  1.455          estimate D2E/DX2                !
 ! R8    R(4,5)                  1.7393         estimate D2E/DX2                !
 ! R9    R(4,6)                  1.0799         estimate D2E/DX2                !
 ! R10   R(7,8)                  1.7899         estimate D2E/DX2                !
 ! R11   R(7,11)                 1.464          estimate D2E/DX2                !
 ! R12   R(8,9)                  1.7295         estimate D2E/DX2                !
 ! R13   R(9,10)                 1.4416         estimate D2E/DX2                !
 ! R14   R(9,15)                 1.4264         estimate D2E/DX2                !
 ! R15   R(10,11)                1.4326         estimate D2E/DX2                !
 ! R16   R(10,13)                1.7323         estimate D2E/DX2                !
 ! R17   R(11,12)                1.0797         estimate D2E/DX2                !
 ! R18   R(13,14)                1.7659         estimate D2E/DX2                !
 ! R19   R(14,15)                1.4445         estimate D2E/DX2                !
 ! R20   R(14,16)                1.081          estimate D2E/DX2                !
 ! R21   R(15,17)                1.0867         estimate D2E/DX2                !
 ! R22   R(19,20)                1.2697         estimate D2E/DX2                !
 ! A1    A(2,1,4)              112.8843         estimate D2E/DX2                !
 ! A2    A(2,1,19)             122.1887         estimate D2E/DX2                !
 ! A3    A(4,1,19)             123.8039         estimate D2E/DX2                !
 ! A4    A(1,2,3)              112.9799         estimate D2E/DX2                !
 ! A5    A(1,2,18)             112.491          estimate D2E/DX2                !
 ! A6    A(3,2,18)             134.2373         estimate D2E/DX2                !
 ! A7    A(2,3,5)              109.1138         estimate D2E/DX2                !
 ! A8    A(2,3,7)              132.8639         estimate D2E/DX2                !
 ! A9    A(5,3,7)              118.0132         estimate D2E/DX2                !
 ! A10   A(1,4,5)              111.9209         estimate D2E/DX2                !
 ! A11   A(1,4,6)              124.6643         estimate D2E/DX2                !
 ! A12   A(5,4,6)              123.4062         estimate D2E/DX2                !
 ! A13   A(3,5,4)               93.0997         estimate D2E/DX2                !
 ! A14   A(3,7,8)              121.9806         estimate D2E/DX2                !
 ! A15   A(3,7,11)             128.363          estimate D2E/DX2                !
 ! A16   A(8,7,11)             109.6156         estimate D2E/DX2                !
 ! A17   A(7,8,9)               92.7773         estimate D2E/DX2                !
 ! A18   A(8,9,10)             112.4            estimate D2E/DX2                !
 ! A19   A(8,9,15)             128.2813         estimate D2E/DX2                !
 ! A20   A(10,9,15)            112.5631         estimate D2E/DX2                !
 ! A21   A(9,10,11)            112.6103         estimate D2E/DX2                !
 ! A22   A(9,10,13)            112.6941         estimate D2E/DX2                !
 ! A23   A(11,10,13)           128.2118         estimate D2E/DX2                !
 ! A24   A(7,11,10)            112.553          estimate D2E/DX2                !
 ! A25   A(7,11,12)            123.8256         estimate D2E/DX2                !
 ! A26   A(10,11,12)           122.9506         estimate D2E/DX2                !
 ! A27   A(10,13,14)            91.2773         estimate D2E/DX2                !
 ! A28   A(13,14,15)           112.2895         estimate D2E/DX2                !
 ! A29   A(13,14,16)           122.3695         estimate D2E/DX2                !
 ! A30   A(15,14,16)           124.3402         estimate D2E/DX2                !
 ! A31   A(9,15,14)            111.1568         estimate D2E/DX2                !
 ! A32   A(9,15,17)            124.0434         estimate D2E/DX2                !
 ! A33   A(14,15,17)           122.7073         estimate D2E/DX2                !
 ! A34   A(1,19,20)            134.0455         estimate D2E/DX2                !
 ! D1    D(4,1,2,3)              0.3915         estimate D2E/DX2                !
 ! D2    D(4,1,2,18)           175.0898         estimate D2E/DX2                !
 ! D3    D(19,1,2,3)          -167.9154         estimate D2E/DX2                !
 ! D4    D(19,1,2,18)            6.7829         estimate D2E/DX2                !
 ! D5    D(2,1,4,5)             -0.3845         estimate D2E/DX2                !
 ! D6    D(2,1,4,6)           -179.3471         estimate D2E/DX2                !
 ! D7    D(19,1,4,5)           167.7032         estimate D2E/DX2                !
 ! D8    D(19,1,4,6)           -11.2593         estimate D2E/DX2                !
 ! D9    D(2,1,19,20)           -7.6334         estimate D2E/DX2                !
 ! D10   D(4,1,19,20)         -174.6479         estimate D2E/DX2                !
 ! D11   D(1,2,3,5)             -0.2224         estimate D2E/DX2                !
 ! D12   D(1,2,3,7)            178.6265         estimate D2E/DX2                !
 ! D13   D(18,2,3,5)          -173.3787         estimate D2E/DX2                !
 ! D14   D(18,2,3,7)             5.4701         estimate D2E/DX2                !
 ! D15   D(2,3,5,4)              0.0033         estimate D2E/DX2                !
 ! D16   D(7,3,5,4)           -179.041          estimate D2E/DX2                !
 ! D17   D(2,3,7,8)            100.0167         Frozen                          !
 ! D18   D(2,3,7,11)           -82.5565         estimate D2E/DX2                !
 ! D19   D(5,3,7,8)            -81.2153         estimate D2E/DX2                !
 ! D20   D(5,3,7,11)            96.2114         estimate D2E/DX2                !
 ! D21   D(1,4,5,3)              0.2153         estimate D2E/DX2                !
 ! D22   D(6,4,5,3)            179.1932         estimate D2E/DX2                !
 ! D23   D(3,7,8,9)            179.7814         estimate D2E/DX2                !
 ! D24   D(11,7,8,9)             1.9231         estimate D2E/DX2                !
 ! D25   D(3,7,11,10)         -179.8334         estimate D2E/DX2                !
 ! D26   D(3,7,11,12)           -8.9946         estimate D2E/DX2                !
 ! D27   D(8,7,11,10)           -2.1505         estimate D2E/DX2                !
 ! D28   D(8,7,11,12)          168.6884         estimate D2E/DX2                !
 ! D29   D(7,8,9,10)            -1.2435         estimate D2E/DX2                !
 ! D30   D(7,8,9,15)          -149.8918         estimate D2E/DX2                !
 ! D31   D(8,9,10,11)            0.2007         estimate D2E/DX2                !
 ! D32   D(8,9,10,13)         -154.0188         estimate D2E/DX2                !
 ! D33   D(15,9,10,11)         153.9521         estimate D2E/DX2                !
 ! D34   D(15,9,10,13)          -0.2675         estimate D2E/DX2                !
 ! D35   D(8,9,15,14)          149.7387         estimate D2E/DX2                !
 ! D36   D(8,9,15,17)          -14.1468         estimate D2E/DX2                !
 ! D37   D(10,9,15,14)           1.1316         estimate D2E/DX2                !
 ! D38   D(10,9,15,17)        -162.754          estimate D2E/DX2                !
 ! D39   D(9,10,11,7)            1.2938         estimate D2E/DX2                !
 ! D40   D(9,10,11,12)        -169.6376         estimate D2E/DX2                !
 ! D41   D(13,10,11,7)         150.5851         estimate D2E/DX2                !
 ! D42   D(13,10,11,12)        -20.3463         estimate D2E/DX2                !
 ! D43   D(9,10,13,14)          -0.5126         estimate D2E/DX2                !
 ! D44   D(11,10,13,14)       -149.7831         estimate D2E/DX2                !
 ! D45   D(10,13,14,15)          1.1623         estimate D2E/DX2                !
 ! D46   D(10,13,14,16)        170.1707         estimate D2E/DX2                !
 ! D47   D(13,14,15,9)          -1.5126         estimate D2E/DX2                !
 ! D48   D(13,14,15,17)        162.6252         estimate D2E/DX2                !
 ! D49   D(16,14,15,9)        -170.266          estimate D2E/DX2                !
 ! D50   D(16,14,15,17)         -6.1283         estimate D2E/DX2                !
 --------------------------------------------------------------------------------
 Trust Radius=3.00D-01 FncErr=1.00D-07 GrdErr=1.00D-06 EigMax=2.50D+02 EigMin=1.00D-04
 Number of steps in this run=    116 maximum allowed number of steps=    120.
 GradGradGradGradGradGradGradGradGradGradGradGradGradGradGradGradGradGrad

                          Input orientation:                          
 ---------------------------------------------------------------------
 Center     Atomic      Atomic             Coordinates (Angstroms)
 Number     Number       Type             X           Y           Z
 ---------------------------------------------------------------------
      1          6           0       -4.250000   -1.360000   -0.210000
      2          6           0       -2.930000   -0.950000   -0.610000
      3          6           0       -1.970000   -2.050000   -0.620000
      4          6           0       -4.330000   -2.760000    0.100000
      5         16           0       -2.800000   -3.560000   -0.110000
      6          1           0       -5.230000   -3.270000    0.410000
      7          6           0       -0.560000   -2.130000   -0.970000
      8         16           0        0.727000   -2.131000    0.274000
      9          6           0        1.985000   -2.249000   -0.907000
     10          6           0        1.471000   -2.319000   -2.252000
     11          6           0        0.040000   -2.270000   -2.298000
     12          1           0       -0.526000   -2.472000   -3.195000
     13         16           0        2.551000   -3.127000   -3.339000
     14          6           0        3.725000   -3.383000   -2.045000
     15          6           0        3.264000   -2.867000   -0.777000
     16          1           0        4.590000   -4.020000   -2.166000
     17          1           0        3.703000   -3.163000    0.172000
     18          1           0       -2.890000    0.240000   -0.970000
     19          8           0       -5.600000   -0.360000   -0.400000
     20          1           0       -5.760000    0.850000   -0.750000
 ---------------------------------------------------------------------
                    Distance matrix (angstroms):
                    1          2          3          4          5
     1  C    0.000000
     2  C    1.438923   0.000000
     3  C    2.417147   1.460034   0.000000
     4  C    1.436141   2.395871   2.567509   0.000000
     5  S    2.636759   2.660639   1.796970   1.739253   0.000000
     6  H    2.234480   3.422397   3.630000   1.079907   2.501879
     7  C    3.845335   2.671872   1.454991   3.969219   2.793224
     8  S    5.059568   3.943332   2.842465   5.098938   3.824817
     9  C    6.336510   5.092429   3.970390   6.415169   5.024953
    10  C    6.149739   4.892763   3.817888   6.275188   4.936566
    11  C    4.857154   3.662328   2.627581   5.008733   3.810124
    12  H    4.900505   3.844207   2.982255   5.040871   3.983974
    13  S    7.691978   6.498318   5.384453   7.701271   6.264753
    14  C    8.429732   7.229643   6.020012   8.358958   6.808170
    15  C    7.684578   6.486017   5.299707   7.645222   6.139807
    16  H    9.436479   8.270214   7.021725   9.289174   7.684454
    17  H    8.163758   7.036020   5.835149   8.043425   6.521207
    18  H    2.233204   1.243905   2.492589   3.495497   3.897140
    19  O    1.690739   2.742462   4.010162   2.760960   4.261936
    20  H    2.730531   3.356859   4.773992   3.974858   5.349701
                    6          7          8          9         10
     6  H    0.000000
     7  C    5.001290   0.000000
     8  S    6.066438   1.789946   0.000000
     9  C    7.404941   2.548559   1.729523   0.000000
    10  C    7.272829   2.409192   2.639992   1.441569   0.000000
    11  C    6.008840   1.463962   2.665797   2.391307   1.432577
    12  H    5.980004   2.251387   3.704086   3.404379   2.213745
    13  S    8.638253   4.035405   4.168064   2.646859   1.732291
    14  C    9.286109   4.592043   3.991650   2.368248   2.501092
    15  C    8.586001   3.899153   2.843003   1.426417   2.385535
    16  H   10.179915   5.614714   4.944157   3.392278   3.553725
    17  H    8.936811   4.532596   3.151508   2.225120   3.401461
    18  H    4.438479   3.323522   4.500207   5.474004   5.216352
    19  O    3.043206   5.372095   6.604669   7.833109   7.567472
    20  H    4.312876   5.997399   7.212219   8.343469   8.036537
                   11         12         13         14         15
    11  C    0.000000
    12  H    1.079708   0.000000
    13  S    2.850132   3.149236   0.000000
    14  C    3.857720   4.497046   1.765856   0.000000
    15  C    3.614419   4.512965   2.672043   1.444507   0.000000
    16  H    4.876723   5.443216   2.516128   1.081034   2.239867
    17  H    4.507318   5.449643   3.695338   2.227998   1.086710
    18  H    4.080268   4.230138   6.823000   7.618397   6.896551
    19  O    6.249808   6.165877   9.095758   9.939828   9.219418
    20  H    6.765405   6.663968   9.570380  10.467117   9.759580
                   16         17         18         19         20
    16  H    0.000000
    17  H    2.643381   0.000000
    18  H    8.690709   7.506812   0.000000
    19  O   10.970436   9.732924   2.833549   0.000000
    20  H   11.525817  10.320011   2.942346   1.269724   0.000000
 Stoichiometry    C10H6OS3
 Framework group  C1[X(C10H6OS3)]
 Deg. of freedom    54
 Full point group                 C1      NOp   1
 Largest Abelian subgroup         C1      NOp   1
 Largest concise Abelian subgroup C1      NOp   1
                         Standard orientation:                         
 ---------------------------------------------------------------------
 Center     Atomic      Atomic             Coordinates (Angstroms)
 Number     Number       Type             X           Y           Z
 ---------------------------------------------------------------------
      1          6           0        3.920532    0.254159   -0.299127
      2          6           0        2.632087    0.461700   -0.905209
      3          6           0        1.527705    0.001882   -0.068186
      4          6           0        3.836431   -0.368089    0.992475
      5         16           0        2.189743   -0.682143    1.455925
      6          1           0        4.685062   -0.601713    1.618131
      7          6           0        0.082675    0.022688   -0.236877
      8         16           0       -0.830201   -1.421026   -0.771903
      9          6           0       -2.346225   -0.591351   -0.704378
     10          6           0       -2.207283    0.771022   -0.254094
     11          6           0       -0.847277    1.121882    0.027973
     12          1           0       -0.568425    2.038218    0.526308
     13         16           0       -3.647553    1.378271    0.492701
     14          6           0       -4.483607   -0.152354    0.216207
     15          6           0       -3.637160   -1.130696   -0.426424
     16          1           0       -5.446605   -0.373300    0.654901
     17          1           0       -3.866729   -2.192867   -0.431666
     18          1           0        2.705938    1.087763   -1.977538
     19          8           0        5.329041    0.959158   -0.913681
     20          1           0        5.599348    1.621945   -1.962417
 ---------------------------------------------------------------------
 Rotational constants (GHZ):           1.3760285           0.2179511           0.2121318
 Standard basis: 6-311+G(d,p) (5D, 7F)
 There are   382 symmetry adapted cartesian basis functions of A   symmetry.
 There are   368 symmetry adapted basis functions of A   symmetry.
   368 basis functions,   594 primitive gaussians,   382 cartesian basis functions
    61 alpha electrons       61 beta electrons
       nuclear repulsion energy      1076.7341078011 Hartrees.
 NAtoms=   20 NActive=   20 NUniq=   20 SFac= 1.00D+00 NAtFMM=   60 NAOKFM=F Big=F
 Integral buffers will be    131072 words long.
 Raffenetti 2 integral format.
 Two-electron integral symmetry is turned on.
 One-electron integrals computed using PRISM.
 NBasis=   368 RedAO= T EigKep=  3.84D-06  NBF=   368
 NBsUse=   367 1.00D-06 EigRej=  5.54D-07 NBFU=   367
 ExpMin= 4.05D-02 ExpMax= 9.34D+04 ExpMxC= 3.17D+03 IAcc=3 IRadAn=         5 AccDes= 0.00D+00
 Harris functional with IExCor=  402 and IRadAn=       5 diagonalized for initial guess.
 HarFok:  IExCor=  402 AccDes= 0.00D+00 IRadAn=         5 IDoV= 1 UseB2=F ITyADJ=14
 ICtDFT=  3500011 ScaDFX=  1.000000  1.000000  1.000000  1.000000
 FoFCou: FMM=F IPFlag=           0 FMFlag=      100000 FMFlg1=           0
         NFxFlg=           0 DoJE=T BraDBF=F KetDBF=T FulRan=T
         wScrn=  0.000000 ICntrl=       500 IOpCl=  0 I1Cent=   200000004 NGrid=           0
         NMat0=    1 NMatS0=      1 NMatT0=    0 NMatD0=    1 NMtDS0=    0 NMtDT0=    0
 Petite list used in FoFCou.
 Requested convergence on RMS density matrix=1.00D-08 within 128 cycles.
 Requested convergence on MAX density matrix=1.00D-06.
 Requested convergence on             energy=1.00D-06.
 No special actions if energy rises.
 SCF Done:  E(RB3LYP) =  -1654.45939600     A.U. after   16 cycles
            NFock= 16  Conv=0.88D-08     -V/T= 2.0032

 **********************************************************************

            Population analysis using the SCF Density.

 **********************************************************************

 Orbital symmetries:
       Occupied  (A) (A) (A) (A) (A) (A) (A) (A) (A) (A) (A) (A)
                 (A) (A) (A) (A) (A) (A) (A) (A) (A) (A) (A) (A)
                 (A) (A) (A) (A) (A) (A) (A) (A) (A) (A) (A) (A)
                 (A) (A) (A) (A) (A) (A) (A) (A) (A) (A) (A) (A)
                 (A) (A) (A) (A) (A) (A) (A) (A) (A) (A) (A) (A)
                 (A)
       Virtual   (A) (A) (A) (A) (A) (A) (A) (A) (A) (A) (A) (A)
                 (A) (A) (A) (A) (A) (A) (A) (A) (A) (A) (A) (A)
                 (A) (A) (A) (A) (A) (A) (A) (A) (A) (A) (A) (A)
                 (A) (A) (A) (A) (A) (A) (A) (A) (A) (A) (A) (A)
                 (A) (A) (A) (A) (A) (A) (A) (A) (A) (A) (A) (A)
                 (A) (A) (A) (A) (A) (A) (A) (A) (A) (A) (A) (A)
                 (A) (A) (A) (A) (A) (A) (A) (A) (A) (A) (A) (A)
                 (A) (A) (A) (A) (A) (A) (A) (A) (A) (A) (A) (A)
                 (A) (A) (A) (A) (A) (A) (A) (A) (A) (A) (A) (A)
                 (A) (A) (A) (A) (A) (A) (A) (A) (A) (A) (A) (A)
                 (A) (A) (A) (A) (A) (A) (A) (A) (A) (A) (A) (A)
                 (A) (A) (A) (A) (A) (A) (A) (A) (A) (A) (A) (A)
                 (A) (A) (A) (A) (A) (A) (A) (A) (A) (A) (A) (A)
                 (A) (A) (A) (A) (A) (A) (A) (A) (A) (A) (A) (A)
                 (A) (A) (A) (A) (A) (A) (A) (A) (A) (A) (A) (A)
                 (A) (A) (A) (A) (A) (A) (A) (A) (A) (A) (A) (A)
                 (A) (A) (A) (A) (A) (A) (A) (A) (A) (A) (A) (A)
                 (A) (A) (A) (A) (A) (A) (A) (A) (A) (A) (A) (A)
                 (A) (A) (A) (A) (A) (A) (A) (A) (A) (A) (A) (A)
                 (A) (A) (A) (A) (A) (A) (A) (A) (A) (A) (A) (A)
                 (A) (A) (A) (A) (A) (A) (A) (A) (A) (A) (A) (A)
                 (A) (A) (A) (A) (A) (A) (A) (A) (A) (A) (A) (A)
                 (A) (A) (A) (A) (A) (A) (A) (A) (A) (A) (A) (A)
                 (A) (A) (A) (A) (A) (A) (A) (A) (A) (A) (A) (A)
                 (A) (A) (A) (A) (A) (A) (A) (A) (A) (A) (A) (A)
                 (A) (A) (A) (A) (A) (A)
 The electronic state is 1-A.
 Alpha  occ. eigenvalues --  -88.90506 -88.89621 -88.89263 -19.15423 -10.27173
 Alpha  occ. eigenvalues --  -10.24646 -10.24006 -10.22844 -10.22685 -10.22665
 Alpha  occ. eigenvalues --  -10.22505 -10.22441 -10.21249 -10.20812  -7.98926
 Alpha  occ. eigenvalues --   -7.98142  -7.97788  -5.95229  -5.94868  -5.94518
 Alpha  occ. eigenvalues --   -5.94453  -5.94104  -5.94095  -5.93738  -5.93697
 Alpha  occ. eigenvalues --   -5.93335  -0.93425  -0.91137  -0.88248  -0.84139
 Alpha  occ. eigenvalues --   -0.77945  -0.75473  -0.74500  -0.71552  -0.69093
 Alpha  occ. eigenvalues --   -0.62374  -0.58184  -0.55585  -0.54319  -0.53801
 Alpha  occ. eigenvalues --   -0.50206  -0.49573  -0.45685  -0.43859  -0.42841
 Alpha  occ. eigenvalues --   -0.41403  -0.40810  -0.39956  -0.39881  -0.38995
 Alpha  occ. eigenvalues --   -0.37846  -0.37110  -0.35192  -0.33621  -0.32376
 Alpha  occ. eigenvalues --   -0.31656  -0.29575  -0.26442  -0.24495  -0.23990
 Alpha  occ. eigenvalues --   -0.22176
 Alpha virt. eigenvalues --   -0.08366  -0.06985  -0.05657  -0.02524  -0.01378
 Alpha virt. eigenvalues --   -0.00607  -0.00328  -0.00108   0.00499   0.01115
 Alpha virt. eigenvalues --    0.01862   0.02247   0.02862   0.03285   0.03633
 Alpha virt. eigenvalues --    0.04082   0.04172   0.05407   0.05748   0.06345
 Alpha virt. eigenvalues --    0.06565   0.07045   0.07127   0.08447   0.08609
 Alpha virt. eigenvalues --    0.08825   0.09876   0.09985   0.10202   0.10779
 Alpha virt. eigenvalues --    0.10940   0.11205   0.11457   0.12153   0.12691
 Alpha virt. eigenvalues --    0.13173   0.13840   0.14280   0.14503   0.14762
 Alpha virt. eigenvalues --    0.15360   0.15687   0.16121   0.16766   0.17084
 Alpha virt. eigenvalues --    0.17485   0.17777   0.18036   0.18708   0.19050
 Alpha virt. eigenvalues --    0.19352   0.19922   0.20180   0.20300   0.20693
 Alpha virt. eigenvalues --    0.21144   0.21505   0.21576   0.21777   0.22106
 Alpha virt. eigenvalues --    0.22875   0.23015   0.23168   0.24278   0.24479
 Alpha virt. eigenvalues --    0.25544   0.25969   0.26108   0.26543   0.27118
 Alpha virt. eigenvalues --    0.27726   0.28444   0.29185   0.29883   0.30684
 Alpha virt. eigenvalues --    0.31876   0.32181   0.32896   0.33410   0.34127
 Alpha virt. eigenvalues --    0.34352   0.35915   0.36407   0.37037   0.37437
 Alpha virt. eigenvalues --    0.39558   0.40212   0.41359   0.42344   0.43127
 Alpha virt. eigenvalues --    0.43996   0.44228   0.48339   0.49903   0.52470
 Alpha virt. eigenvalues --    0.53583   0.54290   0.54985   0.55391   0.55750
 Alpha virt. eigenvalues --    0.57445   0.57634   0.57888   0.59272   0.59652
 Alpha virt. eigenvalues --    0.60582   0.61085   0.62198   0.63579   0.64180
 Alpha virt. eigenvalues --    0.65598   0.66133   0.67339   0.67871   0.68942
 Alpha virt. eigenvalues --    0.70113   0.70265   0.71072   0.71666   0.71891
 Alpha virt. eigenvalues --    0.72654   0.73303   0.74197   0.74812   0.75638
 Alpha virt. eigenvalues --    0.77964   0.78317   0.79513   0.80211   0.81110
 Alpha virt. eigenvalues --    0.82093   0.82415   0.83254   0.84882   0.85721
 Alpha virt. eigenvalues --    0.86541   0.87575   0.88657   0.89030   0.89316
 Alpha virt. eigenvalues --    0.91358   0.92184   0.92728   0.94081   0.94118
 Alpha virt. eigenvalues --    0.96409   0.97260   0.97694   0.99344   1.00580
 Alpha virt. eigenvalues --    1.01565   1.03401   1.04062   1.06353   1.07682
 Alpha virt. eigenvalues --    1.09511   1.11052   1.13890   1.14726   1.17936
 Alpha virt. eigenvalues --    1.19188   1.22374   1.23217   1.26666   1.27884
 Alpha virt. eigenvalues --    1.33978   1.34779   1.36349   1.38021   1.41169
 Alpha virt. eigenvalues --    1.42420   1.43810   1.47450   1.49199   1.50281
 Alpha virt. eigenvalues --    1.50770   1.51961   1.54433   1.57046   1.58093
 Alpha virt. eigenvalues --    1.58320   1.60996   1.61572   1.63211   1.65113
 Alpha virt. eigenvalues --    1.65809   1.66742   1.67515   1.68465   1.69837
 Alpha virt. eigenvalues --    1.72446   1.74031   1.74546   1.75771   1.76071
 Alpha virt. eigenvalues --    1.78289   1.78979   1.81285   1.83379   1.83578
 Alpha virt. eigenvalues --    1.85328   1.87828   1.88552   1.89660   1.91167
 Alpha virt. eigenvalues --    1.93337   1.94820   1.95061   1.96799   1.97774
 Alpha virt. eigenvalues --    1.99129   2.00807   2.01382   2.03010   2.03188
 Alpha virt. eigenvalues --    2.04400   2.07988   2.08910   2.11388   2.13286
 Alpha virt. eigenvalues --    2.13770   2.17491   2.21798   2.23435   2.29611
 Alpha virt. eigenvalues --    2.32565   2.34038   2.35663   2.41085   2.45922
 Alpha virt. eigenvalues --    2.48720   2.49430   2.54667   2.55901   2.61118
 Alpha virt. eigenvalues --    2.64462   2.65968   2.68746   2.69816   2.71016
 Alpha virt. eigenvalues --    2.73209   2.74200   2.75919   2.77196   2.79967
 Alpha virt. eigenvalues --    2.82388   2.85939   2.87359   2.88692   2.92015
 Alpha virt. eigenvalues --    2.92639   2.93761   2.95043   2.97172   3.00238
 Alpha virt. eigenvalues --    3.00831   3.02224   3.03859   3.07093   3.19669
 Alpha virt. eigenvalues --    3.20175   3.22542   3.25689   3.30016   3.35614
 Alpha virt. eigenvalues --    3.38822   3.46279   3.48384   3.57886   3.60315
 Alpha virt. eigenvalues --    3.78749   3.84132   3.92609   4.02843   4.11892
 Alpha virt. eigenvalues --    4.29440   4.40880   5.01588   5.12075   5.25080
 Alpha virt. eigenvalues --    7.92160   7.93885   7.96276  17.27767  17.28192
 Alpha virt. eigenvalues --   17.30494  17.41623  17.42906  17.45734  17.46749
 Alpha virt. eigenvalues --   17.48350  17.50466  23.41775  23.55972  23.67724
 Alpha virt. eigenvalues --   23.75325  23.79916  23.84988  23.85875  23.87780
 Alpha virt. eigenvalues --   23.93191  23.95459  49.84247 189.08096 189.10126
 Alpha virt. eigenvalues --  189.12827
          Condensed to atoms (all electrons):
               1          2          3          4          5          6
     1  C    6.571655  -0.886546   0.028785  -0.917856   0.941507   0.043522
     2  C   -0.886546  10.415841  -1.153604   0.076944  -1.778695  -0.031799
     3  C    0.028785  -1.153604   7.150972  -0.118372   0.289042   0.015742
     4  C   -0.917856   0.076944  -0.118372   7.354500  -0.659269   0.336223
     5  S    0.941507  -1.778695   0.289042  -0.659269  16.843989  -0.006256
     6  H    0.043522  -0.031799   0.015742   0.336223  -0.006256   0.462544
     7  C    0.104016  -0.444100   0.446155  -0.163125   0.049589   0.001787
     8  S   -0.071939   0.532622   0.278392   0.051782  -0.099697  -0.000354
     9  C    0.038342  -0.430511  -0.604896  -0.021821   0.224091   0.000151
    10  C   -0.006876   0.620847   0.663209   0.014479  -0.239699  -0.000133
    11  C    0.211169  -1.342384  -0.863427   0.028026   0.524155  -0.000689
    12  H   -0.000282   0.006850   0.013696   0.000484  -0.004862  -0.000000
    13  S    0.005830  -0.003382  -0.020067   0.000352  -0.004521   0.000005
    14  C   -0.000441   0.001259  -0.020904  -0.000376   0.000233  -0.000002
    15  C    0.012624  -0.116431  -0.122028  -0.002294   0.058785   0.000025
    16  H   -0.000000   0.000014   0.000042   0.000000  -0.000029   0.000000
    17  H    0.000003   0.000171   0.000068  -0.000011  -0.000243   0.000000
    18  H   -0.086654   0.350703   0.068511  -0.019581   0.003637  -0.000096
    19  O    0.356934  -0.063772  -0.010547  -0.143689   0.013727  -0.000885
    20  H   -0.034893  -0.035867   0.013972   0.061529  -0.006798  -0.000214
               7          8          9         10         11         12
     1  C    0.104016  -0.071939   0.038342  -0.006876   0.211169  -0.000282
     2  C   -0.444100   0.532622  -0.430511   0.620847  -1.342384   0.006850
     3  C    0.446155   0.278392  -0.604896   0.663209  -0.863427   0.013696
     4  C   -0.163125   0.051782  -0.021821   0.014479   0.028026   0.000484
     5  S    0.049589  -0.099697   0.224091  -0.239699   0.524155  -0.004862
     6  H    0.001787  -0.000354   0.000151  -0.000133  -0.000689  -0.000000
     7  C    8.138762   0.412634  -1.018393   1.443775  -2.632972   0.064226
     8  S    0.412634  18.032378  -1.494317   2.544039  -3.425623   0.012300
     9  C   -1.018393  -1.494317  14.545023  -6.400203   2.738550  -0.048254
    10  C    1.443775   2.544039  -6.400203  16.807005  -7.422485   0.039155
    11  C   -2.632972  -3.425623   2.738550  -7.422485  16.269030   0.260616
    12  H    0.064226   0.012300  -0.048254   0.039155   0.260616   0.510747
    13  S   -0.233605   0.226132   0.315595  -0.751258   0.098925   0.009644
    14  C    0.108984   0.013993   0.664139  -0.348094  -0.337605   0.000094
    15  C   -0.388678  -0.753435  -2.900371  -1.021656   2.044263  -0.010600
    16  H   -0.002332   0.001606  -0.000371   0.004459   0.007885  -0.000003
    17  H    0.005689   0.021362   0.026386  -0.025080  -0.013895   0.000015
    18  H    0.008456  -0.002343   0.000669  -0.001331   0.003831  -0.000053
    19  O    0.008591   0.001030  -0.000501   0.001135  -0.002441  -0.000004
    20  H    0.000492   0.000091  -0.000084   0.000109   0.000559  -0.000000
              13         14         15         16         17         18
     1  C    0.005830  -0.000441   0.012624  -0.000000   0.000003  -0.086654
     2  C   -0.003382   0.001259  -0.116431   0.000014   0.000171   0.350703
     3  C   -0.020067  -0.020904  -0.122028   0.000042   0.000068   0.068511
     4  C    0.000352  -0.000376  -0.002294   0.000000  -0.000011  -0.019581
     5  S   -0.004521   0.000233   0.058785  -0.000029  -0.000243   0.003637
     6  H    0.000005  -0.000002   0.000025   0.000000   0.000000  -0.000096
     7  C   -0.233605   0.108984  -0.388678  -0.002332   0.005689   0.008456
     8  S    0.226132   0.013993  -0.753435   0.001606   0.021362  -0.002343
     9  C    0.315595   0.664139  -2.900371  -0.000371   0.026386   0.000669
    10  C   -0.751258  -0.348094  -1.021656   0.004459  -0.025080  -0.001331
    11  C    0.098925  -0.337605   2.044263   0.007885  -0.013895   0.003831
    12  H    0.009644   0.000094  -0.010600  -0.000003   0.000015  -0.000053
    13  S   16.552847   0.303932  -0.349728  -0.021296   0.005286  -0.000144
    14  C    0.303932   5.575186  -0.072248   0.376665   0.013563   0.000018
    15  C   -0.349728  -0.072248   9.537807  -0.011885   0.314307   0.000054
    16  H   -0.021296   0.376665  -0.011885   0.471783  -0.003609  -0.000000
    17  H    0.005286   0.013563   0.314307  -0.003609   0.512165   0.000000
    18  H   -0.000144   0.000018   0.000054  -0.000000   0.000000   0.530493
    19  O   -0.000013   0.000005  -0.000044  -0.000000   0.000000  -0.001959
    20  H    0.000000   0.000000  -0.000003  -0.000000  -0.000000   0.000828
              19         20
     1  C    0.356934  -0.034893
     2  C   -0.063772  -0.035867
     3  C   -0.010547   0.013972
     4  C   -0.143689   0.061529
     5  S    0.013727  -0.006798
     6  H   -0.000885  -0.000214
     7  C    0.008591   0.000492
     8  S    0.001030   0.000091
     9  C   -0.000501  -0.000084
    10  C    0.001135   0.000109
    11  C   -0.002441   0.000559
    12  H   -0.000004  -0.000000
    13  S   -0.000013   0.000000
    14  C    0.000005   0.000000
    15  C   -0.000044  -0.000003
    16  H   -0.000000  -0.000000
    17  H    0.000000  -0.000000
    18  H   -0.001959   0.000828
    19  O    8.105373   0.184997
    20  H    0.184997   0.529337
 Mulliken charges:
               1
     1  C   -0.308901
     2  C    0.281840
     3  C   -0.054740
     4  C    0.122074
     5  S   -0.148685
     6  H    0.180430
     7  C    0.090051
     8  S   -0.280654
     9  C    0.366776
    10  C    0.078604
    11  C   -0.145488
    12  H    0.146229
    13  S   -0.134533
    14  C   -0.278401
    15  C   -0.218464
    16  H    0.177071
    17  H    0.143821
    18  H    0.144961
    19  O   -0.447936
    20  H    0.285945
 Sum of Mulliken charges =  -0.00000
 Mulliken charges with hydrogens summed into heavy atoms:
               1
     1  C   -0.308901
     2  C    0.426801
     3  C   -0.054740
     4  C    0.302504
     5  S   -0.148685
     7  C    0.090051
     8  S   -0.280654
     9  C    0.366776
    10  C    0.078604
    11  C    0.000742
    13  S   -0.134533
    14  C   -0.101330
    15  C   -0.074643
    19  O   -0.161991
 Electronic spatial extent (au):  <R**2>=           4980.2527
 Charge=              0.0000 electrons
 Dipole moment (field-independent basis, Debye):
    X=             -1.4176    Y=              0.2255    Z=              0.2404  Tot=              1.4554
 Quadrupole moment (field-independent basis, Debye-Ang):
   XX=           -101.1589   YY=            -99.6012   ZZ=            -99.3737
   XY=              6.1613   XZ=             -7.6520   YZ=             -4.2801
 Traceless Quadrupole moment (field-independent basis, Debye-Ang):
   XX=             -1.1143   YY=              0.4434   ZZ=              0.6709
   XY=              6.1613   XZ=             -7.6520   YZ=             -4.2801
 Octapole moment (field-independent basis, Debye-Ang**2):
  XXX=            -67.2201  YYY=              3.6844  ZZZ=             -4.8552  XYY=              3.4130
  XXY=             -3.5699  XXZ=             -2.1090  XZZ=             47.0156  YZZ=             10.7054
  YYZ=             -5.5034  XYZ=            -32.3703
 Hexadecapole moment (field-independent basis, Debye-Ang**3):
 XXXX=          -5667.3230 YYYY=           -655.3967 ZZZZ=           -497.6619 XXXY=            172.8570
 XXXZ=           -275.4436 YYYX=             59.0408 YYYZ=             -3.1118 ZZZX=            -73.3802
 ZZZY=            -38.8578 XXYY=           -998.3248 XXZZ=           -876.1612 YYZZ=           -184.0444
 XXYZ=           -144.9014 YYXZ=            -48.1150 ZZXY=             51.1144
 N-N= 1.076734107801D+03 E-N=-6.062969359146D+03  KE= 1.649117153772D+03
 Calling FoFJK, ICntrl=      2127 FMM=F ISym2X=0 I1Cent= 0 IOpClX= 0 NMat=1 NMatS=1 NMatT=0.
 ***** Axes restored to original set *****
 -------------------------------------------------------------------
 Center     Atomic                   Forces (Hartrees/Bohr)
 Number     Number              X              Y              Z
 -------------------------------------------------------------------
      1        6          -0.013927151    0.009110925   -0.019978562
      2        6           0.002823203    0.022141579   -0.016226389
      3        6          -0.043382223    0.033366510    0.003476305
      4        6          -0.013160708    0.055305054   -0.008853293
      5       16          -0.005361489    0.028814508   -0.000243241
      6        1           0.002444876   -0.003632847   -0.001007108
      7        6           0.033008794   -0.001350532   -0.053224556
      8       16          -0.011173179    0.009979431   -0.006263576
      9        6           0.001098713   -0.020386653   -0.029043854
     10        6          -0.020341391   -0.004255845    0.035522179
     11        6          -0.009454093    0.006348308    0.053857116
     12        1          -0.004866253    0.005046221    0.000708861
     13       16           0.017213932    0.002845369    0.008460479
     14        6          -0.025089563    0.018760759    0.050028438
     15        6           0.009470014   -0.023893170   -0.049703288
     16        1           0.001178566    0.004776836   -0.005433579
     17        1           0.004305452    0.006948133   -0.004315831
     18        1           0.014754696   -0.069672500    0.019086804
     19        8           0.017989648    0.026151788   -0.006932514
     20        1           0.042468156   -0.106403873    0.030085609
 -------------------------------------------------------------------
 Cartesian Forces:  Max     0.106403873 RMS     0.027841594

 GradGradGradGradGradGradGradGradGradGradGradGradGradGradGradGradGradGrad
 Berny optimization.
 FormGI is forming the generalized inverse of G from B-inverse, IUseBI=4.
 Internal  Forces:  Max     0.115043536 RMS     0.022750104
 Search for a local minimum.
 Step number   1 out of a maximum of  116
 All quantities printed in internal units (Hartrees-Bohrs-Radians)
 Mixed Optimization -- RFO/linear search
 Second derivative matrix not updated -- first step.
 ITU=  0
     Eigenvalues ---    0.00230   0.00983   0.01061   0.01224   0.01274
     Eigenvalues ---    0.01299   0.01386   0.01417   0.01424   0.01464
     Eigenvalues ---    0.01496   0.01554   0.01593   0.01769   0.02198
     Eigenvalues ---    0.02652   0.15081   0.15687   0.15734   0.15872
     Eigenvalues ---    0.15997   0.16000   0.17982   0.18458   0.20203
     Eigenvalues ---    0.21719   0.22442   0.23319   0.23380   0.23776
     Eigenvalues ---    0.23976   0.24292   0.24977   0.24995   0.26219
     Eigenvalues ---    0.26575   0.28334   0.30834   0.31320   0.31617
     Eigenvalues ---    0.34829   0.35196   0.35849   0.35870   0.36006
     Eigenvalues ---    0.36030   0.36334   0.37598   0.38308   0.38494
     Eigenvalues ---    0.39449   0.39699   0.405801000.000001000.00000
     Eigenvalues --- 1000.000001000.000001000.000001000.000001000.00000
     Eigenvalues --- 1000.000001000.000001000.000001000.000001000.00000
     Eigenvalues --- 1000.000001000.000001000.000001000.000001000.00000
     Eigenvalues --- 1000.000001000.000001000.000001000.000001000.00000
     Eigenvalues --- 1000.000001000.000001000.000001000.000001000.00000
     Eigenvalues --- 1000.000001000.000001000.000001000.000001000.00000
     Eigenvalues --- 1000.000001000.000001000.000001000.000001000.00000
     Eigenvalues --- 1000.000001000.000001000.000001000.000001000.00000
     Eigenvalues --- 1000.000001000.000001000.000001000.000001000.00000
     Eigenvalues --- 1000.000001000.000001000.000001000.000001000.00000
     Eigenvalues --- 1000.00000
 RFO step:  Lambda=-1.44551787D-01 EMin= 2.30000000D-03
 Linear search not attempted -- first point.
 Maximum step size (   0.300) exceeded in Quadratic search.
    -- Step size scaled by   0.486
 Iteration  1 RMS(Cart)=  0.06160581 RMS(Int)=  0.00167838
 Iteration  2 RMS(Cart)=  0.00201657 RMS(Int)=  0.00007266
 Iteration  3 RMS(Cart)=  0.00001097 RMS(Int)=  0.00007233
 Iteration  4 RMS(Cart)=  0.00000000 RMS(Int)=  0.00007233
 Iteration  1 RMS(Cart)=  0.00000192 RMS(Int)=  0.00000075
 Iteration  2 RMS(Cart)=  0.00000105 RMS(Int)=  0.00000084
 Iteration  3 RMS(Cart)=  0.00000057 RMS(Int)=  0.00000095
 Variable       Old X    -DE/DX   Delta X   Delta X   Delta X     New X
                                 (Linear)    (Quad)   (Total)
    R1        2.71917  -0.02113   0.00000  -0.01995  -0.01988   2.69930
    R2        2.71391  -0.06293   0.00000  -0.05645  -0.05641   2.65751
    R3        3.19503  -0.09834   0.00000  -0.14513  -0.14513   3.04990
    R4        2.75906  -0.06831   0.00000  -0.06491  -0.06489   2.69418
    R5        2.35064  -0.07170   0.00000  -0.09628  -0.09628   2.25436
    R6        3.39578  -0.01747   0.00000  -0.01975  -0.01981   3.37597
    R7        2.74954  -0.00491   0.00000  -0.00458  -0.00458   2.74495
    R8        3.28671  -0.01654   0.00000  -0.01666  -0.01671   3.27000
    R9        2.04073  -0.00061   0.00000  -0.00059  -0.00059   2.04014
   R10        3.38251  -0.01045   0.00000  -0.01137  -0.01142   3.37108
   R11        2.76649  -0.06376   0.00000  -0.06112  -0.06115   2.70534
   R12        3.26832  -0.00082   0.00000  -0.00016  -0.00016   3.26817
   R13        2.72417  -0.03104   0.00000  -0.02849  -0.02838   2.69579
   R14        2.69554  -0.00218   0.00000  -0.00267  -0.00262   2.69292
   R15        2.70718  -0.01217   0.00000  -0.01161  -0.01157   2.69561
   R16        3.27356   0.00172   0.00000   0.00263   0.00262   3.27618
   R17        2.04035   0.00102   0.00000   0.00098   0.00098   2.04133
   R18        3.33698  -0.01267   0.00000  -0.01363  -0.01370   3.32329
   R19        2.72972  -0.05804   0.00000  -0.05327  -0.05329   2.67644
   R20        2.04286  -0.00126   0.00000  -0.00122  -0.00122   2.04164
   R21        2.05358  -0.00392   0.00000  -0.00384  -0.00384   2.04975
   R22        2.39943  -0.11504   0.00000  -0.16123  -0.16123   2.23820
    A1        1.97020   0.01966   0.00000   0.02278   0.02289   1.99309
    A2        2.13260   0.00544   0.00000   0.00820   0.00816   2.14076
    A3        2.16079  -0.02452   0.00000  -0.02930  -0.02940   2.13139
    A4        1.97187  -0.00191   0.00000  -0.00436  -0.00426   1.96761
    A5        1.96334   0.02077   0.00000   0.03398   0.03393   1.99727
    A6        2.34288  -0.01871   0.00000  -0.02904  -0.02910   2.31378
    A7        1.90440  -0.00111   0.00000  -0.00074  -0.00077   1.90363
    A8        2.31891  -0.00713   0.00000  -0.00909  -0.00908   2.30984
    A9        2.05972   0.00826   0.00000   0.00986   0.00987   2.06959
   A10        1.95339  -0.01527   0.00000  -0.01993  -0.01993   1.93346
   A11        2.17580   0.01202   0.00000   0.01698   0.01698   2.19278
   A12        2.15384   0.00328   0.00000   0.00302   0.00302   2.15686
   A13        1.62490  -0.00136   0.00000   0.00228   0.00209   1.62699
   A14        2.12896  -0.00313   0.00000  -0.00358  -0.00358   2.12538
   A15        2.24036  -0.00387   0.00000  -0.00451  -0.00451   2.23585
   A16        1.91315   0.00707   0.00000   0.00826   0.00825   1.92141
   A17        1.61927  -0.00640   0.00000  -0.00598  -0.00595   1.61331
   A18        1.96175  -0.01085   0.00000  -0.01169  -0.01181   1.94994
   A19        2.23893   0.00887   0.00000   0.01498   0.01481   2.25375
   A20        1.96460   0.00582   0.00000   0.00702   0.00706   1.97166
   A21        1.96542   0.00772   0.00000   0.00878   0.00880   1.97423
   A22        1.96688  -0.01325   0.00000  -0.01453  -0.01460   1.95228
   A23        2.23772   0.00896   0.00000   0.01474   0.01459   2.25231
   A24        1.96442   0.00250   0.00000   0.00074   0.00080   1.96523
   A25        2.16116  -0.00565   0.00000  -0.00699  -0.00705   2.15412
   A26        2.14589   0.00372   0.00000   0.00794   0.00788   2.15377
   A27        1.59309   0.00027   0.00000   0.00163   0.00163   1.59472
   A28        1.95982   0.00194   0.00000   0.00154   0.00151   1.96133
   A29        2.13575  -0.00488   0.00000  -0.00638  -0.00645   2.12930
   A30        2.17015   0.00400   0.00000   0.00795   0.00791   2.17805
   A31        1.94005   0.00521   0.00000   0.00434   0.00441   1.94446
   A32        2.16497   0.00016   0.00000   0.00352   0.00339   2.16836
   A33        2.14165  -0.00352   0.00000  -0.00248  -0.00262   2.13903
   A34        2.33954  -0.06757   0.00000  -0.10777  -0.10777   2.23176
    D1        0.00683  -0.00083   0.00000  -0.00237  -0.00239   0.00444
    D2        3.05589  -0.00063   0.00000   0.00091   0.00106   3.05696
    D3       -2.93068  -0.00088   0.00000  -0.00752  -0.00773  -2.93841
    D4        0.11838  -0.00068   0.00000  -0.00423  -0.00428   0.11410
    D5       -0.00671   0.00113   0.00000   0.00325   0.00326  -0.00345
    D6       -3.13020  -0.00063   0.00000  -0.00124  -0.00122  -3.13141
    D7        2.92697   0.00537   0.00000   0.01372   0.01362   2.94059
    D8       -0.19651   0.00361   0.00000   0.00923   0.00915  -0.18737
    D9       -0.13323   0.00154   0.00000   0.00182   0.00177  -0.13146
   D10       -3.04818  -0.00421   0.00000  -0.01066  -0.01060  -3.05878
   D11       -0.00388   0.00033   0.00000   0.00064   0.00060  -0.00329
   D12        3.11762   0.00141   0.00000   0.00259   0.00254   3.12016
   D13       -3.02603  -0.00315   0.00000  -0.00869  -0.00865  -3.03468
   D14        0.09547  -0.00207   0.00000  -0.00674  -0.00670   0.08877
   D15        0.00006   0.00032   0.00000   0.00107   0.00110   0.00116
   D16       -3.12486  -0.00040   0.00000  -0.00032  -0.00031  -3.12516
   D17        1.74562  -0.00113   0.00000   0.00000  -0.00000   1.74562
   D18       -1.44088   0.00126   0.00000   0.00564   0.00564  -1.43524
   D19       -1.41747  -0.00008   0.00000   0.00197   0.00198  -1.41550
   D20        1.67921   0.00231   0.00000   0.00760   0.00762   1.68682
   D21        0.00376  -0.00084   0.00000  -0.00249  -0.00249   0.00126
   D22        3.12751   0.00100   0.00000   0.00211   0.00205   3.12956
   D23        3.13778   0.00062   0.00000   0.00139   0.00139   3.13917
   D24        0.03356  -0.00116   0.00000  -0.00305  -0.00309   0.03048
   D25       -3.13869  -0.00156   0.00000  -0.00338  -0.00336   3.14114
   D26       -0.15698   0.00270   0.00000   0.00892   0.00891  -0.14807
   D27       -0.03753   0.00042   0.00000   0.00148   0.00154  -0.03600
   D28        2.94417   0.00467   0.00000   0.01379   0.01380   2.95797
   D29       -0.02170   0.00201   0.00000   0.00433   0.00430  -0.01740
   D30       -2.61611  -0.00694   0.00000  -0.01846  -0.01850  -2.63460
   D31        0.00350  -0.00171   0.00000  -0.00384  -0.00381  -0.00031
   D32       -2.68813  -0.01064   0.00000  -0.02463  -0.02440  -2.71253
   D33        2.68697   0.00779   0.00000   0.01900   0.01885   2.70582
   D34       -0.00467  -0.00114   0.00000  -0.00179  -0.00174  -0.00641
   D35        2.61343   0.00574   0.00000   0.01959   0.01976   2.63320
   D36       -0.24691  -0.00072   0.00000  -0.00017  -0.00009  -0.24700
   D37        0.01975   0.00098   0.00000   0.00148   0.00145   0.02120
   D38       -2.84059  -0.00548   0.00000  -0.01829  -0.01841  -2.85900
   D39        0.02258   0.00085   0.00000   0.00146   0.00143   0.02401
   D40       -2.96073  -0.00237   0.00000  -0.00915  -0.00925  -2.96999
   D41        2.62821   0.00435   0.00000   0.01652   0.01669   2.64489
   D42       -0.35511   0.00113   0.00000   0.00591   0.00600  -0.34911
   D43       -0.00895   0.00102   0.00000   0.00147   0.00144  -0.00751
   D44       -2.61421  -0.00769   0.00000  -0.01939  -0.01935  -2.63356
   D45        0.02029  -0.00034   0.00000  -0.00051  -0.00052   0.01976
   D46        2.97004   0.00594   0.00000   0.01733   0.01725   2.98729
   D47       -0.02640  -0.00020   0.00000  -0.00035  -0.00031  -0.02671
   D48        2.83834   0.00683   0.00000   0.02022   0.02026   2.85860
   D49       -2.97170  -0.00548   0.00000  -0.01674  -0.01679  -2.98849
   D50       -0.10696   0.00155   0.00000   0.00383   0.00379  -0.10317
         Item               Value     Threshold  Converged?
 Maximum Force            0.115044     0.000450     NO 
 RMS     Force            0.022858     0.000300     NO 
 Maximum Displacement     0.422013     0.001800     NO 
 RMS     Displacement     0.061023     0.001200     NO 
 Predicted change in Energy=-6.001376D-02
 GradGradGradGradGradGradGradGradGradGradGradGradGradGradGradGradGradGrad

                          Input orientation:                          
 ---------------------------------------------------------------------
 Center     Atomic      Atomic             Coordinates (Angstroms)
 Number     Number       Type             X           Y           Z
 ---------------------------------------------------------------------
      1          6           0       -4.228438   -1.359172   -0.229467
      2          6           0       -2.914435   -0.965011   -0.627432
      3          6           0       -1.989630   -2.050066   -0.626287
      4          6           0       -4.349634   -2.723924    0.087423
      5         16           0       -2.834856   -3.536836   -0.109919
      6          1           0       -5.256737   -3.219008    0.399808
      7          6           0       -0.581418   -2.135776   -0.972033
      8         16           0        0.693854   -2.135090    0.275358
      9          6           0        1.951513   -2.259578   -0.905217
     10          6           0        1.427223   -2.325157   -2.230307
     11          6           0        0.002306   -2.273676   -2.271933
     12          1           0       -0.573771   -2.463880   -3.165715
     13         16           0        2.524089   -3.108915   -3.320376
     14          6           0        3.698610   -3.348024   -2.033508
     15          6           0        3.240163   -2.856321   -0.786918
     16          1           0        4.580826   -3.956684   -2.169403
     17          1           0        3.699064   -3.135883    0.155305
     18          1           0       -2.826508    0.169928   -0.984259
     19          8           0       -5.515541   -0.401338   -0.404720
     20          1           0       -5.536680    0.733412   -0.743401
 ---------------------------------------------------------------------
                    Distance matrix (angstroms):
                    1          2          3          4          5
     1  C    0.000000
     2  C    1.428406   0.000000
     3  C    2.376354   1.425696   0.000000
     4  C    1.406291   2.380039   2.555990   0.000000
     5  S    2.588162   2.624583   1.786484   1.730412   0.000000
     6  H    2.216388   3.409120   3.618464   1.079596   2.495264
     7  C    3.802008   2.632946   1.452566   3.958259   2.790016
     8  S    5.008578   3.899213   2.832186   5.081222   3.816428
     9  C    6.281652   5.042868   3.956552   6.395733   5.017291
    10  C    6.076428   4.823815   3.784632   6.237224   4.912181
    11  C    4.786144   3.595047   2.593446   4.970781   3.784093
    12  H    4.816485   3.764066   2.936766   4.990759   3.949889
    13  S    7.629675   6.436289   5.362177   7.681757   6.261664
    14  C    8.369479   7.168554   6.001753   8.346381   6.813370
    15  C    7.637552   6.440618   5.294014   7.641140   6.150388
    16  H    9.386882   8.216247   7.013366   9.293336   7.707794
    17  H    8.133267   7.004551   5.843897   8.059520   6.551581
    18  H    2.207547   1.192956   2.399350   3.441336   3.808496
    19  O    1.613937   2.670783   3.898646   2.644985   4.135738
    20  H    2.520820   3.126382   4.510325   3.748669   5.092757
                    6          7          8          9         10
     6  H    0.000000
     7  C    4.991386   0.000000
     8  S    6.049785   1.783901   0.000000
     9  C    7.387994   2.536835   1.729439   0.000000
    10  C    7.238217   2.377763   2.617692   1.426549   0.000000
    11  C    5.974059   1.431605   2.643130   2.380655   1.426454
    12  H    5.934083   2.218097   3.681842   3.395386   2.213190
    13  S    8.625146   4.013215   4.150590   2.623397   1.733679
    14  C    9.280943   4.573283   3.978773   2.347361   2.498837
    15  C    8.587034   3.893319   2.851718   1.425032   2.377447
    16  H   10.194246   5.603407   4.940002   3.375148   3.551170
    17  H    8.959524   4.538021   3.169746   2.224085   3.392592
    18  H    4.393921   3.218206   4.392344   5.360805   5.086483
    19  O    2.941684   5.260768   6.482668   7.711060   7.432080
    20  H    4.123945   5.730544   6.934387   8.065805   7.749947
                   11         12         13         14         15
    11  C    0.000000
    12  H    1.080226   0.000000
    13  S    2.855915   3.168079   0.000000
    14  C    3.856648   4.507421   1.758608   0.000000
    15  C    3.609496   4.512070   2.644801   1.416309   0.000000
    16  H    4.879127   5.458111   2.504719   1.080389   2.217982
    17  H    4.505653   5.453245   3.669012   2.199069   1.084679
    18  H    3.953668   4.095183   6.696054   7.486927   6.782449
    19  O    6.118723   6.024804   8.970378   9.810020   9.101393
    20  H    6.485319   6.381282   9.294100  10.179051   9.482671
                   16         17         18         19         20
    16  H    0.000000
    17  H    2.618298   0.000000
    18  H    8.561664   7.403383   0.000000
    19  O   10.848559   9.628100   2.809468   0.000000
    20  H   11.242528  10.053760   2.778590   1.184403   0.000000
 Stoichiometry    C10H6OS3
 Framework group  C1[X(C10H6OS3)]
 Deg. of freedom    54
 Full point group                 C1      NOp   1
 Largest Abelian subgroup         C1      NOp   1
 Largest concise Abelian subgroup C1      NOp   1
                         Standard orientation:                         
 ---------------------------------------------------------------------
 Center     Atomic      Atomic             Coordinates (Angstroms)
 Number     Number       Type             X           Y           Z
 ---------------------------------------------------------------------
      1          6           0        3.878732    0.263237   -0.321017
      2          6           0        2.591339    0.451162   -0.910630
      3          6           0        1.529535    0.009891   -0.067741
      4          6           0        3.847151   -0.318976    0.958704
      5         16           0        2.218158   -0.635657    1.449030
      6          1           0        4.708287   -0.534610    1.573094
      7          6           0        0.085676    0.020342   -0.226194
      8         16           0       -0.815297   -1.436650   -0.723914
      9          6           0       -2.332633   -0.609002   -0.663504
     10          6           0       -2.177939    0.747798   -0.250941
     11          6           0       -0.821545    1.101600    0.013233
     12          1           0       -0.529441    2.031224    0.479455
     13         16           0       -3.628845    1.375422    0.460820
     14          6           0       -4.463709   -0.151584    0.207924
     15          6           0       -3.630499   -1.129269   -0.388585
     16          1           0       -5.440225   -0.346461    0.627065
     17          1           0       -3.876835   -2.185606   -0.387254
     18          1           0        2.606332    1.026794   -1.955411
     19          8           0        5.220830    0.918458   -0.932779
     20          1           0        5.344338    1.499957   -1.957189
 ---------------------------------------------------------------------
 Rotational constants (GHZ):           1.4116304           0.2216648           0.2155189
 Standard basis: 6-311+G(d,p) (5D, 7F)
 There are   382 symmetry adapted cartesian basis functions of A   symmetry.
 There are   368 symmetry adapted basis functions of A   symmetry.
   368 basis functions,   594 primitive gaussians,   382 cartesian basis functions
    61 alpha electrons       61 beta electrons
       nuclear repulsion energy      1086.4628863707 Hartrees.
 NAtoms=   20 NActive=   20 NUniq=   20 SFac= 1.00D+00 NAtFMM=   60 NAOKFM=F Big=F
 Integral buffers will be    131072 words long.
 Raffenetti 2 integral format.
 Two-electron integral symmetry is turned on.
 One-electron integrals computed using PRISM.
 NBasis=   368 RedAO= T EigKep=  3.40D-06  NBF=   368
 NBsUse=   367 1.00D-06 EigRej=  5.11D-07 NBFU=   367
 Initial guess from the checkpoint file:  "/tmp/pbs.4730634[275].pbs/Gau-218822.chk"
 B after Tr=     0.000000    0.000000   -0.000000
         Rot=    0.999917    0.012685   -0.002033   -0.001180 Ang=   1.48 deg.
 ExpMin= 4.05D-02 ExpMax= 9.34D+04 ExpMxC= 3.17D+03 IAcc=3 IRadAn=         5 AccDes= 0.00D+00
 Harris functional with IExCor=  402 and IRadAn=       5 diagonalized for initial guess.
 HarFok:  IExCor=  402 AccDes= 0.00D+00 IRadAn=         5 IDoV= 1 UseB2=F ITyADJ=14
 ICtDFT=  3500011 ScaDFX=  1.000000  1.000000  1.000000  1.000000
 FoFCou: FMM=F IPFlag=           0 FMFlag=      100000 FMFlg1=           0
         NFxFlg=           0 DoJE=T BraDBF=F KetDBF=T FulRan=T
         wScrn=  0.000000 ICntrl=       500 IOpCl=  0 I1Cent=   200000004 NGrid=           0
         NMat0=    1 NMatS0=      1 NMatT0=    0 NMatD0=    1 NMtDS0=    0 NMtDT0=    0
 Petite list used in FoFCou.
 Requested convergence on RMS density matrix=1.00D-08 within 128 cycles.
 Requested convergence on MAX density matrix=1.00D-06.
 Requested convergence on             energy=1.00D-06.
 No special actions if energy rises.
 SCF Done:  E(RB3LYP) =  -1654.52445088     A.U. after   14 cycles
            NFock= 14  Conv=0.51D-08     -V/T= 2.0029
 Calling FoFJK, ICntrl=      2127 FMM=F ISym2X=0 I1Cent= 0 IOpClX= 0 NMat=1 NMatS=1 NMatT=0.
 ***** Axes restored to original set *****
 -------------------------------------------------------------------
 Center     Atomic                   Forces (Hartrees/Bohr)
 Number     Number              X              Y              Z
 -------------------------------------------------------------------
      1        6          -0.033166259    0.025034956   -0.020093915
      2        6           0.003125585    0.022592497   -0.014579528
      3        6          -0.033275913    0.022752206    0.003866092
      4        6          -0.008880687    0.040848842   -0.005608167
      5       16           0.000307218    0.017015803    0.000622579
      6        1           0.002093435   -0.003042209   -0.001218794
      7        6           0.026819436   -0.000673804   -0.039839912
      8       16          -0.009348554    0.009285911   -0.002194440
      9        6          -0.000810922   -0.016838135   -0.021692047
     10        6          -0.011903452   -0.005828491    0.026904379
     11        6          -0.009283118    0.004796619    0.038458546
     12        1          -0.003575450    0.004815217    0.000338347
     13       16           0.013807114    0.002897272    0.002716514
     14        6          -0.018542415    0.012462834    0.036937466
     15        6           0.007528004   -0.018414902   -0.034808941
     16        1           0.001209965    0.004234619   -0.005082200
     17        1           0.003846782    0.006824330   -0.002590868
     18        1           0.011292886   -0.054928913    0.015810766
     19        8           0.031263454    0.030060636   -0.008233912
     20        1           0.027492889   -0.103895287    0.030288034
 -------------------------------------------------------------------
 Cartesian Forces:  Max     0.103895287 RMS     0.023788260

 GradGradGradGradGradGradGradGradGradGradGradGradGradGradGradGradGradGrad
 Berny optimization.
 Using GEDIIS/GDIIS optimizer.
 FormGI is forming the generalized inverse of G from B-inverse, IUseBI=4.
 Internal  Forces:  Max     0.108691400 RMS     0.018869688
 Search for a local minimum.
 Step number   2 out of a maximum of  116
 All quantities printed in internal units (Hartrees-Bohrs-Radians)
 Mixed Optimization -- RFO/linear search
 Update second derivatives using D2CorX and points    1    2
 DE= -6.51D-02 DEPred=-6.00D-02 R= 1.08D+00
 TightC=F SS=  1.41D+00  RLast= 3.08D-01 DXNew= 5.0454D-01 9.2370D-01
 Trust test= 1.08D+00 RLast= 3.08D-01 DXMaxT set to 5.05D-01
 ITU=  1  0
 Use linear search instead of GDIIS.
 Linear search step of   0.600 exceeds DXMaxT=   0.505 but not scaled.
 Quartic linear search produced a step of  2.00000.
 Iteration  1 RMS(Cart)=  0.10603976 RMS(Int)=  0.01893936
 Iteration  2 RMS(Cart)=  0.02191841 RMS(Int)=  0.00043407
 Iteration  3 RMS(Cart)=  0.00006563 RMS(Int)=  0.00043269
 Iteration  4 RMS(Cart)=  0.00000001 RMS(Int)=  0.00043269
 Iteration  1 RMS(Cart)=  0.00001023 RMS(Int)=  0.00000421
 Iteration  2 RMS(Cart)=  0.00000557 RMS(Int)=  0.00000470
 Iteration  3 RMS(Cart)=  0.00000304 RMS(Int)=  0.00000531
 Iteration  4 RMS(Cart)=  0.00000165 RMS(Int)=  0.00000571
 Iteration  5 RMS(Cart)=  0.00000090 RMS(Int)=  0.00000595
 Variable       Old X    -DE/DX   Delta X   Delta X   Delta X     New X
                                 (Linear)    (Quad)   (Total)
    R1        2.69930  -0.01116  -0.03975   0.00000  -0.03927   2.66002
    R2        2.65751  -0.04215  -0.11282   0.00000  -0.11256   2.54494
    R3        3.04990  -0.09307  -0.29027   0.00000  -0.29027   2.75963
    R4        2.69418  -0.04639  -0.12978   0.00000  -0.12963   2.56454
    R5        2.25436  -0.05615  -0.19256   0.00000  -0.19256   2.06180
    R6        3.37597  -0.01282  -0.03963   0.00000  -0.04002   3.33595
    R7        2.74495  -0.00025  -0.00917   0.00000  -0.00917   2.73578
    R8        3.27000  -0.00807  -0.03341   0.00000  -0.03372   3.23628
    R9        2.04014  -0.00072  -0.00118   0.00000  -0.00118   2.03896
   R10        3.37108  -0.00727  -0.02285   0.00000  -0.02318   3.34791
   R11        2.70534  -0.04556  -0.12229   0.00000  -0.12244   2.58290
   R12        3.26817   0.00166  -0.00032   0.00000  -0.00029   3.26787
   R13        2.69579  -0.02158  -0.05677   0.00000  -0.05610   2.63969
   R14        2.69292  -0.00017  -0.00523   0.00000  -0.00491   2.68801
   R15        2.69561  -0.00595  -0.02314   0.00000  -0.02293   2.67268
   R16        3.27618   0.00305   0.00525   0.00000   0.00517   3.28135
   R17        2.04133   0.00078   0.00196   0.00000   0.00196   2.04329
   R18        3.32329  -0.00848  -0.02739   0.00000  -0.02779   3.29550
   R19        2.67644  -0.04037  -0.10657   0.00000  -0.10667   2.56977
   R20        2.04164  -0.00076  -0.00244   0.00000  -0.00244   2.03920
   R21        2.04975  -0.00238  -0.00767   0.00000  -0.00767   2.04207
   R22        2.23820  -0.10869  -0.32247   0.00000  -0.32247   1.91573
    A1        1.99309   0.01097   0.04578   0.00000   0.04645   2.03954
    A2        2.14076   0.00657   0.01633   0.00000   0.01604   2.15680
    A3        2.13139  -0.01694  -0.05880   0.00000  -0.05937   2.07202
    A4        1.96761  -0.00093  -0.00853   0.00000  -0.00790   1.95970
    A5        1.99727   0.01759   0.06786   0.00000   0.06755   2.06482
    A6        2.31378  -0.01650  -0.05821   0.00000  -0.05859   2.25519
    A7        1.90363   0.00115  -0.00154   0.00000  -0.00169   1.90194
    A8        2.30984  -0.00680  -0.01815   0.00000  -0.01808   2.29175
    A9        2.06959   0.00566   0.01975   0.00000   0.01982   2.08941
   A10        1.93346  -0.00824  -0.03986   0.00000  -0.03987   1.89359
   A11        2.19278   0.00778   0.03396   0.00000   0.03394   2.22672
   A12        2.15686   0.00048   0.00603   0.00000   0.00601   2.16287
   A13        1.62699  -0.00295   0.00418   0.00000   0.00301   1.63000
   A14        2.12538  -0.00304  -0.00717   0.00000  -0.00719   2.11819
   A15        2.23585  -0.00262  -0.00902   0.00000  -0.00904   2.22681
   A16        1.92141   0.00572   0.01651   0.00000   0.01649   1.93790
   A17        1.61331  -0.00493  -0.01191   0.00000  -0.01180   1.60151
   A18        1.94994  -0.00742  -0.02361   0.00000  -0.02428   1.92566
   A19        2.25375   0.00706   0.02963   0.00000   0.02863   2.28237
   A20        1.97166   0.00374   0.01412   0.00000   0.01433   1.98598
   A21        1.97423   0.00467   0.01761   0.00000   0.01775   1.99197
   A22        1.95228  -0.00869  -0.02921   0.00000  -0.02959   1.92269
   A23        2.25231   0.00708   0.02918   0.00000   0.02823   2.28053
   A24        1.96523   0.00199   0.00161   0.00000   0.00199   1.96722
   A25        2.15412  -0.00412  -0.01409   0.00000  -0.01447   2.13965
   A26        2.15377   0.00263   0.01575   0.00000   0.01539   2.16916
   A27        1.59472  -0.00073   0.00325   0.00000   0.00321   1.59793
   A28        1.96133   0.00228   0.00301   0.00000   0.00284   1.96417
   A29        2.12930  -0.00486  -0.01289   0.00000  -0.01328   2.11602
   A30        2.17805   0.00350   0.01581   0.00000   0.01553   2.19358
   A31        1.94446   0.00340   0.00881   0.00000   0.00920   1.95365
   A32        2.16836  -0.00004   0.00678   0.00000   0.00603   2.17438
   A33        2.13903  -0.00179  -0.00523   0.00000  -0.00603   2.13300
   A34        2.23176  -0.05713  -0.21554   0.00000  -0.21554   2.01622
    D1        0.00444  -0.00056  -0.00478   0.00000  -0.00489  -0.00045
    D2        3.05696   0.00001   0.00212   0.00000   0.00300   3.05996
    D3       -2.93841  -0.00188  -0.01546   0.00000  -0.01669  -2.95510
    D4        0.11410  -0.00131  -0.00856   0.00000  -0.00880   0.10531
    D5       -0.00345   0.00086   0.00651   0.00000   0.00657   0.00312
    D6       -3.13141  -0.00064  -0.00243   0.00000  -0.00227  -3.13368
    D7        2.94059   0.00515   0.02724   0.00000   0.02663   2.96722
    D8       -0.18737   0.00365   0.01829   0.00000   0.01779  -0.16958
    D9       -0.13146   0.00114   0.00353   0.00000   0.00320  -0.12827
   D10       -3.05878  -0.00368  -0.02120   0.00000  -0.02087  -3.07965
   D11       -0.00329   0.00007   0.00119   0.00000   0.00090  -0.00239
   D12        3.12016   0.00116   0.00509   0.00000   0.00478   3.12494
   D13       -3.03468  -0.00321  -0.01729   0.00000  -0.01702  -3.05169
   D14        0.08877  -0.00212  -0.01339   0.00000  -0.01313   0.07564
   D15        0.00116   0.00038   0.00220   0.00000   0.00240   0.00356
   D16       -3.12516  -0.00040  -0.00062   0.00000  -0.00054  -3.12570
   D17        1.74562  -0.00112  -0.00000   0.00000  -0.00000   1.74562
   D18       -1.43524   0.00116   0.01128   0.00000   0.01129  -1.42395
   D19       -1.41550   0.00001   0.00395   0.00000   0.00400  -1.41150
   D20        1.68682   0.00229   0.01523   0.00000   0.01529   1.70211
   D21        0.00126  -0.00070  -0.00499   0.00000  -0.00499  -0.00372
   D22        3.12956   0.00083   0.00409   0.00000   0.00374   3.13329
   D23        3.13917   0.00067   0.00279   0.00000   0.00278  -3.14123
   D24        0.03048  -0.00111  -0.00617   0.00000  -0.00637   0.02411
   D25        3.14114  -0.00135  -0.00671   0.00000  -0.00654   3.13460
   D26       -0.14807   0.00260   0.01782   0.00000   0.01773  -0.13035
   D27       -0.03600   0.00058   0.00308   0.00000   0.00341  -0.03259
   D28        2.95797   0.00452   0.02761   0.00000   0.02768   2.98565
   D29       -0.01740   0.00161   0.00860   0.00000   0.00837  -0.00903
   D30       -2.63460  -0.00632  -0.03699   0.00000  -0.03715  -2.67175
   D31       -0.00031  -0.00129  -0.00762   0.00000  -0.00742  -0.00773
   D32       -2.71253  -0.00910  -0.04879   0.00000  -0.04738  -2.75992
   D33        2.70582   0.00702   0.03770   0.00000   0.03677   2.74259
   D34       -0.00641  -0.00079  -0.00348   0.00000  -0.00319  -0.00959
   D35        2.63320   0.00591   0.03953   0.00000   0.04053   2.67373
   D36       -0.24700  -0.00030  -0.00018   0.00000   0.00030  -0.24669
   D37        0.02120   0.00055   0.00289   0.00000   0.00271   0.02391
   D38       -2.85900  -0.00566  -0.03681   0.00000  -0.03752  -2.89652
   D39        0.02401   0.00049   0.00287   0.00000   0.00270   0.02672
   D40       -2.96999  -0.00280  -0.01851   0.00000  -0.01910  -2.98909
   D41        2.64489   0.00497   0.03337   0.00000   0.03433   2.67922
   D42       -0.34911   0.00169   0.01200   0.00000   0.01253  -0.33658
   D43       -0.00751   0.00082   0.00288   0.00000   0.00273  -0.00478
   D44       -2.63356  -0.00671  -0.03871   0.00000  -0.03847  -2.67203
   D45        0.01976  -0.00043  -0.00104   0.00000  -0.00108   0.01868
   D46        2.98729   0.00545   0.03450   0.00000   0.03396   3.02124
   D47       -0.02671   0.00009  -0.00063   0.00000  -0.00044  -0.02715
   D48        2.85860   0.00646   0.04052   0.00000   0.04072   2.89932
   D49       -2.98849  -0.00500  -0.03357   0.00000  -0.03386  -3.02234
   D50       -0.10317   0.00137   0.00757   0.00000   0.00730  -0.09587
         Item               Value     Threshold  Converged?
 Maximum Force            0.108691     0.000450     NO 
 RMS     Force            0.018959     0.000300     NO 
 Maximum Displacement     0.753256     0.001800     NO 
 RMS     Displacement     0.118003     0.001200     NO 
 Predicted change in Energy=-9.580007D-02
 GradGradGradGradGradGradGradGradGradGradGradGradGradGradGradGradGradGrad

                          Input orientation:                          
 ---------------------------------------------------------------------
 Center     Atomic      Atomic             Coordinates (Angstroms)
 Number     Number       Type             X           Y           Z
 ---------------------------------------------------------------------
      1          6           0       -4.181600   -1.352214   -0.269373
      2          6           0       -2.878901   -0.991809   -0.662421
      3          6           0       -2.024485   -2.045936   -0.640032
      4          6           0       -4.382938   -2.642707    0.058894
      5         16           0       -2.901167   -3.484211   -0.111724
      6          1           0       -5.305125   -3.105170    0.374939
      7          6           0       -0.620012   -2.145011   -0.976952
      8         16           0        0.631478   -2.142051    0.277026
      9          6           0        1.888584   -2.281633   -0.902223
     10          6           0        1.344345   -2.338042   -2.187464
     11          6           0       -0.068384   -2.279545   -2.220247
     12          1           0       -0.664408   -2.445129   -3.107076
     13         16           0        2.472042   -3.074900   -3.283129
     14          6           0        3.645224   -3.284123   -2.009920
     15          6           0        3.193905   -2.838748   -0.806932
     16          1           0        4.557348   -3.836700   -2.174665
     17          1           0        3.689475   -3.084902    0.121267
     18          1           0       -2.706369    0.028727   -1.007594
     19          8           0       -5.340939   -0.476515   -0.416538
     20          1           0       -5.138075    0.469620   -0.718836
 ---------------------------------------------------------------------
                    Distance matrix (angstroms):
                    1          2          3          4          5
     1  C    0.000000
     2  C    1.407624   0.000000
     3  C    2.296037   1.357097   0.000000
     4  C    1.346725   2.346889   2.531193   0.000000
     5  S    2.491941   2.552612   1.765309   1.712566   0.000000
     6  H    2.179518   3.380677   3.593708   1.078974   2.481839
     7  C    3.716733   2.555657   1.447714   3.934500   2.783118
     8  S    4.907964   3.811610   2.811471   5.044066   3.798961
     9  C    6.173448   4.944700   3.928919   6.355006   5.001280
    10  C    5.931864   4.687633   3.718721   6.159604   4.862795
    11  C    4.645901   3.461804   2.525466   4.893030   3.731186
    12  H    4.649480   3.604505   2.845254   4.887727   3.880067
    13  S    7.504754   6.311891   5.316341   7.638499   6.252738
    14  C    8.247482   7.045187   5.962827   8.315215   6.818976
    15  C    7.542998   6.349097   5.280908   7.628672   6.168455
    16  H    9.282889   8.104202   6.991599   9.292100   7.746575
    17  H    8.068992   6.938210   5.857334   8.084756   6.606837
    18  H    2.151343   1.091057   2.214565   3.329391   3.630601
    19  O    1.460333   2.527374   3.675854   2.415821   3.884795
    20  H    2.106167   2.691250   4.003583   3.295706   4.583134
                    6          7          8          9         10
     6  H    0.000000
     7  C    4.969889   0.000000
     8  S    6.015018   1.771636   0.000000
     9  C    7.352469   2.513424   1.729285   0.000000
    10  C    7.167276   2.315448   2.572995   1.396861   0.000000
    11  C    5.902550   1.366812   2.597130   2.359431   1.414320
    12  H    5.839206   2.151621   3.636389   3.377259   2.211842
    13  S    8.594574   3.967864   4.114923   2.576511   1.736417
    14  C    9.264358   4.533965   3.951850   2.306028   2.494120
    15  C    8.584946   3.880224   2.868167   1.422434   2.361661
    16  H   10.212932   5.576862   4.929004   3.340605   3.545353
    17  H    8.998199   4.545455   3.203838   2.221707   3.374563
    18  H    4.299563   3.013132   4.183748   5.144168   4.837559
    19  O    2.745460   5.038363   6.238975   7.467285   7.162017
    20  H    3.742108   5.226453   6.410951   7.548308   7.215373
                   11         12         13         14         15
    11  C    0.000000
    12  H    1.081263   0.000000
    13  S    2.866370   3.203893   0.000000
    14  C    3.852831   4.525550   1.743901   0.000000
    15  C    3.598985   4.509122   2.590059   1.359863   0.000000
    16  H    4.881005   5.483850   2.481438   1.079098   2.173840
    17  H    4.500311   5.457821   3.615544   2.140936   1.080618
    18  H    3.709125   3.833717   6.451861   7.233420   6.563224
    19  O    5.856972   5.743203   8.718465   9.548438   8.864317
    20  H    5.959354   5.849200   8.777990   9.638663   8.965207
                   16         17         18         19         20
    16  H    0.000000
    17  H    2.567042   0.000000
    18  H    8.310546   7.202488   0.000000
    19  O   10.599903   9.414951   2.746921   0.000000
    20  H   10.708177   9.553326   2.488164   1.013760   0.000000
 Stoichiometry    C10H6OS3
 Framework group  C1[X(C10H6OS3)]
 Deg. of freedom    54
 Full point group                 C1      NOp   1
 Largest Abelian subgroup         C1      NOp   1
 Largest concise Abelian subgroup C1      NOp   1
                         Standard orientation:                         
 ---------------------------------------------------------------------
 Center     Atomic      Atomic             Coordinates (Angstroms)
 Number     Number       Type             X           Y           Z
 ---------------------------------------------------------------------
      1          6           0        3.795295    0.277235   -0.364119
      2          6           0        2.510474    0.428606   -0.918851
      3          6           0        1.532263    0.025578   -0.068920
      4          6           0        3.864057   -0.226242    0.883058
      5         16           0        2.272404   -0.545726    1.428451
      6          1           0        4.749995   -0.407193    1.471747
      7          6           0        0.091053    0.017203   -0.205736
      8         16           0       -0.786337   -1.462371   -0.629696
      9          6           0       -2.305972   -0.638429   -0.582190
     10          6           0       -2.119971    0.703720   -0.242688
[...]
 Full point group                 C1      NOp   1
 Largest Abelian subgroup         C1      NOp   1
 Largest concise Abelian subgroup C1      NOp   1
                         Standard orientation:                         
 ---------------------------------------------------------------------
 Center     Atomic      Atomic             Coordinates (Angstroms)
 Number     Number       Type             X           Y           Z
 ---------------------------------------------------------------------
      1          6           0        3.784396    0.532169   -0.431428
      2          6           0        2.406884    0.724275   -0.749875
      3          6           0        1.561244    0.039575    0.085208
      4          6           0        3.979640   -0.304137    0.631972
      5         16           0        2.471462   -0.867726    1.269900
      6          1           0        4.918331   -0.607422    1.067255
      7          6           0        0.099621   -0.009177    0.040065
      8         16           0       -0.726788   -1.396191   -0.687797
      9          6           0       -2.280152   -0.665523   -0.397111
     10          6           0       -2.134004    0.573290    0.214207
     11          6           0       -0.785555    0.947370    0.463502
     12          1           0       -0.467976    1.866097    0.936996
     13         16           0       -3.690264    1.303366    0.507129
     14          6           0       -4.496182   -0.076976   -0.201673
     15          6           0       -3.633462   -1.041263   -0.636106
     16          1           0       -5.574355   -0.085117   -0.251465
     17          1           0       -3.951569   -1.964583   -1.099746
     18          1           0        2.050193    1.338075   -1.568051
     19          8           0        4.830548    1.107571   -1.100013
     20          1           0        4.495862    1.643582   -1.825172
 ---------------------------------------------------------------------
 Rotational constants (GHZ):           1.4688235           0.2265255           0.2178455

 **********************************************************************

            Population analysis using the SCF Density.

 **********************************************************************

 Orbital symmetries:
       Occupied  (A) (A) (A) (A) (A) (A) (A) (A) (A) (A) (A) (A)
                 (A) (A) (A) (A) (A) (A) (A) (A) (A) (A) (A) (A)
                 (A) (A) (A) (A) (A) (A) (A) (A) (A) (A) (A) (A)
                 (A) (A) (A) (A) (A) (A) (A) (A) (A) (A) (A) (A)
                 (A) (A) (A) (A) (A) (A) (A) (A) (A) (A) (A) (A)
                 (A)
       Virtual   (A) (A) (A) (A) (A) (A) (A) (A) (A) (A) (A) (A)
                 (A) (A) (A) (A) (A) (A) (A) (A) (A) (A) (A) (A)
                 (A) (A) (A) (A) (A) (A) (A) (A) (A) (A) (A) (A)
                 (A) (A) (A) (A) (A) (A) (A) (A) (A) (A) (A) (A)
                 (A) (A) (A) (A) (A) (A) (A) (A) (A) (A) (A) (A)
                 (A) (A) (A) (A) (A) (A) (A) (A) (A) (A) (A) (A)
                 (A) (A) (A) (A) (A) (A) (A) (A) (A) (A) (A) (A)
                 (A) (A) (A) (A) (A) (A) (A) (A) (A) (A) (A) (A)
                 (A) (A) (A) (A) (A) (A) (A) (A) (A) (A) (A) (A)
                 (A) (A) (A) (A) (A) (A) (A) (A) (A) (A) (A) (A)
                 (A) (A) (A) (A) (A) (A) (A) (A) (A) (A) (A) (A)
                 (A) (A) (A) (A) (A) (A) (A) (A) (A) (A) (A) (A)
                 (A) (A) (A) (A) (A) (A) (A) (A) (A) (A) (A) (A)
                 (A) (A) (A) (A) (A) (A) (A) (A) (A) (A) (A) (A)
                 (A) (A) (A) (A) (A) (A) (A) (A) (A) (A) (A) (A)
                 (A) (A) (A) (A) (A) (A) (A) (A) (A) (A) (A) (A)
                 (A) (A) (A) (A) (A) (A) (A) (A) (A) (A) (A) (A)
                 (A) (A) (A) (A) (A) (A) (A) (A) (A) (A) (A) (A)
                 (A) (A) (A) (A) (A) (A) (A) (A) (A) (A) (A) (A)
                 (A) (A) (A) (A) (A) (A) (A) (A) (A) (A) (A) (A)
                 (A) (A) (A) (A) (A) (A) (A) (A) (A) (A) (A) (A)
                 (A) (A) (A) (A) (A) (A) (A) (A) (A) (A) (A) (A)
                 (A) (A) (A) (A) (A) (A) (A) (A) (A) (A) (A) (A)
                 (A) (A) (A) (A) (A) (A) (A) (A) (A) (A) (A) (A)
                 (A) (A) (A) (A) (A) (A) (A) (A) (A) (A) (A) (A)
                 (A) (A) (A) (A) (A) (A)
 The electronic state is 1-A.
 Alpha  occ. eigenvalues --  -88.88732 -88.88613 -88.88443 -19.16513 -10.24547
 Alpha  occ. eigenvalues --  -10.22601 -10.22471 -10.21471 -10.21390 -10.21353
 Alpha  occ. eigenvalues --  -10.19769 -10.19714 -10.19619 -10.19202  -7.97306
 Alpha  occ. eigenvalues --   -7.97180  -7.97030  -5.93618  -5.93496  -5.93329
 Alpha  occ. eigenvalues --   -5.93253  -5.93133  -5.92954  -5.92855  -5.92715
 Alpha  occ. eigenvalues --   -5.92613  -1.07490  -0.91966  -0.89355  -0.85209
 Alpha  occ. eigenvalues --   -0.77534  -0.76168  -0.74356  -0.71741  -0.70616
 Alpha  occ. eigenvalues --   -0.63037  -0.58729  -0.57786  -0.55275  -0.54285
 Alpha  occ. eigenvalues --   -0.54198  -0.50092  -0.48486  -0.43995  -0.43666
 Alpha  occ. eigenvalues --   -0.43342  -0.42042  -0.41731  -0.40194  -0.39750
 Alpha  occ. eigenvalues --   -0.37942  -0.37452  -0.36215  -0.35280  -0.34536
 Alpha  occ. eigenvalues --   -0.34002  -0.29364  -0.26092  -0.24130  -0.23397
 Alpha  occ. eigenvalues --   -0.22433
 Alpha virt. eigenvalues --   -0.05043  -0.03618  -0.01541  -0.00692  -0.00352
 Alpha virt. eigenvalues --    0.00009   0.00757   0.01572   0.01754   0.02278
 Alpha virt. eigenvalues --    0.02975   0.03211   0.04071   0.04132   0.04371
 Alpha virt. eigenvalues --    0.04597   0.05326   0.05716   0.06025   0.07074
 Alpha virt. eigenvalues --    0.07658   0.08036   0.08325   0.08638   0.09377
 Alpha virt. eigenvalues --    0.09660   0.10020   0.10247   0.11312   0.11462
 Alpha virt. eigenvalues --    0.11754   0.11943   0.12966   0.13045   0.13102
 Alpha virt. eigenvalues --    0.13876   0.14398   0.14855   0.15162   0.15741
 Alpha virt. eigenvalues --    0.16205   0.16539   0.16627   0.16817   0.17398
 Alpha virt. eigenvalues --    0.17775   0.18076   0.18992   0.19157   0.19454
 Alpha virt. eigenvalues --    0.19888   0.20449   0.20765   0.21156   0.21681
 Alpha virt. eigenvalues --    0.21847   0.21993   0.22424   0.22839   0.23269
 Alpha virt. eigenvalues --    0.23709   0.24853   0.25004   0.25339   0.25787
 Alpha virt. eigenvalues --    0.26608   0.27265   0.27534   0.27825   0.28535
 Alpha virt. eigenvalues --    0.29342   0.30843   0.31252   0.31963   0.32996
 Alpha virt. eigenvalues --    0.33319   0.33687   0.34520   0.34693   0.35846
 Alpha virt. eigenvalues --    0.36549   0.37300   0.38123   0.39289   0.40460
 Alpha virt. eigenvalues --    0.42252   0.43133   0.43879   0.45661   0.46469
 Alpha virt. eigenvalues --    0.47637   0.49243   0.51246   0.53099   0.53317
 Alpha virt. eigenvalues --    0.54446   0.55650   0.55970   0.56755   0.57417
 Alpha virt. eigenvalues --    0.58172   0.58609   0.59869   0.60240   0.61753
 Alpha virt. eigenvalues --    0.62163   0.62652   0.64148   0.64340   0.65417
 Alpha virt. eigenvalues --    0.66820   0.68608   0.69949   0.70586   0.71040
 Alpha virt. eigenvalues --    0.71616   0.72282   0.72819   0.73941   0.74975
 Alpha virt. eigenvalues --    0.76264   0.77261   0.78075   0.78706   0.79602
 Alpha virt. eigenvalues --    0.80377   0.81059   0.82116   0.82315   0.82988
 Alpha virt. eigenvalues --    0.83329   0.84425   0.85040   0.85526   0.86881
 Alpha virt. eigenvalues --    0.87975   0.89202   0.89438   0.91025   0.93258
 Alpha virt. eigenvalues --    0.93322   0.94973   0.95887   0.96825   0.98156
 Alpha virt. eigenvalues --    0.99057   1.00845   1.03260   1.03553   1.04389
 Alpha virt. eigenvalues --    1.04816   1.05983   1.06442   1.07249   1.08262
 Alpha virt. eigenvalues --    1.10113   1.11749   1.13574   1.15273   1.17516
 Alpha virt. eigenvalues --    1.18510   1.20404   1.21924   1.22689   1.27971
 Alpha virt. eigenvalues --    1.33794   1.34794   1.36152   1.38161   1.41214
 Alpha virt. eigenvalues --    1.42601   1.48227   1.50510   1.53143   1.53624
 Alpha virt. eigenvalues --    1.55367   1.57105   1.58449   1.58775   1.59588
 Alpha virt. eigenvalues --    1.60822   1.61206   1.63632   1.64445   1.67410
 Alpha virt. eigenvalues --    1.69380   1.70230   1.72653   1.73274   1.74171
 Alpha virt. eigenvalues --    1.75866   1.76995   1.78136   1.80591   1.82335
 Alpha virt. eigenvalues --    1.85069   1.86163   1.87650   1.87869   1.89511
 Alpha virt. eigenvalues --    1.92903   1.93991   1.96259   1.96927   1.97462
 Alpha virt. eigenvalues --    1.98625   2.00967   2.02245   2.03005   2.03598
 Alpha virt. eigenvalues --    2.05262   2.06051   2.08151   2.08278   2.09399
 Alpha virt. eigenvalues --    2.10713   2.11870   2.13938   2.17139   2.17749
 Alpha virt. eigenvalues --    2.18867   2.21665   2.27430   2.32428   2.33509
 Alpha virt. eigenvalues --    2.39188   2.40908   2.43489   2.51724   2.52326
 Alpha virt. eigenvalues --    2.56773   2.58976   2.62303   2.67454   2.68322
 Alpha virt. eigenvalues --    2.69837   2.70009   2.71868   2.72460   2.72994
 Alpha virt. eigenvalues --    2.74157   2.79704   2.81210   2.82688   2.86326
 Alpha virt. eigenvalues --    2.87979   2.91388   2.93836   2.94718   2.97396
 Alpha virt. eigenvalues --    3.01378   3.05128   3.08030   3.11029   3.12211
 Alpha virt. eigenvalues --    3.16199   3.16983   3.20423   3.25522   3.28780
 Alpha virt. eigenvalues --    3.30434   3.32006   3.34493   3.43267   3.45483
 Alpha virt. eigenvalues --    3.47009   3.55891   3.61883   3.64710   3.86783
 Alpha virt. eigenvalues --    3.87578   3.96675   4.08549   4.11601   4.20097
 Alpha virt. eigenvalues --    4.35383   4.49002   4.99703   5.41861   5.73794
 Alpha virt. eigenvalues --    7.96965   7.98304   7.99201  17.27903  17.30018
 Alpha virt. eigenvalues --   17.30511  17.44991  17.46855  17.50091  17.50673
 Alpha virt. eigenvalues --   17.53271  17.56176  23.47256  23.62711  23.76027
 Alpha virt. eigenvalues --   23.80544  23.85403  24.01624  24.08597  24.10763
 Alpha virt. eigenvalues --   24.13615  24.14967  49.93020 189.13228 189.15193
 Alpha virt. eigenvalues --  189.16247
          Condensed to atoms (all electrons):
               1          2          3          4          5          6
     1  C    7.309568  -1.635677   0.126744  -0.680385   0.866939   0.044433
     2  C   -1.635677  11.306979  -1.329083   0.946564  -2.014923  -0.038186
     3  C    0.126744  -1.329083   8.182043  -0.620219   0.423678   0.026338
     4  C   -0.680385   0.946564  -0.620219   6.777290  -0.555189   0.348311
     5  S    0.866939  -2.014923   0.423678  -0.555189  16.788859  -0.013522
     6  H    0.044433  -0.038186   0.026338   0.348311  -0.013522   0.478996
     7  C    0.207001  -0.871274   0.638861  -0.267893   0.212728   0.001233
     8  S   -0.085149   0.452245   0.481719   0.099179  -0.042395  -0.000323
     9  C    0.075405  -0.412497  -0.987964  -0.045740   0.150635  -0.000085
    10  C    0.005261   0.292317   1.057695   0.030751  -0.002809  -0.000258
    11  C    0.202702  -1.020965  -2.158110  -0.155999   0.344020  -0.000825
    12  H    0.001784   0.017392   0.034161   0.002521  -0.006722  -0.000001
    13  S   -0.000497  -0.023006   0.011663   0.000422   0.000636  -0.000001
    14  C    0.001143   0.001123  -0.002655  -0.000165   0.002385  -0.000001
    15  C    0.009746  -0.110184  -0.072240  -0.003350   0.006469  -0.000001
    16  H   -0.000001  -0.000005  -0.000113  -0.000000   0.000002   0.000000
    17  H    0.000001  -0.000146  -0.000540  -0.000002   0.000055   0.000000
    18  H   -0.084060   0.341067   0.086349  -0.050834   0.015442  -0.000039
    19  O    0.220633   0.027533  -0.007325  -0.229778   0.010944  -0.006295
    20  H    0.017037  -0.085236  -0.006426   0.090747  -0.009082   0.000216
               7          8          9         10         11         12
     1  C    0.207001  -0.085149   0.075405   0.005261   0.202702   0.001784
     2  C   -0.871274   0.452245  -0.412497   0.292317  -1.020965   0.017392
     3  C    0.638861   0.481719  -0.987964   1.057695  -2.158110   0.034161
     4  C   -0.267893   0.099179  -0.045740   0.030751  -0.155999   0.002521
     5  S    0.212728  -0.042395   0.150635  -0.002809   0.344020  -0.006722
     6  H    0.001233  -0.000323  -0.000085  -0.000258  -0.000825  -0.000001
     7  C    9.968462   1.373182  -1.044560   2.596988  -4.250030   0.045789
     8  S    1.373182  18.266065  -0.282259   2.266987  -4.493088   0.018594
     9  C   -1.044560  -0.282259  18.017731  -4.430023   1.149381  -0.080247
    10  C    2.596988   2.266987  -4.430023  17.318934  -9.886588   0.072752
    11  C   -4.250030  -4.493088   1.149381  -9.886588  21.988471   0.232405
    12  H    0.045789   0.018594  -0.080247   0.072752   0.232405   0.519630
    13  S   -0.605847   0.207923   0.281057  -0.503498  -0.496221   0.011631
    14  C    0.099740   0.261319   1.466764  -0.214036  -0.779242   0.001108
    15  C   -1.927748  -2.041184  -8.025575  -2.138995   4.640007  -0.006725
    16  H    0.002937  -0.002494  -0.007045   0.024410   0.010154  -0.000006
    17  H   -0.006426   0.021371   0.032035  -0.064584  -0.008246   0.000007
    18  H    0.025808  -0.001240  -0.003973   0.005397   0.013763  -0.000110
    19  O    0.000621   0.000433  -0.000333   0.000222  -0.002075  -0.000004
    20  H   -0.000327   0.000304  -0.000194  -0.000150   0.000603  -0.000001
              13         14         15         16         17         18
     1  C   -0.000497   0.001143   0.009746  -0.000001   0.000001  -0.084060
     2  C   -0.023006   0.001123  -0.110184  -0.000005  -0.000146   0.341067
     3  C    0.011663  -0.002655  -0.072240  -0.000113  -0.000540   0.086349
     4  C    0.000422  -0.000165  -0.003350  -0.000000  -0.000002  -0.050834
     5  S    0.000636   0.002385   0.006469   0.000002   0.000055   0.015442
     6  H   -0.000001  -0.000001  -0.000001   0.000000   0.000000  -0.000039
     7  C   -0.605847   0.099740  -1.927748   0.002937  -0.006426   0.025808
     8  S    0.207923   0.261319  -2.041184  -0.002494   0.021371  -0.001240
     9  C    0.281057   1.466764  -8.025575  -0.007045   0.032035  -0.003973
    10  C   -0.503498  -0.214036  -2.138995   0.024410  -0.064584   0.005397
    11  C   -0.496221  -0.779242   4.640007   0.010154  -0.008246   0.013763
    12  H    0.011631   0.001108  -0.006725  -0.000006   0.000007  -0.000110
    13  S   17.232819   0.456212  -0.167513  -0.043122   0.013114   0.000090
    14  C    0.456212   5.781258  -1.266461   0.372920   0.032028   0.000058
    15  C   -0.167513  -1.266461  16.369616   0.002221   0.330932  -0.001420
    16  H   -0.043122   0.372920   0.002221   0.476643  -0.004959  -0.000000
    17  H    0.013114   0.032028   0.330932  -0.004959   0.518842   0.000000
    18  H    0.000090   0.000058  -0.001420  -0.000000   0.000000   0.536555
    19  O   -0.000022   0.000003  -0.000096   0.000000   0.000000  -0.004660
    20  H   -0.000004   0.000000  -0.000013  -0.000000  -0.000000   0.002504
              19         20
     1  C    0.220633   0.017037
     2  C    0.027533  -0.085236
     3  C   -0.007325  -0.006426
     4  C   -0.229778   0.090747
     5  S    0.010944  -0.009082
     6  H   -0.006295   0.000216
     7  C    0.000621  -0.000327
     8  S    0.000433   0.000304
     9  C   -0.000333  -0.000194
    10  C    0.000222  -0.000150
    11  C   -0.002075   0.000603
    12  H   -0.000004  -0.000001
    13  S   -0.000022  -0.000004
    14  C    0.000003   0.000000
    15  C   -0.000096  -0.000013
    16  H    0.000000  -0.000000
    17  H    0.000000  -0.000000
    18  H   -0.004660   0.002504
    19  O    8.020386   0.248246
    20  H    0.248246   0.487394
 Mulliken charges:
               1
     1  C   -0.602627
     2  C    0.155962
     3  C    0.115423
     4  C    0.313771
     5  S   -0.178150
     6  H    0.160009
     7  C   -0.199245
     8  S   -0.501189
     9  C    0.147486
    10  C   -0.430772
    11  C    0.669883
    12  H    0.136042
    13  S   -0.375837
    14  C   -0.213500
    15  C    0.402514
    16  H    0.168460
    17  H    0.136518
    18  H    0.119303
    19  O   -0.278434
    20  H    0.254382
 Sum of Mulliken charges =  -0.00000
 Mulliken charges with hydrogens summed into heavy atoms:
               1
     1  C   -0.602627
     2  C    0.275265
     3  C    0.115423
     4  C    0.473780
     5  S   -0.178150
     7  C   -0.199245
     8  S   -0.501189
     9  C    0.147486
    10  C   -0.430772
    11  C    0.805925
    13  S   -0.375837
    14  C   -0.045040
    15  C    0.539032
    19  O   -0.024052
 Electronic spatial extent (au):  <R**2>=           4800.3906
 Charge=             -0.0000 electrons
 Dipole moment (field-independent basis, Debye):
    X=             -1.1824    Y=              0.8766    Z=             -1.2236  Tot=              1.9141
 Quadrupole moment (field-independent basis, Debye-Ang):
   XX=            -98.3665   YY=            -99.0047   ZZ=           -100.8476
   XY=              4.3441   XZ=             -0.6007   YZ=             -2.0966
 Traceless Quadrupole moment (field-independent basis, Debye-Ang):
   XX=              1.0398   YY=              0.4016   ZZ=             -1.4413
   XY=              4.3441   XZ=             -0.6007   YZ=             -2.0966
 Octapole moment (field-independent basis, Debye-Ang**2):
  XXX=            -79.7155  YYY=              9.1609  ZZZ=            -12.9482  XYY=              8.2762
  XXY=            -15.0724  XXZ=             -8.4463  XZZ=             28.5801  YZZ=              8.9719
  YYZ=             -9.3382  XYZ=            -26.4414
 Hexadecapole moment (field-independent basis, Debye-Ang**3):
 XXXX=          -5341.9520 YYYY=           -658.3560 ZZZZ=           -440.8741 XXXY=             -7.2142
 XXXZ=             77.2424 YYYX=             55.0940 YYYZ=             -4.0682 ZZZX=            -61.9382
 ZZZY=            -30.2277 XXYY=           -995.0215 XXZZ=           -949.6829 YYZZ=           -163.8858
 XXYZ=            -49.8191 YYXZ=            -26.7806 ZZXY=             41.9304
 N-N= 1.102978873785D+03 E-N=-6.117254557331D+03  KE= 1.651064767739D+03
 Unable to Open any file for archive entry.
 1\1\GINC-CX3-12-28\FOpt\RB3LYP\6-311+G(d,p)\C10H6O1S3\NS5018\17-Oct-20
 21\0\\# opt=modredundant b3lyp/6-311+g(d,p)\\pg2T_TT_100.pdb\\0,1\C,-4
 .2196181066,-1.2316879324,-0.3422887027\C,-2.862694798,-1.0790773671,-
 0.7562000501\C,-2.1380081963,-2.2398243193,-0.6624929993\C,-4.51611820
 8,-2.4992882012,0.0743947286\S,-3.1331875056,-3.5353422946,-0.04085197
 89\H,-5.463298298,-2.8699446396,0.4322450922\C,-0.724635024,-2.4442340
 197,-0.9808447572\S,0.486750366,-2.4802615456,0.3105850184\C,1.7675100
 572,-2.6842221401,-0.8510373448\C,1.2594603223,-2.7083516838,-2.143720
 2539\C,-0.1534318057,-2.572903445,-2.21979195\H,-0.7345863873,-2.57668
 72353,-3.1315795763\S,2.5425432451,-2.9150135117,-3.3063684198\C,3.728
 565991,-2.9623322504,-2.022483866\C,3.1828263349,-2.8303696542,-0.7784
 493967\H,4.7702231839,-3.0869502752,-2.2763039288\H,3.7629008149,-2.83
 74083851,0.1337663705\H,-2.4324248418,-0.1476655523,-1.1036636879\O,-5
 .1566184818,-0.2344212997,-0.3461644483\H,-4.7561586623,0.5849857523,-
 0.6517498489\\Version=ES64L-G16RevC.01\State=1-A\HF=-1654.6293702\RMSD
 =3.617e-09\RMSF=3.880e-04\Dipole=0.4995023,0.5020765,-0.2559222\Quadru
 pole=1.4003326,0.8692896,-2.2696222,-2.172482,1.8090983,-1.4322497\PG=
 C01 [X(C10H6O1S3)]\\@
 The archive entry for this job was punched.


 The number of Unix installations has grown to 10,
  with more expected.
                  -- The Unix Programmer's Manual,
                     2nd Edition, June, 1972.
 Job cpu time:       0 days  1 hours 55 minutes 50.9 seconds.
 Elapsed time:       0 days  0 hours 14 minutes 38.3 seconds.
 File lengths (MBytes):  RWF=     86 Int=      0 D2E=      0 Chk=     11 Scr=      1
 Normal termination of Gaussian 16 at Sun Oct 17 19:50:23 2021.
