 Entering Gaussian System, Link 0=g16
 Input=pg2T_TT_155.gjf
 Output=pg2T_TT_155.log
 Initial command:
 /apps/gaussian/g16-c01-avx/g16/l1.exe "/tmp/pbs.4730634[330].pbs/Gau-1878304.inp" -scrdir="/tmp/pbs.4730634[330].pbs/"
 Entering Link 1 = /apps/gaussian/g16-c01-avx/g16/l1.exe PID=   1878305.
  
 Copyright (c) 1988-2019, Gaussian, Inc.  All Rights Reserved.
  
 This is part of the Gaussian(R) 16 program.  It is based on
 the Gaussian(R) 09 system (copyright 2009, Gaussian, Inc.),
 the Gaussian(R) 03 system (copyright 2003, Gaussian, Inc.),
 the Gaussian(R) 98 system (copyright 1998, Gaussian, Inc.),
 the Gaussian(R) 94 system (copyright 1995, Gaussian, Inc.),
 the Gaussian 92(TM) system (copyright 1992, Gaussian, Inc.),
 the Gaussian 90(TM) system (copyright 1990, Gaussian, Inc.),
 the Gaussian 88(TM) system (copyright 1988, Gaussian, Inc.),
 the Gaussian 86(TM) system (copyright 1986, Carnegie Mellon
 University), and the Gaussian 82(TM) system (copyright 1983,
 Carnegie Mellon University). Gaussian is a federally registered
 trademark of Gaussian, Inc.
  
 This software contains proprietary and confidential information,
 including trade secrets, belonging to Gaussian, Inc.
  
 This software is provided under written license and may be
 used, copied, transmitted, or stored only in accord with that
 written license.
  
 The following legend is applicable only to US Government
 contracts under FAR:
  
                    RESTRICTED RIGHTS LEGEND
  
 Use, reproduction and disclosure by the US Government is
 subject to restrictions as set forth in subparagraphs (a)
 and (c) of the Commercial Computer Software - Restricted
 Rights clause in FAR 52.227-19.
  
 Gaussian, Inc.
 340 Quinnipiac St., Bldg. 40, Wallingford CT 06492
  
  
 ---------------------------------------------------------------
 Warning -- This program may not be used in any manner that
 competes with the business of Gaussian, Inc. or will provide
 assistance to any competitor of Gaussian, Inc.  The licensee
 of this program is prohibited from giving any competitor of
 Gaussian, Inc. access to this program.  By using this program,
 the user acknowledges that Gaussian, Inc. is engaged in the
 business of creating and licensing software in the field of
 computational chemistry and represents and warrants to the
 licensee that it is not a competitor of Gaussian, Inc. and that
 it will not use this program in any manner prohibited above.
 ---------------------------------------------------------------
  

 Cite this work as:
 Gaussian 16, Revision C.01,
 M. J. Frisch, G. W. Trucks, H. B. Schlegel, G. E. Scuseria, 
 M. A. Robb, J. R. Cheeseman, G. Scalmani, V. Barone, 
 G. A. Petersson, H. Nakatsuji, X. Li, M. Caricato, A. V. Marenich, 
 J. Bloino, B. G. Janesko, R. Gomperts, B. Mennucci, H. P. Hratchian, 
 J. V. Ortiz, A. F. Izmaylov, J. L. Sonnenberg, D. Williams-Young, 
 F. Ding, F. Lipparini, F. Egidi, J. Goings, B. Peng, A. Petrone, 
 T. Henderson, D. Ranasinghe, V. G. Zakrzewski, J. Gao, N. Rega, 
 G. Zheng, W. Liang, M. Hada, M. Ehara, K. Toyota, R. Fukuda, 
 J. Hasegawa, M. Ishida, T. Nakajima, Y. Honda, O. Kitao, H. Nakai, 
 T. Vreven, K. Throssell, J. A. Montgomery, Jr., J. E. Peralta, 
 F. Ogliaro, M. J. Bearpark, J. J. Heyd, E. N. Brothers, K. N. Kudin, 
 V. N. Staroverov, T. A. Keith, R. Kobayashi, J. Normand, 
 K. Raghavachari, A. P. Rendell, J. C. Burant, S. S. Iyengar, 
 J. Tomasi, M. Cossi, J. M. Millam, M. Klene, C. Adamo, R. Cammi, 
 J. W. Ochterski, R. L. Martin, K. Morokuma, O. Farkas, 
 J. B. Foresman, and D. J. Fox, Gaussian, Inc., Wallingford CT, 2019.
 
 ******************************************
 Gaussian 16:  ES64L-G16RevC.01  3-Jul-2019
                17-Oct-2021 
 ******************************************
 %mem=10GB
 %nprocshared=8
 Will use up to    8 processors via shared memory.
 -------------------------------------
 # opt=modredundant b3lyp/6-311+g(d,p)
 -------------------------------------
 1/18=120,19=15,26=3,38=1/1,3;
 2/9=110,12=2,17=6,18=5,40=1/2;
 3/5=4,6=6,7=111,11=2,25=1,30=1,71=1,74=-5/1,2,3;
 4//1;
 5/5=2,38=5/2;
 6/7=2,8=2,9=2,10=2,28=1/1;
 7//1,2,3,16;
 1/18=20,19=15,26=3/3(2);
 2/9=110/2;
 99//99;
 2/9=110/2;
 3/5=4,6=6,7=111,11=2,25=1,30=1,71=1,74=-5/1,2,3;
 4/5=5,16=3,69=1/1;
 5/5=2,38=5/2;
 7//1,2,3,16;
 1/18=20,19=15,26=3/3(-5);
 2/9=110/2;
 6/7=2,8=2,9=2,10=2,19=2,28=1/1;
 99/9=1/99;
 ---------------
 pg2T_TT_155.pdb
 ---------------
 Symbolic Z-matrix:
 Charge =  0 Multiplicity = 1
 C                    -4.25     -1.36     -0.21 
 C                    -2.93     -0.95     -0.61 
 C                    -1.97     -2.05     -0.62 
 C                    -4.33     -2.76      0.1 
 S                    -2.8      -3.56     -0.11 
 H                    -5.23     -3.27      0.41 
 C                    -0.56     -2.13     -0.97 
 S                     0.514    -3.394    -0.296 
 C                     1.89     -2.807    -1.166 
 C                     1.571    -1.675    -1.998 
 C                     0.192    -1.295    -1.909 
 H                    -0.265    -0.581    -2.576 
 S                     2.639    -1.52     -3.353 
 C                     3.55     -2.945    -2.848 
 C                     3.008    -3.546    -1.651 
 H                     4.3      -3.405    -3.477 
 H                     3.247    -4.561    -1.344 
 H                    -2.89      0.24     -0.97 
 O                    -5.6      -0.36     -0.4 
 H                    -5.76      0.85     -0.75 
 
 Add virtual bond connecting atoms H20        and O19        Dist= 2.40D+00.
 Add virtual bond connecting atoms O19        and C1         Dist= 3.20D+00.
 The following ModRedundant input section has been read:
 D       2       3       7       8 F                                           
 

 GradGradGradGradGradGradGradGradGradGradGradGradGradGradGradGradGradGrad
 Berny optimization.
 Initialization pass.
                           ----------------------------
                           !    Initial Parameters    !
                           ! (Angstroms and Degrees)  !
 --------------------------                            --------------------------
 ! Name  Definition              Value          Derivative Info.                !
 --------------------------------------------------------------------------------
 ! R1    R(1,2)                  1.4389         estimate D2E/DX2                !
 ! R2    R(1,4)                  1.4361         estimate D2E/DX2                !
 ! R3    R(1,19)                 1.6907         estimate D2E/DX2                !
 ! R4    R(2,3)                  1.46           estimate D2E/DX2                !
 ! R5    R(2,18)                 1.2439         estimate D2E/DX2                !
 ! R6    R(3,5)                  1.797          estimate D2E/DX2                !
 ! R7    R(3,7)                  1.455          estimate D2E/DX2                !
 ! R8    R(4,5)                  1.7393         estimate D2E/DX2                !
 ! R9    R(4,6)                  1.0799         estimate D2E/DX2                !
 ! R10   R(7,8)                  1.7904         estimate D2E/DX2                !
 ! R11   R(7,11)                 1.4644         estimate D2E/DX2                !
 ! R12   R(8,9)                  1.7306         estimate D2E/DX2                !
 ! R13   R(9,10)                 1.4406         estimate D2E/DX2                !
 ! R14   R(9,15)                 1.4252         estimate D2E/DX2                !
 ! R15   R(10,11)                1.4332         estimate D2E/DX2                !
 ! R16   R(10,13)                1.7322         estimate D2E/DX2                !
 ! R17   R(11,12)                1.0787         estimate D2E/DX2                !
 ! R18   R(13,14)                1.7651         estimate D2E/DX2                !
 ! R19   R(14,15)                1.4449         estimate D2E/DX2                !
 ! R20   R(14,16)                1.0815         estimate D2E/DX2                !
 ! R21   R(15,17)                1.087          estimate D2E/DX2                !
 ! R22   R(19,20)                1.2697         estimate D2E/DX2                !
 ! A1    A(2,1,4)              112.8843         estimate D2E/DX2                !
 ! A2    A(2,1,19)             122.1887         estimate D2E/DX2                !
 ! A3    A(4,1,19)             123.8039         estimate D2E/DX2                !
 ! A4    A(1,2,3)              112.9799         estimate D2E/DX2                !
 ! A5    A(1,2,18)             112.491          estimate D2E/DX2                !
 ! A6    A(3,2,18)             134.2373         estimate D2E/DX2                !
 ! A7    A(2,3,5)              109.1138         estimate D2E/DX2                !
 ! A8    A(2,3,7)              132.8639         estimate D2E/DX2                !
 ! A9    A(5,3,7)              118.0132         estimate D2E/DX2                !
 ! A10   A(1,4,5)              111.9209         estimate D2E/DX2                !
 ! A11   A(1,4,6)              124.6643         estimate D2E/DX2                !
 ! A12   A(5,4,6)              123.4062         estimate D2E/DX2                !
 ! A13   A(3,5,4)               93.0997         estimate D2E/DX2                !
 ! A14   A(3,7,8)              121.9774         estimate D2E/DX2                !
 ! A15   A(3,7,11)             128.3555         estimate D2E/DX2                !
 ! A16   A(8,7,11)             109.6275         estimate D2E/DX2                !
 ! A17   A(7,8,9)               92.7652         estimate D2E/DX2                !
 ! A18   A(8,9,10)             112.3835         estimate D2E/DX2                !
 ! A19   A(8,9,15)             128.2371         estimate D2E/DX2                !
 ! A20   A(10,9,15)            112.6189         estimate D2E/DX2                !
 ! A21   A(9,10,11)            112.6774         estimate D2E/DX2                !
 ! A22   A(9,10,13)            112.6774         estimate D2E/DX2                !
 ! A23   A(11,10,13)           128.1768         estimate D2E/DX2                !
 ! A24   A(7,11,10)            112.504          estimate D2E/DX2                !
 ! A25   A(7,11,12)            123.805          estimate D2E/DX2                !
 ! A26   A(10,11,12)           123.0086         estimate D2E/DX2                !
 ! A27   A(10,13,14)            91.2706         estimate D2E/DX2                !
 ! A28   A(13,14,15)           112.2849         estimate D2E/DX2                !
 ! A29   A(13,14,16)           122.3358         estimate D2E/DX2                !
 ! A30   A(15,14,16)           124.4025         estimate D2E/DX2                !
 ! A31   A(9,15,14)            111.1301         estimate D2E/DX2                !
 ! A32   A(9,15,17)            124.0924         estimate D2E/DX2                !
 ! A33   A(14,15,17)           122.6755         estimate D2E/DX2                !
 ! A34   A(1,19,20)            134.0455         estimate D2E/DX2                !
 ! D1    D(4,1,2,3)              0.3915         estimate D2E/DX2                !
 ! D2    D(4,1,2,18)           175.0898         estimate D2E/DX2                !
 ! D3    D(19,1,2,3)          -167.9154         estimate D2E/DX2                !
 ! D4    D(19,1,2,18)            6.7829         estimate D2E/DX2                !
 ! D5    D(2,1,4,5)             -0.3845         estimate D2E/DX2                !
 ! D6    D(2,1,4,6)           -179.3471         estimate D2E/DX2                !
 ! D7    D(19,1,4,5)           167.7032         estimate D2E/DX2                !
 ! D8    D(19,1,4,6)           -11.2593         estimate D2E/DX2                !
 ! D9    D(2,1,19,20)           -7.6334         estimate D2E/DX2                !
 ! D10   D(4,1,19,20)         -174.6479         estimate D2E/DX2                !
 ! D11   D(1,2,3,5)             -0.2224         estimate D2E/DX2                !
 ! D12   D(1,2,3,7)            178.6265         estimate D2E/DX2                !
 ! D13   D(18,2,3,5)          -173.3787         estimate D2E/DX2                !
 ! D14   D(18,2,3,7)             5.4701         estimate D2E/DX2                !
 ! D15   D(2,3,5,4)              0.0033         estimate D2E/DX2                !
 ! D16   D(7,3,5,4)           -179.041          estimate D2E/DX2                !
 ! D17   D(2,3,7,8)            155.0005         Frozen                          !
 ! D18   D(2,3,7,11)           -27.5338         estimate D2E/DX2                !
 ! D19   D(5,3,7,8)            -26.2315         estimate D2E/DX2                !
 ! D20   D(5,3,7,11)           151.2342         estimate D2E/DX2                !
 ! D21   D(1,4,5,3)              0.2153         estimate D2E/DX2                !
 ! D22   D(6,4,5,3)            179.1932         estimate D2E/DX2                !
 ! D23   D(3,7,8,9)            179.7846         estimate D2E/DX2                !
 ! D24   D(11,7,8,9)             1.8943         estimate D2E/DX2                !
 ! D25   D(3,7,11,10)         -179.8281         estimate D2E/DX2                !
 ! D26   D(3,7,11,12)           -9.0632         estimate D2E/DX2                !
 ! D27   D(8,7,11,10)           -2.1104         estimate D2E/DX2                !
 ! D28   D(8,7,11,12)          168.6546         estimate D2E/DX2                !
 ! D29   D(7,8,9,10)            -1.2318         estimate D2E/DX2                !
 ! D30   D(7,8,9,15)          -149.8883         estimate D2E/DX2                !
 ! D31   D(8,9,10,11)            0.2101         estimate D2E/DX2                !
 ! D32   D(8,9,10,13)         -154.027          estimate D2E/DX2                !
 ! D33   D(15,9,10,11)         153.9394         estimate D2E/DX2                !
 ! D34   D(15,9,10,13)          -0.2978         estimate D2E/DX2                !
 ! D35   D(8,9,15,14)          149.7214         estimate D2E/DX2                !
 ! D36   D(8,9,15,17)          -14.1212         estimate D2E/DX2                !
 ! D37   D(10,9,15,14)           1.1243         estimate D2E/DX2                !
 ! D38   D(10,9,15,17)        -162.7183         estimate D2E/DX2                !
 ! D39   D(9,10,11,7)            1.2615         estimate D2E/DX2                !
 ! D40   D(9,10,11,12)        -169.5885         estimate D2E/DX2                !
 ! D41   D(13,10,11,7)         150.5866         estimate D2E/DX2                !
 ! D42   D(13,10,11,12)        -20.2634         estimate D2E/DX2                !
 ! D43   D(9,10,13,14)          -0.4681         estimate D2E/DX2                !
 ! D44   D(11,10,13,14)       -149.7933         estimate D2E/DX2                !
 ! D45   D(10,13,14,15)          1.1131         estimate D2E/DX2                !
 ! D46   D(10,13,14,16)        170.2604         estimate D2E/DX2                !
 ! D47   D(13,14,15,9)          -1.4717         estimate D2E/DX2                !
 ! D48   D(13,14,15,17)        162.639          estimate D2E/DX2                !
 ! D49   D(16,14,15,9)        -170.3548         estimate D2E/DX2                !
 ! D50   D(16,14,15,17)         -6.244          estimate D2E/DX2                !
 --------------------------------------------------------------------------------
 Trust Radius=3.00D-01 FncErr=1.00D-07 GrdErr=1.00D-06 EigMax=2.50D+02 EigMin=1.00D-04
 Number of steps in this run=    116 maximum allowed number of steps=    120.
 GradGradGradGradGradGradGradGradGradGradGradGradGradGradGradGradGradGrad

                          Input orientation:                          
 ---------------------------------------------------------------------
 Center     Atomic      Atomic             Coordinates (Angstroms)
 Number     Number       Type             X           Y           Z
 ---------------------------------------------------------------------
      1          6           0       -4.250000   -1.360000   -0.210000
      2          6           0       -2.930000   -0.950000   -0.610000
      3          6           0       -1.970000   -2.050000   -0.620000
      4          6           0       -4.330000   -2.760000    0.100000
      5         16           0       -2.800000   -3.560000   -0.110000
      6          1           0       -5.230000   -3.270000    0.410000
      7          6           0       -0.560000   -2.130000   -0.970000
      8         16           0        0.514000   -3.394000   -0.296000
      9          6           0        1.890000   -2.807000   -1.166000
     10          6           0        1.571000   -1.675000   -1.998000
     11          6           0        0.192000   -1.295000   -1.909000
     12          1           0       -0.265000   -0.581000   -2.576000
     13         16           0        2.639000   -1.520000   -3.353000
     14          6           0        3.550000   -2.945000   -2.848000
     15          6           0        3.008000   -3.546000   -1.651000
     16          1           0        4.300000   -3.405000   -3.477000
     17          1           0        3.247000   -4.561000   -1.344000
     18          1           0       -2.890000    0.240000   -0.970000
     19          8           0       -5.600000   -0.360000   -0.400000
     20          1           0       -5.760000    0.850000   -0.750000
 ---------------------------------------------------------------------
                    Distance matrix (angstroms):
                    1          2          3          4          5
     1  C    0.000000
     2  C    1.438923   0.000000
     3  C    2.417147   1.460034   0.000000
     4  C    1.436141   2.395871   2.567509   0.000000
     5  S    2.636759   2.660639   1.796970   1.739253   0.000000
     6  H    2.234480   3.422397   3.630000   1.079907   2.501879
     7  C    3.845335   2.671872   1.454991   3.969219   2.793224
     8  S    5.180757   4.234722   2.842810   4.901337   3.323364
     9  C    6.380231   5.195189   3.971242   6.347705   4.866030
    10  C    6.097558   4.765624   3.818140   6.356149   5.120880
    11  C    4.756279   3.399016   2.627887   5.160503   4.161573
    12  H    4.699470   3.332198   2.981765   5.332283   4.624048
    13  S    7.573795   6.233996   5.384521   7.875771   6.652922
    14  C    8.385182   7.139963   6.019585   8.415422   6.942432
    15  C    7.715805   6.563744   5.299194   7.584856   6.008972
    16  H    9.378583   8.155956   7.022206   9.364179   7.859435
    17  H    8.230271   7.192594   5.834928   7.920837   6.252277
    18  H    2.233204   1.243905   2.492589   3.495497   3.897140
    19  O    1.690739   2.742462   4.010162   2.760960   4.261936
    20  H    2.730531   3.356859   4.773992   3.974858   5.349701
                    6          7          8          9         10
     6  H    0.000000
     7  C    5.001290   0.000000
     8  S    5.788553   1.790376   0.000000
     9  C    7.307020   2.549362   1.730562   0.000000
    10  C    7.388917   2.409351   2.639889   1.440628   0.000000
    11  C    6.219041   1.464394   2.666693   2.391944   1.433165
    12  H    6.387342   2.250703   3.703810   3.403998   2.214005
    13  S    8.896282   4.035392   4.168063   2.645815   1.732245
    14  C    9.370624   4.591646   3.991441   2.367228   2.500368
    15  C    8.496384   3.898646   2.842387   1.425226   2.384537
    16  H   10.293099   5.615182   4.944965   3.392112   3.553559
    17  H    8.752298   4.532426   3.151108   2.224781   3.400836
    18  H    4.438479   3.323522   5.024684   5.671951   4.962311
    19  O    3.043206   5.372095   6.826197   7.916733   7.463650
    20  H    4.312876   5.997399   7.588197   8.489358   7.853451
                   11         12         13         14         15
    11  C    0.000000
    12  H    1.078672   0.000000
    13  S    2.850188   3.149391   0.000000
    14  C    3.857510   4.496299   1.765098   0.000000
    15  C    3.614335   4.512137   2.671636   1.444913   0.000000
    16  H    4.877129   5.442977   2.515457   1.081546   2.241299
    17  H    4.507661   5.449070   3.695054   2.228291   1.087012
    18  H    3.568847   3.184949   6.272649   7.425948   7.041588
    19  O    6.057934   5.765938   8.828756   9.818219   9.263545
    20  H    6.431999   5.964651   9.106905  10.270332   9.849591
                   16         17         18         19         20
    16  H    0.000000
    17  H    2.644775   0.000000
    18  H    8.441989   7.800785   0.000000
    19  O   10.805089   9.839154   2.833549   0.000000
    20  H   11.258115  10.524153   2.942346   1.269724   0.000000
 Stoichiometry    C10H6OS3
 Framework group  C1[X(C10H6OS3)]
 Deg. of freedom    54
 Full point group                 C1      NOp   1
 Largest Abelian subgroup         C1      NOp   1
 Largest concise Abelian subgroup C1      NOp   1
                         Standard orientation:                         
 ---------------------------------------------------------------------
 Center     Atomic      Atomic             Coordinates (Angstroms)
 Number     Number       Type             X           Y           Z
 ---------------------------------------------------------------------
      1          6           0        3.875405    0.586154   -0.094580
      2          6           0        2.542053    1.036980   -0.393629
      3          6           0        1.524462    0.025115   -0.124671
      4          6           0        3.912029   -0.763690    0.394376
      5         16           0        2.322095   -1.461749    0.493484
      6          1           0        4.810470   -1.287271    0.685695
      7          6           0        0.074243    0.024090   -0.242411
      8         16           0       -0.857141   -1.487270   -0.474273
      9          6           0       -2.370764   -0.648866   -0.503784
     10          6           0       -2.215441    0.770623   -0.313171
     11          6           0       -0.845894    1.159415   -0.148413
     12          1           0       -0.549351    2.147838    0.165618
     13         16           0       -3.627658    1.512239    0.362345
     14          6           0       -4.471991   -0.037388    0.398827
     15          6           0       -3.649101   -1.121297   -0.086731
     16          1           0       -5.419294   -0.168281    0.904024
     17          1           0       -3.878545   -2.165589    0.109239
     18          1           0        2.507826    2.235972   -0.723093
     19          8           0        5.191335    1.645797   -0.030655
     20          1           0        5.351477    2.872632   -0.316014
 ---------------------------------------------------------------------
 Rotational constants (GHZ):           1.3321440           0.2309841           0.2019344
 Standard basis: 6-311+G(d,p) (5D, 7F)
 There are   382 symmetry adapted cartesian basis functions of A   symmetry.
 There are   368 symmetry adapted basis functions of A   symmetry.
   368 basis functions,   594 primitive gaussians,   382 cartesian basis functions
    61 alpha electrons       61 beta electrons
       nuclear repulsion energy      1079.7445849068 Hartrees.
 NAtoms=   20 NActive=   20 NUniq=   20 SFac= 1.00D+00 NAtFMM=   60 NAOKFM=F Big=F
 Integral buffers will be    131072 words long.
 Raffenetti 2 integral format.
 Two-electron integral symmetry is turned on.
 One-electron integrals computed using PRISM.
 NBasis=   368 RedAO= T EigKep=  2.69D-06  NBF=   368
 NBsUse=   367 1.00D-06 EigRej=  4.73D-07 NBFU=   367
 ExpMin= 4.05D-02 ExpMax= 9.34D+04 ExpMxC= 3.17D+03 IAcc=3 IRadAn=         5 AccDes= 0.00D+00
 Harris functional with IExCor=  402 and IRadAn=       5 diagonalized for initial guess.
 HarFok:  IExCor=  402 AccDes= 0.00D+00 IRadAn=         5 IDoV= 1 UseB2=F ITyADJ=14
 ICtDFT=  3500011 ScaDFX=  1.000000  1.000000  1.000000  1.000000
 FoFCou: FMM=F IPFlag=           0 FMFlag=      100000 FMFlg1=           0
         NFxFlg=           0 DoJE=T BraDBF=F KetDBF=T FulRan=T
         wScrn=  0.000000 ICntrl=       500 IOpCl=  0 I1Cent=   200000004 NGrid=           0
         NMat0=    1 NMatS0=      1 NMatT0=    0 NMatD0=    1 NMtDS0=    0 NMtDT0=    0
 Petite list used in FoFCou.
 Requested convergence on RMS density matrix=1.00D-08 within 128 cycles.
 Requested convergence on MAX density matrix=1.00D-06.
 Requested convergence on             energy=1.00D-06.
 No special actions if energy rises.
 SCF Done:  E(RB3LYP) =  -1654.46274072     A.U. after   17 cycles
            NFock= 17  Conv=0.58D-08     -V/T= 2.0032

 **********************************************************************

            Population analysis using the SCF Density.

 **********************************************************************

 Orbital symmetries:
       Occupied  (A) (A) (A) (A) (A) (A) (A) (A) (A) (A) (A) (A)
                 (A) (A) (A) (A) (A) (A) (A) (A) (A) (A) (A) (A)
                 (A) (A) (A) (A) (A) (A) (A) (A) (A) (A) (A) (A)
                 (A) (A) (A) (A) (A) (A) (A) (A) (A) (A) (A) (A)
                 (A) (A) (A) (A) (A) (A) (A) (A) (A) (A) (A) (A)
                 (A)
       Virtual   (A) (A) (A) (A) (A) (A) (A) (A) (A) (A) (A) (A)
                 (A) (A) (A) (A) (A) (A) (A) (A) (A) (A) (A) (A)
                 (A) (A) (A) (A) (A) (A) (A) (A) (A) (A) (A) (A)
                 (A) (A) (A) (A) (A) (A) (A) (A) (A) (A) (A) (A)
                 (A) (A) (A) (A) (A) (A) (A) (A) (A) (A) (A) (A)
                 (A) (A) (A) (A) (A) (A) (A) (A) (A) (A) (A) (A)
                 (A) (A) (A) (A) (A) (A) (A) (A) (A) (A) (A) (A)
                 (A) (A) (A) (A) (A) (A) (A) (A) (A) (A) (A) (A)
                 (A) (A) (A) (A) (A) (A) (A) (A) (A) (A) (A) (A)
                 (A) (A) (A) (A) (A) (A) (A) (A) (A) (A) (A) (A)
                 (A) (A) (A) (A) (A) (A) (A) (A) (A) (A) (A) (A)
                 (A) (A) (A) (A) (A) (A) (A) (A) (A) (A) (A) (A)
                 (A) (A) (A) (A) (A) (A) (A) (A) (A) (A) (A) (A)
                 (A) (A) (A) (A) (A) (A) (A) (A) (A) (A) (A) (A)
                 (A) (A) (A) (A) (A) (A) (A) (A) (A) (A) (A) (A)
                 (A) (A) (A) (A) (A) (A) (A) (A) (A) (A) (A) (A)
                 (A) (A) (A) (A) (A) (A) (A) (A) (A) (A) (A) (A)
                 (A) (A) (A) (A) (A) (A) (A) (A) (A) (A) (A) (A)
                 (A) (A) (A) (A) (A) (A) (A) (A) (A) (A) (A) (A)
                 (A) (A) (A) (A) (A) (A) (A) (A) (A) (A) (A) (A)
                 (A) (A) (A) (A) (A) (A) (A) (A) (A) (A) (A) (A)
                 (A) (A) (A) (A) (A) (A) (A) (A) (A) (A) (A) (A)
                 (A) (A) (A) (A) (A) (A) (A) (A) (A) (A) (A) (A)
                 (A) (A) (A) (A) (A) (A) (A) (A) (A) (A) (A) (A)
                 (A) (A) (A) (A) (A) (A) (A) (A) (A) (A) (A) (A)
                 (A) (A) (A) (A) (A) (A)
 The electronic state is 1-A.
 Alpha  occ. eigenvalues --  -88.90594 -88.89682 -88.89488 -19.15539 -10.27340
 Alpha  occ. eigenvalues --  -10.25147 -10.24542 -10.22831 -10.22659 -10.22656
 Alpha  occ. eigenvalues --  -10.22587 -10.22555 -10.21178 -10.20873  -7.99038
 Alpha  occ. eigenvalues --   -7.98204  -7.98031  -5.95349  -5.94994  -5.94604
 Alpha  occ. eigenvalues --   -5.94516  -5.94360  -5.94157  -5.93992  -5.93758
 Alpha  occ. eigenvalues --   -5.93551  -0.93526  -0.91315  -0.88469  -0.84311
 Alpha  occ. eigenvalues --   -0.78076  -0.75666  -0.74689  -0.71638  -0.69209
 Alpha  occ. eigenvalues --   -0.62499  -0.58283  -0.56240  -0.54534  -0.53338
 Alpha  occ. eigenvalues --   -0.50466  -0.49549  -0.45840  -0.44169  -0.42257
 Alpha  occ. eigenvalues --   -0.41347  -0.40895  -0.40229  -0.39806  -0.39575
 Alpha  occ. eigenvalues --   -0.38433  -0.36728  -0.35214  -0.34413  -0.32457
 Alpha  occ. eigenvalues --   -0.31771  -0.30013  -0.27024  -0.25613  -0.24128
 Alpha  occ. eigenvalues --   -0.20690
 Alpha virt. eigenvalues --   -0.08606  -0.08306  -0.04050  -0.02434  -0.01388
 Alpha virt. eigenvalues --   -0.00994  -0.00022   0.00185   0.00483   0.01387
 Alpha virt. eigenvalues --    0.02271   0.02457   0.02925   0.03368   0.03722
 Alpha virt. eigenvalues --    0.03970   0.04636   0.05280   0.05866   0.06094
 Alpha virt. eigenvalues --    0.06484   0.07141   0.07240   0.08224   0.08604
 Alpha virt. eigenvalues --    0.08935   0.09449   0.09744   0.10103   0.11011
 Alpha virt. eigenvalues --    0.11188   0.11435   0.11787   0.12299   0.12831
 Alpha virt. eigenvalues --    0.13011   0.13937   0.14282   0.14362   0.14560
 Alpha virt. eigenvalues --    0.15252   0.15812   0.16168   0.16886   0.17469
 Alpha virt. eigenvalues --    0.17855   0.18000   0.18367   0.18555   0.18938
 Alpha virt. eigenvalues --    0.19214   0.19720   0.19835   0.20104   0.20560
 Alpha virt. eigenvalues --    0.20846   0.21504   0.21638   0.22081   0.22671
 Alpha virt. eigenvalues --    0.22857   0.23396   0.24368   0.24379   0.25300
 Alpha virt. eigenvalues --    0.25781   0.25983   0.26351   0.27158   0.27361
 Alpha virt. eigenvalues --    0.28532   0.29101   0.29659   0.29857   0.31339
 Alpha virt. eigenvalues --    0.31891   0.32510   0.33105   0.33424   0.33777
 Alpha virt. eigenvalues --    0.34796   0.35526   0.35855   0.36448   0.37343
 Alpha virt. eigenvalues --    0.38878   0.39950   0.41215   0.41840   0.43317
 Alpha virt. eigenvalues --    0.43874   0.45477   0.47435   0.48878   0.51154
 Alpha virt. eigenvalues --    0.52769   0.53221   0.55104   0.55328   0.55824
 Alpha virt. eigenvalues --    0.56075   0.57335   0.58301   0.58932   0.60521
 Alpha virt. eigenvalues --    0.60820   0.61020   0.62124   0.62378   0.64013
 Alpha virt. eigenvalues --    0.64583   0.65994   0.67853   0.68559   0.69156
 Alpha virt. eigenvalues --    0.69292   0.70445   0.70819   0.72597   0.72871
 Alpha virt. eigenvalues --    0.73469   0.73902   0.75276   0.75883   0.76289
 Alpha virt. eigenvalues --    0.77159   0.77529   0.79494   0.79825   0.80393
 Alpha virt. eigenvalues --    0.81935   0.82427   0.83248   0.85152   0.85871
 Alpha virt. eigenvalues --    0.86282   0.87418   0.87831   0.89433   0.89513
 Alpha virt. eigenvalues --    0.91268   0.92195   0.92691   0.93267   0.94504
 Alpha virt. eigenvalues --    0.95372   0.96615   0.98118   0.98688   1.01070
 Alpha virt. eigenvalues --    1.01167   1.03266   1.06280   1.06974   1.08351
 Alpha virt. eigenvalues --    1.10128   1.11290   1.13689   1.14378   1.17908
 Alpha virt. eigenvalues --    1.20841   1.21516   1.24916   1.26183   1.27602
 Alpha virt. eigenvalues --    1.33094   1.34558   1.34983   1.36599   1.39325
 Alpha virt. eigenvalues --    1.41367   1.43942   1.46663   1.48917   1.50305
 Alpha virt. eigenvalues --    1.51797   1.52981   1.55315   1.56746   1.57700
 Alpha virt. eigenvalues --    1.59766   1.60063   1.62686   1.63574   1.64031
 Alpha virt. eigenvalues --    1.65697   1.66277   1.67564   1.68602   1.69313
 Alpha virt. eigenvalues --    1.71022   1.72378   1.73508   1.74668   1.75942
 Alpha virt. eigenvalues --    1.77154   1.78491   1.79369   1.82443   1.83898
 Alpha virt. eigenvalues --    1.85507   1.87303   1.89113   1.89964   1.91716
 Alpha virt. eigenvalues --    1.94019   1.94374   1.95489   1.96516   1.98383
 Alpha virt. eigenvalues --    1.99219   1.99848   2.01475   2.02659   2.03065
 Alpha virt. eigenvalues --    2.05980   2.07735   2.08564   2.12619   2.13676
 Alpha virt. eigenvalues --    2.14458   2.18313   2.21031   2.23396   2.29425
 Alpha virt. eigenvalues --    2.32502   2.34344   2.35982   2.41590   2.45779
 Alpha virt. eigenvalues --    2.47903   2.52430   2.54255   2.58134   2.62049
 Alpha virt. eigenvalues --    2.64484   2.65078   2.68914   2.69449   2.70413
 Alpha virt. eigenvalues --    2.71265   2.73246   2.74655   2.76630   2.79817
 Alpha virt. eigenvalues --    2.80255   2.83444   2.87161   2.89927   2.91764
 Alpha virt. eigenvalues --    2.92258   2.94021   2.94976   2.96588   3.00236
 Alpha virt. eigenvalues --    3.00616   3.03272   3.04123   3.09371   3.15197
 Alpha virt. eigenvalues --    3.19771   3.24938   3.26258   3.30279   3.35641
 Alpha virt. eigenvalues --    3.38727   3.46563   3.49335   3.57926   3.59690
 Alpha virt. eigenvalues --    3.76489   3.82215   3.92439   4.03470   4.10720
 Alpha virt. eigenvalues --    4.29403   4.48541   5.01489   5.12014   5.24945
 Alpha virt. eigenvalues --    7.92347   7.95010   7.99700  17.26557  17.28052
 Alpha virt. eigenvalues --   17.29509  17.41873  17.42942  17.45455  17.46106
 Alpha virt. eigenvalues --   17.50298  17.50877  23.40804  23.56595  23.66111
 Alpha virt. eigenvalues --   23.75307  23.79394  23.84507  23.86279  23.87935
 Alpha virt. eigenvalues --   23.93503  23.95542  49.84247 189.08654 189.11246
 Alpha virt. eigenvalues --  189.17047
          Condensed to atoms (all electrons):
               1          2          3          4          5          6
     1  C    6.931381  -1.099423  -0.204779  -0.845778   1.036230   0.047495
     2  C   -1.099423  13.375886  -3.021524   0.372614  -2.910857  -0.022011
     3  C   -0.204779  -3.021524   9.778742  -0.218706   0.204908   0.017380
     4  C   -0.845778   0.372614  -0.218706   7.089462  -0.782916   0.347133
     5  S    1.036230  -2.910857   0.204908  -0.782916  17.836499  -0.023413
     6  H    0.047495  -0.022011   0.017380   0.347133  -0.023413   0.459323
     7  C    0.101838  -0.512970  -0.874035  -0.087408   0.822829  -0.003023
     8  S   -0.079191   0.807330   0.753865   0.051372  -0.521773  -0.000159
     9  C    0.057677   0.007085  -0.501860  -0.028830   0.034859   0.000131
    10  C   -0.072077   0.330572   0.592431   0.039215  -0.188036  -0.000094
    11  C    0.245882  -2.050115  -0.524930  -0.050696   0.822037  -0.000650
    12  H    0.000749   0.018092   0.006140   0.000301  -0.003645   0.000000
    13  S    0.011776  -0.015583  -0.013418   0.001617   0.006874  -0.000004
    14  C   -0.000981   0.009878  -0.015187   0.000134  -0.015442   0.000001
    15  C    0.015728  -0.065496  -0.034790  -0.015915   0.085965   0.000007
    16  H    0.000001   0.000049   0.000219  -0.000000  -0.000023   0.000000
    17  H   -0.000016   0.000045  -0.000660   0.000017   0.000073   0.000000
    18  H   -0.097824   0.300165   0.114008  -0.030979   0.011101  -0.000090
    19  O    0.321481  -0.054214   0.008152  -0.136677   0.013083  -0.001023
    20  H   -0.044193  -0.026924   0.021153   0.052226  -0.004059  -0.000183
               7          8          9         10         11         12
     1  C    0.101838  -0.079191   0.057677  -0.072077   0.245882   0.000749
     2  C   -0.512970   0.807330   0.007085   0.330572  -2.050115   0.018092
     3  C   -0.874035   0.753865  -0.501860   0.592431  -0.524930   0.006140
     4  C   -0.087408   0.051372  -0.028830   0.039215  -0.050696   0.000301
     5  S    0.822829  -0.521773   0.034859  -0.188036   0.822037  -0.003645
     6  H   -0.003023  -0.000159   0.000131  -0.000094  -0.000650   0.000000
     7  C   10.727888   0.150722  -0.876452   1.470258  -4.040951   0.120195
     8  S    0.150722  18.519296  -1.127029   2.036086  -3.841035   0.018288
     9  C   -0.876452  -1.127029  14.026438  -6.619229   2.802781  -0.055565
    10  C    1.470258   2.036086  -6.619229  18.038647  -8.228753   0.109079
    11  C   -4.040951  -3.841035   2.802781  -8.228753  18.745743   0.132778
    12  H    0.120195   0.018288  -0.055565   0.109079   0.132778   0.518139
    13  S   -0.426409   0.094504   0.491713  -1.232072   0.660161   0.008671
    14  C    0.245831   0.023064   0.765426  -0.311679  -0.393834   0.002915
    15  C   -0.673805  -0.365517  -3.028837  -0.186757   1.445386  -0.018175
    16  H   -0.004354   0.001706  -0.015361   0.004020   0.009962  -0.000003
    17  H    0.007439   0.021422   0.031573  -0.036160  -0.008001   0.000017
    18  H   -0.005988  -0.003137  -0.000378   0.006096   0.027936  -0.000094
    19  O    0.009367  -0.000030  -0.000131  -0.000699  -0.000451  -0.000004
    20  H    0.001728   0.000172  -0.000013  -0.000136  -0.000762  -0.000001
              13         14         15         16         17         18
     1  C    0.011776  -0.000981   0.015728   0.000001  -0.000016  -0.097824
     2  C   -0.015583   0.009878  -0.065496   0.000049   0.000045   0.300165
     3  C   -0.013418  -0.015187  -0.034790   0.000219  -0.000660   0.114008
     4  C    0.001617   0.000134  -0.015915  -0.000000   0.000017  -0.030979
     5  S    0.006874  -0.015442   0.085965  -0.000023   0.000073   0.011101
     6  H   -0.000004   0.000001   0.000007   0.000000   0.000000  -0.000090
     7  C   -0.426409   0.245831  -0.673805  -0.004354   0.007439  -0.005988
     8  S    0.094504   0.023064  -0.365517   0.001706   0.021422  -0.003137
     9  C    0.491713   0.765426  -3.028837  -0.015361   0.031573  -0.000378
    10  C   -1.232072  -0.311679  -0.186757   0.004020  -0.036160   0.006096
    11  C    0.660161  -0.393834   1.445386   0.009962  -0.008001   0.027936
    12  H    0.008671   0.002915  -0.018175  -0.000003   0.000017  -0.000094
    13  S   16.583084   0.234035  -0.259364  -0.021091   0.003928   0.000092
    14  C    0.234035   5.741940  -0.386324   0.368612   0.010088  -0.000016
    15  C   -0.259364  -0.386324   9.173743   0.011524   0.317910   0.000107
    16  H   -0.021091   0.368612   0.011524   0.471379  -0.003599   0.000000
    17  H    0.003928   0.010088   0.317910  -0.003599   0.513255  -0.000000
    18  H    0.000092  -0.000016   0.000107   0.000000  -0.000000   0.539655
    19  O   -0.000007  -0.000000  -0.000010  -0.000000   0.000000  -0.002480
    20  H    0.000001  -0.000000  -0.000000   0.000000  -0.000000   0.000691
              19         20
     1  C    0.321481  -0.044193
     2  C   -0.054214  -0.026924
     3  C    0.008152   0.021153
     4  C   -0.136677   0.052226
     5  S    0.013083  -0.004059
     6  H   -0.001023  -0.000183
     7  C    0.009367   0.001728
     8  S   -0.000030   0.000172
     9  C   -0.000131  -0.000013
    10  C   -0.000699  -0.000136
    11  C   -0.000451  -0.000762
    12  H   -0.000004  -0.000001
    13  S   -0.000007   0.000001
    14  C   -0.000000  -0.000000
    15  C   -0.000010  -0.000000
    16  H   -0.000000   0.000000
    17  H    0.000000  -0.000000
    18  H   -0.002480   0.000691
    19  O    8.107553   0.185715
    20  H    0.185715   0.528660
 Mulliken charges:
               1
     1  C   -0.325976
     2  C    0.557399
     3  C   -0.087107
     4  C    0.243813
     5  S   -0.424295
     6  H    0.179179
     7  C   -0.152700
     8  S   -0.539955
     9  C    0.036003
    10  C    0.249290
    11  C    0.247511
    12  H    0.142122
    13  S   -0.128508
    14  C   -0.278461
    15  C   -0.015379
    16  H    0.176960
    17  H    0.142669
    18  H    0.141134
    19  O   -0.449625
    20  H    0.285926
 Sum of Mulliken charges =  -0.00000
 Mulliken charges with hydrogens summed into heavy atoms:
               1
     1  C   -0.325976
     2  C    0.698534
     3  C   -0.087107
     4  C    0.422992
     5  S   -0.424295
     7  C   -0.152700
     8  S   -0.539955
     9  C    0.036003
    10  C    0.249290
    11  C    0.389633
    13  S   -0.128508
    14  C   -0.101502
    15  C    0.127289
    19  O   -0.163699
 Electronic spatial extent (au):  <R**2>=           4979.9691
 Charge=             -0.0000 electrons
 Dipole moment (field-independent basis, Debye):
    X=             -1.4781    Y=              0.7545    Z=              0.8673  Tot=              1.8725
 Quadrupole moment (field-independent basis, Debye-Ang):
   XX=           -101.9846   YY=            -89.5728   ZZ=           -108.9413
   XY=              6.3213   XZ=             -5.1991   YZ=             -3.1117
 Traceless Quadrupole moment (field-independent basis, Debye-Ang):
   XX=             -1.8183   YY=             10.5934   ZZ=             -8.7750
   XY=              6.3213   XZ=             -5.1991   YZ=             -3.1117
 Octapole moment (field-independent basis, Debye-Ang**2):
  XXX=            -69.2596  YYY=             33.3110  ZZZ=              5.1508  XYY=             46.4534
  XXY=              1.2177  XXZ=             23.3306  XZZ=              2.3879  YZZ=             -0.1093
  YYZ=             -0.9123  XYZ=            -15.8027
 Hexadecapole moment (field-independent basis, Debye-Ang**3):
 XXXX=          -5692.7989 YYYY=           -869.8712 ZZZZ=           -229.5671 XXXY=            135.8685
 XXXZ=           -158.9675 YYYX=            202.0696 YYYZ=            -21.1196 ZZZX=             -5.2481
 ZZZY=              0.1119 XXYY=           -840.0478 XXZZ=          -1031.8897 YYZZ=           -212.4860
 XXYZ=            -71.9028 YYXZ=            -29.0970 ZZXY=             -3.4029
 N-N= 1.079744584907D+03 E-N=-6.068823155107D+03  KE= 1.649114566386D+03
 Calling FoFJK, ICntrl=      2127 FMM=F ISym2X=0 I1Cent= 0 IOpClX= 0 NMat=1 NMatS=1 NMatT=0.
 ***** Axes restored to original set *****
 -------------------------------------------------------------------
 Center     Atomic                   Forces (Hartrees/Bohr)
 Number     Number              X              Y              Z
 -------------------------------------------------------------------
      1        6          -0.013157486    0.009199390   -0.021967145
      2        6           0.001191075    0.025889957   -0.016649956
      3        6          -0.030615580    0.028667576    0.004080157
      4        6          -0.014876599    0.056599174   -0.008051890
      5       16          -0.005759256    0.027013945   -0.001475247
      6        1           0.003072172   -0.003753987   -0.000523932
      7        6           0.027414025    0.033780486   -0.035726075
      8       16          -0.008873451    0.013393591    0.006239585
      9        6           0.003322268    0.011198678   -0.034552881
     10        6          -0.027720667   -0.024920842    0.018916646
     11        6          -0.013787804   -0.034557867    0.036726433
     12        1          -0.003808870    0.003048071    0.003471138
     13       16           0.015688554   -0.008316860    0.006570110
     14        6          -0.027244123   -0.023428832    0.045844732
     15        6           0.011241368    0.022743129   -0.049358004
     16        1           0.002524530    0.006898173    0.000825624
     17        1           0.005950504    0.006634713    0.002686986
     18        1           0.014430910   -0.069504710    0.019660066
     19        8           0.018486352    0.025815971   -0.006768481
     20        1           0.042522078   -0.106399756    0.030052134
 -------------------------------------------------------------------
 Cartesian Forces:  Max     0.106399756 RMS     0.027245991

 GradGradGradGradGradGradGradGradGradGradGradGradGradGradGradGradGradGrad
 Berny optimization.
 FormGI is forming the generalized inverse of G from B-inverse, IUseBI=4.
 Internal  Forces:  Max     0.115037114 RMS     0.022672052
 Search for a local minimum.
 Step number   1 out of a maximum of  116
 All quantities printed in internal units (Hartrees-Bohrs-Radians)
 Mixed Optimization -- RFO/linear search
 Second derivative matrix not updated -- first step.
 ITU=  0
     Eigenvalues ---    0.00230   0.00983   0.01055   0.01222   0.01274
     Eigenvalues ---    0.01298   0.01386   0.01417   0.01423   0.01464
     Eigenvalues ---    0.01490   0.01554   0.01599   0.01776   0.02201
     Eigenvalues ---    0.02654   0.15079   0.15684   0.15738   0.15872
     Eigenvalues ---    0.15997   0.16000   0.17994   0.18458   0.20203
     Eigenvalues ---    0.21719   0.22443   0.23320   0.23380   0.23776
     Eigenvalues ---    0.23977   0.24292   0.24978   0.24995   0.26219
     Eigenvalues ---    0.26546   0.28392   0.30834   0.31325   0.31529
     Eigenvalues ---    0.34830   0.35160   0.35808   0.35849   0.36006
     Eigenvalues ---    0.36155   0.36335   0.37598   0.38299   0.38494
     Eigenvalues ---    0.39449   0.39632   0.407341000.000001000.00000
     Eigenvalues --- 1000.000001000.000001000.000001000.000001000.00000
     Eigenvalues --- 1000.000001000.000001000.000001000.000001000.00000
     Eigenvalues --- 1000.000001000.000001000.000001000.000001000.00000
     Eigenvalues --- 1000.000001000.000001000.000001000.000001000.00000
     Eigenvalues --- 1000.000001000.000001000.000001000.000001000.00000
     Eigenvalues --- 1000.000001000.000001000.000001000.000001000.00000
     Eigenvalues --- 1000.000001000.000001000.000001000.000001000.00000
     Eigenvalues --- 1000.000001000.000001000.000001000.000001000.00000
     Eigenvalues --- 1000.000001000.000001000.000001000.000001000.00000
     Eigenvalues --- 1000.000001000.000001000.000001000.000001000.00000
     Eigenvalues --- 1000.00000
 RFO step:  Lambda=-1.44125758D-01 EMin= 2.30000000D-03
 Linear search not attempted -- first point.
 Maximum step size (   0.300) exceeded in Quadratic search.
    -- Step size scaled by   0.486
 Iteration  1 RMS(Cart)=  0.06420203 RMS(Int)=  0.00172849
 Iteration  2 RMS(Cart)=  0.00207945 RMS(Int)=  0.00007403
 Iteration  3 RMS(Cart)=  0.00001133 RMS(Int)=  0.00007369
 Iteration  4 RMS(Cart)=  0.00000000 RMS(Int)=  0.00007369
 Iteration  1 RMS(Cart)=  0.00000150 RMS(Int)=  0.00000055
 Iteration  2 RMS(Cart)=  0.00000081 RMS(Int)=  0.00000062
 Variable       Old X    -DE/DX   Delta X   Delta X   Delta X     New X
                                 (Linear)    (Quad)   (Total)
    R1        2.71917  -0.02244   0.00000  -0.02115  -0.02108   2.69809
    R2        2.71391  -0.06267   0.00000  -0.05629  -0.05625   2.65766
    R3        3.19503  -0.09899   0.00000  -0.14623  -0.14623   3.04881
    R4        2.75906  -0.06512   0.00000  -0.06188  -0.06186   2.69721
    R5        2.35064  -0.07172   0.00000  -0.09638  -0.09638   2.25426
    R6        3.39578  -0.01658   0.00000  -0.01865  -0.01871   3.37707
    R7        2.74954  -0.01557   0.00000  -0.01454  -0.01454   2.73500
    R8        3.28671  -0.01505   0.00000  -0.01512  -0.01516   3.27155
    R9        2.04073  -0.00094   0.00000  -0.00090  -0.00090   2.03983
   R10        3.38332  -0.01087   0.00000  -0.01183  -0.01188   3.37144
   R11        2.76730  -0.06086   0.00000  -0.05841  -0.05844   2.70887
   R12        3.27029   0.00067   0.00000   0.00136   0.00136   3.27165
   R13        2.72239  -0.03045   0.00000  -0.02796  -0.02785   2.69454
   R14        2.69329  -0.00246   0.00000  -0.00291  -0.00286   2.69043
   R15        2.70829  -0.01407   0.00000  -0.01332  -0.01329   2.69500
   R16        3.27347   0.00162   0.00000   0.00254   0.00253   3.27600
   R17        2.03840   0.00148   0.00000   0.00143   0.00143   2.03982
   R18        3.33555  -0.01214   0.00000  -0.01301  -0.01308   3.32247
   R19        2.73049  -0.05764   0.00000  -0.05299  -0.05300   2.67749
   R20        2.04383  -0.00166   0.00000  -0.00161  -0.00161   2.04222
   R21        2.05415  -0.00413   0.00000  -0.00404  -0.00404   2.05011
   R22        2.39943  -0.11504   0.00000  -0.16136  -0.16136   2.23807
    A1        1.97020   0.02034   0.00000   0.02359   0.02371   1.99391
    A2        2.13260   0.00503   0.00000   0.00782   0.00777   2.14037
    A3        2.16079  -0.02471   0.00000  -0.02947  -0.02958   2.13121
    A4        1.97187  -0.00254   0.00000  -0.00517  -0.00507   1.96680
    A5        1.96334   0.02055   0.00000   0.03354   0.03349   1.99683
    A6        2.34288  -0.01783   0.00000  -0.02776  -0.02782   2.31506
    A7        1.90440  -0.00090   0.00000  -0.00038  -0.00042   1.90398
    A8        2.31891  -0.01100   0.00000  -0.01392  -0.01391   2.30500
    A9        2.05972   0.01190   0.00000   0.01429   0.01431   2.07403
   A10        1.95339  -0.01485   0.00000  -0.01951  -0.01951   1.93388
   A11        2.17580   0.01227   0.00000   0.01751   0.01750   2.19330
   A12        2.15384   0.00261   0.00000   0.00207   0.00206   2.15591
   A13        1.62490  -0.00204   0.00000   0.00148   0.00129   1.62619
   A14        2.12891  -0.00100   0.00000  -0.00100  -0.00100   2.12790
   A15        2.24023  -0.00622   0.00000  -0.00745  -0.00746   2.23277
   A16        1.91336   0.00731   0.00000   0.00864   0.00863   1.92199
   A17        1.61906  -0.00697   0.00000  -0.00664  -0.00661   1.61245
   A18        1.96146  -0.01050   0.00000  -0.01128  -0.01140   1.95006
   A19        2.23816   0.00849   0.00000   0.01449   0.01432   2.25248
   A20        1.96557   0.00584   0.00000   0.00708   0.00712   1.97269
   A21        1.96659   0.00794   0.00000   0.00895   0.00898   1.97557
   A22        1.96659  -0.01333   0.00000  -0.01469  -0.01476   1.95183
   A23        2.23711   0.00878   0.00000   0.01458   0.01443   2.25153
   A24        1.96356   0.00229   0.00000   0.00045   0.00052   1.96408
   A25        2.16080  -0.00498   0.00000  -0.00596  -0.00601   2.15479
   A26        2.14690   0.00320   0.00000   0.00702   0.00696   2.15387
   A27        1.59297   0.00042   0.00000   0.00184   0.00184   1.59481
   A28        1.95974   0.00165   0.00000   0.00114   0.00111   1.96085
   A29        2.13516  -0.00467   0.00000  -0.00609  -0.00616   2.12901
   A30        2.17123   0.00405   0.00000   0.00798   0.00793   2.17917
   A31        1.93959   0.00541   0.00000   0.00461   0.00467   1.94426
   A32        2.16582   0.00005   0.00000   0.00342   0.00329   2.16911
   A33        2.14109  -0.00353   0.00000  -0.00245  -0.00258   2.13851
   A34        2.33954  -0.06771   0.00000  -0.10810  -0.10810   2.23144
    D1        0.00683  -0.00055   0.00000  -0.00167  -0.00167   0.00516
    D2        3.05589  -0.00017   0.00000   0.00210   0.00228   3.05817
    D3       -2.93068  -0.00105   0.00000  -0.00815  -0.00838  -2.93906
    D4        0.11838  -0.00067   0.00000  -0.00438  -0.00443   0.11395
    D5       -0.00671   0.00047   0.00000   0.00114   0.00114  -0.00557
    D6       -3.13020  -0.00110   0.00000  -0.00263  -0.00261  -3.13280
    D7        2.92697   0.00514   0.00000   0.01294   0.01283   2.93981
    D8       -0.19651   0.00358   0.00000   0.00918   0.00909  -0.18743
    D9       -0.13323   0.00186   0.00000   0.00268   0.00262  -0.13061
   D10       -3.04818  -0.00449   0.00000  -0.01139  -0.01133  -3.05951
   D11       -0.00388   0.00054   0.00000   0.00159   0.00155  -0.00233
   D12        3.11762   0.00102   0.00000   0.00085   0.00082   3.11844
   D13       -3.02603  -0.00307   0.00000  -0.00820  -0.00816  -3.03418
   D14        0.09547  -0.00258   0.00000  -0.00894  -0.00889   0.08659
   D15        0.00006  -0.00018   0.00000  -0.00075  -0.00073  -0.00067
   D16       -3.12486  -0.00030   0.00000   0.00021   0.00024  -3.12462
   D17        2.70527  -0.00174   0.00000   0.00000  -0.00000   2.70527
   D18       -0.48056   0.00106   0.00000   0.00609   0.00609  -0.47446
   D19       -0.45783  -0.00136   0.00000  -0.00096  -0.00096  -0.45879
   D20        2.63953   0.00144   0.00000   0.00513   0.00513   2.64467
   D21        0.00376  -0.00018   0.00000  -0.00023  -0.00025   0.00351
   D22        3.12751   0.00148   0.00000   0.00367   0.00360   3.13111
   D23        3.13783   0.00062   0.00000   0.00113   0.00115   3.13898
   D24        0.03306  -0.00143   0.00000  -0.00360  -0.00364   0.02942
   D25       -3.13859  -0.00181   0.00000  -0.00366  -0.00362   3.14097
   D26       -0.15818   0.00194   0.00000   0.00726   0.00726  -0.15092
   D27       -0.03683   0.00058   0.00000   0.00167   0.00174  -0.03510
   D28        2.94358   0.00432   0.00000   0.01259   0.01262   2.95620
   D29       -0.02150   0.00228   0.00000   0.00507   0.00503  -0.01647
   D30       -2.61604  -0.00669   0.00000  -0.01771  -0.01774  -2.63379
   D31        0.00367  -0.00196   0.00000  -0.00462  -0.00458  -0.00092
   D32       -2.68828  -0.01075   0.00000  -0.02510  -0.02486  -2.71314
   D33        2.68675   0.00741   0.00000   0.01803   0.01788   2.70463
   D34       -0.00520  -0.00138   0.00000  -0.00245  -0.00240  -0.00760
   D35        2.61313   0.00613   0.00000   0.02052   0.02069   2.63382
   D36       -0.24646  -0.00060   0.00000  -0.00000   0.00008  -0.24639
   D37        0.01962   0.00127   0.00000   0.00232   0.00230   0.02192
   D38       -2.83997  -0.00547   0.00000  -0.01820  -0.01832  -2.85829
   D39        0.02202   0.00088   0.00000   0.00180   0.00177   0.02379
   D40       -2.95988  -0.00195   0.00000  -0.00764  -0.00772  -2.96760
   D41        2.62823   0.00429   0.00000   0.01653   0.01669   2.64492
   D42       -0.35366   0.00145   0.00000   0.00709   0.00720  -0.34646
   D43       -0.00817   0.00112   0.00000   0.00169   0.00167  -0.00650
   D44       -2.61439  -0.00756   0.00000  -0.01890  -0.01885  -2.63324
   D45        0.01943  -0.00030   0.00000  -0.00027  -0.00028   0.01915
   D46        2.97160   0.00592   0.00000   0.01733   0.01725   2.98886
   D47       -0.02569  -0.00040   0.00000  -0.00101  -0.00097  -0.02666
   D48        2.83859   0.00687   0.00000   0.02026   0.02030   2.85889
   D49       -2.97325  -0.00564   0.00000  -0.01722  -0.01727  -2.99052
   D50       -0.10898   0.00163   0.00000   0.00405   0.00401  -0.10497
         Item               Value     Threshold  Converged?
 Maximum Force            0.115037     0.000450     NO 
 RMS     Force            0.022778     0.000300     NO 
 Maximum Displacement     0.437330     0.001800     NO 
 RMS     Displacement     0.063586     0.001200     NO 
 Predicted change in Energy=-5.981919D-02
 GradGradGradGradGradGradGradGradGradGradGradGradGradGradGradGradGradGrad

                          Input orientation:                          
 ---------------------------------------------------------------------
 Center     Atomic      Atomic             Coordinates (Angstroms)
 Number     Number       Type             X           Y           Z
 ---------------------------------------------------------------------
      1          6           0       -4.223842   -1.354951   -0.227394
      2          6           0       -2.910957   -0.963897   -0.629808
      3          6           0       -1.987517   -2.052217   -0.628060
      4          6           0       -4.347052   -2.718442    0.094475
      5         16           0       -2.834804   -3.536815   -0.106828
      6          1           0       -5.253717   -3.210769    0.411870
      7          6           0       -0.585927   -2.135250   -0.979238
      8         16           0        0.483718   -3.391624   -0.300738
      9          6           0        1.853459   -2.803237   -1.181053
     10          6           0        1.515085   -1.684834   -1.998270
     11          6           0        0.141083   -1.314858   -1.902954
     12          1           0       -0.328440   -0.598426   -2.559792
     13         16           0        2.600391   -1.514438   -3.339308
     14          6           0        3.523739   -2.919518   -2.825144
     15          6           0        2.987922   -3.518829   -1.658425
     16          1           0        4.298044   -3.352720   -3.442144
     17          1           0        3.255230   -4.521624   -1.342362
     18          1           0       -2.822776    0.170165   -0.989183
     19          8           0       -5.509065   -0.395260   -0.400965
     20          1           0       -5.528575    0.738542   -0.742680
 ---------------------------------------------------------------------
                    Distance matrix (angstroms):
                    1          2          3          4          5
     1  C    0.000000
     2  C    1.427770   0.000000
     3  C    2.376524   1.427300   0.000000
     4  C    1.406373   2.380206   2.556035   0.000000
     5  S    2.589303   2.626635   1.787067   1.731228   0.000000
     6  H    2.216610   3.409113   3.618254   1.079429   2.495295
     7  C    3.795861   2.626772   1.447299   3.954621   2.789790
     8  S    5.129770   4.186402   2.829868   4.893435   3.327352
     9  C    6.319857   5.136799   3.952585   6.330916   4.865378
    10  C    6.014990   4.688527   3.778977   6.309721   5.092045
    11  C    4.675647   3.325510   2.588434   5.109121   4.125416
    12  H    4.602887   3.244658   2.932172   5.262019   4.575262
    13  S    7.501974   6.165991   5.356209   7.842669   6.639298
    14  C    8.319927   7.074550   5.996109   8.397258   6.942720
    15  C    7.664187   6.510184   5.288439   7.583872   6.025936
    16  H    9.324604   8.098481   7.008470   9.362033   7.876277
    17  H    8.198018   7.154510   5.839057   7.944221   6.291654
    18  H    2.206646   1.192905   2.401468   3.441188   3.810563
    19  O    1.613360   2.669435   3.898510   2.644411   4.136128
    20  H    2.520032   3.124574   4.510052   3.748007   5.093072
                    6          7          8          9         10
     6  H    0.000000
     7  C    4.988004   0.000000
     8  S    5.784348   1.784091   0.000000
     9  C    7.294892   2.537231   1.731284   0.000000
    10  C    7.345334   2.378141   2.618867   1.425891   0.000000
    11  C    6.169015   1.433471   2.645270   2.380892   1.426131
    12  H    6.317711   2.219523   3.683054   3.394525   2.212278
    13  S    8.867688   4.013473   4.151751   2.622398   1.733582
    14  C    9.359851   4.572942   3.979602   2.346570   2.498571
    15  C    8.503272   3.892041   2.851409   1.423714   2.376611
    16  H   10.300956   5.603687   4.941561   3.374975   3.551264
    17  H    8.786231   4.536643   3.169094   2.223474   3.392005
    18  H    4.393533   3.212247   4.908483   5.544828   4.824554
    19  O    2.941597   5.253499   6.700873   7.785477   7.317996
    20  H    4.123783   5.722273   7.307616   8.199439   7.553966
                   11         12         13         14         15
    11  C    0.000000
    12  H    1.079427   0.000000
    13  S    2.855021   3.166193   0.000000
    14  C    3.855870   4.505237   1.758176   0.000000
    15  C    3.608570   4.509930   2.644452   1.416865   0.000000
    16  H    4.878762   5.456100   2.504372   1.080695   2.219384
    17  H    4.505056   5.451267   3.668756   2.199428   1.084872
    18  H    3.438710   3.046188   6.145870   7.293500   6.915256
    19  O    5.918260   5.616110   8.697684   9.687108   9.139840
    20  H    6.140660   5.668403   8.826012   9.983108   9.565276
                   16         17         18         19         20
    16  H    0.000000
    17  H    2.619710   0.000000
    18  H    8.314675   7.686337   0.000000
    19  O   10.685257   9.732727   2.807463   0.000000
    20  H   10.981255  10.255935   2.775818   1.184337   0.000000
 Stoichiometry    C10H6OS3
 Framework group  C1[X(C10H6OS3)]
 Deg. of freedom    54
 Full point group                 C1      NOp   1
 Largest Abelian subgroup         C1      NOp   1
 Largest concise Abelian subgroup C1      NOp   1
                         Standard orientation:                         
 ---------------------------------------------------------------------
 Center     Atomic      Atomic             Coordinates (Angstroms)
 Number     Number       Type             X           Y           Z
 ---------------------------------------------------------------------
      1          6           0        3.828034    0.607972   -0.097351
      2          6           0        2.497000    1.038058   -0.383537
      3          6           0        1.523001    0.029738   -0.115577
      4          6           0        3.918315   -0.711611    0.380599
      5         16           0        2.349119   -1.434676    0.489921
      6          1           0        4.829210   -1.218768    0.660295
      7          6           0        0.080094    0.021064   -0.227905
      8         16           0       -0.838813   -1.490228   -0.461537
      9          6           0       -2.353055   -0.651222   -0.483561
     10          6           0       -2.181960    0.751857   -0.295772
     11          6           0       -0.817719    1.134584   -0.133859
     12          1           0       -0.510020    2.123020    0.171883
     13         16           0       -3.607777    1.493987    0.353532
     14          6           0       -4.452658   -0.047757    0.373111
     15          6           0       -3.640401   -1.113116   -0.088144
     16          1           0       -5.416141   -0.166500    0.847982
     17          1           0       -3.888326   -2.154410    0.088458
     18          1           0        2.407137    2.183818   -0.703194
     19          8           0        5.079585    1.624952   -0.049328
     20          1           0        5.097095    2.770487   -0.349491
 ---------------------------------------------------------------------
 Rotational constants (GHZ):           1.3672803           0.2350049           0.2055162
 Standard basis: 6-311+G(d,p) (5D, 7F)
 There are   382 symmetry adapted cartesian basis functions of A   symmetry.
 There are   368 symmetry adapted basis functions of A   symmetry.
   368 basis functions,   594 primitive gaussians,   382 cartesian basis functions
    61 alpha electrons       61 beta electrons
       nuclear repulsion energy      1089.5894241869 Hartrees.
 NAtoms=   20 NActive=   20 NUniq=   20 SFac= 1.00D+00 NAtFMM=   60 NAOKFM=F Big=F
 Integral buffers will be    131072 words long.
 Raffenetti 2 integral format.
 Two-electron integral symmetry is turned on.
 One-electron integrals computed using PRISM.
 NBasis=   368 RedAO= T EigKep=  2.40D-06  NBF=   368
 NBsUse=   367 1.00D-06 EigRej=  4.28D-07 NBFU=   367
 Initial guess from the checkpoint file:  "/tmp/pbs.4730634[330].pbs/Gau-1878305.chk"
 B after Tr=    -0.000000    0.000000    0.000000
         Rot=    0.999995    0.001968   -0.000392   -0.002432 Ang=   0.36 deg.
 ExpMin= 4.05D-02 ExpMax= 9.34D+04 ExpMxC= 3.17D+03 IAcc=3 IRadAn=         5 AccDes= 0.00D+00
 Harris functional with IExCor=  402 and IRadAn=       5 diagonalized for initial guess.
 HarFok:  IExCor=  402 AccDes= 0.00D+00 IRadAn=         5 IDoV= 1 UseB2=F ITyADJ=14
 ICtDFT=  3500011 ScaDFX=  1.000000  1.000000  1.000000  1.000000
 FoFCou: FMM=F IPFlag=           0 FMFlag=      100000 FMFlg1=           0
         NFxFlg=           0 DoJE=T BraDBF=F KetDBF=T FulRan=T
         wScrn=  0.000000 ICntrl=       500 IOpCl=  0 I1Cent=   200000004 NGrid=           0
         NMat0=    1 NMatS0=      1 NMatT0=    0 NMatD0=    1 NMtDS0=    0 NMtDT0=    0
 Petite list used in FoFCou.
 Requested convergence on RMS density matrix=1.00D-08 within 128 cycles.
 Requested convergence on MAX density matrix=1.00D-06.
 Requested convergence on             energy=1.00D-06.
 No special actions if energy rises.
 SCF Done:  E(RB3LYP) =  -1654.52756859     A.U. after   14 cycles
            NFock= 14  Conv=0.63D-08     -V/T= 2.0029
 Calling FoFJK, ICntrl=      2127 FMM=F ISym2X=0 I1Cent= 0 IOpClX= 0 NMat=1 NMatS=1 NMatT=0.
 ***** Axes restored to original set *****
 -------------------------------------------------------------------
 Center     Atomic                   Forces (Hartrees/Bohr)
 Number     Number              X              Y              Z
 -------------------------------------------------------------------
      1        6          -0.032621521    0.025094876   -0.021921561
      2        6           0.001679556    0.025291729   -0.014963455
      3        6          -0.024261619    0.018766449    0.005082520
      4        6          -0.010046533    0.041808960   -0.005034738
      5       16          -0.000230711    0.016190775   -0.000664764
      6        1           0.002539741   -0.003172749   -0.000745207
      7        6           0.022905947    0.024557424   -0.027257261
      8       16          -0.007177826    0.009771240    0.007461258
      9        6           0.000418152    0.007531542   -0.026841241
     10        6          -0.018081087   -0.021080641    0.012141094
     11        6          -0.011763732   -0.023761488    0.026692570
     12        1          -0.002561930    0.002844407    0.003103140
     13       16           0.013372165   -0.003033913    0.003251914
     14        6          -0.020249082   -0.018135255    0.032938529
     15        6           0.008288506    0.014679835   -0.036140818
     16        1           0.002462208    0.006253708    0.000482202
     17        1           0.005244843    0.005264283    0.003641555
     18        1           0.010986387   -0.054692078    0.016547455
     19        8           0.031745491    0.029699747   -0.008243267
     20        1           0.027351047   -0.103878849    0.030470075
 -------------------------------------------------------------------
 Cartesian Forces:  Max     0.103878849 RMS     0.023419461

 GradGradGradGradGradGradGradGradGradGradGradGradGradGradGradGradGradGrad
 Berny optimization.
 Using GEDIIS/GDIIS optimizer.
 FormGI is forming the generalized inverse of G from B-inverse, IUseBI=4.
 Internal  Forces:  Max     0.108688255 RMS     0.018801954
 Search for a local minimum.
 Step number   2 out of a maximum of  116
 All quantities printed in internal units (Hartrees-Bohrs-Radians)
 Mixed Optimization -- RFO/linear search
 Update second derivatives using D2CorX and points    1    2
 DE= -6.48D-02 DEPred=-5.98D-02 R= 1.08D+00
 TightC=F SS=  1.41D+00  RLast= 3.08D-01 DXNew= 5.0454D-01 9.2349D-01
 Trust test= 1.08D+00 RLast= 3.08D-01 DXMaxT set to 5.05D-01
 ITU=  1  0
 Use linear search instead of GDIIS.
 Linear search step of   0.600 exceeds DXMaxT=   0.505 but not scaled.
 Quartic linear search produced a step of  2.00000.
 Iteration  1 RMS(Cart)=  0.11141375 RMS(Int)=  0.01918884
 Iteration  2 RMS(Cart)=  0.02233664 RMS(Int)=  0.00044281
 Iteration  3 RMS(Cart)=  0.00008175 RMS(Int)=  0.00044062
 Iteration  4 RMS(Cart)=  0.00000001 RMS(Int)=  0.00044062
 Iteration  1 RMS(Cart)=  0.00000774 RMS(Int)=  0.00000301
 Iteration  2 RMS(Cart)=  0.00000421 RMS(Int)=  0.00000336
 Iteration  3 RMS(Cart)=  0.00000229 RMS(Int)=  0.00000380
 Iteration  4 RMS(Cart)=  0.00000125 RMS(Int)=  0.00000408
 Iteration  5 RMS(Cart)=  0.00000068 RMS(Int)=  0.00000425
 Variable       Old X    -DE/DX   Delta X   Delta X   Delta X     New X
                                 (Linear)    (Quad)   (Total)
    R1        2.69809  -0.01216  -0.04215   0.00000  -0.04166   2.65643
    R2        2.65766  -0.04206  -0.11250   0.00000  -0.11223   2.54543
    R3        3.04881  -0.09359  -0.29245   0.00000  -0.29245   2.75636
    R4        2.69721  -0.04368  -0.12372   0.00000  -0.12358   2.57362
    R5        2.25426  -0.05617  -0.19275   0.00000  -0.19275   2.06151
    R6        3.37707  -0.01242  -0.03743   0.00000  -0.03783   3.33923
    R7        2.73500  -0.00707  -0.02907   0.00000  -0.02907   2.70592
    R8        3.27155  -0.00713  -0.03033   0.00000  -0.03063   3.24091
    R9        2.03983  -0.00091  -0.00181   0.00000  -0.00181   2.03802
   R10        3.37144  -0.00757  -0.02376   0.00000  -0.02408   3.34737
   R11        2.70887  -0.04310  -0.11687   0.00000  -0.11702   2.59185
   R12        3.27165   0.00246   0.00273   0.00000   0.00276   3.27441
   R13        2.69454  -0.02112  -0.05570   0.00000  -0.05504   2.63950
   R14        2.69043  -0.00035  -0.00572   0.00000  -0.00538   2.68504
   R15        2.69500  -0.00743  -0.02658   0.00000  -0.02638   2.66862
   R16        3.27600   0.00304   0.00505   0.00000   0.00497   3.28097
   R17        2.03982   0.00111   0.00285   0.00000   0.00285   2.04267
   R18        3.32247  -0.00805  -0.02616   0.00000  -0.02656   3.29591
   R19        2.67749  -0.04016  -0.10601   0.00000  -0.10610   2.57139
   R20        2.04222  -0.00102  -0.00322   0.00000  -0.00322   2.03900
   R21        2.05011  -0.00251  -0.00809   0.00000  -0.00809   2.04203
   R22        2.23807  -0.10869  -0.32272   0.00000  -0.32272   1.91536
    A1        1.99391   0.01148   0.04742   0.00000   0.04811   2.04202
    A2        2.14037   0.00636   0.01554   0.00000   0.01522   2.15558
    A3        2.13121  -0.01716  -0.05915   0.00000  -0.05977   2.07143
    A4        1.96680  -0.00126  -0.01014   0.00000  -0.00951   1.95730
    A5        1.99683   0.01724   0.06698   0.00000   0.06667   2.06350
    A6        2.31506  -0.01581  -0.05564   0.00000  -0.05603   2.25903
    A7        1.90398   0.00097  -0.00083   0.00000  -0.00100   1.90298
    A8        2.30500  -0.00960  -0.02782   0.00000  -0.02773   2.27727
    A9        2.07403   0.00864   0.02862   0.00000   0.02870   2.10272
   A10        1.93388  -0.00805  -0.03901   0.00000  -0.03899   1.89490
   A11        2.19330   0.00805   0.03500   0.00000   0.03497   2.22827
   A12        2.15591   0.00002   0.00412   0.00000   0.00409   2.15999
   A13        1.62619  -0.00314   0.00258   0.00000   0.00139   1.62757
   A14        2.12790  -0.00098  -0.00201   0.00000  -0.00203   2.12587
   A15        2.23277  -0.00448  -0.01492   0.00000  -0.01494   2.21782
   A16        1.92199   0.00553   0.01727   0.00000   0.01725   1.93924
   A17        1.61245  -0.00505  -0.01322   0.00000  -0.01311   1.59933
   A18        1.95006  -0.00726  -0.02280   0.00000  -0.02348   1.92658
   A19        2.25248   0.00682   0.02865   0.00000   0.02765   2.28013
   A20        1.97269   0.00381   0.01423   0.00000   0.01445   1.98714
   A21        1.97557   0.00485   0.01795   0.00000   0.01808   1.99364
   A22        1.95183  -0.00882  -0.02952   0.00000  -0.02990   1.92193
   A23        2.25153   0.00699   0.02885   0.00000   0.02793   2.27947
   A24        1.96408   0.00197   0.00103   0.00000   0.00142   1.96550
   A25        2.15479  -0.00361  -0.01202   0.00000  -0.01234   2.14245
   A26        2.15387   0.00208   0.01392   0.00000   0.01358   2.16744
   A27        1.59481  -0.00061   0.00367   0.00000   0.00362   1.59843
   A28        1.96085   0.00209   0.00223   0.00000   0.00206   1.96291
   A29        2.12901  -0.00470  -0.01231   0.00000  -0.01269   2.11632
   A30        2.17917   0.00351   0.01587   0.00000   0.01559   2.19476
   A31        1.94426   0.00353   0.00934   0.00000   0.00970   1.95396
   A32        2.16911  -0.00011   0.00658   0.00000   0.00579   2.17489
   A33        2.13851  -0.00179  -0.00517   0.00000  -0.00600   2.13251
   A34        2.23144  -0.05715  -0.21620   0.00000  -0.21620   2.01524
    D1        0.00516  -0.00030  -0.00334   0.00000  -0.00336   0.00181
    D2        3.05817   0.00050   0.00456   0.00000   0.00559   3.06376
    D3       -2.93906  -0.00208  -0.01676   0.00000  -0.01807  -2.95713
    D4        0.11395  -0.00128  -0.00886   0.00000  -0.00913   0.10483
    D5       -0.00557   0.00028   0.00229   0.00000   0.00234  -0.00323
    D6       -3.13280  -0.00108  -0.00521   0.00000  -0.00507  -3.13788
    D7        2.93981   0.00500   0.02567   0.00000   0.02504   2.96485
    D8       -0.18743   0.00364   0.01817   0.00000   0.01763  -0.16980
    D9       -0.13061   0.00142   0.00524   0.00000   0.00486  -0.12575
   D10       -3.05951  -0.00394  -0.02266   0.00000  -0.02228  -3.08179
   D11       -0.00233   0.00025   0.00310   0.00000   0.00285   0.00052
   D12        3.11844   0.00077   0.00164   0.00000   0.00144   3.11988
   D13       -3.03418  -0.00320  -0.01631   0.00000  -0.01601  -3.05020
   D14        0.08659  -0.00268  -0.01777   0.00000  -0.01743   0.06916
   D15       -0.00067  -0.00005  -0.00145   0.00000  -0.00130  -0.00197
   D16       -3.12462  -0.00026   0.00047   0.00000   0.00068  -3.12394
   D17        2.70527  -0.00178  -0.00000   0.00000   0.00000   2.70527
   D18       -0.47446   0.00089   0.01219   0.00000   0.01224  -0.46222
   D19       -0.45879  -0.00132  -0.00192   0.00000  -0.00193  -0.46072
   D20        2.64467   0.00136   0.01027   0.00000   0.01031   2.65498
   D21        0.00351  -0.00013  -0.00050   0.00000  -0.00062   0.00289
   D22        3.13111   0.00127   0.00719   0.00000   0.00676   3.13787
   D23        3.13898   0.00071   0.00229   0.00000   0.00240   3.14138
   D24        0.02942  -0.00135  -0.00728   0.00000  -0.00748   0.02194
   D25        3.14097  -0.00159  -0.00725   0.00000  -0.00705   3.13391
   D26       -0.15092   0.00187   0.01452   0.00000   0.01452  -0.13641
   D27       -0.03510   0.00073   0.00347   0.00000   0.00383  -0.03127
   D28        2.95620   0.00419   0.02524   0.00000   0.02540   2.98159
   D29       -0.01647   0.00185   0.01006   0.00000   0.00980  -0.00666
   D30       -2.63379  -0.00609  -0.03549   0.00000  -0.03567  -2.66946
   D31       -0.00092  -0.00151  -0.00917   0.00000  -0.00897  -0.00989
   D32       -2.71314  -0.00922  -0.04973   0.00000  -0.04831  -2.76145
   D33        2.70463   0.00671   0.03576   0.00000   0.03486   2.73949
   D34       -0.00760  -0.00099  -0.00480   0.00000  -0.00448  -0.01208
   D35        2.63382   0.00620   0.04138   0.00000   0.04237   2.67619
   D36       -0.24639  -0.00023   0.00015   0.00000   0.00061  -0.24578
   D37        0.02192   0.00080   0.00460   0.00000   0.00445   0.02638
   D38       -2.85829  -0.00563  -0.03663   0.00000  -0.03730  -2.89559
   D39        0.02379   0.00052   0.00354   0.00000   0.00341   0.02719
   D40       -2.96760  -0.00237  -0.01544   0.00000  -0.01591  -2.98351
   D41        2.64492   0.00489   0.03338   0.00000   0.03431   2.67923
   D42       -0.34646   0.00200   0.01440   0.00000   0.01499  -0.33147
   D43       -0.00650   0.00091   0.00333   0.00000   0.00317  -0.00333
   D44       -2.63324  -0.00658  -0.03771   0.00000  -0.03742  -2.67066
   D45        0.01915  -0.00039  -0.00056   0.00000  -0.00058   0.01857
   D46        2.98886   0.00542   0.03450   0.00000   0.03399   3.02285
   D47       -0.02666  -0.00008  -0.00195   0.00000  -0.00176  -0.02842
   D48        2.85889   0.00649   0.04061   0.00000   0.04081   2.89970
   D49       -2.99052  -0.00513  -0.03454   0.00000  -0.03481  -3.02533
   D50       -0.10497   0.00144   0.00802   0.00000   0.00776  -0.09721
         Item               Value     Threshold  Converged?
 Maximum Force            0.108688     0.000450     NO 
 RMS     Force            0.018890     0.000300     NO 
 Maximum Displacement     0.782305     0.001800     NO 
 RMS     Displacement     0.122927     0.001200     NO 
 Predicted change in Energy=-9.543607D-02
 GradGradGradGradGradGradGradGradGradGradGradGradGradGradGradGradGradGrad

                          Input orientation:                          
 ---------------------------------------------------------------------
 Center     Atomic      Atomic             Coordinates (Angstroms)
 Number     Number       Type             X           Y           Z
 ---------------------------------------------------------------------
      1          6           0       -4.167927   -1.339772   -0.263362
      2          6           0       -2.868614   -0.988753   -0.669113
      3          6           0       -2.018293   -2.052306   -0.644835
      4          6           0       -4.375063   -2.625871    0.079278
      5         16           0       -2.901216   -3.483741   -0.102711
      6          1           0       -5.295824   -3.079791    0.409823
      7          6           0       -0.633600   -2.143583   -0.997920
      8         16           0        0.425067   -3.386411   -0.310692
      9          6           0        1.783424   -2.797645   -1.211034
     10          6           0        1.409281   -1.706006   -1.997987
     11          6           0        0.046019   -1.353799   -1.889828
     12          1           0       -0.447005   -0.631765   -2.525451
     13         16           0        2.527565   -1.505006   -3.310801
     14          6           0        3.470554   -2.873125   -2.780732
     15          6           0        2.947371   -3.467997   -1.674400
     16          1           0        4.288716   -3.252442   -3.373146
     17          1           0        3.267057   -4.444721   -1.340491
     18          1           0       -2.695346    0.029027   -1.021499
     19          8           0       -5.321568   -0.458669   -0.405804
     20          1           0       -5.114597    0.483375   -0.717293
 ---------------------------------------------------------------------
                    Distance matrix (angstroms):
                    1          2          3          4          5
     1  C    0.000000
     2  C    1.405725   0.000000
     3  C    2.296552   1.361904   0.000000
     4  C    1.346982   2.347261   2.531339   0.000000
     5  S    2.495390   2.558679   1.767047   1.715017   0.000000
     6  H    2.180137   3.380517   3.593082   1.078474   2.481938
     7  C    3.698263   2.537131   1.431913   3.923200   2.781996
     8  S    5.028574   4.089690   2.803836   4.875627   3.334199
     9  C    6.200165   5.020679   3.915247   6.294550   4.862608
    10  C    5.852204   4.536600   3.701244   6.214484   5.033169
    11  C    4.516960   3.180958   2.509842   5.004150   4.051745
    12  H    4.411754   3.072071   2.832596   5.117686   4.475107
    13  S    7.358246   6.030239   5.298277   7.771437   6.609000
    14  C    8.187472   6.942250   5.946700   8.354309   6.938594
    15  C    7.559619   6.401792   5.265169   7.576450   6.056106
    16  H    9.211073   7.978938   6.975842   9.347346   7.902174
    17  H    8.128954   7.073960   5.843159   7.982853   6.364210
    18  H    2.148692   1.090905   2.220862   3.328911   3.636770
    19  O    1.458602   2.523352   3.675383   2.414114   3.886005
    20  H    2.103831   2.685875   4.002753   3.293760   4.584188
                    6          7          8          9         10
     6  H    0.000000
     7  C    4.959290   0.000000
     8  S    5.774231   1.771350   0.000000
     9  C    7.267911   2.513010   1.732742   0.000000
    10  C    7.255568   2.316240   2.576704   1.396765   0.000000
    11  C    6.066526   1.371547   2.601704   2.358819   1.412172
    12  H    6.174116   2.157258   3.640569   3.375432   2.208622
    13  S    8.805022   3.968647   4.118354   2.575594   1.736215
    14  C    9.331224   4.533732   3.954687   2.305657   2.494735
    15  C    8.511461   3.877507   2.868515   1.420864   2.361153
    16  H   10.305536   5.576779   4.931973   3.340368   3.545938
    17  H    8.845878   4.541775   3.202720   2.220537   3.374046
    18  H    4.298363   2.995260   4.680538   5.299563   4.561998
    19  O    2.745212   5.016630   6.450158   7.523305   7.028174
    20  H    3.741576   5.201826   6.769671   7.654513   6.999611
                   11         12         13         14         15
    11  C    0.000000
    12  H    1.080936   0.000000
    13  S    2.863581   3.198029   0.000000
    14  C    3.850909   4.520634   1.744119   0.000000
    15  C    3.596399   4.504475   2.589861   1.360721   0.000000
    16  H    4.879093   5.478466   2.481748   1.078993   2.175179
    17  H    4.497850   5.453166   3.615368   2.141405   1.080593
    18  H    3.190813   2.784520   5.905333   7.038160   6.670511
    19  O    5.640442   5.318292   8.434614   9.421852   8.890487
    20  H    5.601965   5.128293   8.311593   9.446094   9.029105
                   16         17         18         19         20
    16  H    0.000000
    17  H    2.568462   0.000000
    18  H    8.066932   7.460993   0.000000
    19  O   10.438767   9.514553   2.741163   0.000000
    20  H   10.460984   9.743030   2.480273   1.013563   0.000000
 Stoichiometry    C10H6OS3
 Framework group  C1[X(C10H6OS3)]
 Deg. of freedom    54
 Full point group                 C1      NOp   1
 Largest Abelian subgroup         C1      NOp   1
 Largest concise Abelian subgroup C1      NOp   1
                         Standard orientation:                         
 ---------------------------------------------------------------------
 Center     Atomic      Atomic             Coordinates (Angstroms)
 Number     Number       Type             X           Y           Z
 ---------------------------------------------------------------------
      1          6           0        3.733459    0.648330   -0.103699
      2          6           0        2.407797    1.036356   -0.364693
      3          6           0        1.519179    0.039157   -0.098736
      4          6           0        3.925484   -0.604770    0.351523
      5         16           0        2.400300   -1.378085    0.482217
      6          1           0        4.860651   -1.076700    0.608135
      7          6           0        0.091036    0.015346   -0.199804
      8         16           0       -0.803115   -1.495574   -0.434959
      9          6           0       -2.318588   -0.655525   -0.442421
     10          6           0       -2.116223    0.714695   -0.262149
     11          6           0       -0.762337    1.085064   -0.107071
[...]
 Stoichiometry    C10H6OS3
 Framework group  C1[X(C10H6OS3)]
 Deg. of freedom    54
 Full point group                 C1      NOp   1
 Largest Abelian subgroup         C1      NOp   1
 Largest concise Abelian subgroup C1      NOp   1
                         Standard orientation:                         
 ---------------------------------------------------------------------
 Center     Atomic      Atomic             Coordinates (Angstroms)
 Number     Number       Type             X           Y           Z
 ---------------------------------------------------------------------
      1          6           0        3.762394    0.765203   -0.115515
      2          6           0        2.380037    1.075656   -0.260228
      3          6           0        1.556668    0.001166   -0.011107
      4          6           0        3.992424   -0.535825    0.236298
      5         16           0        2.503962   -1.404642    0.419316
      6          1           0        4.941816   -1.021865    0.391613
      7          6           0        0.107443   -0.023065   -0.024602
      8         16           0       -0.775014   -1.526674   -0.332715
      9          6           0       -2.302192   -0.704574   -0.169954
     10          6           0       -2.107507    0.646755    0.087100
     11          6           0       -0.746769    1.035908    0.179337
     12          1           0       -0.402809    2.032876    0.416484
     13         16           0       -3.637910    1.466642    0.251784
     14          6           0       -4.496955   -0.030388   -0.032762
     15          6           0       -3.668462   -1.096099   -0.239045
     16          1           0       -5.576181   -0.023649   -0.029655
     17          1           0       -4.020938   -2.100167   -0.429510
     18          1           0        2.010021    2.044800   -0.571482
     19          8           0        4.787176    1.648410   -0.315645
     20          1           0        4.431600    2.507088   -0.563575
 ---------------------------------------------------------------------
 Rotational constants (GHZ):           1.4456544           0.2396305           0.2084595

 **********************************************************************

            Population analysis using the SCF Density.

 **********************************************************************

 Orbital symmetries:
       Occupied  (A) (A) (A) (A) (A) (A) (A) (A) (A) (A) (A) (A)
                 (A) (A) (A) (A) (A) (A) (A) (A) (A) (A) (A) (A)
                 (A) (A) (A) (A) (A) (A) (A) (A) (A) (A) (A) (A)
                 (A) (A) (A) (A) (A) (A) (A) (A) (A) (A) (A) (A)
                 (A) (A) (A) (A) (A) (A) (A) (A) (A) (A) (A) (A)
                 (A)
       Virtual   (A) (A) (A) (A) (A) (A) (A) (A) (A) (A) (A) (A)
                 (A) (A) (A) (A) (A) (A) (A) (A) (A) (A) (A) (A)
                 (A) (A) (A) (A) (A) (A) (A) (A) (A) (A) (A) (A)
                 (A) (A) (A) (A) (A) (A) (A) (A) (A) (A) (A) (A)
                 (A) (A) (A) (A) (A) (A) (A) (A) (A) (A) (A) (A)
                 (A) (A) (A) (A) (A) (A) (A) (A) (A) (A) (A) (A)
                 (A) (A) (A) (A) (A) (A) (A) (A) (A) (A) (A) (A)
                 (A) (A) (A) (A) (A) (A) (A) (A) (A) (A) (A) (A)
                 (A) (A) (A) (A) (A) (A) (A) (A) (A) (A) (A) (A)
                 (A) (A) (A) (A) (A) (A) (A) (A) (A) (A) (A) (A)
                 (A) (A) (A) (A) (A) (A) (A) (A) (A) (A) (A) (A)
                 (A) (A) (A) (A) (A) (A) (A) (A) (A) (A) (A) (A)
                 (A) (A) (A) (A) (A) (A) (A) (A) (A) (A) (A) (A)
                 (A) (A) (A) (A) (A) (A) (A) (A) (A) (A) (A) (A)
                 (A) (A) (A) (A) (A) (A) (A) (A) (A) (A) (A) (A)
                 (A) (A) (A) (A) (A) (A) (A) (A) (A) (A) (A) (A)
                 (A) (A) (A) (A) (A) (A) (A) (A) (A) (A) (A) (A)
                 (A) (A) (A) (A) (A) (A) (A) (A) (A) (A) (A) (A)
                 (A) (A) (A) (A) (A) (A) (A) (A) (A) (A) (A) (A)
                 (A) (A) (A) (A) (A) (A) (A) (A) (A) (A) (A) (A)
                 (A) (A) (A) (A) (A) (A) (A) (A) (A) (A) (A) (A)
                 (A) (A) (A) (A) (A) (A) (A) (A) (A) (A) (A) (A)
                 (A) (A) (A) (A) (A) (A) (A) (A) (A) (A) (A) (A)
                 (A) (A) (A) (A) (A) (A) (A) (A) (A) (A) (A) (A)
                 (A) (A) (A) (A) (A) (A) (A) (A) (A) (A) (A) (A)
                 (A) (A) (A) (A) (A)
 The electronic state is 1-A.
 Alpha  occ. eigenvalues --  -88.88791 -88.88777 -88.88586 -19.16594 -10.24680
 Alpha  occ. eigenvalues --  -10.22948 -10.22791 -10.21593 -10.21529 -10.21372
 Alpha  occ. eigenvalues --  -10.19763 -10.19743 -10.19685 -10.19099  -7.97365
 Alpha  occ. eigenvalues --   -7.97356  -7.97183  -5.93678  -5.93678  -5.93490
 Alpha  occ. eigenvalues --   -5.93316  -5.93313  -5.93113  -5.92912  -5.92877
 Alpha  occ. eigenvalues --   -5.92749  -1.07595  -0.92133  -0.89499  -0.85322
 Alpha  occ. eigenvalues --   -0.77772  -0.76355  -0.74593  -0.71783  -0.70631
 Alpha  occ. eigenvalues --   -0.63302  -0.59053  -0.57868  -0.55230  -0.54880
 Alpha  occ. eigenvalues --   -0.53796  -0.50277  -0.48580  -0.44176  -0.43807
 Alpha  occ. eigenvalues --   -0.43256  -0.42021  -0.41521  -0.40467  -0.39610
 Alpha  occ. eigenvalues --   -0.38145  -0.37668  -0.37000  -0.35833  -0.34445
 Alpha  occ. eigenvalues --   -0.33925  -0.29627  -0.26887  -0.24702  -0.23907
 Alpha  occ. eigenvalues --   -0.20825
 Alpha virt. eigenvalues --   -0.06674  -0.02368  -0.01610  -0.00892  -0.00403
 Alpha virt. eigenvalues --    0.00454   0.01284   0.01636   0.01786   0.02675
 Alpha virt. eigenvalues --    0.02860   0.03278   0.04062   0.04214   0.04613
 Alpha virt. eigenvalues --    0.04770   0.05337   0.05752   0.06741   0.07224
 Alpha virt. eigenvalues --    0.07797   0.08031   0.08267   0.08778   0.09179
 Alpha virt. eigenvalues --    0.09528   0.09766   0.10715   0.11027   0.11661
 Alpha virt. eigenvalues --    0.12010   0.12502   0.12543   0.12994   0.13584
 Alpha virt. eigenvalues --    0.13812   0.14096   0.15165   0.15266   0.15901
 Alpha virt. eigenvalues --    0.16297   0.16492   0.16866   0.17198   0.17889
 Alpha virt. eigenvalues --    0.18352   0.18418   0.18892   0.19242   0.19625
 Alpha virt. eigenvalues --    0.19933   0.20170   0.20997   0.21264   0.21463
 Alpha virt. eigenvalues --    0.22331   0.22458   0.22664   0.23303   0.23456
 Alpha virt. eigenvalues --    0.24385   0.25137   0.25255   0.26211   0.26232
 Alpha virt. eigenvalues --    0.26667   0.27369   0.28235   0.29107   0.30204
 Alpha virt. eigenvalues --    0.30450   0.31712   0.31822   0.32898   0.33176
 Alpha virt. eigenvalues --    0.33780   0.34327   0.34980   0.35271   0.36448
 Alpha virt. eigenvalues --    0.37334   0.37725   0.39210   0.39494   0.41265
 Alpha virt. eigenvalues --    0.42669   0.44181   0.44296   0.45024   0.48535
 Alpha virt. eigenvalues --    0.50165   0.50602   0.52496   0.53594   0.54311
 Alpha virt. eigenvalues --    0.54996   0.55532   0.55967   0.57339   0.57854
 Alpha virt. eigenvalues --    0.58258   0.58307   0.60209   0.60712   0.61955
 Alpha virt. eigenvalues --    0.62621   0.62770   0.63541   0.66086   0.67048
 Alpha virt. eigenvalues --    0.69235   0.69968   0.70454   0.71507   0.71985
 Alpha virt. eigenvalues --    0.72764   0.73811   0.74395   0.75294   0.76402
 Alpha virt. eigenvalues --    0.77072   0.77964   0.78510   0.78908   0.79613
 Alpha virt. eigenvalues --    0.81611   0.81976   0.82665   0.83170   0.84026
 Alpha virt. eigenvalues --    0.85015   0.85083   0.86229   0.87068   0.87628
 Alpha virt. eigenvalues --    0.88763   0.88835   0.89637   0.90571   0.93067
 Alpha virt. eigenvalues --    0.93956   0.95656   0.96358   0.97059   0.99021
 Alpha virt. eigenvalues --    1.01279   1.02871   1.04080   1.04109   1.05039
 Alpha virt. eigenvalues --    1.05563   1.06579   1.07912   1.08696   1.11649
 Alpha virt. eigenvalues --    1.12342   1.13718   1.14980   1.17180   1.18121
 Alpha virt. eigenvalues --    1.20138   1.22091   1.26651   1.27037   1.33762
 Alpha virt. eigenvalues --    1.34760   1.36191   1.37838   1.38630   1.41894
 Alpha virt. eigenvalues --    1.43386   1.50637   1.52185   1.54790   1.56189
 Alpha virt. eigenvalues --    1.57610   1.58601   1.59346   1.60689   1.61044
 Alpha virt. eigenvalues --    1.61873   1.63333   1.65576   1.67679   1.68422
 Alpha virt. eigenvalues --    1.70492   1.71636   1.72169   1.74515   1.75659
 Alpha virt. eigenvalues --    1.75890   1.78007   1.80556   1.81186   1.84101
 Alpha virt. eigenvalues --    1.84352   1.85944   1.88927   1.90023   1.92943
 Alpha virt. eigenvalues --    1.93782   1.95544   1.96666   1.97477   1.99113
 Alpha virt. eigenvalues --    2.01020   2.01777   2.02293   2.03537   2.05299
 Alpha virt. eigenvalues --    2.06859   2.07017   2.08575   2.09269   2.11089
 Alpha virt. eigenvalues --    2.11452   2.15247   2.16485   2.17581   2.20979
 Alpha virt. eigenvalues --    2.24148   2.27781   2.29999   2.35397   2.39948
 Alpha virt. eigenvalues --    2.41101   2.42776   2.49406   2.52551   2.57942
 Alpha virt. eigenvalues --    2.61914   2.66309   2.66853   2.68091   2.69551
 Alpha virt. eigenvalues --    2.70231   2.70594   2.72854   2.73626   2.74779
 Alpha virt. eigenvalues --    2.76600   2.78334   2.81574   2.84214   2.87551
 Alpha virt. eigenvalues --    2.91322   2.93816   2.94576   2.97223   3.00805
 Alpha virt. eigenvalues --    3.04992   3.07932   3.10745   3.12458   3.16935
 Alpha virt. eigenvalues --    3.17092   3.18878   3.24636   3.28794   3.29323
 Alpha virt. eigenvalues --    3.34105   3.35556   3.43663   3.45523   3.47697
 Alpha virt. eigenvalues --    3.56269   3.61905   3.65260   3.81395   3.87575
 Alpha virt. eigenvalues --    3.96205   4.08987   4.11521   4.21288   4.36225
 Alpha virt. eigenvalues --    4.58859   4.99684   5.42059   5.73877   7.96450
 Alpha virt. eigenvalues --    7.98955   8.01091  17.27548  17.28548  17.29805
 Alpha virt. eigenvalues --   17.45074  17.46092  17.50013  17.51518  17.54361
 Alpha virt. eigenvalues --   17.56808  23.46960  23.63478  23.75588  23.81062
 Alpha virt. eigenvalues --   23.86198  24.01499  24.08229  24.10176  24.11936
 Alpha virt. eigenvalues --   24.14645  49.93105 189.13133 189.15781 189.18222
          Condensed to atoms (all electrons):
               1          2          3          4          5          6
     1  C    7.884926  -1.746072   0.120655  -0.759593   0.796249   0.059077
     2  C   -1.746072  13.518946  -2.379265   1.100317  -3.146464  -0.036011
     3  C    0.120655  -2.379265   9.494268  -0.712788   0.352519   0.025610
     4  C   -0.759593   1.100317  -0.712788   6.696264  -0.679745   0.358021
     5  S    0.796249  -3.146464   0.352519  -0.679745  17.775352  -0.030521
     6  H    0.059077  -0.036011   0.025610   0.358021  -0.030521   0.476534
     7  C    0.243927  -0.620567  -1.102870  -0.160860   1.005733  -0.003749
     8  S   -0.015291   0.693067   0.566370   0.022223  -0.321811  -0.000054
     9  C    0.011539   0.222281  -0.581311   0.025270  -0.097555   0.000054
    10  C    0.022663  -0.737724   0.204861  -0.020323   0.221068  -0.000265
    11  C   -0.133854  -1.644187  -0.595759  -0.044814   0.585408  -0.001168
    12  H    0.006400   0.015964   0.008865  -0.000533  -0.001040  -0.000000
    13  S   -0.001937  -0.047150  -0.036343   0.001622   0.009090  -0.000004
    14  C    0.002432  -0.002375  -0.024880  -0.000870  -0.004317   0.000000
    15  C    0.002976   0.113985   0.372093   0.004075  -0.080910  -0.000002
    16  H   -0.000001   0.000002  -0.000098  -0.000000  -0.000000   0.000000
    17  H   -0.000006  -0.000025  -0.000908   0.000010   0.000141   0.000000
    18  H   -0.044444   0.267091   0.107479  -0.057253   0.025394  -0.000023
    19  O    0.217557  -0.034968   0.027017  -0.233025   0.027149  -0.006180
    20  H    0.007113  -0.064541  -0.007212   0.083900  -0.008504   0.000304
               7          8          9         10         11         12
     1  C    0.243927  -0.015291   0.011539   0.022663  -0.133854   0.006400
     2  C   -0.620567   0.693067   0.222281  -0.737724  -1.644187   0.015964
     3  C   -1.102870   0.566370  -0.581311   0.204861  -0.595759   0.008865
     4  C   -0.160860   0.022223   0.025270  -0.020323  -0.044814  -0.000533
     5  S    1.005733  -0.321811  -0.097555   0.221068   0.585408  -0.001040
     6  H   -0.003749  -0.000054   0.000054  -0.000265  -0.001168  -0.000000
     7  C   10.714323  -0.113547  -0.822332  -1.918964  -0.211367  -0.002705
     8  S   -0.113547  18.046028  -0.505561  -0.620200  -1.427341   0.015673
     9  C   -0.822332  -0.505561  13.890237  -4.455351   0.445903  -0.081492
    10  C   -1.918964  -0.620200  -4.455351  12.077176   0.729575  -0.007949
    11  C   -0.211367  -1.427341   0.445903   0.729575   9.121097   0.365076
    12  H   -0.002705   0.015673  -0.081492  -0.007949   0.365076   0.529977
    13  S   -0.899297   0.098952   0.407979  -0.512743  -0.085268   0.015903
    14  C   -0.177590  -0.044528   0.364699  -0.639417   0.058100  -0.003444
    15  C   -0.077429   0.115613  -3.216447   1.482142  -1.173910   0.009591
    16  H    0.005911  -0.001149   0.037484   0.020867   0.001989  -0.000005
    17  H   -0.008684   0.018004   0.008664  -0.066428   0.000319   0.000006
    18  H    0.001559  -0.003907  -0.002954   0.006767   0.040865   0.000351
    19  O   -0.000467  -0.001970  -0.000978   0.000703   0.010491  -0.000056
    20  H    0.000954   0.000081   0.000021  -0.000429  -0.000752   0.000005
              13         14         15         16         17         18
     1  C   -0.001937   0.002432   0.002976  -0.000001  -0.000006  -0.044444
     2  C   -0.047150  -0.002375   0.113985   0.000002  -0.000025   0.267091
     3  C   -0.036343  -0.024880   0.372093  -0.000098  -0.000908   0.107479
     4  C    0.001622  -0.000870   0.004075  -0.000000   0.000010  -0.057253
     5  S    0.009090  -0.004317  -0.080910  -0.000000   0.000141   0.025394
     6  H   -0.000004   0.000000  -0.000002   0.000000   0.000000  -0.000023
     7  C   -0.899297  -0.177590  -0.077429   0.005911  -0.008684   0.001559
     8  S    0.098952  -0.044528   0.115613  -0.001149   0.018004  -0.003907
     9  C    0.407979   0.364699  -3.216447   0.037484   0.008664  -0.002954
    10  C   -0.512743  -0.639417   1.482142   0.020867  -0.066428   0.006767
    11  C   -0.085268   0.058100  -1.173910   0.001989   0.000319   0.040865
    12  H    0.015903  -0.003444   0.009591  -0.000005   0.000006   0.000351
    13  S   17.384459   0.390941  -0.294575  -0.042088   0.012849   0.000511
    14  C    0.390941   5.609868   0.202032   0.384778   0.020991   0.000061
    15  C   -0.294575   0.202032   8.491468  -0.047951   0.363996  -0.000613
    16  H   -0.042088   0.384778  -0.047951   0.476347  -0.004828   0.000000
    17  H    0.012849   0.020991   0.363996  -0.004828   0.519415   0.000000
    18  H    0.000511   0.000061  -0.000613   0.000000   0.000000   0.545789
    19  O    0.000032  -0.000007  -0.000098   0.000000   0.000000  -0.005466
    20  H   -0.000009   0.000000   0.000001   0.000000  -0.000000   0.003214
              19         20
     1  C    0.217557   0.007113
     2  C   -0.034968  -0.064541
     3  C    0.027017  -0.007212
     4  C   -0.233025   0.083900
     5  S    0.027149  -0.008504
     6  H   -0.006180   0.000304
     7  C   -0.000467   0.000954
     8  S   -0.001970   0.000081
     9  C   -0.000978   0.000021
    10  C    0.000703  -0.000429
    11  C    0.010491  -0.000752
    12  H   -0.000056   0.000005
    13  S    0.000032  -0.000009
    14  C   -0.000007   0.000000
    15  C   -0.000098   0.000001
    16  H    0.000000   0.000000
    17  H    0.000000  -0.000000
    18  H   -0.005466   0.003214
    19  O    8.025270   0.246693
    20  H    0.246693   0.487367
 Mulliken charges:
               1
     1  C   -0.674315
     2  C    0.527696
     3  C    0.161697
     4  C    0.378104
     5  S   -0.427235
     6  H    0.158378
     7  C    0.148020
     8  S   -0.520650
     9  C    0.349851
    10  C    0.213971
    11  C   -0.040403
    12  H    0.129415
    13  S   -0.402922
    14  C   -0.136474
    15  C   -0.266035
    16  H    0.168742
    17  H    0.136485
    18  H    0.115579
    19  O   -0.271698
    20  H    0.251795
 Sum of Mulliken charges =  -0.00000
 Mulliken charges with hydrogens summed into heavy atoms:
               1
     1  C   -0.674315
     2  C    0.643274
     3  C    0.161697
     4  C    0.536482
     5  S   -0.427235
     7  C    0.148020
     8  S   -0.520650
     9  C    0.349851
    10  C    0.213971
    11  C    0.089012
    13  S   -0.402922
    14  C    0.032268
    15  C   -0.129550
    19  O   -0.019903
 Electronic spatial extent (au):  <R**2>=           4789.4746
 Charge=             -0.0000 electrons
 Dipole moment (field-independent basis, Debye):
    X=             -1.2417    Y=              1.3242    Z=             -0.3797  Tot=              1.8546
 Quadrupole moment (field-independent basis, Debye-Ang):
   XX=            -98.0569   YY=            -92.2134   ZZ=           -107.8930
   XY=              5.5560   XZ=             -0.1761   YZ=             -1.3078
 Traceless Quadrupole moment (field-independent basis, Debye-Ang):
   XX=              1.3309   YY=              7.1743   ZZ=             -8.5053
   XY=              5.5560   XZ=             -0.1761   YZ=             -1.3078
 Octapole moment (field-independent basis, Debye-Ang**2):
  XXX=            -80.0718  YYY=             27.0008  ZZZ=             -1.2107  XYY=             26.7937
  XXY=            -18.6952  XXZ=             -2.2372  XZZ=              9.8844  YZZ=              3.1289
  YYZ=             -6.0938  XYZ=            -13.4997
 Hexadecapole moment (field-independent basis, Debye-Ang**3):
 XXXX=          -5295.7847 YYYY=           -866.8019 ZZZZ=           -182.2825 XXXY=            -31.8137
 XXXZ=             22.6756 YYYX=            133.7428 YYYZ=            -14.4823 ZZZX=            -10.2919
 ZZZY=             -4.3355 XXYY=           -945.6273 XXZZ=          -1001.5849 YYZZ=           -192.6276
 XXYZ=            -28.3728 YYXZ=            -18.1245 ZZXY=             13.1684
 N-N= 1.106267587810D+03 E-N=-6.123686443913D+03  KE= 1.651071455522D+03
 Unable to Open any file for archive entry.
 1\1\GINC-CX3-4-25\FOpt\RB3LYP\6-311+G(d,p)\C10H6O1S3\NS5018\17-Oct-202
 1\0\\# opt=modredundant b3lyp/6-311+g(d,p)\\pg2T_TT_155.pdb\\0,1\C,-4.
 2223487391,-1.2457437194,-0.2637145119\C,-2.8992818469,-1.0267537197,-
 0.7430597298\C,-2.1154781502,-2.1573660146,-0.6995167365\C,-4.44512867
 37,-2.5308352096,0.146489218\S,-3.0306026582,-3.5085510214,-0.07041098
 89\H,-5.3492752917,-2.9464318194,0.5606162885\C,-0.7442937293,-2.29948
 98528,-1.1474831086\S,0.3125386798,-3.5442131169,-0.4631764284\C,1.629
 114983,-3.0375899253,-1.4852194461\C,1.2493115906,-1.9620441013,-2.278
 3278489\C,-0.0946370589,-1.5463262659,-2.0979488444\H,-0.5789758733,-0
 .7579043661,-2.6567842984\S,2.5684834985,-1.4585573033,-3.3019272732\C
 ,3.5950378538,-2.706729071,-2.6323942661\C,2.970927667,-3.466924165,-1
 .6851430289\H,4.60979414,-2.7971889658,-2.9885829111\H,3.4486654845,-4
 .2846008501,-1.1637604142\H,-2.5302150011,-0.0634482861,-1.0730011013\
 O,-5.1958405484,-0.2880339962,-0.1902979098\H,-4.8517963265,0.54973176
 99,-0.5143566598\\Version=ES64L-G16RevC.01\State=1-A\HF=-1654.6316815\
 RMSD=4.507e-09\RMSF=2.321e-04\Dipole=0.4652774,0.4838108,-0.2860399\Qu
 adrupole=0.7586443,4.0980783,-4.8567226,-4.7026295,-0.3259919,-3.16760
 09\PG=C01 [X(C10H6O1S3)]\\@
 The archive entry for this job was punched.


 THERE IS MORE TO LIFE THAN INCREASING ITS SPEED.

                                       -- GANDHI
 Job cpu time:       0 days  3 hours 11 minutes 50.7 seconds.
 Elapsed time:       0 days  0 hours 24 minutes 13.3 seconds.
 File lengths (MBytes):  RWF=     86 Int=      0 D2E=      0 Chk=     11 Scr=      1
 Normal termination of Gaussian 16 at Sun Oct 17 20:03:30 2021.
