 Entering Gaussian System, Link 0=g16
 Input=OBT_2m_pop.gjf
 Output=OBT_2m_pop.log
 Initial command:
 /apps/gaussian/g16-a03/l1.exe "/tmp/pbs.947046.pbs/Gau-1468.inp" -scrdir="/tmp/pbs.947046.pbs/"
 Entering Link 1 = /apps/gaussian/g16-a03/l1.exe PID=      1469.
  
 Copyright (c) 1988,1990,1992,1993,1995,1998,2003,2009,2016,
            Gaussian, Inc.  All Rights Reserved.
  
 This is part of the Gaussian(R) 16 program.  It is based on
 the Gaussian(R) 09 system (copyright 2009, Gaussian, Inc.),
 the Gaussian(R) 03 system (copyright 2003, Gaussian, Inc.),
 the Gaussian(R) 98 system (copyright 1998, Gaussian, Inc.),
 the Gaussian(R) 94 system (copyright 1995, Gaussian, Inc.),
 the Gaussian 92(TM) system (copyright 1992, Gaussian, Inc.),
 the Gaussian 90(TM) system (copyright 1990, Gaussian, Inc.),
 the Gaussian 88(TM) system (copyright 1988, Gaussian, Inc.),
 the Gaussian 86(TM) system (copyright 1986, Carnegie Mellon
 University), and the Gaussian 82(TM) system (copyright 1983,
 Carnegie Mellon University). Gaussian is a federally registered
 trademark of Gaussian, Inc.
  
 This software contains proprietary and confidential information,
 including trade secrets, belonging to Gaussian, Inc.
  
 This software is provided under written license and may be
 used, copied, transmitted, or stored only in accord with that
 written license.
  
 The following legend is applicable only to US Government
 contracts under FAR:
  
                    RESTRICTED RIGHTS LEGEND
  
 Use, reproduction and disclosure by the US Government is
 subject to restrictions as set forth in subparagraphs (a)
 and (c) of the Commercial Computer Software - Restricted
 Rights clause in FAR 52.227-19.
  
 Gaussian, Inc.
 340 Quinnipiac St., Bldg. 40, Wallingford CT 06492
  
  
 ---------------------------------------------------------------
 Warning -- This program may not be used in any manner that
 competes with the business of Gaussian, Inc. or will provide
 assistance to any competitor of Gaussian, Inc.  The licensee
 of this program is prohibited from giving any competitor of
 Gaussian, Inc. access to this program.  By using this program,
 the user acknowledges that Gaussian, Inc. is engaged in the
 business of creating and licensing software in the field of
 computational chemistry and represents and warrants to the
 licensee that it is not a competitor of Gaussian, Inc. and that
 it will not use this program in any manner prohibited above.
 ---------------------------------------------------------------
  

 Cite this work as:
 Gaussian 16, Revision A.03,
 M. J. Frisch, G. W. Trucks, H. B. Schlegel, G. E. Scuseria, 
 M. A. Robb, J. R. Cheeseman, G. Scalmani, V. Barone, 
 G. A. Petersson, H. Nakatsuji, X. Li, M. Caricato, A. V. Marenich, 
 J. Bloino, B. G. Janesko, R. Gomperts, B. Mennucci, H. P. Hratchian, 
 J. V. Ortiz, A. F. Izmaylov, J. L. Sonnenberg, D. Williams-Young, 
 F. Ding, F. Lipparini, F. Egidi, J. Goings, B. Peng, A. Petrone, 
 T. Henderson, D. Ranasinghe, V. G. Zakrzewski, J. Gao, N. Rega, 
 G. Zheng, W. Liang, M. Hada, M. Ehara, K. Toyota, R. Fukuda, 
 J. Hasegawa, M. Ishida, T. Nakajima, Y. Honda, O. Kitao, H. Nakai, 
 T. Vreven, K. Throssell, J. A. Montgomery, Jr., J. E. Peralta, 
 F. Ogliaro, M. J. Bearpark, J. J. Heyd, E. N. Brothers, K. N. Kudin, 
 V. N. Staroverov, T. A. Keith, R. Kobayashi, J. Normand, 
 K. Raghavachari, A. P. Rendell, J. C. Burant, S. S. Iyengar, 
 J. Tomasi, M. Cossi, J. M. Millam, M. Klene, C. Adamo, R. Cammi, 
 J. W. Ochterski, R. L. Martin, K. Morokuma, O. Farkas, 
 J. B. Foresman, and D. J. Fox, Gaussian, Inc., Wallingford CT, 2016.
 
 ******************************************
 Gaussian 16:  ES64L-G16RevA.03 25-Dec-2016
                10-Jan-2020 
 ******************************************
 %mem=50GB
 %nprocshared=8
 Will use up to    8 processors via shared memory.
 ----------------------------
 #p Pop=CHelpG b3lyp/6-311g**
 ----------------------------
 1/38=1,172=1/1;
 2/12=2,17=6,18=5,40=1/2;
 3/5=4,6=6,7=101,11=2,25=1,30=1,74=-5/1,2,3;
 4//1;
 5/5=2,38=5/2;
 6/7=2,8=2,9=2,10=2,15=8,20=3,28=1/1,2;
 99/5=1,9=1/99;
 Leave Link    1 at Fri Jan 10 16:00:52 2020, MaxMem=  6710886400 cpu:               0.2 elap:               0.0
 (Enter /apps/gaussian/g16-a03/l101.exe)
 -------------------
 OBT_2m_opt_freq.gjf
 -------------------
 Symbolic Z-matrix:
 Charge =  0 Multiplicity = 1
 C                     4.672    -0.134     0. 
 C                     5.346     1.075     0. 
 C                     6.773     0.987     0. 
 C                     7.233    -0.295     0. 
 S                     5.899    -1.5       0. 
 O                     4.608     2.255     0. 
 H                     7.427     1.845     0. 
 C                     3.268    -0.38      0. 
 C                     2.591    -1.588     0. 
 C                     1.174    -1.508     0. 
 C                     0.678    -0.224     0. 
 S                     2.046     0.987     0. 
 O                     3.331    -2.765     0. 
 H                     0.53     -2.373     0. 
 C                     5.317     3.522     0. 
 H                     5.935     3.627    -0.895 
 H                     5.935     3.627     0.895 
 H                     4.542     4.281     0. 
 C                     2.626    -4.036     0. 
 H                     3.404    -4.791     0. 
 H                     2.009    -4.142     0.895 
 H                     2.009    -4.142    -0.895 
 H                     8.251    -0.642     0. 
 C                    -3.268     0.38      0. 
 C                    -2.591     1.588     0. 
 C                    -1.174     1.507     0. 
 C                    -0.678     0.223     0. 
 S                    -2.046    -0.987     0. 
 O                    -3.331     2.765     0. 
 H                    -0.53      2.372     0. 
 C                    -4.672     0.134     0. 
 C                    -5.346    -1.074     0. 
 C                    -6.773    -0.986     0. 
 C                    -7.233     0.295     0. 
 S                    -5.899     1.5       0. 
 O                    -4.609    -2.255     0. 
 H                    -7.427    -1.844     0. 
 C                    -2.625     4.036     0. 
 H                    -2.008     4.142    -0.894 
 H                    -2.009     4.142     0.895 
 H                    -3.404     4.791     0. 
 C                    -5.318    -3.522     0. 
 H                    -4.543    -4.281     0. 
 H                    -5.935    -3.627     0.894 
 H                    -5.935    -3.627    -0.895 
 H                    -8.25      0.642     0. 
 
 ITRead=  0  0  0  0  0  0  0  0  0  0  0  0  0  0  0  0  0  0  0  0
 ITRead=  0  0  0  0  0  0  0  0  0  0  0  0  0  0  0  0  0  0  0  0
 ITRead=  0  0  0  0  0  0
 MicOpt= -1 -1 -1 -1 -1 -1 -1 -1 -1 -1 -1 -1 -1 -1 -1 -1 -1 -1 -1 -1
 MicOpt= -1 -1 -1 -1 -1 -1 -1 -1 -1 -1 -1 -1 -1 -1 -1 -1 -1 -1 -1 -1
 MicOpt= -1 -1 -1 -1 -1 -1
 NAtoms=     46 NQM=       46 NQMF=       0 NMMI=      0 NMMIF=      0
                NMic=       0 NMicF=      0.
                    Isotopes and Nuclear Properties:
 (Nuclear quadrupole moments (NQMom) in fm**2, nuclear magnetic moments (NMagM)
  in nuclear magnetons)

  Atom         1           2           3           4           5           6           7           8           9          10
 IAtWgt=          12          12          12          12          32          16           1          12          12          12
 AtmWgt=  12.0000000  12.0000000  12.0000000  12.0000000  31.9720718  15.9949146   1.0078250  12.0000000  12.0000000  12.0000000
 NucSpn=           0           0           0           0           0           0           1           0           0           0
 AtZEff=  -0.0000000  -0.0000000  -0.0000000  -0.0000000  -0.0000000  -0.0000000  -0.0000000  -0.0000000  -0.0000000  -0.0000000
 NQMom=    0.0000000   0.0000000   0.0000000   0.0000000   0.0000000   0.0000000   0.0000000   0.0000000   0.0000000   0.0000000
 NMagM=    0.0000000   0.0000000   0.0000000   0.0000000   0.0000000   0.0000000   2.7928460   0.0000000   0.0000000   0.0000000
 AtZNuc=   6.0000000   6.0000000   6.0000000   6.0000000  16.0000000   8.0000000   1.0000000   6.0000000   6.0000000   6.0000000

  Atom        11          12          13          14          15          16          17          18          19          20
 IAtWgt=          12          32          16           1          12           1           1           1          12           1
 AtmWgt=  12.0000000  31.9720718  15.9949146   1.0078250  12.0000000   1.0078250   1.0078250   1.0078250  12.0000000   1.0078250
 NucSpn=           0           0           0           1           0           1           1           1           0           1
 AtZEff=  -0.0000000  -0.0000000  -0.0000000  -0.0000000  -0.0000000  -0.0000000  -0.0000000  -0.0000000  -0.0000000  -0.0000000
 NQMom=    0.0000000   0.0000000   0.0000000   0.0000000   0.0000000   0.0000000   0.0000000   0.0000000   0.0000000   0.0000000
 NMagM=    0.0000000   0.0000000   0.0000000   2.7928460   0.0000000   2.7928460   2.7928460   2.7928460   0.0000000   2.7928460
 AtZNuc=   6.0000000  16.0000000   8.0000000   1.0000000   6.0000000   1.0000000   1.0000000   1.0000000   6.0000000   1.0000000

  Atom        21          22          23          24          25          26          27          28          29          30
 IAtWgt=           1           1           1          12          12          12          12          32          16           1
 AtmWgt=   1.0078250   1.0078250   1.0078250  12.0000000  12.0000000  12.0000000  12.0000000  31.9720718  15.9949146   1.0078250
 NucSpn=           1           1           1           0           0           0           0           0           0           1
 AtZEff=  -0.0000000  -0.0000000  -0.0000000  -0.0000000  -0.0000000  -0.0000000  -0.0000000  -0.0000000  -0.0000000  -0.0000000
 NQMom=    0.0000000   0.0000000   0.0000000   0.0000000   0.0000000   0.0000000   0.0000000   0.0000000   0.0000000   0.0000000
 NMagM=    2.7928460   2.7928460   2.7928460   0.0000000   0.0000000   0.0000000   0.0000000   0.0000000   0.0000000   2.7928460
 AtZNuc=   1.0000000   1.0000000   1.0000000   6.0000000   6.0000000   6.0000000   6.0000000  16.0000000   8.0000000   1.0000000

  Atom        31          32          33          34          35          36          37          38          39          40
 IAtWgt=          12          12          12          12          32          16           1          12           1           1
 AtmWgt=  12.0000000  12.0000000  12.0000000  12.0000000  31.9720718  15.9949146   1.0078250  12.0000000   1.0078250   1.0078250
 NucSpn=           0           0           0           0           0           0           1           0           1           1
 AtZEff=  -0.0000000  -0.0000000  -0.0000000  -0.0000000  -0.0000000  -0.0000000  -0.0000000  -0.0000000  -0.0000000  -0.0000000
 NQMom=    0.0000000   0.0000000   0.0000000   0.0000000   0.0000000   0.0000000   0.0000000   0.0000000   0.0000000   0.0000000
 NMagM=    0.0000000   0.0000000   0.0000000   0.0000000   0.0000000   0.0000000   2.7928460   0.0000000   2.7928460   2.7928460
 AtZNuc=   6.0000000   6.0000000   6.0000000   6.0000000  16.0000000   8.0000000   1.0000000   6.0000000   1.0000000   1.0000000

  Atom        41          42          43          44          45          46
 IAtWgt=           1          12           1           1           1           1
 AtmWgt=   1.0078250  12.0000000   1.0078250   1.0078250   1.0078250   1.0078250
 NucSpn=           1           0           1           1           1           1
 AtZEff=  -0.0000000  -0.0000000  -0.0000000  -0.0000000  -0.0000000  -0.0000000
 NQMom=    0.0000000   0.0000000   0.0000000   0.0000000   0.0000000   0.0000000
 NMagM=    2.7928460   0.0000000   2.7928460   2.7928460   2.7928460   2.7928460
 AtZNuc=   1.0000000   6.0000000   1.0000000   1.0000000   1.0000000   1.0000000
 Leave Link  101 at Fri Jan 10 16:00:53 2020, MaxMem=  6710886400 cpu:               1.1 elap:               0.2
 (Enter /apps/gaussian/g16-a03/l202.exe)
                          Input orientation:                          
 ---------------------------------------------------------------------
 Center     Atomic      Atomic             Coordinates (Angstroms)
 Number     Number       Type             X           Y           Z
 ---------------------------------------------------------------------
      1          6           0        4.672000   -0.134000    0.000000
      2          6           0        5.346000    1.075000    0.000000
      3          6           0        6.773000    0.987000    0.000000
      4          6           0        7.233000   -0.295000    0.000000
      5         16           0        5.899000   -1.500000    0.000000
      6          8           0        4.608000    2.255000    0.000000
      7          1           0        7.427000    1.845000    0.000000
      8          6           0        3.268000   -0.380000    0.000000
      9          6           0        2.591000   -1.588000    0.000000
     10          6           0        1.174000   -1.508000    0.000000
     11          6           0        0.678000   -0.224000    0.000000
     12         16           0        2.046000    0.987000    0.000000
     13          8           0        3.331000   -2.765000    0.000000
     14          1           0        0.530000   -2.373000    0.000000
     15          6           0        5.317000    3.522000    0.000000
     16          1           0        5.935000    3.627000   -0.895000
     17          1           0        5.935000    3.627000    0.895000
     18          1           0        4.542000    4.281000    0.000000
     19          6           0        2.626000   -4.036000    0.000000
     20          1           0        3.404000   -4.791000    0.000000
     21          1           0        2.009000   -4.142000    0.895000
     22          1           0        2.009000   -4.142000   -0.895000
     23          1           0        8.251000   -0.642000    0.000000
     24          6           0       -3.268000    0.380000    0.000000
     25          6           0       -2.591000    1.588000    0.000000
     26          6           0       -1.174000    1.507000    0.000000
     27          6           0       -0.678000    0.223000    0.000000
     28         16           0       -2.046000   -0.987000    0.000000
     29          8           0       -3.331000    2.765000    0.000000
     30          1           0       -0.530000    2.372000    0.000000
     31          6           0       -4.672000    0.134000    0.000000
     32          6           0       -5.346000   -1.074000    0.000000
     33          6           0       -6.773000   -0.986000    0.000000
     34          6           0       -7.233000    0.295000    0.000000
     35         16           0       -5.899000    1.500000    0.000000
     36          8           0       -4.609000   -2.255000    0.000000
     37          1           0       -7.427000   -1.844000    0.000000
     38          6           0       -2.625000    4.036000    0.000000
     39          1           0       -2.008000    4.142000   -0.894000
     40          1           0       -2.009000    4.142000    0.895000
     41          1           0       -3.404000    4.791000    0.000000
     42          6           0       -5.318000   -3.522000    0.000000
     43          1           0       -4.543000   -4.281000    0.000000
     44          1           0       -5.935000   -3.627000    0.894000
     45          1           0       -5.935000   -3.627000   -0.895000
     46          1           0       -8.250000    0.642000    0.000000
 ---------------------------------------------------------------------
                    Distance matrix (angstroms):
                    1          2          3          4          5
     1  C    0.000000
     2  C    1.384181   0.000000
     3  C    2.381353   1.429711   0.000000
     4  C    2.566056   2.331881   1.362029   0.000000
     5  S    1.836160   2.633711   2.636104   1.797660   0.000000
     6  O    2.389857   1.391777   2.508994   3.659662   3.970731
     7  H    3.392118   2.218887   1.078833   2.148775   3.677473
     8  C    1.425388   2.536752   3.762142   3.965911   2.859469
     9  C    2.538637   3.831657   4.911186   4.818715   3.309170
    10  C    3.758175   4.906880   6.129749   6.179227   4.725007
    11  C    3.995014   4.845372   6.214141   6.555385   5.374664
    12  S    2.855261   3.301173   4.727000   5.343079   4.585933
    13  O    2.953039   4.336568   5.091647   4.618063   2.862665
    14  H    4.708427   5.923053   7.089757   7.017713   5.439512
    15  C    3.712460   2.447172   2.923382   4.270895   5.055612
    16  H    4.067102   2.767788   2.910819   4.227045   5.204657
    17  H    4.067102   2.767788   2.910819   4.227045   5.204657
    18  H    4.416914   3.305276   3.978416   5.308602   5.938132
    19  C    4.405873   5.789708   6.513689   5.934604   4.140510
    20  H    4.826538   6.179103   6.688456   5.905528   4.129855
    21  H    4.894554   6.257290   7.057150   6.549092   4.786783
    22  H    4.894554   6.257290   7.057150   6.549092   4.786783
    23  H    3.614873   3.374480   2.199574   1.075515   2.503611
    24  C    7.956620   8.641992  10.059330  10.522672   9.357793
    25  C    7.464345   7.953561   9.383267  10.002833   9.034149
    26  C    6.071952   6.534296   7.963995   8.597956   7.685661
    27  C    5.361898   6.083953   7.490067   7.927941   6.798945
    28  S    6.771937   7.674211   9.037225   9.304768   7.961545
    29  O    8.511886   8.840047  10.259245  10.998259  10.167749
    30  H    5.774153   6.017440   7.433171   8.208353   7.504960
    31  C    9.347843  10.062097  11.476743  11.912727  10.696541
    32  C   10.062004  10.905827  12.293001  12.603098  11.253066
    33  C   11.476669  12.293001  13.688931  14.023035  12.682420
    34  C   11.912727  12.603160  14.023085  14.478027  13.254111
    35  S   10.696541  11.253028  12.682380  13.254111  12.173447
    36  O    9.520273  10.497187  11.834715  12.003106  10.535088
    37  H   12.219243  13.102293  14.479453  14.741608  13.330439
    38  C    8.404470   8.503197   9.880223  10.767438  10.163950
    39  H    7.981592   8.017920   9.373325  10.289912   9.754591
    40  H    7.982541   8.018949   9.374357  10.290897   9.755493
    41  H    9.459249   9.506374  10.864702  11.790384  11.230427
    42  C   10.548869  11.612636  12.904393  12.959210  11.397788
    43  H   10.105139  11.246291  12.482134  12.432312  10.805986
    44  H   11.203068  12.254346  13.549225  13.612409  12.056821
    45  H   11.203148  12.254419  13.549291  13.612475  12.056895
    46  H   12.945279  13.602893  15.026961  15.511327  14.310219
                    6          7          8          9         10
     6  O    0.000000
     7  H    2.848660   0.000000
     8  C    2.956150   4.716769   0.000000
     9  C    4.340154   5.930631   1.384772   0.000000
    10  C    5.094362   7.095253   2.378491   1.419256   0.000000
    11  C    4.646541   7.059020   2.594694   2.349482   1.376471
    12  S    2.858613   5.448975   1.833568   2.632043   2.642992
    13  O    5.179877   6.166791   2.385832   1.390298   2.496537
    14  H    6.168344   8.084561   3.386546   2.205436   1.078407
    15  C    1.451885   2.695260   4.407267   5.791647   6.516544
    16  H    2.108160   2.490505   4.895913   6.259360   7.059488
    17  H    2.108160   2.490505   4.895913   6.259360   7.059488
    18  H    2.027075   3.775887   4.831977   6.184785   6.697458
    19  C    6.595832   7.591822   3.711940   2.448250   2.915320
    20  H    7.148128   7.760221   4.413096   3.304569   3.968752
    21  H    6.962574   8.124033   4.066786   2.768152   2.904515
    22  H    6.962574   8.124033   4.066786   2.768152   2.904515
    23  H    4.654466   2.619951   4.989883   5.738512   7.129789
    24  C    8.096110  10.794871   6.580038   6.180688   4.826583
    25  C    7.229833  10.021296   6.180688   6.077837   4.874468
    26  C    5.830183   8.607639   4.826192   4.873833   3.821430
    27  C    5.663110   8.265707   3.991807   3.737122   2.535008
    28  S    7.401775   9.887262   5.348555   4.675785   3.261877
    29  O    7.955364  10.797267   7.310118   7.349741   6.209151
    30  H    5.139332   7.974433   4.690235   5.042047   4.237690
    31  C    9.519298  12.219383   7.956620   7.464345   6.072222
    32  C   10.495921  13.102293   8.641911   7.953626   6.534429
    33  C   11.833480  14.479453  10.059270   9.383331   7.964125
    34  C   12.002120  14.741713  10.522672  10.002833   8.598166
    35  S   10.534091  13.330465   9.357793   9.034149   7.686052
    36  O   10.261247  12.715160   8.097083   7.230829   5.831046
    37  H   12.713891  15.305229  10.794736  10.021270   8.607560
    38  C    7.449044  10.288012   7.364001   7.670465   6.720739
    39  H    6.937684   9.751650   7.005990   7.401550   6.545751
    40  H    6.938767   9.752709   7.006871   7.402292   6.546374
    41  H    8.403775  11.224503   8.441257   8.753951   7.786879
    42  C   11.484738  13.828945   9.142842   8.142029   6.797224
    43  H   11.245448  13.446515   8.730952   7.625366   6.354024
    44  H   12.105867  14.466688   9.799870   8.811892   7.471765
    45  H   12.105941  14.466750   9.799961   8.811993   7.471885
    46  H   12.958778  15.723089  11.563252  11.067980   9.666141
                   11         12         13         14         15
    11  C    0.000000
    12  S    1.827004   0.000000
    13  O    3.673566   3.965946   0.000000
    14  H    2.154090   3.686171   2.828297   0.000000
    15  C    5.962620   4.138317   6.593221   7.593839   0.000000
    16  H    6.577786   4.784866   6.959849   8.124965   1.092691
    17  H    6.577786   4.784866   6.959849   8.124965   1.092691
    18  H    5.935109   4.132850   7.149310   7.769933   1.084761
    19  C    4.280893   5.056375   1.453432   2.675591   8.022770
    20  H    5.318700   5.935440   2.027315   3.755875   8.530272
    21  H    4.233593   5.206634   2.108278   2.473424   8.395283
    22  H    4.233593   5.206634   2.108278   2.473424   8.395283
    23  H    7.584527   6.415268   5.358501   7.912661   5.093845
    24  C    3.991958   5.348555   7.310118   4.690822   9.141903
    25  C    3.737607   4.675785   7.349741   5.042833   8.141058
    26  C    2.535008   3.261717   6.208463   4.237690   6.796566
    27  C    1.427776   2.829112   5.000022   2.863299   6.842764
    28  S    2.828842   4.543252   5.663339   2.925196   8.633936
    29  O    5.000620   5.663339   8.658126   6.427003   8.681069
    30  H    2.863299   2.924722   6.426203   4.861957   5.959019
    31  C    5.361965   6.771937   8.511886   5.774587  10.547922
    32  C    6.083673   7.673942   8.840238   6.017871  11.611321
    33  C    7.489863   9.037007  10.259418   7.433544  12.903107
    34  C    7.928006   9.304768  10.998259   8.208678  12.958242
    35  S    6.799199   7.961545  10.167749   7.505476  11.396804
    36  O    5.663685   7.402674   7.956362   5.140355  11.484738
    37  H    8.265315   9.886976  10.797352   7.974565  13.827635
    38  C    5.390492   5.578050   9.040328   7.143480   7.958615
    39  H    5.203440   5.214228   8.775580   7.048823   7.405354
    40  H    5.204128   5.215177   8.776290   7.049310   7.406463
    41  H    6.466293   6.646271  10.121925   8.173081   8.812843
    42  C    6.843159   8.634789   8.682065   5.959807  12.756220
    43  H    6.611966   8.436038   8.018612   5.419944  12.574037
    44  H    7.490755   9.261997   9.348852   6.645899  13.360948
    45  H    7.490875   9.262094   9.348948   6.646034  13.361015
    46  H    8.969902  10.301779  12.071753   9.283244  13.869315
                   16         17         18         19         20
    16  H    0.000000
    17  H    1.790000   0.000000
    18  H    1.780222   1.780222   0.000000
    19  C    8.394765   8.394765   8.534843   0.000000
    20  H    8.835707   8.835707   9.143097   1.084117   0.000000
    21  H    8.886784   8.704645   8.841043   1.092223   1.779958
    22  H    8.704645   8.886784   8.841043   1.092223   1.779958
    23  H    4.938547   4.938547   6.163815   6.569617   6.380252
    24  C    9.799961   9.799961   8.730057   7.364801   8.441257
    25  C    8.811993   8.811993   7.624430   7.671145   8.753951
    26  C    7.472169   7.472169   6.353561   6.720480   7.786070
    27  C    7.491329   7.491329   6.611790   5.390315   6.465518
    28  S    9.262094   9.262094   8.435257   5.578887   6.646271
    29  O    9.348948   9.348948   8.017630   9.040987  10.121925
    30  H    6.646223   6.646223   5.419360   7.143025   8.172204
    31  C   11.203148  11.203148  10.104227   8.405338   9.459249
    32  C   12.254036  12.254036  11.244935   8.504483   9.506765
    33  C   13.548950  13.548950  12.480806   9.881483  10.865052
    34  C   13.612475  13.612475  12.431364  10.768354  11.790384
    35  S   12.056895  12.056895  10.805019  10.164788  11.230427
    36  O   12.106812  12.106812  11.245448   7.450986   8.404729
    37  H   14.466372  14.466372  13.445170  10.289202  11.224766
    38  C    8.616374   8.616374   7.171186   9.629651  10.689470
    39  H    7.959678   8.158247   6.612190   9.442080  10.482722
    40  H    8.159440   7.960676   6.613316   9.442666  10.483324
    41  H    9.453721   9.453721   7.962350  10.690034  11.754301
    42  C   13.361857  13.361857  12.574037   7.960611   8.813833
    43  H   13.157734  13.157734  12.483792   7.173185   7.963348
    44  H   14.025617  13.911054  13.156870   8.617264   9.453626
    45  H   13.911054  14.025745  13.156938   8.617368   9.453721
    46  H   14.523274  14.523274  13.299533  11.839386  12.858196
                   21         22         23         24         25
    21  H    0.000000
    22  H    1.790000   0.000000
    23  H    7.212045   7.212045   0.000000
    24  C    7.006871   7.006871  11.564249   0.000000
    25  C    7.402292   7.402292  11.068959   1.384772   0.000000
    26  C    6.545511   6.545511   9.666893   2.378017   1.419313
    27  C    5.203289   5.203289   8.970801   2.594754   2.350063
    28  S    5.215177   5.215177  10.302778   1.833568   2.632043
    29  O    8.776290   8.776290  12.072712   2.385832   1.390298
    30  H    7.048386   7.048386   9.283865   3.385957   2.205080
    31  C    7.982541   7.982541  12.946278   1.425388   2.538637
    32  C    8.019331   8.019331  13.603861   2.536178   3.830962
    33  C    9.374694   9.374694  15.027938   3.761779   4.910662
    34  C   10.290897  10.290897  15.512325   3.965911   4.818715
    35  S    9.755493   9.755493  14.311208   2.859469   3.309170
    36  O    6.939720   6.939720  12.960763   2.956604   4.340619
    37  H    9.752944   9.752944  15.724010   4.716297   5.930052
    38  C    9.442175   9.442175  11.839386   3.712113   2.448236
    39  H    9.378777   9.206571  11.354866   4.066876   2.768039
    40  H    9.207007   9.379397  11.355848   4.066786   2.768152
    41  H   10.483324  10.483324  12.859102   4.413096   3.304569
    42  C    7.407453   7.407453  13.871271   4.407732   5.792118
    43  H    6.614306   6.614306  13.301457   4.832240   6.185100
    44  H    7.960676   8.159221  14.524189   4.895730   6.259217
    45  H    8.159440   7.960676  14.524250   4.895913   6.259360
    46  H   11.354944  11.354944  16.550881   4.988884   5.737525
                   26         27         28         29         30
    26  C    0.000000
    27  C    1.376471   0.000000
    28  S    2.642048   1.826342   0.000000
    29  O    2.497041   3.674258   3.965946   0.000000
    30  H    1.078407   2.154090   3.685259   2.828436   0.000000
    31  C    3.757810   3.994991   2.855261   2.953039   4.707952
    32  C    4.905828   4.844836   3.301147   4.335683   5.921889
    33  C    6.128935   6.213751   4.727000   5.090910   7.088809
    34  C    6.179031   6.555395   5.343079   4.618063   7.017417
    35  S    4.725005   5.374902   4.585933   2.862665   5.439352
    36  O    5.094298   4.646853   2.859509   5.180124   6.168255
    37  H    7.094308   7.058434   5.448817   6.166044   8.083518
    38  C    2.915689   4.281329   5.056260   1.453918   2.675429
    39  H    2.904827   4.233993   5.206469   2.108481   2.473180
    40  H    2.905422   4.234519   5.206634   2.108278   2.474139
    41  H    3.969579   5.319558   5.935440   2.027315   3.756519
    42  C    6.516408   5.962770   4.139107   6.593522   7.593693
    43  H    6.697097   5.935001   4.133454   7.149480   7.769593
    44  H    7.058634   6.577065   4.784679   6.959721   8.124116
    45  H    7.058761   6.577201   4.784866   6.959849   8.124226
    46  H    7.128675   7.583584   6.414301   5.357582   7.911466
                   31         32         33         34         35
    31  C    0.000000
    32  C    1.383308   0.000000
    33  C    2.380882   1.429711   0.000000
    34  C    2.566056   2.331294   1.361088   0.000000
    35  S    1.836160   2.632733   2.635161   1.797660   0.000000
    36  O    2.389831   1.392096   2.508636   3.658945   3.970406
    37  H    3.391535   2.218887   1.078833   2.147780   3.676564
    38  C    4.406338   5.789295   6.513554   5.935381   4.141301
    39  H    4.894915   6.256847   7.056971   6.549753   4.787409
    40  H    4.894554   6.256457   7.056423   6.549092   4.786783
    41  H    4.826538   6.178154   6.687592   5.905528   4.129855
    42  C    3.712634   2.448160   2.923751   4.270447   5.055497
    43  H    4.416884   3.306003   3.978684   5.308095   5.937903
    44  H    4.066882   2.768387   2.911419   4.226834   5.204485
    45  H    4.067102   2.768710   2.911726   4.227045   5.204657
    46  H    3.613883   3.373110   2.198161   1.074569   2.502672
                   36         37         38         39         40
    36  O    0.000000
    37  H    2.847814   0.000000
    38  C    6.596434   7.591680   0.000000
    39  H    6.963192   8.123853   1.091403   0.000000
    40  H    6.962947   8.123296   1.091658   1.789000   0.000000
    41  H    7.148296   7.759366   1.084835   1.780240   1.779958
    42  C    1.451885   2.695100   8.023441   8.395965   8.395678
    43  H    2.027075   3.775768   8.535292   8.841515   8.841330
    44  H    2.107106   2.490861   8.395052   8.886824   8.704645
    45  H    2.107531   2.491220   8.395159   8.705096   8.886784
    46  H    4.652901   2.618688   6.569617   7.211921   7.211179
                   41         42         43         44         45
    41  H    0.000000
    42  C    8.530496   0.000000
    43  H    9.143222   1.084761   0.000000
    44  H    8.835605   1.091307   1.778937   0.000000
    45  H    8.835707   1.092126   1.779440   1.789000   0.000000
    46  H    6.379492   5.092693   6.162611   4.937897   4.938078
                   46
    46  H    0.000000
 Stoichiometry    C20H18O4S4
 Framework group  C1[X(C20H18O4S4)]
 Deg. of freedom   132
 Full point group                 C1      NOp   1
 Largest Abelian subgroup         C1      NOp   1
 Largest concise Abelian subgroup C1      NOp   1
                         Standard orientation:                         
 ---------------------------------------------------------------------
 Center     Atomic      Atomic             Coordinates (Angstroms)
 Number     Number       Type             X           Y           Z
 ---------------------------------------------------------------------
      1          6           0        4.672030    0.134013    0.000000
      2          6           0        5.346033   -1.074985    0.000000
      3          6           0        6.773033   -0.986981    0.000000
      4          6           0        7.233029    0.295021    0.000000
      5         16           0        5.899026    1.500017    0.000000
      6          8           0        4.608036   -2.254987    0.000000
      7          1           0        7.427035   -1.844979    0.000000
      8          6           0        3.268029    0.380009    0.000000
      9          6           0        2.591025    1.588007    0.000000
     10          6           0        1.174026    1.508003    0.000000
     11          6           0        0.678029    0.224002    0.000000
     12         16           0        2.046033   -0.986994    0.000000
     13          8           0        3.331022    2.765010    0.000000
     14          1           0        0.530023    2.373002    0.000000
     15          6           0        5.317040   -3.521985    0.000000
     16          1           0        5.935040   -3.626983    0.895000
     17          1           0        5.935040   -3.626983   -0.895000
     18          1           0        4.542042   -4.280987    0.000000
     19          6           0        2.626018    4.036008    0.000000
     20          1           0        3.404016    4.791010    0.000000
     21          1           0        2.009018    4.142006   -0.895000
     22          1           0        2.009018    4.142006    0.895000
     23          1           0        8.251028    0.642024    0.000000
     24          6           0       -3.267969   -0.380009    0.000000
     25          6           0       -2.590966   -1.588007    0.000000
     26          6           0       -1.173966   -1.507003    0.000000
     27          6           0       -0.677969   -0.223002    0.000000
     28         16           0       -2.045973    0.986994    0.000000
     29          8           0       -3.330962   -2.765010    0.000000
     30          1           0       -0.529963   -2.372002    0.000000
     31          6           0       -4.671970   -0.134013    0.000000
     32          6           0       -5.345973    1.073985    0.000000
     33          6           0       -6.772973    0.985981    0.000000
     34          6           0       -7.232969   -0.295021    0.000000
     35         16           0       -5.898966   -1.500017    0.000000
     36          8           0       -4.608977    2.254987    0.000000
     37          1           0       -7.426975    1.843979    0.000000
     38          6           0       -2.624958   -4.036008    0.000000
     39          1           0       -2.007958   -4.142006    0.894000
     40          1           0       -2.008958   -4.142006   -0.895000
     41          1           0       -3.403956   -4.791010    0.000000
     42          6           0       -5.317980    3.521985    0.000000
     43          1           0       -4.542982    4.280987    0.000000
     44          1           0       -5.934981    3.626983   -0.894000
     45          1           0       -5.934981    3.626983    0.895000
     46          1           0       -8.249968   -0.642024    0.000000
 ---------------------------------------------------------------------
 Rotational constants (GHZ):           0.2963183           0.0569219           0.0478077
 Leave Link  202 at Fri Jan 10 16:00:53 2020, MaxMem=  6710886400 cpu:               0.1 elap:               0.0
 (Enter /apps/gaussian/g16-a03/l301.exe)
 Standard basis: 6-311G(d,p) (5D, 7F)
 Ernie: Thresh=  0.10000D-02 Tol=  0.10000D-05 Strict=F.
 There are   672 symmetry adapted cartesian basis functions of A   symmetry.
 There are   644 symmetry adapted basis functions of A   symmetry.
   644 basis functions,  1096 primitive gaussians,   672 cartesian basis functions
   117 alpha electrons      117 beta electrons
       nuclear repulsion energy      3114.9197164733 Hartrees.
 IExCor=  402 DFT=T Ex+Corr=B3LYP ExCW=0 ScaHFX=  0.200000
 ScaDFX=  0.800000  0.720000  1.000000  0.810000 ScalE2=  1.000000  1.000000
 IRadAn=      5 IRanWt=     -1 IRanGd=            0 ICorTp=0 IEmpDi=  4
 NAtoms=   46 NActive=   46 NUniq=   46 SFac= 1.00D+00 NAtFMM=   60 NAOKFM=F Big=F
 Integral buffers will be    131072 words long.
 Raffenetti 2 integral format.
 Two-electron integral symmetry is turned on.
 Leave Link  301 at Fri Jan 10 16:00:54 2020, MaxMem=  6710886400 cpu:               0.6 elap:               0.1
 (Enter /apps/gaussian/g16-a03/l302.exe)
 NPDir=0 NMtPBC=     1 NCelOv=     1 NCel=       1 NClECP=     1 NCelD=      1
         NCelK=      1 NCelE2=     1 NClLst=     1 CellRange=     0.0.
 One-electron integrals computed using PRISM.
 One-electron integral symmetry used in STVInt
 NBasis=   644 RedAO= T EigKep=  1.94D-04  NBF=   644
 NBsUse=   644 1.00D-06 EigRej= -1.00D+00 NBFU=   644
 Precomputing XC quadrature grid using
 IXCGrd= 4 IRadAn=           5 IRanWt=          -1 IRanGd=           0 AccXCQ= 0.00D+00.
 Generated NRdTot=       0 NPtTot=           0 NUsed=           0 NTot=          32
 NSgBfM=   627   625   627   627   627 MxSgAt=    46 MxSgA2=    46.
 Leave Link  302 at Fri Jan 10 16:00:56 2020, MaxMem=  6710886400 cpu:               9.8 elap:               1.2
 (Enter /apps/gaussian/g16-a03/l303.exe)
 DipDrv:  MaxL=1.
 Leave Link  303 at Fri Jan 10 16:00:57 2020, MaxMem=  6710886400 cpu:               0.9 elap:               0.1
 (Enter /apps/gaussian/g16-a03/l401.exe)
 ExpMin= 7.71D-02 ExpMax= 9.34D+04 ExpMxC= 3.17D+03 IAcc=3 IRadAn=         5 AccDes= 0.00D+00
 Harris functional with IExCor=  402 and IRadAn=       5 diagonalized for initial guess.
 HarFok:  IExCor=  402 AccDes= 0.00D+00 IRadAn=         5 IDoV= 1 UseB2=F ITyADJ=14
 ICtDFT=  3500011 ScaDFX=  1.000000  1.000000  1.000000  1.000000
 FoFCou: FMM=F IPFlag=           0 FMFlag=      100000 FMFlg1=           0
         NFxFlg=           0 DoJE=T BraDBF=F KetDBF=T FulRan=T
         wScrn=  0.000000 ICntrl=       500 IOpCl=  0 I1Cent=   200000004 NGrid=           0
         NMat0=    1 NMatS0=      1 NMatT0=    0 NMatD0=    1 NMtDS0=    0 NMtDT0=    0
 Petite list used in FoFCou.
 Harris En= -2666.74819000737    
 JPrj=0 DoOrth=F DoCkMO=F.
 Leave Link  401 at Fri Jan 10 16:01:04 2020, MaxMem=  6710886400 cpu:              47.9 elap:               6.0
 (Enter /apps/gaussian/g16-a03/l502.exe)
 Integral symmetry usage will be decided dynamically.
 Closed shell SCF:
 Using DIIS extrapolation, IDIIS=  1040.
 NGot=  6710886400 LenX=  6709971342 LenY=  6709519086
 Requested convergence on RMS density matrix=1.00D-08 within 128 cycles.
 Requested convergence on MAX density matrix=1.00D-06.
 Requested convergence on             energy=1.00D-06.
 No special actions if energy rises.
 Fock matrices will be formed incrementally for  20 cycles.
 Integral accuracy reduced to 1.0D-05 until final iterations.

 Cycle   1  Pass 0  IDiag  1:
 FoFJK:  IHMeth= 1 ICntrl=       0 DoSepK=F KAlg= 0 I1Cent=           0 FoldK=F
 IRaf= 560000000 NMat=       1 IRICut=       1 DoRegI=T DoRafI=F ISym2E= 0 IDoP0=0 IntGTp=1.
 FoFCou: FMM=F IPFlag=           0 FMFlag=      100000 FMFlg1=           0
         NFxFlg=           0 DoJE=F BraDBF=F KetDBF=F FulRan=T
         wScrn=  0.000000 ICntrl=         0 IOpCl=  0 I1Cent=           0 NGrid=           0
         NMat0=    1 NMatS0=      1 NMatT0=    0 NMatD0=    1 NMtDS0=    0 NMtDT0=    0
 Symmetry not used in FoFCou.
 E= -2666.06817781166    
 DIIS: error= 3.18D-02 at cycle   1 NSaved=   1.
 NSaved= 1 IEnMin= 1 EnMin= -2666.06817781166     IErMin= 1 ErrMin= 3.18D-02
 ErrMax= 3.18D-02  0.00D+00 EMaxC= 1.00D-01 BMatC= 8.98D-01 BMatP= 8.98D-01
 IDIUse=3 WtCom= 6.82D-01 WtEn= 3.18D-01
 Coeff-Com:  0.100D+01
 Coeff-En:   0.100D+01
 Coeff:      0.100D+01
 Gap=     0.065 Goal=   None    Shift=    0.000
 GapD=    0.065 DampG=0.500 DampE=0.500 DampFc=0.2500 IDamp=-1.
 Damping current iteration by 2.50D-01
 RMSDP=2.92D-03 MaxDP=1.29D-01              OVMax= 2.88D-01

 Cycle   2  Pass 0  IDiag  1:
 RMSU=  7.27D-04    CP:  9.93D-01
 E= -2666.37300897111     Delta-E=       -0.304831159454 Rises=F Damp=T
 DIIS: error= 1.47D-02 at cycle   2 NSaved=   2.
 NSaved= 2 IEnMin= 2 EnMin= -2666.37300897111     IErMin= 2 ErrMin= 1.47D-02
 ErrMax= 1.47D-02  0.00D+00 EMaxC= 1.00D-01 BMatC= 2.12D-01 BMatP= 8.98D-01
 IDIUse=3 WtCom= 8.53D-01 WtEn= 1.47D-01
 Coeff-Com: -0.748D+00 0.175D+01
 Coeff-En:   0.000D+00 0.100D+01
 Coeff:     -0.639D+00 0.164D+01
 Gap=     0.169 Goal=   None    Shift=    0.000
 RMSDP=8.06D-04 MaxDP=3.07D-02 DE=-3.05D-01 OVMax= 2.41D-01

 Cycle   3  Pass 0  IDiag  1:
 RMSU=  7.82D-04    CP:  9.93D-01  1.26D+00
 E= -2666.85498615542     Delta-E=       -0.481977184307 Rises=F Damp=F
 DIIS: error= 4.09D-03 at cycle   3 NSaved=   3.
 NSaved= 3 IEnMin= 3 EnMin= -2666.85498615542     IErMin= 3 ErrMin= 4.09D-03
 ErrMax= 4.09D-03  0.00D+00 EMaxC= 1.00D-01 BMatC= 1.38D-02 BMatP= 2.12D-01
 IDIUse=3 WtCom= 9.59D-01 WtEn= 4.09D-02
 Coeff-Com: -0.211D+00 0.491D+00 0.721D+00
 Coeff-En:   0.000D+00 0.000D+00 0.100D+01
 Coeff:     -0.203D+00 0.471D+00 0.732D+00
 Gap=     0.093 Goal=   None    Shift=    0.000
 RMSDP=3.92D-04 MaxDP=3.07D-02 DE=-4.82D-01 OVMax= 6.67D-02

 Cycle   4  Pass 0  IDiag  1:
 RMSU=  2.64D-04    CP:  9.91D-01  1.42D+00  6.58D-01
 E= -2666.85934842319     Delta-E=       -0.004362267769 Rises=F Damp=F
 DIIS: error= 4.80D-03 at cycle   4 NSaved=   4.
 NSaved= 4 IEnMin= 4 EnMin= -2666.85934842319     IErMin= 3 ErrMin= 4.09D-03
 ErrMax= 4.80D-03  0.00D+00 EMaxC= 1.00D-01 BMatC= 9.48D-03 BMatP= 1.38D-02
 IDIUse=3 WtCom= 9.52D-01 WtEn= 4.80D-02
 Coeff-Com: -0.474D-01 0.118D+00 0.452D+00 0.477D+00
 Coeff-En:   0.000D+00 0.000D+00 0.419D+00 0.581D+00
 Coeff:     -0.451D-01 0.112D+00 0.450D+00 0.482D+00
 Gap=     0.093 Goal=   None    Shift=    0.000
 RMSDP=1.77D-04 MaxDP=1.02D-02 DE=-4.36D-03 OVMax= 3.42D-02

 Cycle   5  Pass 0  IDiag  1:
 RMSU=  1.12D-04    CP:  9.91D-01  1.38D+00  7.50D-01  5.74D-01
 E= -2666.86840269631     Delta-E=       -0.009054273123 Rises=F Damp=F
 DIIS: error= 1.61D-03 at cycle   5 NSaved=   5.
 NSaved= 5 IEnMin= 5 EnMin= -2666.86840269631     IErMin= 5 ErrMin= 1.61D-03
 ErrMax= 1.61D-03  0.00D+00 EMaxC= 1.00D-01 BMatC= 9.51D-04 BMatP= 9.48D-03
 IDIUse=3 WtCom= 9.84D-01 WtEn= 1.61D-02
 Coeff-Com:  0.234D-02 0.401D-02 0.187D+00 0.290D+00 0.516D+00
 Coeff-En:   0.000D+00 0.000D+00 0.000D+00 0.448D-01 0.955D+00
 Coeff:      0.231D-02 0.395D-02 0.184D+00 0.286D+00 0.523D+00
 Gap=     0.094 Goal=   None    Shift=    0.000
 RMSDP=6.07D-05 MaxDP=3.89D-03 DE=-9.05D-03 OVMax= 9.56D-03

 Cycle   6  Pass 0  IDiag  1:
 RMSU=  2.59D-05    CP:  9.91D-01  1.36D+00  7.64D-01  6.66D-01  5.81D-01
 E= -2666.86927924568     Delta-E=       -0.000876549367 Rises=F Damp=F
 DIIS: error= 3.79D-04 at cycle   6 NSaved=   6.
 NSaved= 6 IEnMin= 6 EnMin= -2666.86927924568     IErMin= 6 ErrMin= 3.79D-04
 ErrMax= 3.79D-04  0.00D+00 EMaxC= 1.00D-01 BMatC= 9.57D-05 BMatP= 9.51D-04
 IDIUse=3 WtCom= 9.96D-01 WtEn= 3.79D-03
 Coeff-Com:  0.708D-02-0.105D-01 0.684D-01 0.122D+00 0.304D+00 0.509D+00
 Coeff-En:   0.000D+00 0.000D+00 0.000D+00 0.000D+00 0.427D-01 0.957D+00
 Coeff:      0.705D-02-0.104D-01 0.681D-01 0.121D+00 0.303D+00 0.511D+00
 Gap=     0.094 Goal=   None    Shift=    0.000
 RMSDP=1.72D-05 MaxDP=1.00D-03 DE=-8.77D-04 OVMax= 3.34D-03

 Cycle   7  Pass 0  IDiag  1:
 RMSU=  9.16D-06    CP:  9.91D-01  1.36D+00  7.68D-01  6.47D-01  6.45D-01
                    CP:  5.71D-01
 E= -2666.86936615051     Delta-E=       -0.000086904830 Rises=F Damp=F
 DIIS: error= 1.42D-04 at cycle   7 NSaved=   7.
 NSaved= 7 IEnMin= 7 EnMin= -2666.86936615051     IErMin= 7 ErrMin= 1.42D-04
 ErrMax= 1.42D-04  0.00D+00 EMaxC= 1.00D-01 BMatC= 8.22D-06 BMatP= 9.57D-05
 IDIUse=3 WtCom= 9.99D-01 WtEn= 1.42D-03
 EnCoef did     2 forward-backward iterations
 Coeff-Com:  0.406D-02-0.656D-02 0.229D-01 0.416D-01 0.118D+00 0.284D+00
 Coeff-Com:  0.535D+00
 Coeff-En:   0.000D+00 0.000D+00 0.000D+00 0.000D+00 0.000D+00 0.180D-02
 Coeff-En:   0.998D+00
 Coeff:      0.406D-02-0.655D-02 0.229D-01 0.415D-01 0.118D+00 0.284D+00
 Coeff:      0.536D+00
 Gap=     0.094 Goal=   None    Shift=    0.000
 RMSDP=6.05D-06 MaxDP=2.65D-04 DE=-8.69D-05 OVMax= 1.64D-03

 Initial convergence to 1.0D-05 achieved.  Increase integral accuracy.
 Cycle   8  Pass 1  IDiag  1:
 E= -2666.86935254127     Delta-E=        0.000013609242 Rises=F Damp=F
 DIIS: error= 1.17D-04 at cycle   1 NSaved=   1.
 NSaved= 1 IEnMin= 1 EnMin= -2666.86935254127     IErMin= 1 ErrMin= 1.17D-04
 ErrMax= 1.17D-04  0.00D+00 EMaxC= 1.00D-01 BMatC= 4.01D-06 BMatP= 4.01D-06
 IDIUse=3 WtCom= 9.99D-01 WtEn= 1.17D-03
 Coeff-Com:  0.100D+01
 Coeff-En:   0.100D+01
 Coeff:      0.100D+01
 Gap=     0.094 Goal=   None    Shift=    0.000
 RMSDP=6.05D-06 MaxDP=2.65D-04 DE= 1.36D-05 OVMax= 1.75D-03

 Cycle   9  Pass 1  IDiag  1:
 RMSU=  5.96D-05    CP:  1.00D+00
 E= -2666.86934868659     Delta-E=        0.000003854679 Rises=F Damp=F
 DIIS: error= 1.57D-04 at cycle   2 NSaved=   2.
 NSaved= 2 IEnMin= 1 EnMin= -2666.86935254127     IErMin= 1 ErrMin= 1.17D-04
 ErrMax= 1.57D-04  0.00D+00 EMaxC= 1.00D-01 BMatC= 7.16D-06 BMatP= 4.01D-06
 IDIUse=3 WtCom= 4.43D-01 WtEn= 5.57D-01
 Coeff-Com:  0.590D+00 0.410D+00
 Coeff-En:   0.667D+00 0.333D+00
 Coeff:      0.633D+00 0.367D+00
 Gap=     0.094 Goal=   None    Shift=    0.000
 RMSDP=5.56D-06 MaxDP=2.36D-04 DE= 3.85D-06 OVMax= 1.54D-03

 Cycle  10  Pass 1  IDiag  1:
 RMSU=  5.56D-06    CP:  1.00D+00  9.97D-01
 E= -2666.86935617617     Delta-E=       -0.000007489584 Rises=F Damp=F
 DIIS: error= 4.38D-05 at cycle   3 NSaved=   3.
 NSaved= 3 IEnMin= 3 EnMin= -2666.86935617617     IErMin= 3 ErrMin= 4.38D-05
 ErrMax= 4.38D-05  0.00D+00 EMaxC= 1.00D-01 BMatC= 4.76D-07 BMatP= 4.01D-06
 IDIUse=1 WtCom= 1.00D+00 WtEn= 0.00D+00
 Coeff-Com:  0.681D-01 0.200D+00 0.732D+00
 Coeff:      0.681D-01 0.200D+00 0.732D+00
 Gap=     0.094 Goal=   None    Shift=    0.000
 RMSDP=1.81D-06 MaxDP=1.00D-04 DE=-7.49D-06 OVMax= 4.71D-04

 Cycle  11  Pass 1  IDiag  1:
 RMSU=  9.88D-07    CP:  1.00D+00  1.01D+00  7.47D-01
 E= -2666.86935651853     Delta-E=       -0.000000342362 Rises=F Damp=F
 DIIS: error= 2.44D-05 at cycle   4 NSaved=   4.
 NSaved= 4 IEnMin= 4 EnMin= -2666.86935651853     IErMin= 4 ErrMin= 2.44D-05
 ErrMax= 2.44D-05  0.00D+00 EMaxC= 1.00D-01 BMatC= 2.10D-07 BMatP= 4.76D-07
 IDIUse=1 WtCom= 1.00D+00 WtEn= 0.00D+00
 Coeff-Com: -0.227D-03 0.104D+00 0.496D+00 0.401D+00
 Coeff:     -0.227D-03 0.104D+00 0.496D+00 0.401D+00
 Gap=     0.094 Goal=   None    Shift=    0.000
 RMSDP=7.70D-07 MaxDP=4.60D-05 DE=-3.42D-07 OVMax= 1.47D-04

 Cycle  12  Pass 1  IDiag  1:
 RMSU=  2.54D-07    CP:  1.00D+00  1.01D+00  8.06D-01  3.45D-01
 E= -2666.86935672790     Delta-E=       -0.000000209367 Rises=F Damp=F
 DIIS: error= 7.66D-06 at cycle   5 NSaved=   5.
 NSaved= 5 IEnMin= 5 EnMin= -2666.86935672790     IErMin= 5 ErrMin= 7.66D-06
 ErrMax= 7.66D-06  0.00D+00 EMaxC= 1.00D-01 BMatC= 1.07D-08 BMatP= 2.10D-07
 IDIUse=1 WtCom= 1.00D+00 WtEn= 0.00D+00
 Coeff-Com: -0.270D-02 0.633D-01 0.309D+00 0.272D+00 0.359D+00
 Coeff:     -0.270D-02 0.633D-01 0.309D+00 0.272D+00 0.359D+00
 Gap=     0.094 Goal=   None    Shift=    0.000
 RMSDP=1.77D-07 MaxDP=9.03D-06 DE=-2.09D-07 OVMax= 3.13D-05

 Cycle  13  Pass 1  IDiag  1:
 RMSU=  9.19D-08    CP:  1.00D+00  1.01D+00  8.05D-01  4.23D-01  4.90D-01
 E= -2666.86935673848     Delta-E=       -0.000000010580 Rises=F Damp=F
 DIIS: error= 1.22D-06 at cycle   6 NSaved=   6.
 NSaved= 6 IEnMin= 6 EnMin= -2666.86935673848     IErMin= 6 ErrMin= 1.22D-06
 ErrMax= 1.22D-06  0.00D+00 EMaxC= 1.00D-01 BMatC= 4.41D-10 BMatP= 1.07D-08
 IDIUse=1 WtCom= 1.00D+00 WtEn= 0.00D+00
 Coeff-Com: -0.168D-02 0.323D-01 0.157D+00 0.141D+00 0.228D+00 0.443D+00
 Coeff:     -0.168D-02 0.323D-01 0.157D+00 0.141D+00 0.228D+00 0.443D+00
 Gap=     0.094 Goal=   None    Shift=    0.000
 RMSDP=4.38D-08 MaxDP=2.19D-06 DE=-1.06D-08 OVMax= 5.38D-06

 Cycle  14  Pass 1  IDiag  1:
 RMSU=  3.01D-08    CP:  1.00D+00  1.01D+00  8.04D-01  4.16D-01  5.54D-01
                    CP:  7.22D-01
 E= -2666.86935673892     Delta-E=       -0.000000000436 Rises=F Damp=F
 DIIS: error= 2.29D-07 at cycle   7 NSaved=   7.
 NSaved= 7 IEnMin= 7 EnMin= -2666.86935673892     IErMin= 7 ErrMin= 2.29D-07
 ErrMax= 2.29D-07  0.00D+00 EMaxC= 1.00D-01 BMatC= 2.42D-11 BMatP= 4.41D-10
 IDIUse=1 WtCom= 1.00D+00 WtEn= 0.00D+00
 Coeff-Com: -0.273D-03 0.357D-02 0.164D-01 0.155D-01 0.452D-01 0.200D+00
 Coeff-Com:  0.719D+00
 Coeff:     -0.273D-03 0.357D-02 0.164D-01 0.155D-01 0.452D-01 0.200D+00
 Coeff:      0.719D+00
 Gap=     0.094 Goal=   None    Shift=    0.000
 RMSDP=1.15D-08 MaxDP=6.03D-07 DE=-4.36D-10 OVMax= 2.29D-06

 Cycle  15  Pass 1  IDiag  1:
 RMSU=  1.04D-08    CP:  1.00D+00  1.01D+00  8.04D-01  4.17D-01  5.54D-01
                    CP:  7.70D-01  1.03D+00
 E= -2666.86935673893     Delta-E=       -0.000000000013 Rises=F Damp=F
 DIIS: error= 1.50D-07 at cycle   8 NSaved=   8.
 NSaved= 8 IEnMin= 8 EnMin= -2666.86935673893     IErMin= 8 ErrMin= 1.50D-07
 ErrMax= 1.50D-07  0.00D+00 EMaxC= 1.00D-01 BMatC= 7.32D-12 BMatP= 2.42D-11
 IDIUse=1 WtCom= 1.00D+00 WtEn= 0.00D+00
 Coeff-Com:  0.107D-03-0.316D-02-0.162D-01-0.140D-01-0.957D-02 0.410D-01
 Coeff-Com:  0.425D+00 0.576D+00
 Coeff:      0.107D-03-0.316D-02-0.162D-01-0.140D-01-0.957D-02 0.410D-01
 Coeff:      0.425D+00 0.576D+00
 Gap=     0.094 Goal=   None    Shift=    0.000
 RMSDP=6.19D-09 MaxDP=2.97D-07 DE=-1.27D-11 OVMax= 9.76D-07

 SCF Done:  E(RB3LYP) =  -2666.86935674     A.U. after   15 cycles
            NFock= 15  Conv=0.62D-08     -V/T= 2.0028
 KE= 2.659495424366D+03 PE=-1.252353944115D+04 EE= 4.082254943573D+03
 Leave Link  502 at Fri Jan 10 16:04:07 2020, MaxMem=  6710886400 cpu:            1467.2 elap:             183.4
 (Enter /apps/gaussian/g16-a03/l601.exe)
 Copying SCF densities to generalized density rwf, IOpCl= 0 IROHF=0.

 **********************************************************************

            Population analysis using the SCF density.

 **********************************************************************

 Orbital symmetries:
       Occupied  (A) (A) (A) (A) (A) (A) (A) (A) (A) (A) (A) (A)
                 (A) (A) (A) (A) (A) (A) (A) (A) (A) (A) (A) (A)
                 (A) (A) (A) (A) (A) (A) (A) (A) (A) (A) (A) (A)
                 (A) (A) (A) (A) (A) (A) (A) (A) (A) (A) (A) (A)
                 (A) (A) (A) (A) (A) (A) (A) (A) (A) (A) (A) (A)
                 (A) (A) (A) (A) (A) (A) (A) (A) (A) (A) (A) (A)
                 (A) (A) (A) (A) (A) (A) (A) (A) (A) (A) (A) (A)
                 (A) (A) (A) (A) (A) (A) (A) (A) (A) (A) (A) (A)
                 (A) (A) (A) (A) (A) (A) (A) (A) (A) (A) (A) (A)
                 (A) (A) (A) (A) (A) (A) (A) (A) (A)
       Virtual   (A) (A) (A) (A) (A) (A) (A) (A) (A) (A) (A) (A)
                 (A) (A) (A) (A) (A) (A) (A) (A) (A) (A) (A) (A)
                 (A) (A) (A) (A) (A) (A) (A) (A) (A) (A) (A) (A)
                 (A) (A) (A) (A) (A) (A) (A) (A) (A) (A) (A) (A)
                 (A) (A) (A) (A) (A) (A) (A) (A) (A) (A) (A) (A)
                 (A) (A) (A) (A) (A) (A) (A) (A) (A) (A) (A) (A)
                 (A) (A) (A) (A) (A) (A) (A) (A) (A) (A) (A) (A)
                 (A) (A) (A) (A) (A) (A) (A) (A) (A) (A) (A) (A)
                 (A) (A) (A) (A) (A) (A) (A) (A) (A) (A) (A) (A)
                 (A) (A) (A) (A) (A) (A) (A) (A) (A) (A) (A) (A)
                 (A) (A) (A) (A) (A) (A) (A) (A) (A) (A) (A) (A)
                 (A) (A) (A) (A) (A) (A) (A) (A) (A) (A) (A) (A)
                 (A) (A) (A) (A) (A) (A) (A) (A) (A) (A) (A) (A)
                 (A) (A) (A) (A) (A) (A) (A) (A) (A) (A) (A) (A)
                 (A) (A) (A) (A) (A) (A) (A) (A) (A) (A) (A) (A)
                 (A) (A) (A) (A) (A) (A) (A) (A) (A) (A) (A) (A)
                 (A) (A) (A) (A) (A) (A) (A) (A) (A) (A) (A) (A)
                 (A) (A) (A) (A) (A) (A) (A) (A) (A) (A) (A) (A)
                 (A) (A) (A) (A) (A) (A) (A) (A) (A) (A) (A) (A)
                 (A) (A) (A) (A) (A) (A) (A) (A) (A) (A) (A) (A)
                 (A) (A) (A) (A) (A) (A) (A) (A) (A) (A) (A) (A)
                 (A) (A) (A) (A) (A) (A) (A) (A) (A) (A) (A) (A)
                 (A) (A) (A) (A) (A) (A) (A) (A) (A) (A) (A) (A)
                 (A) (A) (A) (A) (A) (A) (A) (A) (A) (A) (A) (A)
                 (A) (A) (A) (A) (A) (A) (A) (A) (A) (A) (A) (A)
                 (A) (A) (A) (A) (A) (A) (A) (A) (A) (A) (A) (A)
                 (A) (A) (A) (A) (A) (A) (A) (A) (A) (A) (A) (A)
                 (A) (A) (A) (A) (A) (A) (A) (A) (A) (A) (A) (A)
                 (A) (A) (A) (A) (A) (A) (A) (A) (A) (A) (A) (A)
                 (A) (A) (A) (A) (A) (A) (A) (A) (A) (A) (A) (A)
                 (A) (A) (A) (A) (A) (A) (A) (A) (A) (A) (A) (A)
                 (A) (A) (A) (A) (A) (A) (A) (A) (A) (A) (A) (A)
                 (A) (A) (A) (A) (A) (A) (A) (A) (A) (A) (A) (A)
                 (A) (A) (A) (A) (A) (A) (A) (A) (A) (A) (A) (A)
                 (A) (A) (A) (A) (A) (A) (A) (A) (A) (A) (A) (A)
                 (A) (A) (A) (A) (A) (A) (A) (A) (A) (A) (A) (A)
                 (A) (A) (A) (A) (A) (A) (A) (A) (A) (A) (A) (A)
                 (A) (A) (A) (A) (A) (A) (A) (A) (A) (A) (A) (A)
                 (A) (A) (A) (A) (A) (A) (A) (A) (A) (A) (A) (A)
                 (A) (A) (A) (A) (A) (A) (A) (A) (A) (A) (A) (A)
                 (A) (A) (A) (A) (A) (A) (A) (A) (A) (A) (A) (A)
                 (A) (A) (A) (A) (A) (A) (A) (A) (A) (A) (A) (A)
                 (A) (A) (A) (A) (A) (A) (A) (A) (A) (A) (A) (A)
                 (A) (A) (A) (A) (A) (A) (A) (A) (A) (A) (A)
 The electronic state is 1-A.
 Alpha  occ. eigenvalues --  -88.87035 -88.87026 -88.86815 -88.86813 -19.15318
 Alpha  occ. eigenvalues --  -19.15301 -19.15175 -19.15172 -10.23416 -10.23413
 Alpha  occ. eigenvalues --  -10.23387 -10.23376 -10.23112 -10.23089 -10.22888
 Alpha  occ. eigenvalues --  -10.22885 -10.21274 -10.21232 -10.20823 -10.20819
 Alpha  occ. eigenvalues --  -10.20763 -10.20755 -10.19956 -10.19937 -10.17886
 Alpha  occ. eigenvalues --  -10.17872 -10.17650 -10.17647  -7.95392  -7.95383
 Alpha  occ. eigenvalues --   -7.95190  -7.95189  -5.91734  -5.91725  -5.91548
 Alpha  occ. eigenvalues --   -5.91546  -5.91371  -5.91362  -5.91190  -5.91188
 Alpha  occ. eigenvalues --   -5.90923  -5.90914  -5.90680  -5.90679  -1.05469
 Alpha  occ. eigenvalues --   -1.05449  -1.05339  -1.05328  -0.88021  -0.87010
 Alpha  occ. eigenvalues --   -0.86096  -0.84770  -0.78591  -0.76345  -0.74981
 Alpha  occ. eigenvalues --   -0.74327  -0.73403  -0.73205  -0.71512  -0.71307
 Alpha  occ. eigenvalues --   -0.69559  -0.69090  -0.68365  -0.65928  -0.61876
 Alpha  occ. eigenvalues --   -0.59662  -0.58655  -0.56893  -0.54996  -0.54353
 Alpha  occ. eigenvalues --   -0.54198  -0.53363  -0.53240  -0.51428  -0.48661
 Alpha  occ. eigenvalues --   -0.47356  -0.47073  -0.47057  -0.46819  -0.46791
 Alpha  occ. eigenvalues --   -0.46628  -0.46577  -0.45657  -0.44625  -0.44341
 Alpha  occ. eigenvalues --   -0.44235  -0.43508  -0.42127  -0.41234  -0.40977
 Alpha  occ. eigenvalues --   -0.40663  -0.40549  -0.39853  -0.38155  -0.37903
 Alpha  occ. eigenvalues --   -0.37040  -0.36494  -0.36304  -0.35283  -0.34903
 Alpha  occ. eigenvalues --   -0.34439  -0.33982  -0.32873  -0.32613  -0.32381
 Alpha  occ. eigenvalues --   -0.32228  -0.32088  -0.31306  -0.31025  -0.28628
 Alpha  occ. eigenvalues --   -0.26183  -0.23982  -0.23853  -0.23367  -0.23199
 Alpha  occ. eigenvalues --   -0.19769  -0.16321
 Alpha virt. eigenvalues --   -0.06944  -0.02794  -0.00376   0.00250   0.00586
 Alpha virt. eigenvalues --    0.01325   0.01375   0.03404   0.04064   0.04151
 Alpha virt. eigenvalues --    0.04327   0.04657   0.05137   0.05792   0.06586
 Alpha virt. eigenvalues --    0.06961   0.07160   0.07471   0.08505   0.08934
 Alpha virt. eigenvalues --    0.10048   0.10063   0.10252   0.10531   0.10678
 Alpha virt. eigenvalues --    0.10683   0.10982   0.11057   0.11490   0.11640
 Alpha virt. eigenvalues --    0.11721   0.11890   0.12212   0.12243   0.12919
 Alpha virt. eigenvalues --    0.13178   0.14271   0.16630   0.16688   0.18731
 Alpha virt. eigenvalues --    0.19022   0.19211   0.20347   0.20593   0.21479
 Alpha virt. eigenvalues --    0.21563   0.21769   0.22132   0.22793   0.23032
 Alpha virt. eigenvalues --    0.23689   0.24673   0.25077   0.25960   0.26960
 Alpha virt. eigenvalues --    0.27174   0.28208   0.30736   0.30815   0.31001
 Alpha virt. eigenvalues --    0.31048   0.31352   0.32296   0.32442   0.32860
 Alpha virt. eigenvalues --    0.33140   0.34682   0.34980   0.35656   0.36903
 Alpha virt. eigenvalues --    0.37172   0.38431   0.38560   0.38901   0.39727
 Alpha virt. eigenvalues --    0.39917   0.40253   0.40502   0.41473   0.42105
 Alpha virt. eigenvalues --    0.42177   0.42749   0.42794   0.42977   0.43260
 Alpha virt. eigenvalues --    0.43813   0.44018   0.44456   0.45186   0.45276
 Alpha virt. eigenvalues --    0.46007   0.46069   0.46102   0.48686   0.48857
 Alpha virt. eigenvalues --    0.48893   0.49444   0.49668   0.50176   0.50436
 Alpha virt. eigenvalues --    0.50526   0.51256   0.51896   0.52036   0.52665
 Alpha virt. eigenvalues --    0.53622   0.54272   0.54469   0.55170   0.55565
 Alpha virt. eigenvalues --    0.55591   0.56093   0.56481   0.57306   0.57382
 Alpha virt. eigenvalues --    0.58181   0.58282   0.58442   0.58651   0.60287
 Alpha virt. eigenvalues --    0.60452   0.60750   0.61146   0.61256   0.61619
 Alpha virt. eigenvalues --    0.62012   0.62168   0.63183   0.63444   0.63603
 Alpha virt. eigenvalues --    0.63918   0.66008   0.66188   0.66421   0.67525
 Alpha virt. eigenvalues --    0.67894   0.68803   0.71953   0.71976   0.73242
 Alpha virt. eigenvalues --    0.73749   0.73820   0.74136   0.74306   0.74585
 Alpha virt. eigenvalues --    0.75599   0.75793   0.76462   0.76696   0.77315
 Alpha virt. eigenvalues --    0.77444   0.78420   0.79540   0.79567   0.80035
 Alpha virt. eigenvalues --    0.81200   0.81454   0.82686   0.83046   0.83475
 Alpha virt. eigenvalues --    0.83744   0.84786   0.85202   0.85888   0.86270
 Alpha virt. eigenvalues --    0.87336   0.87755   0.87756   0.88437   0.89065
 Alpha virt. eigenvalues --    0.89118   0.89304   0.90707   0.90969   0.91395
 Alpha virt. eigenvalues --    0.91918   0.92942   0.92997   0.93213   0.95804
 Alpha virt. eigenvalues --    0.96273   0.96674   0.99000   0.99477   0.99698
 Alpha virt. eigenvalues --    1.01556   1.02132   1.02151   1.03164   1.03615
 Alpha virt. eigenvalues --    1.04346   1.04433   1.05277   1.05315   1.06958
 Alpha virt. eigenvalues --    1.07101   1.07345   1.08659   1.08981   1.09142
 Alpha virt. eigenvalues --    1.09613   1.11849   1.13915   1.14162   1.14841
 Alpha virt. eigenvalues --    1.17622   1.18815   1.19390   1.19658   1.19931
 Alpha virt. eigenvalues --    1.20135   1.20919   1.21236   1.26410   1.27058
 Alpha virt. eigenvalues --    1.28728   1.28864   1.29534   1.29626   1.30698
 Alpha virt. eigenvalues --    1.31551   1.32266   1.32289   1.35999   1.36366
 Alpha virt. eigenvalues --    1.37174   1.38367   1.40004   1.41230   1.42561
 Alpha virt. eigenvalues --    1.42609   1.42818   1.42849   1.42915   1.43154
 Alpha virt. eigenvalues --    1.45730   1.45813   1.45982   1.46020   1.46101
 Alpha virt. eigenvalues --    1.47005   1.48083   1.48975   1.49849   1.50840
 Alpha virt. eigenvalues --    1.51783   1.52206   1.53125   1.53624   1.54341
 Alpha virt. eigenvalues --    1.54526   1.54628   1.55107   1.56623   1.57500
 Alpha virt. eigenvalues --    1.57844   1.57919   1.58044   1.58266   1.59358
 Alpha virt. eigenvalues --    1.59622   1.59899   1.60154   1.61090   1.61372
 Alpha virt. eigenvalues --    1.62137   1.63080   1.63739   1.64712   1.65254
 Alpha virt. eigenvalues --    1.65378   1.65490   1.67456   1.67734   1.67936
 Alpha virt. eigenvalues --    1.68764   1.68972   1.71427   1.71957   1.73007
 Alpha virt. eigenvalues --    1.73602   1.73835   1.74526   1.75578   1.77440
 Alpha virt. eigenvalues --    1.77548   1.77965   1.78026   1.78645   1.79260
 Alpha virt. eigenvalues --    1.81008   1.82111   1.82725   1.85464   1.86016
 Alpha virt. eigenvalues --    1.87053   1.87591   1.88028   1.88109   1.91209
 Alpha virt. eigenvalues --    1.91506   1.92615   1.93025   1.94625   1.95791
 Alpha virt. eigenvalues --    1.96615   1.97758   1.98095   1.98533   1.98910
 Alpha virt. eigenvalues --    1.99696   2.00461   2.00872   2.02392   2.02957
 Alpha virt. eigenvalues --    2.03611   2.04658   2.05146   2.05469   2.05579
 Alpha virt. eigenvalues --    2.05788   2.06813   2.07214   2.07341   2.07820
 Alpha virt. eigenvalues --    2.09675   2.10713   2.12018   2.12039   2.12808
 Alpha virt. eigenvalues --    2.13034   2.13215   2.13955   2.15647   2.15660
 Alpha virt. eigenvalues --    2.15889   2.15963   2.17324   2.17802   2.20212
 Alpha virt. eigenvalues --    2.22512   2.27261   2.30427   2.30640   2.32258
 Alpha virt. eigenvalues --    2.32563   2.33298   2.36481   2.36534   2.40049
 Alpha virt. eigenvalues --    2.40077   2.40332   2.40397   2.41704   2.43583
 Alpha virt. eigenvalues --    2.44465   2.44607   2.45036   2.45160   2.45519
 Alpha virt. eigenvalues --    2.45844   2.46932   2.47183   2.48534   2.49883
 Alpha virt. eigenvalues --    2.50314   2.50389   2.52991   2.53541   2.55588
 Alpha virt. eigenvalues --    2.55865   2.56385   2.56544   2.56718   2.59182
 Alpha virt. eigenvalues --    2.59996   2.60217   2.60542   2.62827   2.62898
 Alpha virt. eigenvalues --    2.63014   2.64454   2.65357   2.66010   2.67092
 Alpha virt. eigenvalues --    2.67985   2.68496   2.69183   2.70914   2.74094
 Alpha virt. eigenvalues --    2.77466   2.78614   2.79008   2.79106   2.79811
 Alpha virt. eigenvalues --    2.80136   2.84606   2.86778   2.87370   2.87725
 Alpha virt. eigenvalues --    2.88193   2.88840   2.88957   2.92486   2.92762
 Alpha virt. eigenvalues --    2.94753   2.95499   2.95558   2.96372   2.96908
 Alpha virt. eigenvalues --    2.98161   3.01569   3.01596   3.01906   3.02053
 Alpha virt. eigenvalues --    3.02940   3.04229   3.05875   3.09819   3.14264
 Alpha virt. eigenvalues --    3.14288   3.18458   3.18901   3.20164   3.20188
 Alpha virt. eigenvalues --    3.20230   3.20751   3.20783   3.22377   3.24278
 Alpha virt. eigenvalues --    3.24438   3.27413   3.28197   3.29914   3.32010
 Alpha virt. eigenvalues --    3.33800   3.35563   3.35700   3.35865   3.38432
 Alpha virt. eigenvalues --    3.40914   3.42103   3.47723   3.47849   3.58853
 Alpha virt. eigenvalues --    3.65090   3.65889   3.74651   3.74873   3.74972
 Alpha virt. eigenvalues --    3.75056   3.75449   3.77027   3.80196   3.80485
 Alpha virt. eigenvalues --    3.84648   3.96996   3.99210   4.04174   4.04540
 Alpha virt. eigenvalues --    4.06264   4.06518   4.09747   4.10368   4.13423
 Alpha virt. eigenvalues --    4.16123   4.20405   4.23071   4.43219   4.56164
 Alpha virt. eigenvalues --    4.72227   4.88308   4.88405   4.90409   4.90536
 Alpha virt. eigenvalues --    5.27459   5.27527   5.29005   5.29664   5.69135
 Alpha virt. eigenvalues --    5.70055   5.71731   5.72268   7.73257   7.74507
 Alpha virt. eigenvalues --    7.75281   7.75552  17.19811  17.20384  17.21572
 Alpha virt. eigenvalues --   17.22503  17.39843  17.39912  17.43360  17.43667
 Alpha virt. eigenvalues --   17.46769  17.50954  17.52796  17.54037  23.36771
 Alpha virt. eigenvalues --   23.45380  23.59296  23.67831  23.75000  23.80091
 Alpha virt. eigenvalues --   23.83116  23.85466  23.85629  23.85924  23.86055
 Alpha virt. eigenvalues --   23.89548  24.03116  24.03258  24.05320  24.05452
 Alpha virt. eigenvalues --   24.12433  24.13063  24.16289  24.16615  49.91462
 Alpha virt. eigenvalues --   49.91832  49.92518  49.92766 188.84329 188.85580
 Alpha virt. eigenvalues --  188.86511 188.86918
          Condensed to atoms (all electrons):
               1          2          3          4          5          6
     1  C    5.392794   0.531333  -0.086412  -0.074054   0.311260  -0.085731
     2  C    0.531333   4.706339   0.468338  -0.066978  -0.076066   0.342514
     3  C   -0.086412   0.468338   4.949618   0.516047  -0.101271  -0.064366
     4  C   -0.074054  -0.066978   0.516047   5.269294   0.271449   0.005844
     5  S    0.311260  -0.076066  -0.101271   0.271449  15.391276   0.005026
     6  O   -0.085731   0.342514  -0.064366   0.005844   0.005026   7.988295
     7  H    0.006560  -0.039375   0.408254  -0.036448   0.007255  -0.003731
     8  C    0.288740  -0.027460   0.011341   0.005750  -0.058339   0.001353
     9  C   -0.023771   0.001920  -0.000406   0.000464  -0.012603   0.000402
    10  C    0.012319  -0.000394  -0.000018   0.000014   0.002515  -0.000051
    11  C    0.002114   0.000443   0.000015  -0.000000  -0.000336   0.000650
    12  S   -0.066781  -0.012354   0.002724  -0.000539   0.004099   0.022746
    13  O    0.001899   0.000431  -0.000051   0.000605   0.022247   0.000000
    14  H   -0.000300   0.000010  -0.000000   0.000000  -0.000004   0.000000
    15  C    0.009881  -0.064017  -0.009853  -0.000259  -0.000421   0.271757
    16  H   -0.000253  -0.005853   0.003875  -0.000322  -0.000210  -0.030726
    17  H   -0.000253  -0.005853   0.003875  -0.000322  -0.000210  -0.030726
    18  H   -0.000269   0.005452   0.000377   0.000031   0.000078  -0.024886
    19  C   -0.000177  -0.000002   0.000001  -0.000020  -0.002535   0.000000
    20  H    0.000003   0.000000   0.000000  -0.000017  -0.001375   0.000000
    21  H    0.000042   0.000000  -0.000000   0.000004   0.000517   0.000000
    22  H    0.000042   0.000000  -0.000000   0.000004   0.000517   0.000000
    23  H    0.001540   0.005863  -0.019472   0.400113  -0.032510  -0.000083
    24  C   -0.000000  -0.000000  -0.000000   0.000000   0.000000   0.000000
    25  C    0.000000   0.000000   0.000000  -0.000000  -0.000000   0.000000
    26  C    0.000005   0.000000   0.000000  -0.000000  -0.000002   0.000003
    27  C   -0.000425  -0.000005   0.000000   0.000000   0.000049  -0.000001
    28  S    0.000008   0.000000   0.000000  -0.000000  -0.000003   0.000001
    29  O   -0.000000   0.000000   0.000000  -0.000000  -0.000000  -0.000000
    30  H   -0.000008   0.000000   0.000000  -0.000000  -0.000000  -0.000010
    31  C   -0.000000   0.000000  -0.000000   0.000000   0.000000   0.000000
    32  C    0.000000   0.000000   0.000000  -0.000000  -0.000000   0.000000
    33  C   -0.000000   0.000000   0.000000  -0.000000  -0.000000   0.000000
    34  C    0.000000  -0.000000  -0.000000   0.000000   0.000000   0.000000
    35  S    0.000000  -0.000000  -0.000000   0.000000   0.000000   0.000000
    36  O    0.000000   0.000000   0.000000   0.000000   0.000000   0.000000
    37  H    0.000000  -0.000000   0.000000   0.000000   0.000000   0.000000
    38  C    0.000000  -0.000000   0.000000   0.000000  -0.000000   0.000000
    39  H    0.000000  -0.000000  -0.000000   0.000000   0.000000   0.000000
    40  H    0.000000  -0.000000  -0.000000   0.000000   0.000000   0.000000
    41  H   -0.000000   0.000000   0.000000  -0.000000   0.000000   0.000000
    42  C    0.000000  -0.000000  -0.000000   0.000000   0.000000  -0.000000
    43  H   -0.000000  -0.000000   0.000000  -0.000000   0.000000   0.000000
    44  H    0.000000   0.000000   0.000000   0.000000  -0.000000   0.000000
    45  H    0.000000   0.000000   0.000000   0.000000  -0.000000   0.000000
    46  H   -0.000000  -0.000000   0.000000  -0.000000   0.000000   0.000000
               7          8          9         10         11         12
     1  C    0.006560   0.288740  -0.023771   0.012319   0.002114  -0.066781
     2  C   -0.039375  -0.027460   0.001920  -0.000394   0.000443  -0.012354
     3  C    0.408254   0.011341  -0.000406  -0.000018   0.000015   0.002724
     4  C   -0.036448   0.005750   0.000464   0.000014  -0.000000  -0.000539
     5  S    0.007255  -0.058339  -0.012603   0.002515  -0.000336   0.004099
     6  O   -0.003731   0.001353   0.000402  -0.000051   0.000650   0.022746
     7  H    0.552371  -0.000315   0.000008  -0.000000   0.000000  -0.000039
     8  C   -0.000315   5.386636   0.527825  -0.095450  -0.074148   0.300854
     9  C    0.000008   0.527825   4.652137   0.472938  -0.028900  -0.070405
    10  C   -0.000000  -0.095450   0.472938   4.979844   0.442690  -0.094098
    11  C    0.000000  -0.074148  -0.028900   0.442690   5.427994   0.274805
    12  S   -0.000039   0.300854  -0.070405  -0.094098   0.274805  15.402127
    13  O    0.000000  -0.087279   0.347717  -0.066072   0.006399   0.005045
    14  H    0.000000   0.006843  -0.033445   0.411377  -0.048611   0.006181
    15  C    0.003778  -0.000196  -0.000002   0.000002  -0.000021  -0.002592
    16  H    0.000021   0.000049   0.000000  -0.000000   0.000005   0.000552
    17  H    0.000021   0.000049   0.000000  -0.000000   0.000005   0.000552
    18  H   -0.000007  -0.000014   0.000000   0.000000  -0.000019  -0.001393
    19  C   -0.000000   0.009964  -0.064856  -0.009363  -0.000328  -0.000332
    20  H   -0.000000  -0.000297   0.005079   0.000526   0.000026   0.000082
    21  H    0.000000  -0.000240  -0.005866   0.004085  -0.000385  -0.000205
    22  H    0.000000  -0.000240  -0.005866   0.004085  -0.000385  -0.000205
    23  H   -0.005329  -0.000331   0.000000   0.000000  -0.000000   0.000035
    24  C    0.000000   0.000003  -0.000024  -0.000151   0.006351  -0.000069
    25  C   -0.000000  -0.000024   0.000019  -0.000228   0.003621   0.001119
    26  C   -0.000000  -0.000151  -0.000228   0.003063  -0.012071  -0.002579
    27  C    0.000000   0.006356   0.003622  -0.012124   0.309799  -0.075899
    28  S   -0.000000  -0.000069   0.001119  -0.002573  -0.075933   0.001996
    29  O   -0.000000  -0.000000   0.000000  -0.000000  -0.000146   0.000015
    30  H   -0.000000  -0.000218  -0.000046   0.000467  -0.005530   0.005793
    31  C    0.000000  -0.000000   0.000000   0.000005  -0.000425   0.000008
    32  C   -0.000000  -0.000000   0.000000   0.000000  -0.000005   0.000000
    33  C    0.000000  -0.000000   0.000000   0.000000   0.000000   0.000000
    34  C    0.000000   0.000000  -0.000000  -0.000000   0.000000  -0.000000
    35  S    0.000000   0.000000  -0.000000  -0.000002   0.000049  -0.000003
    36  O    0.000000   0.000000   0.000000   0.000003  -0.000001   0.000001
    37  H    0.000000   0.000000  -0.000000  -0.000000   0.000000  -0.000000
    38  C    0.000000   0.000000   0.000000   0.000000  -0.000024  -0.000039
    39  H    0.000000   0.000000  -0.000000  -0.000000   0.000023  -0.000035
    40  H    0.000000   0.000000  -0.000000  -0.000000   0.000023  -0.000035
    41  H    0.000000   0.000000   0.000000   0.000000  -0.000001   0.000002
    42  C   -0.000000   0.000000  -0.000000  -0.000000   0.000000  -0.000000
    43  H   -0.000000  -0.000000  -0.000000  -0.000002   0.000000  -0.000000
    44  H    0.000000   0.000000   0.000000   0.000000  -0.000000   0.000000
    45  H    0.000000   0.000000   0.000000   0.000000  -0.000000   0.000000
    46  H    0.000000   0.000000  -0.000000  -0.000000   0.000000   0.000000
              13         14         15         16         17         18
     1  C    0.001899  -0.000300   0.009881  -0.000253  -0.000253  -0.000269
     2  C    0.000431   0.000010  -0.064017  -0.005853  -0.005853   0.005452
     3  C   -0.000051  -0.000000  -0.009853   0.003875   0.003875   0.000377
     4  C    0.000605   0.000000  -0.000259  -0.000322  -0.000322   0.000031
     5  S    0.022247  -0.000004  -0.000421  -0.000210  -0.000210   0.000078
     6  O    0.000000   0.000000   0.271757  -0.030726  -0.030726  -0.024886
     7  H    0.000000   0.000000   0.003778   0.000021   0.000021  -0.000007
     8  C   -0.087279   0.006843  -0.000196   0.000049   0.000049  -0.000014
     9  C    0.347717  -0.033445  -0.000002   0.000000   0.000000   0.000000
    10  C   -0.066072   0.411377   0.000002  -0.000000  -0.000000   0.000000
    11  C    0.006399  -0.048611  -0.000021   0.000005   0.000005  -0.000019
    12  S    0.005045   0.006181  -0.002592   0.000552   0.000552  -0.001393
    13  O    7.991702  -0.004617   0.000000   0.000000   0.000000   0.000000
    14  H   -0.004617   0.540734  -0.000000   0.000000   0.000000  -0.000000
    15  C    0.000000  -0.000000   4.714586   0.397251   0.397251   0.403980
    16  H    0.000000   0.000000   0.397251   0.596869  -0.048406  -0.028080
    17  H    0.000000   0.000000   0.397251  -0.048406   0.596868  -0.028080
    18  H    0.000000  -0.000000   0.403980  -0.028080  -0.028080   0.540353
    19  C    0.270688   0.004906  -0.000000   0.000000   0.000000  -0.000000
    20  H   -0.024561  -0.000046  -0.000000   0.000000   0.000000  -0.000000
    21  H   -0.030419   0.000323   0.000000   0.000000  -0.000000   0.000000
    22  H   -0.030419   0.000323   0.000000  -0.000000   0.000000   0.000000
    23  H    0.000017  -0.000000  -0.000020   0.000014   0.000014  -0.000001
    24  C   -0.000000  -0.000218   0.000000   0.000000   0.000000  -0.000000
    25  C    0.000000  -0.000046  -0.000000   0.000000   0.000000  -0.000000
    26  C   -0.000000   0.000467  -0.000000   0.000000   0.000000  -0.000002
    27  C   -0.000147  -0.005521   0.000000  -0.000000  -0.000000   0.000000
    28  S    0.000015   0.005785  -0.000000   0.000000   0.000000  -0.000000
    29  O    0.000000  -0.000000   0.000000  -0.000000  -0.000000  -0.000000
    30  H   -0.000000   0.000005  -0.000001  -0.000000  -0.000000   0.000000
    31  C   -0.000000  -0.000008   0.000000   0.000000   0.000000  -0.000000
    32  C    0.000000   0.000000  -0.000000   0.000000   0.000000  -0.000000
    33  C    0.000000   0.000000  -0.000000   0.000000   0.000000   0.000000
    34  C   -0.000000  -0.000000   0.000000   0.000000   0.000000  -0.000000
    35  S   -0.000000  -0.000000   0.000000  -0.000000  -0.000000   0.000000
    36  O   -0.000000  -0.000010  -0.000000   0.000000   0.000000   0.000000
    37  H   -0.000000  -0.000000  -0.000000   0.000000   0.000000  -0.000000
    38  C   -0.000000   0.000000  -0.000000   0.000000   0.000000  -0.000000
    39  H   -0.000000  -0.000000   0.000000  -0.000000   0.000000   0.000000
    40  H   -0.000000  -0.000000   0.000000   0.000000  -0.000000   0.000000
    41  H   -0.000000  -0.000000  -0.000000   0.000000   0.000000  -0.000000
    42  C    0.000000  -0.000001   0.000000   0.000000   0.000000  -0.000000
    43  H   -0.000000   0.000000  -0.000000   0.000000   0.000000  -0.000000
    44  H   -0.000000  -0.000000   0.000000   0.000000  -0.000000   0.000000
    45  H   -0.000000  -0.000000   0.000000  -0.000000   0.000000   0.000000
    46  H   -0.000000   0.000000   0.000000  -0.000000  -0.000000   0.000000
              19         20         21         22         23         24
     1  C   -0.000177   0.000003   0.000042   0.000042   0.001540  -0.000000
     2  C   -0.000002   0.000000   0.000000   0.000000   0.005863  -0.000000
     3  C    0.000001   0.000000  -0.000000  -0.000000  -0.019472  -0.000000
     4  C   -0.000020  -0.000017   0.000004   0.000004   0.400113   0.000000
     5  S   -0.002535  -0.001375   0.000517   0.000517  -0.032510   0.000000
     6  O    0.000000   0.000000   0.000000   0.000000  -0.000083   0.000000
     7  H   -0.000000  -0.000000   0.000000   0.000000  -0.005329   0.000000
     8  C    0.009964  -0.000297  -0.000240  -0.000240  -0.000331   0.000003
     9  C   -0.064856   0.005079  -0.005866  -0.005866   0.000000  -0.000024
    10  C   -0.009363   0.000526   0.004085   0.004085   0.000000  -0.000151
    11  C   -0.000328   0.000026  -0.000385  -0.000385  -0.000000   0.006351
    12  S   -0.000332   0.000082  -0.000205  -0.000205   0.000035  -0.000069
    13  O    0.270688  -0.024561  -0.030419  -0.030419   0.000017  -0.000000
    14  H    0.004906  -0.000046   0.000323   0.000323  -0.000000  -0.000218
    15  C   -0.000000  -0.000000   0.000000   0.000000  -0.000020   0.000000
    16  H    0.000000   0.000000   0.000000  -0.000000   0.000014   0.000000
    17  H    0.000000   0.000000  -0.000000   0.000000   0.000014   0.000000
    18  H   -0.000000  -0.000000   0.000000   0.000000  -0.000001  -0.000000
    19  C    4.716415   0.403412   0.397944   0.397944  -0.000001   0.000000
    20  H    0.403412   0.538365  -0.027644  -0.027644  -0.000001   0.000000
    21  H    0.397944  -0.027644   0.592585  -0.047662   0.000000   0.000000
    22  H    0.397944  -0.027644  -0.047662   0.592584   0.000000   0.000000
    23  H   -0.000001  -0.000001   0.000000   0.000000   0.519467   0.000000
    24  C    0.000000   0.000000   0.000000   0.000000   0.000000   5.387206
    25  C    0.000000   0.000000  -0.000000  -0.000000  -0.000000   0.527585
    26  C    0.000000   0.000000  -0.000000  -0.000000  -0.000000  -0.095430
    27  C   -0.000024  -0.000001   0.000023   0.000023   0.000000  -0.074172
    28  S   -0.000039   0.000002  -0.000035  -0.000035   0.000000   0.301014
    29  O   -0.000000  -0.000000  -0.000000  -0.000000  -0.000000  -0.087332
    30  H    0.000000  -0.000000  -0.000000  -0.000000   0.000000   0.006855
    31  C    0.000000  -0.000000   0.000000   0.000000  -0.000000   0.288547
    32  C   -0.000000   0.000000  -0.000000  -0.000000  -0.000000  -0.027438
    33  C    0.000000   0.000000  -0.000000  -0.000000   0.000000   0.011357
    34  C    0.000000  -0.000000   0.000000   0.000000  -0.000000   0.005737
    35  S   -0.000000   0.000000   0.000000   0.000000   0.000000  -0.058338
    36  O    0.000000   0.000000   0.000000   0.000000   0.000000   0.001348
    37  H    0.000000   0.000000   0.000000   0.000000   0.000000  -0.000315
    38  C   -0.000000   0.000000  -0.000000  -0.000000   0.000000   0.009977
    39  H   -0.000000   0.000000  -0.000000   0.000000   0.000000  -0.000240
    40  H   -0.000000   0.000000   0.000000  -0.000000   0.000000  -0.000241
    41  H    0.000000   0.000000   0.000000   0.000000   0.000000  -0.000298
    42  C   -0.000000  -0.000000   0.000000   0.000000   0.000000  -0.000196
    43  H   -0.000000  -0.000000   0.000000   0.000000   0.000000  -0.000014
    44  H    0.000000   0.000000  -0.000000   0.000000  -0.000000   0.000049
    45  H    0.000000   0.000000   0.000000  -0.000000  -0.000000   0.000049
    46  H    0.000000   0.000000   0.000000   0.000000  -0.000000  -0.000331
              25         26         27         28         29         30
     1  C    0.000000   0.000005  -0.000425   0.000008  -0.000000  -0.000008
     2  C    0.000000   0.000000  -0.000005   0.000000   0.000000   0.000000
     3  C    0.000000   0.000000   0.000000   0.000000   0.000000   0.000000
     4  C   -0.000000  -0.000000   0.000000  -0.000000  -0.000000  -0.000000
     5  S   -0.000000  -0.000002   0.000049  -0.000003  -0.000000  -0.000000
     6  O    0.000000   0.000003  -0.000001   0.000001  -0.000000  -0.000010
     7  H   -0.000000  -0.000000   0.000000  -0.000000  -0.000000  -0.000000
     8  C   -0.000024  -0.000151   0.006356  -0.000069  -0.000000  -0.000218
     9  C    0.000019  -0.000228   0.003622   0.001119   0.000000  -0.000046
    10  C   -0.000228   0.003063  -0.012124  -0.002573  -0.000000   0.000467
    11  C    0.003621  -0.012071   0.309799  -0.075933  -0.000146  -0.005530
    12  S    0.001119  -0.002579  -0.075899   0.001996   0.000015   0.005793
    13  O    0.000000  -0.000000  -0.000147   0.000015   0.000000  -0.000000
    14  H   -0.000046   0.000467  -0.005521   0.005785  -0.000000   0.000005
    15  C   -0.000000  -0.000000   0.000000  -0.000000   0.000000  -0.000001
    16  H    0.000000   0.000000  -0.000000   0.000000  -0.000000  -0.000000
    17  H    0.000000   0.000000  -0.000000   0.000000  -0.000000  -0.000000
    18  H   -0.000000  -0.000002   0.000000  -0.000000  -0.000000   0.000000
    19  C    0.000000   0.000000  -0.000024  -0.000039  -0.000000   0.000000
    20  H    0.000000   0.000000  -0.000001   0.000002  -0.000000  -0.000000
    21  H   -0.000000  -0.000000   0.000023  -0.000035  -0.000000  -0.000000
    22  H   -0.000000  -0.000000   0.000023  -0.000035  -0.000000  -0.000000
    23  H   -0.000000  -0.000000   0.000000   0.000000  -0.000000   0.000000
    24  C    0.527585  -0.095430  -0.074172   0.301014  -0.087332   0.006855
    25  C    4.652193   0.472946  -0.028897  -0.070448   0.347755  -0.033475
    26  C    0.472946   4.980118   0.442750  -0.094223  -0.066049   0.411315
[...]
    29  O    0.001905   0.000433  -0.000051   0.000605   0.022228   0.000000
    30  H   -0.000301   0.000010  -0.000000   0.000000  -0.000005   0.000000
    31  C    5.392480   0.531554  -0.086405  -0.074056   0.311231  -0.085793
    32  C    0.531554   4.705952   0.468324  -0.066931  -0.076170   0.342536
    33  C   -0.086405   0.468324   4.949705   0.516112  -0.101497  -0.064392
    34  C   -0.074056  -0.066931   0.516112   5.268600   0.271554   0.005865
    35  S    0.311231  -0.076170  -0.101497   0.271554  15.391972   0.005036
    36  O   -0.085793   0.342536  -0.064392   0.005865   0.005036   7.988752
    37  H    0.006565  -0.039375   0.408275  -0.036519   0.007277  -0.003747
    38  C   -0.000179  -0.000002   0.000001  -0.000020  -0.002534   0.000000
    39  H    0.000042   0.000000  -0.000000   0.000004   0.000516   0.000000
    40  H    0.000042   0.000000  -0.000000   0.000004   0.000516   0.000000
    41  H    0.000003   0.000000   0.000000  -0.000017  -0.001373   0.000000
    42  C    0.009874  -0.063917  -0.009824  -0.000259  -0.000421   0.271760
    43  H   -0.000267   0.005442   0.000376   0.000032   0.000078  -0.024884
    44  H   -0.000254  -0.005828   0.003863  -0.000323  -0.000210  -0.030730
    45  H   -0.000255  -0.005837   0.003863  -0.000323  -0.000210  -0.030752
    46  H    0.001539   0.005873  -0.019447   0.400299  -0.032547  -0.000083
              37         38         39         40         41         42
     1  C    0.000000   0.000000   0.000000   0.000000  -0.000000   0.000000
     2  C   -0.000000  -0.000000  -0.000000  -0.000000   0.000000  -0.000000
     3  C    0.000000   0.000000  -0.000000  -0.000000   0.000000  -0.000000
     4  C    0.000000   0.000000   0.000000   0.000000  -0.000000   0.000000
     5  S    0.000000  -0.000000   0.000000   0.000000   0.000000   0.000000
     6  O    0.000000   0.000000   0.000000   0.000000   0.000000  -0.000000
     7  H    0.000000   0.000000   0.000000   0.000000   0.000000  -0.000000
     8  C    0.000000   0.000000   0.000000   0.000000   0.000000   0.000000
     9  C   -0.000000   0.000000  -0.000000  -0.000000   0.000000  -0.000000
    10  C   -0.000000   0.000000  -0.000000  -0.000000   0.000000  -0.000000
    11  C    0.000000  -0.000024   0.000023   0.000023  -0.000001   0.000000
    12  S   -0.000000  -0.000039  -0.000035  -0.000035   0.000002  -0.000000
    13  O   -0.000000  -0.000000  -0.000000  -0.000000  -0.000000   0.000000
    14  H   -0.000000   0.000000  -0.000000  -0.000000  -0.000000  -0.000001
    15  C   -0.000000  -0.000000   0.000000   0.000000  -0.000000   0.000000
    16  H    0.000000   0.000000  -0.000000   0.000000   0.000000   0.000000
    17  H    0.000000   0.000000   0.000000  -0.000000   0.000000   0.000000
    18  H   -0.000000  -0.000000   0.000000   0.000000  -0.000000  -0.000000
    19  C    0.000000  -0.000000  -0.000000  -0.000000   0.000000  -0.000000
    20  H    0.000000   0.000000   0.000000   0.000000   0.000000  -0.000000
    21  H    0.000000  -0.000000  -0.000000   0.000000   0.000000   0.000000
    22  H    0.000000  -0.000000   0.000000  -0.000000   0.000000   0.000000
    23  H    0.000000   0.000000   0.000000   0.000000   0.000000   0.000000
    24  C   -0.000315   0.009977  -0.000240  -0.000241  -0.000298  -0.000196
    25  C    0.000008  -0.064826  -0.005849  -0.005850   0.005080  -0.000002
    26  C   -0.000000  -0.009380   0.004080   0.004076   0.000527   0.000002
    27  C    0.000000  -0.000329  -0.000384  -0.000384   0.000026  -0.000021
    28  S   -0.000038  -0.000332  -0.000205  -0.000205   0.000082  -0.002593
    29  O    0.000000   0.270566  -0.030338  -0.030374  -0.024613   0.000000
    30  H    0.000000   0.004913   0.000316   0.000320  -0.000046  -0.000000
    31  C    0.006565  -0.000179   0.000042   0.000042   0.000003   0.009874
    32  C   -0.039375  -0.000002   0.000000   0.000000   0.000000  -0.063917
    33  C    0.408275   0.000001  -0.000000  -0.000000   0.000000  -0.009824
    34  C   -0.036519  -0.000020   0.000004   0.000004  -0.000017  -0.000259
    35  S    0.007277  -0.002534   0.000516   0.000516  -0.001373  -0.000421
    36  O   -0.003747   0.000000   0.000000   0.000000   0.000000   0.271760
    37  H    0.552510  -0.000000   0.000000   0.000000  -0.000000   0.003782
    38  C   -0.000000   4.716436   0.398022   0.398019   0.403333  -0.000000
    39  H    0.000000   0.398022   0.592209  -0.047677  -0.027592   0.000000
    40  H    0.000000   0.398019  -0.047677   0.592327  -0.027624   0.000000
    41  H   -0.000000   0.403333  -0.027592  -0.027624   0.538476  -0.000000
    42  C    0.003782  -0.000000   0.000000   0.000000  -0.000000   4.713854
    43  H   -0.000007  -0.000000   0.000000   0.000000  -0.000000   0.403983
    44  H    0.000020   0.000000   0.000000  -0.000000   0.000000   0.397456
    45  H    0.000024   0.000000  -0.000000   0.000000   0.000000   0.397389
    46  H   -0.005353  -0.000001   0.000000   0.000000  -0.000001  -0.000020
              43         44         45         46
     1  C   -0.000000   0.000000   0.000000  -0.000000
     2  C   -0.000000   0.000000   0.000000  -0.000000
     3  C    0.000000   0.000000   0.000000   0.000000
     4  C   -0.000000   0.000000   0.000000  -0.000000
     5  S    0.000000  -0.000000  -0.000000   0.000000
     6  O    0.000000   0.000000   0.000000   0.000000
     7  H   -0.000000   0.000000   0.000000   0.000000
     8  C   -0.000000   0.000000   0.000000   0.000000
     9  C   -0.000000   0.000000   0.000000  -0.000000
    10  C   -0.000002   0.000000   0.000000  -0.000000
    11  C    0.000000  -0.000000  -0.000000   0.000000
    12  S   -0.000000   0.000000   0.000000   0.000000
    13  O   -0.000000  -0.000000  -0.000000  -0.000000
    14  H    0.000000  -0.000000  -0.000000   0.000000
    15  C   -0.000000   0.000000   0.000000   0.000000
    16  H    0.000000   0.000000  -0.000000  -0.000000
    17  H    0.000000  -0.000000   0.000000  -0.000000
    18  H   -0.000000   0.000000   0.000000   0.000000
    19  C   -0.000000   0.000000   0.000000   0.000000
    20  H   -0.000000   0.000000   0.000000   0.000000
    21  H    0.000000  -0.000000   0.000000   0.000000
    22  H    0.000000   0.000000  -0.000000   0.000000
    23  H    0.000000  -0.000000  -0.000000  -0.000000
    24  C   -0.000014   0.000049   0.000049  -0.000331
    25  C    0.000000   0.000000   0.000000   0.000000
    26  C    0.000000  -0.000000  -0.000000   0.000000
    27  C   -0.000019   0.000005   0.000005  -0.000000
    28  S   -0.001396   0.000553   0.000553   0.000035
    29  O    0.000000   0.000000   0.000000   0.000017
    30  H   -0.000000   0.000000   0.000000  -0.000000
    31  C   -0.000267  -0.000254  -0.000255   0.001539
    32  C    0.005442  -0.005828  -0.005837   0.005873
    33  C    0.000376   0.003863   0.003863  -0.019447
    34  C    0.000032  -0.000323  -0.000323   0.400299
    35  S    0.000078  -0.000210  -0.000210  -0.032547
    36  O   -0.024884  -0.030730  -0.030752  -0.000083
    37  H   -0.000007   0.000020   0.000024  -0.005353
    38  C   -0.000000   0.000000   0.000000  -0.000001
    39  H    0.000000   0.000000  -0.000000   0.000000
    40  H    0.000000  -0.000000   0.000000   0.000000
    41  H   -0.000000   0.000000   0.000000  -0.000001
    42  C    0.403983   0.397456   0.397389  -0.000020
    43  H    0.540544  -0.028121  -0.028114  -0.000001
    44  H   -0.028121   0.596568  -0.048366   0.000014
    45  H   -0.028114  -0.048366   0.596787   0.000014
    46  H   -0.000001   0.000014   0.000014   0.519363
 Mulliken charges:
               1
     1  C   -0.220106
     2  C    0.235713
     3  C   -0.082617
     4  C   -0.290662
     5  S    0.269596
     6  O   -0.398281
     7  H    0.106976
     8  C   -0.200992
     9  C    0.233168
    10  C   -0.053408
    11  C   -0.227745
    12  S    0.298864
    13  O   -0.403201
    14  H    0.115872
    15  C   -0.121106
    16  H    0.115213
    17  H    0.115214
    18  H    0.132478
    19  C   -0.123598
    20  H    0.134090
    21  H    0.116931
    22  H    0.116932
    23  H    0.130684
    24  C   -0.201274
    25  C    0.233293
    26  C   -0.053636
    27  C   -0.227576
    28  S    0.298959
    29  O   -0.403269
    30  H    0.115772
    31  C   -0.219759
    32  C    0.235749
    33  C   -0.082578
    34  C   -0.290302
    35  S    0.269176
    36  O   -0.398692
    37  H    0.106892
    38  C   -0.123603
    39  H    0.117107
    40  H    0.117061
    41  H    0.134034
    42  C   -0.120844
    43  H    0.132368
    44  H    0.115304
    45  H    0.115173
    46  H    0.130628
 Sum of Mulliken charges =  -0.00000
 Mulliken charges with hydrogens summed into heavy atoms:
               1
     1  C   -0.220106
     2  C    0.235713
     3  C    0.024359
     4  C   -0.159978
     5  S    0.269596
     6  O   -0.398281
     8  C   -0.200992
     9  C    0.233168
    10  C    0.062464
    11  C   -0.227745
    12  S    0.298864
    13  O   -0.403201
    15  C    0.241799
    19  C    0.244355
    24  C   -0.201274
    25  C    0.233293
    26  C    0.062136
    27  C   -0.227576
    28  S    0.298959
    29  O   -0.403269
    31  C   -0.219759
    32  C    0.235749
    33  C    0.024314
    34  C   -0.159673
    35  S    0.269176
    36  O   -0.398692
    38  C    0.244600
    42  C    0.242000
 Electronic spatial extent (au):  <R**2>=          20505.2332
 Charge=             -0.0000 electrons
 Dipole moment (field-independent basis, Debye):
    X=              0.0007    Y=             -0.0008    Z=             -0.0004  Tot=              0.0012
 Quadrupole moment (field-independent basis, Debye-Ang):
   XX=           -158.5336   YY=           -147.8390   ZZ=           -201.8213
   XY=            -21.2201   XZ=              0.0033   YZ=             -0.0014
 Traceless Quadrupole moment (field-independent basis, Debye-Ang):
   XX=             10.8644   YY=             21.5589   ZZ=            -32.4233
   XY=            -21.2201   XZ=              0.0033   YZ=             -0.0014
 Octapole moment (field-independent basis, Debye-Ang**2):
  XXX=             -0.2104  YYY=              0.0003  ZZZ=             -0.0019  XYY=              0.0303
  XXY=              0.0880  XXZ=             -0.0188  XZZ=             -0.0520  YZZ=              0.0110
  YYZ=             -0.0085  XYZ=              0.0056
 Hexadecapole moment (field-independent basis, Debye-Ang**3):
 XXXX=         -19599.4546 YYYY=          -3789.2294 ZZZZ=           -266.9264 XXXY=           -978.2572
 XXXZ=              0.1175 YYYX=           -175.7597 YYYZ=             -0.0408 ZZZX=              0.0169
 ZZZY=             -0.0208 XXYY=          -3857.5492 XXZZ=          -4159.8845 YYZZ=           -830.5020
 XXYZ=             -0.0510 YYXZ=              0.0628 ZZXY=            -26.4366
 N-N= 3.114919716473D+03 E-N=-1.252353948528D+04  KE= 2.659495424366D+03
 No NMR shielding tensors so no spin-rotation constants.
 Leave Link  601 at Fri Jan 10 16:04:09 2020, MaxMem=  6710886400 cpu:               3.5 elap:               0.5
 (Enter /apps/gaussian/g16-a03/l602.exe)
 FitSet:  NAtFit=    46 NAtPot=    46 NAtFrz=     0 MDM=    50 TotChg=   0.00000
 Breneman (CHELPG) radii used.
 Generate Potential Derived Charges using the Breneman model, NDens= 1.
 Grid spacing= 0.300 Box extension= 2.800
 NStep X,Y,Z=   75     52     26   Total possible points=      101400
 Number of Points to Fit=   27515

 **********************************************************************

            Electrostatic Properties Using The SCF Density

 **********************************************************************

       Atomic Center    1 is at   4.672030  0.134013  0.000000
       Atomic Center    2 is at   5.346033 -1.074985  0.000000
       Atomic Center    3 is at   6.773033 -0.986981  0.000000
       Atomic Center    4 is at   7.233029  0.295021  0.000000
       Atomic Center    5 is at   5.899026  1.500017  0.000000
       Atomic Center    6 is at   4.608036 -2.254987  0.000000
       Atomic Center    7 is at   7.427035 -1.844979  0.000000
       Atomic Center    8 is at   3.268029  0.380009  0.000000
       Atomic Center    9 is at   2.591025  1.588007  0.000000
       Atomic Center   10 is at   1.174026  1.508003  0.000000
       Atomic Center   11 is at   0.678029  0.224002  0.000000
       Atomic Center   12 is at   2.046033 -0.986994  0.000000
       Atomic Center   13 is at   3.331022  2.765010  0.000000
       Atomic Center   14 is at   0.530023  2.373002  0.000000
       Atomic Center   15 is at   5.317040 -3.521985  0.000000
       Atomic Center   16 is at   5.935040 -3.626983  0.895000
       Atomic Center   17 is at   5.935040 -3.626983 -0.895000
       Atomic Center   18 is at   4.542042 -4.280987  0.000000
       Atomic Center   19 is at   2.626018  4.036008  0.000000
       Atomic Center   20 is at   3.404016  4.791010  0.000000
       Atomic Center   21 is at   2.009018  4.142006 -0.895000
       Atomic Center   22 is at   2.009018  4.142006  0.895000
       Atomic Center   23 is at   8.251028  0.642024  0.000000
       Atomic Center   24 is at  -3.267969 -0.380009  0.000000
       Atomic Center   25 is at  -2.590966 -1.588007  0.000000
       Atomic Center   26 is at  -1.173966 -1.507003  0.000000
       Atomic Center   27 is at  -0.677969 -0.223002  0.000000
       Atomic Center   28 is at  -2.045973  0.986994  0.000000
       Atomic Center   29 is at  -3.330962 -2.765010  0.000000
       Atomic Center   30 is at  -0.529963 -2.372002  0.000000
       Atomic Center   31 is at  -4.671970 -0.134013  0.000000
       Atomic Center   32 is at  -5.345973  1.073985  0.000000
       Atomic Center   33 is at  -6.772973  0.985981  0.000000
       Atomic Center   34 is at  -7.232969 -0.295021  0.000000
       Atomic Center   35 is at  -5.898966 -1.500017  0.000000
       Atomic Center   36 is at  -4.608977  2.254987  0.000000
       Atomic Center   37 is at  -7.426975  1.843979  0.000000
       Atomic Center   38 is at  -2.624958 -4.036008  0.000000
       Atomic Center   39 is at  -2.007958 -4.142006  0.894000
       Atomic Center   40 is at  -2.008958 -4.142006 -0.895000
       Atomic Center   41 is at  -3.403956 -4.791010  0.000000
       Atomic Center   42 is at  -5.317980  3.521985  0.000000
       Atomic Center   43 is at  -4.542982  4.280987  0.000000
       Atomic Center   44 is at  -5.934981  3.626983 -0.894000
       Atomic Center   45 is at  -5.934981  3.626983  0.895000
       Atomic Center   46 is at  -8.249968 -0.642024  0.000000
   27515 points will be used for fitting atomic charges
 Fitting point charges to electrostatic potential
 Charges from ESP fit, RMS=   0.00435 RRMS=   0.27998:
 ESP charges:
               1
     1  C   -0.147536
     2  C    0.316467
     3  C   -0.242092
     4  C   -0.189728
     5  S   -0.026700
     6  O   -0.208010
     7  H    0.144311
     8  C    0.032634
     9  C    0.277149
    10  C   -0.374492
    11  C    0.106712
    12  S   -0.205674
    13  O   -0.277495
    14  H    0.257385
    15  C   -0.016246
    16  H    0.046741
    17  H    0.046745
    18  H    0.088796
    19  C    0.065577
    20  H    0.073233
    21  H    0.025411
    22  H    0.025407
    23  H    0.181495
    24  C    0.033532
    25  C    0.276331
    26  C   -0.374190
    27  C    0.106197
    28  S   -0.205174
    29  O   -0.276966
    30  H    0.257261
    31  C   -0.148335
    32  C    0.317885
    33  C   -0.242127
    34  C   -0.189251
    35  S   -0.027197
    36  O   -0.210092
    37  H    0.144132
    38  C    0.064079
    39  H    0.026087
    40  H    0.025932
    41  H    0.073432
    42  C   -0.014608
    43  H    0.088468
    44  H    0.046586
    45  H    0.046430
    46  H    0.181498
 Sum of ESP charges =  -0.00000
 ESP charges with hydrogens summed into heavy atoms:
               1
     1  C   -0.147536
     2  C    0.316467
     3  C   -0.097781
     4  C   -0.008233
     5  S   -0.026700
     6  O   -0.208010
     8  C    0.032634
     9  C    0.277149
    10  C   -0.117107
    11  C    0.106712
    12  S   -0.205674
    13  O   -0.277495
    15  C    0.166036
    19  C    0.189628
    24  C    0.033532
    25  C    0.276331
    26  C   -0.116929
    27  C    0.106197
    28  S   -0.205174
    29  O   -0.276966
    31  C   -0.148335
    32  C    0.317885
    33  C   -0.097995
    34  C   -0.007753
    35  S   -0.027197
    36  O   -0.210092
    38  C    0.189531
    42  C    0.166877
 Charge=  -0.00000 Dipole=     0.0002    -0.0016     0.0001 Tot=     0.0016
 -----------------------------------------------------------------

              Electrostatic Properties (Atomic Units)

 -----------------------------------------------------------------
    Center     Electric         -------- Electric Field --------
               Potential          X             Y             Z
 -----------------------------------------------------------------
    1 Atom    -14.741255
    2 Atom    -14.714705
    3 Atom    -14.771668
    4 Atom    -14.751485
    5 Atom    -59.225115
    6 Atom    -22.340840
    7 Atom     -1.091064
    8 Atom    -14.740800
    9 Atom    -14.714549
   10 Atom    -14.773800
   11 Atom    -14.737762
   12 Atom    -59.227347
   13 Atom    -22.342253
   14 Atom     -1.091760
   15 Atom    -14.714555
   16 Atom     -1.100833
   17 Atom     -1.100833
   18 Atom     -1.099584
   19 Atom    -14.716836
   20 Atom     -1.101757
   21 Atom     -1.102927
   22 Atom     -1.102927
   23 Atom     -1.084673
   24 Atom    -14.740829
   25 Atom    -14.714566
   26 Atom    -14.773831
   27 Atom    -14.737800
   28 Atom    -59.227366
   29 Atom    -22.342244
   30 Atom     -1.091855
   31 Atom    -14.741359
   32 Atom    -14.714840
   33 Atom    -14.771833
   34 Atom    -14.751718
   35 Atom    -59.225213
   36 Atom    -22.340999
   37 Atom     -1.091104
   38 Atom    -14.716882
   39 Atom     -1.102909
   40 Atom     -1.102943
   41 Atom     -1.101702
   42 Atom    -14.714807
   43 Atom     -1.099661
   44 Atom     -1.101004
   45 Atom     -1.100957
   46 Atom     -1.084796
 -----------------------------------------------------------------
 Leave Link  602 at Fri Jan 10 16:04:12 2020, MaxMem=  6710886400 cpu:              15.6 elap:               2.0
 (Enter /apps/gaussian/g16-a03/l9999.exe)
 1\1\GINC-CX1-141-15-2\SP\RB3LYP\6-311G(d,p)\C20H18O4S4\NS5018\10-Jan-2
 020\0\\#p Pop=CHelpG b3lyp/6-311g**\\OBT_2m_opt_freq.gjf\\0,1\C,0,4.67
 2,-0.134,0.\C,0,5.346,1.075,0.\C,0,6.773,0.987,0.\C,0,7.233,-0.295,0.\
 S,0,5.899,-1.5,0.\O,0,4.608,2.255,0.\H,0,7.427,1.845,0.\C,0,3.268,-0.3
 8,0.\C,0,2.591,-1.588,0.\C,0,1.174,-1.508,0.\C,0,0.678,-0.224,0.\S,0,2
 .046,0.987,0.\O,0,3.331,-2.765,0.\H,0,0.53,-2.373,0.\C,0,5.317,3.522,0
 .\H,0,5.935,3.627,-0.895\H,0,5.935,3.627,0.895\H,0,4.542,4.281,0.\C,0,
 2.626,-4.036,0.\H,0,3.404,-4.791,0.\H,0,2.009,-4.142,0.895\H,0,2.009,-
 4.142,-0.895\H,0,8.251,-0.642,0.\C,0,-3.268,0.38,0.\C,0,-2.591,1.588,0
 .\C,0,-1.174,1.507,0.\C,0,-0.678,0.223,0.\S,0,-2.046,-0.987,0.\O,0,-3.
 331,2.765,0.\H,0,-0.53,2.372,0.\C,0,-4.672,0.134,0.\C,0,-5.346,-1.074,
 0.\C,0,-6.773,-0.986,0.\C,0,-7.233,0.295,0.\S,0,-5.899,1.5,0.\O,0,-4.6
 09,-2.255,0.\H,0,-7.427,-1.844,0.\C,0,-2.625,4.036,0.\H,0,-2.008,4.142
 ,-0.894\H,0,-2.009,4.142,0.895\H,0,-3.404,4.791,0.\C,0,-5.318,-3.522,0
 .\H,0,-4.543,-4.281,0.\H,0,-5.935,-3.627,0.894\H,0,-5.935,-3.627,-0.89
 5\H,0,-8.25,0.642,0.\\Version=ES64L-G16RevA.03\State=1-A\HF=-2666.8693
 567\RMSD=6.186e-09\Dipole=0.0002887,0.000314,0.0001713\Quadrupole=8.07
 73055,16.0286295,-24.105935,15.7766077,-0.0024782,-0.0010151\PG=C01 [X
 (C20H18O4S4)]\\@


 REALITY IS FOR PEOPLE WHO CAN'T FACE SCIENCE FICTION.
 Job cpu time:       0 days  0 hours 25 minutes 47.3 seconds.
 Elapsed time:       0 days  0 hours  3 minutes 13.8 seconds.
 File lengths (MBytes):  RWF=    227 Int=      0 D2E=      0 Chk=     25 Scr=      1
 Normal termination of Gaussian 16 at Fri Jan 10 16:04:13 2020.
