 Entering Gaussian System, Link 0=g16
 Input=pBTTT_-70.gjf
 Output=pBTTT_-70.log
 Initial command:
 /apps/gaussian/g16-c01-avx/g16/l1.exe "/tmp/pbs.4762170[105].pbs/Gau-3534925.inp" -scrdir="/tmp/pbs.4762170[105].pbs/"
 Entering Link 1 = /apps/gaussian/g16-c01-avx/g16/l1.exe PID=   3534926.
  
 Copyright (c) 1988-2019, Gaussian, Inc.  All Rights Reserved.
  
 This is part of the Gaussian(R) 16 program.  It is based on
 the Gaussian(R) 09 system (copyright 2009, Gaussian, Inc.),
 the Gaussian(R) 03 system (copyright 2003, Gaussian, Inc.),
 the Gaussian(R) 98 system (copyright 1998, Gaussian, Inc.),
 the Gaussian(R) 94 system (copyright 1995, Gaussian, Inc.),
 the Gaussian 92(TM) system (copyright 1992, Gaussian, Inc.),
 the Gaussian 90(TM) system (copyright 1990, Gaussian, Inc.),
 the Gaussian 88(TM) system (copyright 1988, Gaussian, Inc.),
 the Gaussian 86(TM) system (copyright 1986, Carnegie Mellon
 University), and the Gaussian 82(TM) system (copyright 1983,
 Carnegie Mellon University). Gaussian is a federally registered
 trademark of Gaussian, Inc.
  
 This software contains proprietary and confidential information,
 including trade secrets, belonging to Gaussian, Inc.
  
 This software is provided under written license and may be
 used, copied, transmitted, or stored only in accord with that
 written license.
  
 The following legend is applicable only to US Government
 contracts under FAR:
  
                    RESTRICTED RIGHTS LEGEND
  
 Use, reproduction and disclosure by the US Government is
 subject to restrictions as set forth in subparagraphs (a)
 and (c) of the Commercial Computer Software - Restricted
 Rights clause in FAR 52.227-19.
  
 Gaussian, Inc.
 340 Quinnipiac St., Bldg. 40, Wallingford CT 06492
  
  
 ---------------------------------------------------------------
 Warning -- This program may not be used in any manner that
 competes with the business of Gaussian, Inc. or will provide
 assistance to any competitor of Gaussian, Inc.  The licensee
 of this program is prohibited from giving any competitor of
 Gaussian, Inc. access to this program.  By using this program,
 the user acknowledges that Gaussian, Inc. is engaged in the
 business of creating and licensing software in the field of
 computational chemistry and represents and warrants to the
 licensee that it is not a competitor of Gaussian, Inc. and that
 it will not use this program in any manner prohibited above.
 ---------------------------------------------------------------
  

 Cite this work as:
 Gaussian 16, Revision C.01,
 M. J. Frisch, G. W. Trucks, H. B. Schlegel, G. E. Scuseria, 
 M. A. Robb, J. R. Cheeseman, G. Scalmani, V. Barone, 
 G. A. Petersson, H. Nakatsuji, X. Li, M. Caricato, A. V. Marenich, 
 J. Bloino, B. G. Janesko, R. Gomperts, B. Mennucci, H. P. Hratchian, 
 J. V. Ortiz, A. F. Izmaylov, J. L. Sonnenberg, D. Williams-Young, 
 F. Ding, F. Lipparini, F. Egidi, J. Goings, B. Peng, A. Petrone, 
 T. Henderson, D. Ranasinghe, V. G. Zakrzewski, J. Gao, N. Rega, 
 G. Zheng, W. Liang, M. Hada, M. Ehara, K. Toyota, R. Fukuda, 
 J. Hasegawa, M. Ishida, T. Nakajima, Y. Honda, O. Kitao, H. Nakai, 
 T. Vreven, K. Throssell, J. A. Montgomery, Jr., J. E. Peralta, 
 F. Ogliaro, M. J. Bearpark, J. J. Heyd, E. N. Brothers, K. N. Kudin, 
 V. N. Staroverov, T. A. Keith, R. Kobayashi, J. Normand, 
 K. Raghavachari, A. P. Rendell, J. C. Burant, S. S. Iyengar, 
 J. Tomasi, M. Cossi, J. M. Millam, M. Klene, C. Adamo, R. Cammi, 
 J. W. Ochterski, R. L. Martin, K. Morokuma, O. Farkas, 
 J. B. Foresman, and D. J. Fox, Gaussian, Inc., Wallingford CT, 2019.
 
 ******************************************
 Gaussian 16:  ES64L-G16RevC.01  3-Jul-2019
                25-Oct-2021 
 ******************************************
 %mem=100GB
 %nprocshared=8
 Will use up to    8 processors via shared memory.
 ---------------------------------
 # opt=modredundant hf/aug-cc-pvdz
 ---------------------------------
 1/18=120,19=15,38=1/1,3;
 2/9=110,12=2,17=6,18=5,40=1/2;
 3/5=16,7=10,11=9,25=1,30=1,71=1/1,2,3;
 4//1;
 5/5=2,38=5/2;
 6/7=2,8=2,9=2,10=2,28=1/1;
 7//1,2,3,16;
 1/18=20,19=15/3(2);
 2/9=110/2;
 99//99;
 2/9=110/2;
 3/5=16,7=10,11=9,25=1,30=1,71=1/1,2,3;
 4/5=5,16=3,69=1/1;
 5/5=2,38=5/2;
 7//1,2,3,16;
 1/18=20,19=15/3(-5);
 2/9=110/2;
 6/7=2,8=2,9=2,10=2,19=2,28=1/1;
 99/9=1/99;
 -------------
 pBTTT_-70.pdb
 -------------
 Symbolic Z-matrix:
 Charge =  0 Multiplicity = 1
 C                    -4.25     -1.36     -0.21 
 C                    -2.93     -0.95     -0.61 
 C                    -1.97     -2.05     -0.62 
 C                    -4.33     -2.76      0.1 
 H                    -5.1      -0.7      -0.14 
 S                    -2.8      -3.56     -0.11 
 H                    -5.23     -3.27      0.41 
 C                    -0.56     -2.13     -0.97 
 S                     0.008    -1.97     -2.66 
 C                     1.667    -2.164    -2.21 
 C                     1.834    -2.325    -0.788 
 C                     0.59     -2.29     -0.078 
 H                     0.529    -2.23      0.998 
 S                     3.396    -1.814    -0.237 
 C                     3.879    -1.386    -1.88 
 C                     2.823    -1.616    -2.839 
 H                     4.788    -0.843    -2.093 
 H                     2.823    -1.169    -3.83 
 O                    -2.4       0.49     -0.72 
 H                    -2.92      1.52     -0.76 
 
 Add virtual bond connecting atoms H20        and O19        Dist= 2.18D+00.
 The following ModRedundant input section has been read:
 D       2       3       8       9 F                                           
 

 GradGradGradGradGradGradGradGradGradGradGradGradGradGradGradGradGradGrad
 Berny optimization.
 Initialization pass.
                           ----------------------------
                           !    Initial Parameters    !
                           ! (Angstroms and Degrees)  !
 --------------------------                            --------------------------
 ! Name  Definition              Value          Derivative Info.                !
 --------------------------------------------------------------------------------
 ! R1    R(1,2)                  1.4389         estimate D2E/DX2                !
 ! R2    R(1,4)                  1.4361         estimate D2E/DX2                !
 ! R3    R(1,5)                  1.0784         estimate D2E/DX2                !
 ! R4    R(2,3)                  1.46           estimate D2E/DX2                !
 ! R5    R(2,19)                 1.5384         estimate D2E/DX2                !
 ! R6    R(3,6)                  1.797          estimate D2E/DX2                !
 ! R7    R(3,8)                  1.455          estimate D2E/DX2                !
 ! R8    R(4,6)                  1.7393         estimate D2E/DX2                !
 ! R9    R(4,7)                  1.0799         estimate D2E/DX2                !
 ! R10   R(8,9)                  1.7901         estimate D2E/DX2                !
 ! R11   R(8,12)                 1.4642         estimate D2E/DX2                !
 ! R12   R(9,10)                 1.7299         estimate D2E/DX2                !
 ! R13   R(10,11)                1.4408         estimate D2E/DX2                !
 ! R14   R(10,16)                1.4256         estimate D2E/DX2                !
 ! R15   R(11,12)                1.4328         estimate D2E/DX2                !
 ! R16   R(11,14)                1.7334         estimate D2E/DX2                !
 ! R17   R(12,13)                1.0794         estimate D2E/DX2                !
 ! R18   R(14,15)                1.7652         estimate D2E/DX2                !
 ! R19   R(15,16)                1.4449         estimate D2E/DX2                !
 ! R20   R(15,17)                1.08           estimate D2E/DX2                !
 ! R21   R(16,18)                1.0871         estimate D2E/DX2                !
 ! R22   R(19,20)                1.1545         estimate D2E/DX2                !
 ! A1    A(2,1,4)              112.8843         estimate D2E/DX2                !
 ! A2    A(2,1,5)              124.5209         estimate D2E/DX2                !
 ! A3    A(4,1,5)              122.5942         estimate D2E/DX2                !
 ! A4    A(1,2,3)              112.9799         estimate D2E/DX2                !
 ! A5    A(1,2,19)             127.059          estimate D2E/DX2                !
 ! A6    A(3,2,19)             118.5686         estimate D2E/DX2                !
 ! A7    A(2,3,6)              109.1138         estimate D2E/DX2                !
 ! A8    A(2,3,8)              132.8639         estimate D2E/DX2                !
 ! A9    A(6,3,8)              118.0132         estimate D2E/DX2                !
 ! A10   A(1,4,6)              111.9209         estimate D2E/DX2                !
 ! A11   A(1,4,7)              124.6643         estimate D2E/DX2                !
 ! A12   A(6,4,7)              123.4062         estimate D2E/DX2                !
 ! A13   A(3,6,4)               93.0997         estimate D2E/DX2                !
 ! A14   A(3,8,9)              121.9842         estimate D2E/DX2                !
 ! A15   A(3,8,12)             128.3603         estimate D2E/DX2                !
 ! A16   A(9,8,12)             109.6158         estimate D2E/DX2                !
 ! A17   A(8,9,10)              92.7908         estimate D2E/DX2                !
 ! A18   A(9,10,11)            112.3606         estimate D2E/DX2                !
 ! A19   A(9,10,16)            128.301          estimate D2E/DX2                !
 ! A20   A(11,10,16)           112.6085         estimate D2E/DX2                !
 ! A21   A(10,11,12)           112.6878         estimate D2E/DX2                !
 ! A22   A(10,11,14)           112.6585         estimate D2E/DX2                !
 ! A23   A(12,11,14)           128.147          estimate D2E/DX2                !
 ! A24   A(8,12,11)            112.5023         estimate D2E/DX2                !
 ! A25   A(8,12,13)            123.8378         estimate D2E/DX2                !
 ! A26   A(11,12,13)           122.984          estimate D2E/DX2                !
 ! A27   A(11,14,15)            91.2709         estimate D2E/DX2                !
 ! A28   A(14,15,16)           112.2839         estimate D2E/DX2                !
 ! A29   A(14,15,17)           122.395          estimate D2E/DX2                !
 ! A30   A(16,15,17)           124.3496         estimate D2E/DX2                !
 ! A31   A(10,16,15)           111.1608         estimate D2E/DX2                !
 ! A32   A(10,16,18)           124.0735         estimate D2E/DX2                !
 ! A33   A(15,16,18)           122.6542         estimate D2E/DX2                !
 ! A34   A(2,19,20)            133.0318         estimate D2E/DX2                !
 ! D1    D(4,1,2,3)              0.3915         estimate D2E/DX2                !
 ! D2    D(4,1,2,19)          -165.8104         estimate D2E/DX2                !
 ! D3    D(5,1,2,3)           -179.8811         estimate D2E/DX2                !
 ! D4    D(5,1,2,19)            13.9169         estimate D2E/DX2                !
 ! D5    D(2,1,4,6)             -0.3845         estimate D2E/DX2                !
 ! D6    D(2,1,4,7)           -179.3471         estimate D2E/DX2                !
 ! D7    D(5,1,4,6)            179.8822         estimate D2E/DX2                !
 ! D8    D(5,1,4,7)              0.9196         estimate D2E/DX2                !
 ! D9    D(1,2,3,6)             -0.2224         estimate D2E/DX2                !
 ! D10   D(1,2,3,8)            178.6265         estimate D2E/DX2                !
 ! D11   D(19,2,3,6)           167.2616         estimate D2E/DX2                !
 ! D12   D(19,2,3,8)           -13.8895         estimate D2E/DX2                !
 ! D13   D(1,2,19,20)          -16.0519         estimate D2E/DX2                !
 ! D14   D(3,2,19,20)          178.4264         estimate D2E/DX2                !
 ! D15   D(2,3,6,4)              0.0033         estimate D2E/DX2                !
 ! D16   D(8,3,6,4)           -179.041          estimate D2E/DX2                !
 ! D17   D(2,3,8,9)            -70.007          Frozen                          !
 ! D18   D(2,3,8,12)           107.4577         estimate D2E/DX2                !
 ! D19   D(6,3,8,9)            108.7609         estimate D2E/DX2                !
 ! D20   D(6,3,8,12)           -73.7744         estimate D2E/DX2                !
 ! D21   D(1,4,6,3)              0.2153         estimate D2E/DX2                !
 ! D22   D(7,4,6,3)            179.1932         estimate D2E/DX2                !
 ! D23   D(3,8,9,10)           179.768          estimate D2E/DX2                !
 ! D24   D(12,8,9,10)            1.8783         estimate D2E/DX2                !
 ! D25   D(3,8,12,11)         -179.8582         estimate D2E/DX2                !
 ! D26   D(3,8,12,13)           -9.0508         estimate D2E/DX2                !
 ! D27   D(9,8,12,11)           -2.141          estimate D2E/DX2                !
 ! D28   D(9,8,12,13)          168.6664         estimate D2E/DX2                !
 ! D29   D(8,9,10,11)           -1.1725         estimate D2E/DX2                !
 ! D30   D(8,9,10,16)         -149.8867         estimate D2E/DX2                !
 ! D31   D(9,10,11,12)           0.1218         estimate D2E/DX2                !
 ! D32   D(9,10,11,14)        -154.0365         estimate D2E/DX2                !
 ! D33   D(16,10,11,12)        153.9247         estimate D2E/DX2                !
 ! D34   D(16,10,11,14)         -0.2336         estimate D2E/DX2                !
 ! D35   D(9,10,16,15)         149.7162         estimate D2E/DX2                !
 ! D36   D(9,10,16,18)         -14.0885         estimate D2E/DX2                !
 ! D37   D(11,10,16,15)          1.0645         estimate D2E/DX2                !
 ! D38   D(11,10,16,18)       -162.7403         estimate D2E/DX2                !
 ! D39   D(10,11,12,8)           1.3373         estimate D2E/DX2                !
 ! D40   D(10,11,12,13)       -169.5608         estimate D2E/DX2                !
 ! D41   D(14,11,12,8)         150.5747         estimate D2E/DX2                !
 ! D42   D(14,11,12,13)        -20.3234         estimate D2E/DX2                !
 ! D43   D(10,11,14,15)         -0.5062         estimate D2E/DX2                !
 ! D44   D(12,11,14,15)       -149.751          estimate D2E/DX2                !
 ! D45   D(11,14,15,16)          1.1168         estimate D2E/DX2                !
 ! D46   D(11,14,15,17)        170.2865         estimate D2E/DX2                !
 ! D47   D(14,15,16,10)         -1.4406         estimate D2E/DX2                !
 ! D48   D(14,15,16,18)        162.6332         estimate D2E/DX2                !
 ! D49   D(17,15,16,10)       -170.361          estimate D2E/DX2                !
 ! D50   D(17,15,16,18)         -6.2872         estimate D2E/DX2                !
 --------------------------------------------------------------------------------
 Trust Radius=3.00D-01 FncErr=1.00D-07 GrdErr=1.00D-07 EigMax=2.50D+02 EigMin=1.00D-04
 Number of steps in this run=    116 maximum allowed number of steps=    120.
 GradGradGradGradGradGradGradGradGradGradGradGradGradGradGradGradGradGrad

                          Input orientation:                          
 ---------------------------------------------------------------------
 Center     Atomic      Atomic             Coordinates (Angstroms)
 Number     Number       Type             X           Y           Z
 ---------------------------------------------------------------------
      1          6           0       -4.250000   -1.360000   -0.210000
      2          6           0       -2.930000   -0.950000   -0.610000
      3          6           0       -1.970000   -2.050000   -0.620000
      4          6           0       -4.330000   -2.760000    0.100000
      5          1           0       -5.100000   -0.700000   -0.140000
      6         16           0       -2.800000   -3.560000   -0.110000
      7          1           0       -5.230000   -3.270000    0.410000
      8          6           0       -0.560000   -2.130000   -0.970000
      9         16           0        0.008000   -1.970000   -2.660000
     10          6           0        1.667000   -2.164000   -2.210000
     11          6           0        1.834000   -2.325000   -0.788000
     12          6           0        0.590000   -2.290000   -0.078000
     13          1           0        0.529000   -2.230000    0.998000
     14         16           0        3.396000   -1.814000   -0.237000
     15          6           0        3.879000   -1.386000   -1.880000
     16          6           0        2.823000   -1.616000   -2.839000
     17          1           0        4.788000   -0.843000   -2.093000
     18          1           0        2.823000   -1.169000   -3.830000
     19          8           0       -2.400000    0.490000   -0.720000
     20          1           0       -2.920000    1.520000   -0.760000
 ---------------------------------------------------------------------
                    Distance matrix (angstroms):
                    1          2          3          4          5
     1  C    0.000000
     2  C    1.438923   0.000000
     3  C    2.417147   1.460034   0.000000
     4  C    1.436141   2.395871   2.567509   0.000000
     5  H    1.078425   2.234346   3.442354   2.212261   0.000000
     6  S    2.636759   2.660639   1.796970   1.739253   3.670218
     7  H    2.234480   3.422397   3.630000   1.079907   2.631406
     8  C    3.845335   2.671872   1.454991   3.969219   4.831708
     9  S    4.950269   3.724882   2.842619   5.201917   5.835663
    10  C    6.297405   5.016593   3.971003   6.454094   7.226374
    11  C    6.187113   4.961653   3.817626   6.242809   7.151286
    12  C    4.930307   3.803817   2.627730   4.945602   5.908303
    13  H    5.005497   4.023524   2.982503   4.969626   5.943197
    14  S    7.659514   6.395616   5.384825   7.790992   8.569272
    15  C    8.298808   6.940135   6.019908   8.555464   9.171730
    16  C    7.550133   6.205563   5.299544   7.817408   8.420070
    17  H    9.246536   7.859915   7.021192   9.571941  10.080040
    18  H    7.947843   6.596466   5.835504   8.315142   8.752713
    19  O    2.665539   1.538376   2.578081   3.867790   3.007075
    20  H    3.219596   2.474571   3.696891   4.587603   3.172570
                    6          7          8          9         10
     6  S    0.000000
     7  H    2.501879   0.000000
     8  C    2.793224   5.001290   0.000000
     9  S    4.112841   6.208989   1.790063   0.000000
    10  C    5.129611   7.460311   2.549173   1.729860   0.000000
    11  C    4.843435   7.226917   2.408814   2.639069   1.440796
    12  C    3.620224   5.922073   1.464160   2.666055   2.391909
    13  H    3.752173   5.881618   2.251432   3.704053   3.404506
    14  S    6.438560   8.771911   4.035726   4.168190   2.646634
    15  C    7.243495   9.579532   4.591988   3.991754   2.367937
    16  C    6.545587   8.839826   3.898980   2.842812   1.425581
    17  H    8.300128  10.607340   5.614143   4.943685   3.391072
    18  H    7.153559   9.340375   4.532969   3.151940   2.225031
    19  O    4.115167   4.839773   3.211308   3.951413   5.079794
    20  H    5.122821   5.445099   4.351574   4.935918   6.059284
                   11         12         13         14         15
    11  C    0.000000
    12  C    1.432781   0.000000
    13  H    2.214011   1.079397   0.000000
    14  S    1.733368   2.850525   3.149281   0.000000
    15  C    2.501242   3.857712   4.496412   1.765197   0.000000
    16  C    2.384828   3.614372   4.512427   2.671692   1.444893
    17  H    3.553233   4.876191   5.442162   2.515003   1.080046
    18  H    3.401209   4.507819   5.449563   3.695132   2.228166
    19  O    5.084841   4.132876   4.350743   6.255823   6.655135
    20  H    6.114354   5.225067   5.389681   7.161071   7.478345
                   16         17         18         19         20
    16  C    0.000000
    17  H    2.239480   0.000000
    18  H    1.087148   2.642853   0.000000
    19  O    6.017070   7.438371   6.301120   0.000000
    20  H    6.865769   8.171531   7.045401   1.154513   0.000000
 Stoichiometry    C10H6OS3
 Framework group  C1[X(C10H6OS3)]
 Deg. of freedom    54
 Full point group                 C1      NOp   1
 Largest Abelian subgroup         C1      NOp   1
 Largest concise Abelian subgroup C1      NOp   1
                         Standard orientation:                         
 ---------------------------------------------------------------------
 Center     Atomic      Atomic             Coordinates (Angstroms)
 Number     Number       Type             X           Y           Z
 ---------------------------------------------------------------------
      1          6           0       -4.014829    0.575345    0.475566
      2          6           0       -2.627219    0.948180    0.553238
      3          6           0       -1.732006   -0.071356    0.013941
      4          6           0       -4.212709   -0.722094   -0.107526
      5          1           0       -4.832708    1.189342    0.817739
      6         16           0       -2.707818   -1.465663   -0.562948
      7          1           0       -5.175969   -1.183877   -0.265914
      8          6           0       -0.287192   -0.135927   -0.145251
      9         16           0        0.581695    0.878586   -1.336940
     10          6           0        2.122379    0.229424   -0.892759
     11          6           0        2.023851   -0.736961    0.171330
     12          6           0        0.675481   -0.938013    0.612167
     13          1           0        0.425063   -1.495722    1.501745
     14         16           0        3.483107   -0.860224    1.098661
     15          6           0        4.272201    0.356111    0.091794
     16          6           0        3.396214    0.867914   -0.937002
     17          1           0        5.228388    0.787864    0.348300
     18          1           0        3.594459    1.795514   -1.468177
     19          8           0       -2.021218    2.099866    1.373592
     20          1           0       -2.478246    3.029009    1.884198
 ---------------------------------------------------------------------
 Rotational constants (GHZ):           1.1700318           0.2572027           0.2472950
 Standard basis: Aug-CC-pVDZ (5D, 7F)
 There are   416 symmetry adapted cartesian basis functions of A   symmetry.
 There are   388 symmetry adapted basis functions of A   symmetry.
   388 basis functions,   782 primitive gaussians,   416 cartesian basis functions
    61 alpha electrons       61 beta electrons
       nuclear repulsion energy      1100.5340347122 Hartrees.
 NAtoms=   20 NActive=   20 NUniq=   20 SFac= 1.00D+00 NAtFMM=   60 NAOKFM=F Big=F
 Integral buffers will be    131072 words long.
 Raffenetti 1 integral format.
 Two-electron integral symmetry is turned on.
 One-electron integrals computed using PRISM.
 NBasis=   388 RedAO= T EigKep=  5.78D-06  NBF=   388
 NBsUse=   388 1.00D-06 EigRej= -1.00D+00 NBFU=   388
 ExpMin= 2.97D-02 ExpMax= 1.11D+05 ExpMxC= 1.07D+03 IAcc=3 IRadAn=         5 AccDes= 0.00D+00
 Harris functional with IExCor=  205 and IRadAn=       5 diagonalized for initial guess.
 HarFok:  IExCor=  205 AccDes= 0.00D+00 IRadAn=         5 IDoV= 1 UseB2=F ITyADJ=14
 ICtDFT=  3500011 ScaDFX=  1.000000  1.000000  1.000000  1.000000
 FoFCou: FMM=F IPFlag=           0 FMFlag=      100000 FMFlg1=           0
         NFxFlg=           0 DoJE=T BraDBF=F KetDBF=T FulRan=T
         wScrn=  0.000000 ICntrl=       500 IOpCl=  0 I1Cent=   200000004 NGrid=           0
         NMat0=    1 NMatS0=      1 NMatT0=    0 NMatD0=    1 NMtDS0=    0 NMtDT0=    0
 Petite list used in FoFCou.
 Requested convergence on RMS density matrix=1.00D-08 within 128 cycles.
 Requested convergence on MAX density matrix=1.00D-06.
 Requested convergence on             energy=1.00D-06.
 No special actions if energy rises.
 SCF Done:  E(RHF) =  -1649.50523341     A.U. after   18 cycles
            NFock= 18  Conv=0.41D-08     -V/T= 2.0014

 **********************************************************************

            Population analysis using the SCF Density.

 **********************************************************************

 Orbital symmetries:
       Occupied  (A) (A) (A) (A) (A) (A) (A) (A) (A) (A) (A) (A)
                 (A) (A) (A) (A) (A) (A) (A) (A) (A) (A) (A) (A)
                 (A) (A) (A) (A) (A) (A) (A) (A) (A) (A) (A) (A)
                 (A) (A) (A) (A) (A) (A) (A) (A) (A) (A) (A) (A)
                 (A) (A) (A) (A) (A) (A) (A) (A) (A) (A) (A) (A)
                 (A)
       Virtual   (A) (A) (A) (A) (A) (A) (A) (A) (A) (A) (A) (A)
                 (A) (A) (A) (A) (A) (A) (A) (A) (A) (A) (A) (A)
                 (A) (A) (A) (A) (A) (A) (A) (A) (A) (A) (A) (A)
                 (A) (A) (A) (A) (A) (A) (A) (A) (A) (A) (A) (A)
                 (A) (A) (A) (A) (A) (A) (A) (A) (A) (A) (A) (A)
                 (A) (A) (A) (A) (A) (A) (A) (A) (A) (A) (A) (A)
                 (A) (A) (A) (A) (A) (A) (A) (A) (A) (A) (A) (A)
                 (A) (A) (A) (A) (A) (A) (A) (A) (A) (A) (A) (A)
                 (A) (A) (A) (A) (A) (A) (A) (A) (A) (A) (A) (A)
                 (A) (A) (A) (A) (A) (A) (A) (A) (A) (A) (A) (A)
                 (A) (A) (A) (A) (A) (A) (A) (A) (A) (A) (A) (A)
                 (A) (A) (A) (A) (A) (A) (A) (A) (A) (A) (A) (A)
                 (A) (A) (A) (A) (A) (A) (A) (A) (A) (A) (A) (A)
                 (A) (A) (A) (A) (A) (A) (A) (A) (A) (A) (A) (A)
                 (A) (A) (A) (A) (A) (A) (A) (A) (A) (A) (A) (A)
                 (A) (A) (A) (A) (A) (A) (A) (A) (A) (A) (A) (A)
                 (A) (A) (A) (A) (A) (A) (A) (A) (A) (A) (A) (A)
                 (A) (A) (A) (A) (A) (A) (A) (A) (A) (A) (A) (A)
                 (A) (A) (A) (A) (A) (A) (A) (A) (A) (A) (A) (A)
                 (A) (A) (A) (A) (A) (A) (A) (A) (A) (A) (A) (A)
                 (A) (A) (A) (A) (A) (A) (A) (A) (A) (A) (A) (A)
                 (A) (A) (A) (A) (A) (A) (A) (A) (A) (A) (A) (A)
                 (A) (A) (A) (A) (A) (A) (A) (A) (A) (A) (A) (A)
                 (A) (A) (A) (A) (A) (A) (A) (A) (A) (A) (A) (A)
                 (A) (A) (A) (A) (A) (A) (A) (A) (A) (A) (A) (A)
                 (A) (A) (A) (A) (A) (A) (A) (A) (A) (A) (A) (A)
                 (A) (A) (A) (A) (A) (A) (A) (A) (A) (A) (A) (A)
                 (A) (A) (A)
 The electronic state is 1-A.
 Alpha  occ. eigenvalues --  -92.00592 -91.99764 -91.99291 -20.60320 -11.35286
 Alpha  occ. eigenvalues --  -11.30273 -11.30186 -11.29921 -11.29152 -11.28304
 Alpha  occ. eigenvalues --  -11.28144 -11.27406 -11.27216 -11.26948  -9.00520
 Alpha  occ. eigenvalues --   -8.99822  -8.99323  -6.68671  -6.68571  -6.68405
 Alpha  occ. eigenvalues --   -6.67987  -6.67899  -6.67709  -6.67485  -6.67388
 Alpha  occ. eigenvalues --   -6.67201  -1.30628  -1.19415  -1.15872  -1.10128
 Alpha  occ. eigenvalues --   -1.02893  -1.00940  -0.98316  -0.94012  -0.92608
 Alpha  occ. eigenvalues --   -0.82585  -0.77623  -0.76936  -0.71574  -0.70740
 Alpha  occ. eigenvalues --   -0.68270  -0.65532  -0.61972  -0.60349  -0.57440
 Alpha  occ. eigenvalues --   -0.56331  -0.55151  -0.54155  -0.53481  -0.52559
 Alpha  occ. eigenvalues --   -0.50460  -0.50113  -0.48902  -0.48315  -0.46177
 Alpha  occ. eigenvalues --   -0.44682  -0.38491  -0.34897  -0.32292  -0.31435
 Alpha  occ. eigenvalues --   -0.27743
 Alpha virt. eigenvalues --    0.02733   0.03576   0.03937   0.04898   0.05029
 Alpha virt. eigenvalues --    0.05776   0.05874   0.07875   0.08400   0.08594
 Alpha virt. eigenvalues --    0.08991   0.09737   0.10229   0.10914   0.11422
 Alpha virt. eigenvalues --    0.11580   0.12307   0.12531   0.12939   0.13093
 Alpha virt. eigenvalues --    0.13644   0.14082   0.14336   0.14462   0.14772
 Alpha virt. eigenvalues --    0.15050   0.15771   0.15947   0.16093   0.16680
 Alpha virt. eigenvalues --    0.17356   0.17738   0.18047   0.18201   0.18576
 Alpha virt. eigenvalues --    0.18914   0.19589   0.20086   0.20361   0.20596
 Alpha virt. eigenvalues --    0.20865   0.21801   0.22055   0.22387   0.23400
 Alpha virt. eigenvalues --    0.23416   0.23812   0.24471   0.24864   0.25477
 Alpha virt. eigenvalues --    0.25894   0.26198   0.26515   0.27579   0.28234
 Alpha virt. eigenvalues --    0.28903   0.29439   0.30130   0.30441   0.31123
 Alpha virt. eigenvalues --    0.31267   0.31780   0.31810   0.32295   0.32666
 Alpha virt. eigenvalues --    0.33036   0.34007   0.34362   0.34755   0.35687
 Alpha virt. eigenvalues --    0.36533   0.36750   0.37088   0.37920   0.38586
 Alpha virt. eigenvalues --    0.39545   0.40115   0.40396   0.40649   0.41132
 Alpha virt. eigenvalues --    0.41742   0.42383   0.43070   0.43969   0.44403
 Alpha virt. eigenvalues --    0.45448   0.45994   0.46267   0.46340   0.47518
 Alpha virt. eigenvalues --    0.48204   0.49123   0.49606   0.50305   0.50985
 Alpha virt. eigenvalues --    0.51486   0.52247   0.52392   0.53277   0.54399
 Alpha virt. eigenvalues --    0.54820   0.55221   0.56114   0.56580   0.57823
 Alpha virt. eigenvalues --    0.57917   0.59113   0.59467   0.60125   0.60747
 Alpha virt. eigenvalues --    0.61500   0.61990   0.62546   0.63698   0.64444
 Alpha virt. eigenvalues --    0.65150   0.65413   0.65868   0.66430   0.67109
 Alpha virt. eigenvalues --    0.67298   0.67952   0.68622   0.69224   0.69830
 Alpha virt. eigenvalues --    0.70460   0.71198   0.71635   0.72371   0.72586
 Alpha virt. eigenvalues --    0.73086   0.73868   0.74060   0.74541   0.74911
 Alpha virt. eigenvalues --    0.76258   0.76459   0.77028   0.78154   0.78273
 Alpha virt. eigenvalues --    0.78961   0.79541   0.80029   0.81996   0.82985
 Alpha virt. eigenvalues --    0.83530   0.84135   0.84343   0.85592   0.86680
 Alpha virt. eigenvalues --    0.87124   0.88213   0.88332   0.89288   0.90049
 Alpha virt. eigenvalues --    0.90861   0.91792   0.91847   0.93185   0.94226
 Alpha virt. eigenvalues --    0.94619   0.95195   0.95666   0.96271   0.97093
 Alpha virt. eigenvalues --    0.98607   0.98951   0.99957   1.00172   1.01020
 Alpha virt. eigenvalues --    1.01717   1.02330   1.03029   1.03513   1.05585
 Alpha virt. eigenvalues --    1.06618   1.08294   1.08776   1.09951   1.12121
 Alpha virt. eigenvalues --    1.12370   1.13027   1.14321   1.17547   1.18100
 Alpha virt. eigenvalues --    1.18326   1.20148   1.20472   1.21245   1.21810
 Alpha virt. eigenvalues --    1.22869   1.23682   1.23968   1.24918   1.26071
 Alpha virt. eigenvalues --    1.26801   1.27363   1.28470   1.29557   1.30062
 Alpha virt. eigenvalues --    1.30388   1.31292   1.32344   1.32717   1.33925
 Alpha virt. eigenvalues --    1.36488   1.37687   1.38226   1.38883   1.40524
 Alpha virt. eigenvalues --    1.40652   1.41918   1.42168   1.44419   1.46549
 Alpha virt. eigenvalues --    1.47486   1.48799   1.51193   1.51458   1.53852
 Alpha virt. eigenvalues --    1.54369   1.56323   1.57403   1.58477   1.59158
 Alpha virt. eigenvalues --    1.59777   1.61460   1.62039   1.62664   1.63634
 Alpha virt. eigenvalues --    1.64414   1.66425   1.66814   1.68430   1.70307
 Alpha virt. eigenvalues --    1.71276   1.71758   1.72569   1.73210   1.76355
 Alpha virt. eigenvalues --    1.76993   1.77878   1.79015   1.79140   1.80392
 Alpha virt. eigenvalues --    1.81656   1.82191   1.83520   1.85736   1.86890
 Alpha virt. eigenvalues --    1.87715   1.88424   1.91347   1.92731   1.94064
 Alpha virt. eigenvalues --    1.94772   1.97876   1.97991   1.98447   1.99077
 Alpha virt. eigenvalues --    2.02605   2.03782   2.04275   2.04917   2.07566
 Alpha virt. eigenvalues --    2.08517   2.09386   2.09864   2.10679   2.11724
 Alpha virt. eigenvalues --    2.13277   2.14403   2.15824   2.16887   2.18065
 Alpha virt. eigenvalues --    2.18941   2.19549   2.21711   2.22191   2.23406
 Alpha virt. eigenvalues --    2.25027   2.25338   2.27437   2.28437   2.30676
 Alpha virt. eigenvalues --    2.33558   2.33755   2.36129   2.36589   2.39664
 Alpha virt. eigenvalues --    2.40457   2.42878   2.43189   2.46121   2.48848
 Alpha virt. eigenvalues --    2.50203   2.52256   2.52945   2.54896   2.58716
 Alpha virt. eigenvalues --    2.69305   2.71007   2.74781   2.74974   2.80047
 Alpha virt. eigenvalues --    2.81568   2.83987   2.86949   2.89586   2.93362
 Alpha virt. eigenvalues --    2.97762   3.02685   3.08516   3.14768   3.22319
 Alpha virt. eigenvalues --    3.24065   3.29602   3.37873   3.46048   3.74082
 Alpha virt. eigenvalues --    3.78567   3.79393   3.81524   3.86783   4.05553
 Alpha virt. eigenvalues --    4.17466   4.22708
          Condensed to atoms (all electrons):
               1          2          3          4          5          6
     1  C    5.864220  -0.112250  -0.694290   0.512684  -0.017171  -0.347101
     2  C   -0.112250   8.276563  -1.183802  -0.003161   0.126147  -0.400658
     3  C   -0.694290  -1.183802   9.915804  -0.874641  -0.038102   0.443609
     4  C    0.512684  -0.003161  -0.874641   5.905008  -0.070064   0.212891
     5  H   -0.017171   0.126147  -0.038102  -0.070064   1.428725  -0.001481
     6  S   -0.347101  -0.400658   0.443609   0.212891  -0.001481  15.892837
     7  H   -0.013122   0.007894   0.094715   0.241242  -0.063991  -0.171750
     8  C    0.203341  -0.164928  -2.238846   0.326995   0.003303  -0.429005
     9  S    0.016939   0.168797  -0.292118   0.002163   0.000800  -0.013854
    10  C    0.001970   0.028586  -0.084715   0.024813   0.000962  -0.034776
    11  C    0.008922   0.058091   0.223876  -0.024298   0.000720   0.023206
    12  C   -0.125669  -0.367290   0.213375  -0.074664  -0.005221   0.296554
    13  H    0.001690   0.026427  -0.007891   0.002350   0.000106   0.010635
    14  S   -0.001529  -0.006204   0.012857   0.000151  -0.000001   0.005676
    15  C    0.000297   0.004676   0.037456  -0.000230   0.000036  -0.001701
    16  C   -0.002351  -0.005558  -0.188189   0.001562  -0.000331   0.005092
    17  H   -0.000019   0.000067   0.001968   0.000010   0.000002   0.000024
    18  H   -0.000106  -0.001153  -0.008559   0.000090   0.000010   0.000295
    19  O    0.033021  -0.576627   0.283888  -0.051720  -0.033844   0.025384
    20  H    0.009334   0.014143  -0.049939  -0.001480   0.006575   0.002618
               7          8          9         10         11         12
     1  C   -0.013122   0.203341   0.016939   0.001970   0.008922  -0.125669
     2  C    0.007894  -0.164928   0.168797   0.028586   0.058091  -0.367290
     3  C    0.094715  -2.238846  -0.292118  -0.084715   0.223876   0.213375
     4  C    0.241242   0.326995   0.002163   0.024813  -0.024298  -0.074664
     5  H   -0.063991   0.003303   0.000800   0.000962   0.000720  -0.005221
     6  S   -0.171750  -0.429005  -0.013854  -0.034776   0.023206   0.296554
     7  H    1.217544  -0.001406   0.000628   0.000162  -0.000642   0.004658
     8  C   -0.001406  10.105101   0.230146   0.148081  -0.422296  -1.834533
     9  S    0.000628   0.230146  16.004085   0.100070  -0.213830  -0.375924
    10  C    0.000162   0.148081   0.100070   7.356423   0.266562  -0.475476
    11  C   -0.000642  -0.422296  -0.213830   0.266562   8.166789  -1.644395
    12  C    0.004658  -1.834533  -0.375924  -0.475476  -1.644395  10.408296
    13  H    0.000050   0.157429   0.044076  -0.050166   0.243769  -0.507290
    14  S   -0.000032  -0.150030  -0.005042  -0.034459   0.086364  -0.033562
    15  C    0.000003   0.109967  -0.047268   0.102956  -0.283733  -0.262575
    16  C    0.000108  -0.333078  -0.058024  -1.082290   0.046902   0.612297
    17  H    0.000002  -0.001599  -0.003089  -0.002265  -0.004566   0.025463
    18  H   -0.000006   0.054207  -0.035487   0.220872  -0.030827  -0.015296
    19  O   -0.000881  -0.081507   0.015073   0.004229  -0.012684   0.060728
    20  H   -0.000115  -0.000096  -0.000248  -0.000339  -0.000272   0.000054
              13         14         15         16         17         18
     1  C    0.001690  -0.001529   0.000297  -0.002351  -0.000019  -0.000106
     2  C    0.026427  -0.006204   0.004676  -0.005558   0.000067  -0.001153
     3  C   -0.007891   0.012857   0.037456  -0.188189   0.001968  -0.008559
     4  C    0.002350   0.000151  -0.000230   0.001562   0.000010   0.000090
     5  H    0.000106  -0.000001   0.000036  -0.000331   0.000002   0.000010
     6  S    0.010635   0.005676  -0.001701   0.005092   0.000024   0.000295
     7  H    0.000050  -0.000032   0.000003   0.000108   0.000002  -0.000006
     8  C    0.157429  -0.150030   0.109967  -0.333078  -0.001599   0.054207
     9  S    0.044076  -0.005042  -0.047268  -0.058024  -0.003089  -0.035487
    10  C   -0.050166  -0.034459   0.102956  -1.082290  -0.002265   0.220872
    11  C    0.243769   0.086364  -0.283733   0.046902  -0.004566  -0.030827
    12  C   -0.507290  -0.033562  -0.262575   0.612297   0.025463  -0.015296
    13  H    1.568179  -0.057266   0.001381  -0.008266   0.001460  -0.000445
    14  S   -0.057266  15.679680   0.204518  -0.243394  -0.128776   0.006928
    15  C    0.001381   0.204518   5.813587   0.187318   0.240839  -0.048141
    16  C   -0.008266  -0.243394   0.187318   6.696912   0.025204  -0.147046
    17  H    0.001460  -0.128776   0.240839   0.025204   1.240963  -0.057662
    18  H   -0.000445   0.006928  -0.048141  -0.147046  -0.057662   1.381487
    19  O    0.002737  -0.001370  -0.000492   0.001807  -0.000082   0.000419
    20  H   -0.000063   0.000137   0.000058   0.000301   0.000007  -0.000008
              19         20
     1  C    0.033021   0.009334
     2  C   -0.576627   0.014143
     3  C    0.283888  -0.049939
     4  C   -0.051720  -0.001480
     5  H   -0.033844   0.006575
     6  S    0.025384   0.002618
     7  H   -0.000881  -0.000115
     8  C   -0.081507  -0.000096
     9  S    0.015073  -0.000248
    10  C    0.004229  -0.000339
    11  C   -0.012684  -0.000272
    12  C    0.060728   0.000054
    13  H    0.002737  -0.000063
    14  S   -0.001370   0.000137
    15  C   -0.000492   0.000058
    16  C    0.001807   0.000301
    17  H   -0.000082   0.000007
    18  H    0.000419  -0.000008
    19  O    9.282420   0.265962
    20  H    0.265962   0.354915
 Mulliken charges:
               1
     1  C    0.661190
     2  C    0.110238
     3  C    0.433545
     4  C   -0.129701
     5  H   -0.337179
     6  S    0.481503
     7  H   -0.315060
     8  C    0.318753
     9  S    0.462107
    10  C   -0.491201
    11  C   -0.487658
    12  C    0.100471
    13  H   -0.428901
    14  S    0.665351
    15  C   -0.058953
    16  C    0.491024
    17  H   -0.337952
    18  H   -0.319570
    19  O   -1.216462
    20  H    0.398456
 Sum of Mulliken charges =  -0.00000
 Mulliken charges with hydrogens summed into heavy atoms:
               1
     1  C    0.324011
     2  C    0.110238
     3  C    0.433545
     4  C   -0.444761
     6  S    0.481503
     8  C    0.318753
     9  S    0.462107
    10  C   -0.491201
    11  C   -0.487658
    12  C   -0.328430
    14  S    0.665351
    15  C   -0.396905
    16  C    0.171454
    19  O   -0.818006
 Electronic spatial extent (au):  <R**2>=           4395.7827
 Charge=             -0.0000 electrons
 Dipole moment (field-independent basis, Debye):
    X=             -2.0144    Y=              1.7607    Z=              1.3672  Tot=              3.0045
 Quadrupole moment (field-independent basis, Debye-Ang):
   XX=            -80.9384   YY=            -97.1227   ZZ=           -105.4666
   XY=              1.5290   XZ=             -2.7156   YZ=              1.4410
 Traceless Quadrupole moment (field-independent basis, Debye-Ang):
   XX=             13.5708   YY=             -2.6135   ZZ=            -10.9574
   XY=              1.5290   XZ=             -2.7156   YZ=              1.4410
 Octapole moment (field-independent basis, Debye-Ang**2):
  XXX=            -62.6755  YYY=             40.1558  ZZZ=             15.6063  XYY=            -28.6913
  XXY=             42.0170  XXZ=             21.4364  XZZ=             -3.5284  YZZ=             14.2744
  YYZ=             19.2829  XYZ=            -27.7097
 Hexadecapole moment (field-independent basis, Debye-Ang**3):
 XXXX=          -4149.0248 YYYY=           -661.5198 ZZZZ=           -580.7291 XXXY=            118.1463
 XXXZ=             18.2342 YYYX=            -74.7918 YYYZ=             77.8056 ZZZX=            -16.1976
 ZZZY=             23.0674 XXYY=           -841.6989 XXZZ=           -931.4273 YYZZ=           -170.4261
 XXYZ=             59.2348 YYXZ=            -63.6925 ZZXY=            -31.3122
 N-N= 1.100534034712D+03 E-N=-6.106408272527D+03  KE= 1.647265734253D+03
 Calling FoFJK, ICntrl=      2127 FMM=F ISym2X=0 I1Cent= 0 IOpClX= 0 NMat=1 NMatS=1 NMatT=0.
 ***** Axes restored to original set *****
 -------------------------------------------------------------------
 Center     Atomic                   Forces (Hartrees/Bohr)
 Number     Number              X              Y              Z
 -------------------------------------------------------------------
      1        6           0.010340606   -0.056233979    0.008919731
      2        6           0.055155983    0.017586090    0.012422791
      3        6          -0.065930076    0.035978103    0.007514094
      4        6           0.018478709    0.066592872   -0.020786898
      5        1           0.001515895    0.000669423    0.000533604
      6       16          -0.007829611    0.036094579   -0.008104543
      7        1           0.004103609   -0.001346018   -0.000039168
      8        6           0.084952499    0.001684141    0.035309742
      9       16          -0.008075495   -0.012303441    0.019387844
     10        6           0.011808073    0.011896619    0.052496833
     11        6          -0.029933108    0.017458449   -0.043720151
     12        6          -0.057391778    0.007758416   -0.055063736
     13        1          -0.005572240   -0.005423533   -0.001110609
     14       16           0.008100628   -0.003932894   -0.023151361
     15        6          -0.063931057   -0.009576702   -0.044199231
     16        6           0.053982585    0.020971147    0.053236378
     17        1           0.002182417   -0.007546046    0.003160399
     18        1           0.005329128   -0.010659114    0.002866707
     19        8          -0.048208560    0.019041352   -0.004277554
     20        1           0.030921792   -0.128709463    0.004605128
 -------------------------------------------------------------------
 Cartesian Forces:  Max     0.128709463 RMS     0.035184186

 GradGradGradGradGradGradGradGradGradGradGradGradGradGradGradGradGradGrad
 Berny optimization.
 FormGI is forming the generalized inverse of G from B-inverse, IUseBI=4.
 Internal  Forces:  Max     0.128915221 RMS     0.025684328
 Search for a local minimum.
 Step number   1 out of a maximum of  116
 All quantities printed in internal units (Hartrees-Bohrs-Radians)
 Mixed Optimization -- RFO/linear search
 Second derivative matrix not updated -- first step.
 ITU=  0
     Eigenvalues ---    0.00230   0.00994   0.01059   0.01222   0.01273
     Eigenvalues ---    0.01298   0.01362   0.01420   0.01458   0.01493
     Eigenvalues ---    0.01500   0.01592   0.01598   0.01774   0.02201
     Eigenvalues ---    0.02654   0.15076   0.15687   0.15739   0.15997
     Eigenvalues ---    0.16000   0.16000   0.17986   0.22443   0.22526
     Eigenvalues ---    0.23318   0.23979   0.24118   0.24633   0.24978
     Eigenvalues ---    0.24995   0.26145   0.26567   0.28307   0.28385
     Eigenvalues ---    0.28663   0.30910   0.31228   0.31588   0.34840
     Eigenvalues ---    0.35144   0.35872   0.35989   0.36006   0.36067
     Eigenvalues ---    0.36185   0.36339   0.37598   0.38294   0.38435
     Eigenvalues ---    0.39456   0.39679   0.406881000.000001000.00000
     Eigenvalues --- 1000.000001000.000001000.000001000.000001000.00000
     Eigenvalues --- 1000.000001000.000001000.000001000.000001000.00000
     Eigenvalues --- 1000.000001000.000001000.000001000.000001000.00000
     Eigenvalues --- 1000.000001000.000001000.000001000.000001000.00000
     Eigenvalues --- 1000.000001000.000001000.000001000.000001000.00000
     Eigenvalues --- 1000.000001000.000001000.000001000.000001000.00000
     Eigenvalues --- 1000.000001000.000001000.000001000.000001000.00000
     Eigenvalues --- 1000.000001000.000001000.000001000.000001000.00000
     Eigenvalues --- 1000.000001000.000001000.000001000.000001000.00000
     Eigenvalues --- 1000.000001000.000001000.000001000.000001000.00000
     Eigenvalues --- 1000.00000
 RFO step:  Lambda=-1.53674760D-01 EMin= 2.30000000D-03
 Linear search not attempted -- first point.
 Maximum step size (   0.300) exceeded in Quadratic search.
    -- Step size scaled by   0.522
 Iteration  1 RMS(Cart)=  0.05570703 RMS(Int)=  0.00140990
 Iteration  2 RMS(Cart)=  0.00173436 RMS(Int)=  0.00009138
 Iteration  3 RMS(Cart)=  0.00000911 RMS(Int)=  0.00009114
 Iteration  4 RMS(Cart)=  0.00000000 RMS(Int)=  0.00009114
 Iteration  1 RMS(Cart)=  0.00000129 RMS(Int)=  0.00000057
 Iteration  2 RMS(Cart)=  0.00000070 RMS(Int)=  0.00000064
 Variable       Old X    -DE/DX   Delta X   Delta X   Delta X     New X
                                 (Linear)    (Quad)   (Total)
    R1        2.71917  -0.02190   0.00000  -0.02196  -0.02187   2.69730
    R2        2.71391  -0.07527   0.00000  -0.07128  -0.07126   2.64266
    R3        2.03793  -0.00075   0.00000  -0.00076  -0.00076   2.03717
    R4        2.75906  -0.09155   0.00000  -0.09195  -0.09189   2.66717
    R5        2.90711  -0.10863   0.00000  -0.12889  -0.12889   2.77822
    R6        3.39578  -0.03188   0.00000  -0.03879  -0.03885   3.35693
    R7        2.74954   0.00103   0.00000   0.00101   0.00101   2.75055
    R8        3.28671  -0.02024   0.00000  -0.02149  -0.02156   3.26515
    R9        2.04073  -0.00280   0.00000  -0.00284  -0.00284   2.03789
   R10        3.38273  -0.02059   0.00000  -0.02415  -0.02422   3.35851
   R11        2.76686  -0.08997   0.00000  -0.09097  -0.09098   2.67588
   R12        3.26896  -0.00545   0.00000  -0.00518  -0.00520   3.26377
   R13        2.72271  -0.05458   0.00000  -0.05296  -0.05282   2.66989
   R14        2.69396   0.00306   0.00000   0.00181   0.00190   2.69586
   R15        2.70756  -0.00881   0.00000  -0.00935  -0.00929   2.69827
   R16        3.27559  -0.00318   0.00000  -0.00260  -0.00263   3.27296
   R17        2.03976  -0.00109   0.00000  -0.00111  -0.00111   2.03865
   R18        3.33574  -0.01824   0.00000  -0.02059  -0.02069   3.31505
   R19        2.73045  -0.08054   0.00000  -0.07794  -0.07795   2.65250
   R20        2.04099  -0.00258   0.00000  -0.00262  -0.00262   2.03837
   R21        2.05441  -0.00700   0.00000  -0.00724  -0.00724   2.04718
   R22        2.18171  -0.12892   0.00000  -0.15420  -0.15420   2.02751
    A1        1.97020  -0.00406   0.00000  -0.00822  -0.00809   1.96211
    A2        2.17330   0.00078   0.00000   0.00203   0.00196   2.17527
    A3        2.13967   0.00328   0.00000   0.00620   0.00614   2.14581
    A4        1.97187   0.01801   0.00000   0.02156   0.02169   1.99356
    A5        2.21760  -0.00813   0.00000  -0.00881  -0.00892   2.20868
    A6        2.06941  -0.00887   0.00000  -0.00973  -0.00984   2.05957
    A7        1.90440  -0.00572   0.00000  -0.00718  -0.00717   1.89722
    A8        2.31891  -0.00814   0.00000  -0.01066  -0.01066   2.30825
    A9        2.05972   0.01385   0.00000   0.01780   0.01779   2.07751
   A10        1.95339  -0.00228   0.00000  -0.00273  -0.00276   1.95062
   A11        2.17580   0.00444   0.00000   0.00685   0.00687   2.18267
   A12        2.15384  -0.00216   0.00000  -0.00414  -0.00413   2.14972
   A13        1.62490  -0.00595   0.00000  -0.00342  -0.00366   1.62124
   A14        2.12903  -0.00337   0.00000  -0.00416  -0.00418   2.12485
   A15        2.24031  -0.00512   0.00000  -0.00642  -0.00644   2.23387
   A16        1.91316   0.00858   0.00000   0.01088   0.01090   1.92406
   A17        1.61951  -0.00779   0.00000  -0.00769  -0.00768   1.61182
   A18        1.96106  -0.01171   0.00000  -0.01330  -0.01350   1.94756
   A19        2.23927   0.00946   0.00000   0.01730   0.01708   2.25635
   A20        1.96539   0.00667   0.00000   0.00822   0.00830   1.97369
   A21        1.96677   0.00802   0.00000   0.00926   0.00931   1.97608
   A22        1.96626  -0.01399   0.00000  -0.01616  -0.01628   1.94998
   A23        2.23659   0.00993   0.00000   0.01759   0.01738   2.25397
   A24        1.96354   0.00293   0.00000   0.00096   0.00108   1.96462
   A25        2.16138  -0.00605   0.00000  -0.00766  -0.00777   2.15361
   A26        2.14648   0.00383   0.00000   0.00886   0.00875   2.15523
   A27        1.59298   0.00023   0.00000   0.00193   0.00189   1.59487
   A28        1.95972   0.00100   0.00000   0.00056   0.00052   1.96024
   A29        2.13620  -0.00392   0.00000  -0.00521  -0.00531   2.13089
   A30        2.17031   0.00419   0.00000   0.00846   0.00839   2.17870
   A31        1.94012   0.00609   0.00000   0.00547   0.00558   1.94570
   A32        2.16549  -0.00010   0.00000   0.00367   0.00347   2.16896
   A33        2.14072  -0.00377   0.00000  -0.00260  -0.00280   2.13792
   A34        2.32184  -0.06621   0.00000  -0.11027  -0.11027   2.21158
    D1        0.00683  -0.00073   0.00000  -0.00188  -0.00187   0.00496
    D2       -2.89394  -0.00494   0.00000  -0.01585  -0.01586  -2.90980
    D3       -3.13952   0.00036   0.00000   0.00139   0.00138  -3.13814
    D4        0.24290  -0.00385   0.00000  -0.01259  -0.01261   0.23028
    D5       -0.00671  -0.00002   0.00000  -0.00042  -0.00045  -0.00716
    D6       -3.13020   0.00027   0.00000   0.00062   0.00060  -3.12959
    D7        3.13954  -0.00107   0.00000  -0.00360  -0.00363   3.13591
    D8        0.01605  -0.00079   0.00000  -0.00257  -0.00257   0.01348
    D9       -0.00388   0.00125   0.00000   0.00336   0.00335  -0.00053
   D10        3.11762   0.00056   0.00000   0.00108   0.00109   3.11871
   D11        2.91927   0.00476   0.00000   0.01569   0.01571   2.93498
   D12       -0.24242   0.00407   0.00000   0.01341   0.01346  -0.22896
   D13       -0.28016   0.00234   0.00000   0.00426   0.00418  -0.27598
   D14        3.11413  -0.00530   0.00000  -0.01416  -0.01408   3.10005
   D15        0.00006  -0.00108   0.00000  -0.00309  -0.00306  -0.00300
   D16       -3.12486  -0.00026   0.00000  -0.00087  -0.00082  -3.12568
   D17       -1.22185   0.00006   0.00000   0.00000   0.00000  -1.22185
   D18        1.87549   0.00332   0.00000   0.01012   0.01012   1.88561
   D19        1.89824  -0.00088   0.00000  -0.00270  -0.00270   1.89553
   D20       -1.28761   0.00238   0.00000   0.00742   0.00742  -1.28019
   D21        0.00376   0.00070   0.00000   0.00212   0.00211   0.00587
   D22        3.12751   0.00050   0.00000   0.00123   0.00121   3.12872
   D23        3.13754   0.00137   0.00000   0.00468   0.00470  -3.14094
   D24        0.03278  -0.00108   0.00000  -0.00342  -0.00347   0.02932
   D25       -3.13912  -0.00245   0.00000  -0.00725  -0.00721   3.13685
   D26       -0.15797   0.00280   0.00000   0.00825   0.00823  -0.14974
   D27       -0.03737   0.00028   0.00000   0.00161   0.00169  -0.03567
   D28        2.94378   0.00552   0.00000   0.01711   0.01713   2.96092
   D29       -0.02046   0.00213   0.00000   0.00500   0.00496  -0.01550
   D30       -2.61602  -0.00827   0.00000  -0.02209  -0.02213  -2.63814
   D31        0.00213  -0.00184   0.00000  -0.00444  -0.00440  -0.00227
   D32       -2.68844  -0.01200   0.00000  -0.02916  -0.02884  -2.71729
   D33        2.68649   0.00889   0.00000   0.02253   0.02232   2.70882
   D34       -0.00408  -0.00127   0.00000  -0.00219  -0.00212  -0.00620
   D35        2.61304   0.00683   0.00000   0.02320   0.02343   2.63647
   D36       -0.24589  -0.00096   0.00000  -0.00083  -0.00071  -0.24661
   D37        0.01858   0.00102   0.00000   0.00146   0.00142   0.02000
   D38       -2.84035  -0.00676   0.00000  -0.02256  -0.02272  -2.86307
   D39        0.02334   0.00109   0.00000   0.00179   0.00175   0.02509
   D40       -2.95939  -0.00306   0.00000  -0.01181  -0.01195  -2.97134
   D41        2.62803   0.00546   0.00000   0.01993   0.02015   2.64817
   D42       -0.35471   0.00131   0.00000   0.00633   0.00645  -0.34826
   D43       -0.00884   0.00125   0.00000   0.00209   0.00206  -0.00678
   D44       -2.61365  -0.00859   0.00000  -0.02236  -0.02232  -2.63597
   D45        0.01949  -0.00052   0.00000  -0.00112  -0.00113   0.01836
   D46        2.97206   0.00696   0.00000   0.02091   0.02081   2.99287
   D47       -0.02514  -0.00003   0.00000   0.00018   0.00023  -0.02492
   D48        2.83848   0.00829   0.00000   0.02497   0.02502   2.86351
   D49       -2.97336  -0.00664   0.00000  -0.02059  -0.02065  -2.99401
   D50       -0.10973   0.00167   0.00000   0.00420   0.00415  -0.10559
         Item               Value     Threshold  Converged?
 Maximum Force            0.128915     0.000450     NO 
 RMS     Force            0.025806     0.000300     NO 
 Maximum Displacement     0.415275     0.001800     NO 
 RMS     Displacement     0.055671     0.001200     NO 
 Predicted change in Energy=-6.677983D-02
 GradGradGradGradGradGradGradGradGradGradGradGradGradGradGradGradGradGrad

                          Input orientation:                          
 ---------------------------------------------------------------------
 Center     Atomic      Atomic             Coordinates (Angstroms)
 Number     Number       Type             X           Y           Z
 ---------------------------------------------------------------------
      1          6           0       -4.211535   -1.349817   -0.205561
      2          6           0       -2.892286   -0.973228   -0.599375
      3          6           0       -1.965410   -2.037575   -0.611001
      4          6           0       -4.309675   -2.711706    0.096504
      5          1           0       -5.048409   -0.673301   -0.141536
      6         16           0       -2.799323   -3.524599   -0.112012
      7          1           0       -5.212562   -3.214284    0.404990
      8          6           0       -0.554980   -2.103296   -0.964452
      9         16           0       -0.003127   -1.930924   -2.645031
     10          6           0        1.653622   -2.120335   -2.195345
     11          6           0        1.797355   -2.290628   -0.800182
     12          6           0        0.554013   -2.263354   -0.098648
     13          1           0        0.478124   -2.224625    0.976791
     14         16           0        3.370979   -1.815004   -0.255000
     15          6           0        3.856153   -1.395034   -1.887673
     16          6           0        2.824341   -1.594368   -2.818179
     17          1           0        4.785167   -0.888469   -2.097020
     18          1           0        2.845413   -1.163229   -3.811787
     19          8           0       -2.372062    0.396530   -0.719914
     20          1           0       -2.948797    1.300246   -0.762569
 ---------------------------------------------------------------------
                    Distance matrix (angstroms):
                    1          2          3          4          5
     1  C    0.000000
     2  C    1.427350   0.000000
     3  C    2.383793   1.411406   0.000000
     4  C    1.398433   2.348519   2.539801   0.000000
     5  H    1.078022   2.224509   3.403898   2.181167   0.000000
     6  S    2.594758   2.599165   1.776412   1.727841   3.631689
     7  H    2.202513   3.378574   3.600121   1.078403   2.604272
     8  C    3.809730   2.621704   1.455528   3.948864   4.786751
     9  S    4.898918   3.667305   2.828287   5.164493   5.770959
    10  C    6.241234   4.952600   3.951505   6.415855   7.157462
    11  C    6.111093   4.875305   3.776007   6.186854   7.064988
    12  C    4.853497   3.713775   2.580887   4.888206   5.823851
    13  H    4.914890   3.925551   2.920091   4.892358   5.848062
    14  S    7.596931   6.328955   5.352880   7.740806   8.497203
    15  C    8.241307   6.883245   5.994444   8.505959   9.102809
    16  C    7.509270   6.163500   5.292428   7.787041   8.366181
    17  H    9.204950   7.822621   7.007067   9.531625  10.028431
    18  H    7.927181   6.578516   5.844102   8.298662   8.719128
    19  O    2.588039   1.470170   2.470242   3.752600   2.939709
    20  H    2.987909   2.280024   3.482968   4.322702   2.947701
                    6          7          8          9         10
     6  S    0.000000
     7  H    2.487429   0.000000
     8  C    2.789953   4.980234   0.000000
     9  S    4.095693   6.171535   1.777245   0.000000
    10  C    5.112822   7.423135   2.528499   1.727111   0.000000
    11  C    4.808920   7.172483   2.365492   2.602804   1.412847
    12  C    3.582706   5.866115   1.416015   2.627733   2.371862
    13  H    3.690134   5.804333   2.202373   3.665441   3.384541
    14  S    6.404357   8.721854   3.999948   4.136458   2.609115
    15  C    7.209951   9.529300   4.562024   3.969234   2.339203
    16  C    6.532590   8.809356   3.887817   2.852688   1.426586
    17  H    8.271271  10.565228   5.592466   4.931003   3.366562
    18  H    7.150346   9.323035   4.533620   3.172515   2.224703
    19  O    3.990908   4.729886   3.100116   3.838616   4.971684
    20  H    4.870800   5.183513   4.165959   4.760367   5.910624
                   11         12         13         14         15
    11  C    0.000000
    12  C    1.427863   0.000000
    13  H    2.214128   1.078809   0.000000
    14  S    1.731975   2.856705   3.170758   0.000000
    15  C    2.494670   3.854701   4.506047   1.754249   0.000000
    16  C    2.368922   3.605244   4.505969   2.630092   1.403643
    17  H    3.546105   4.877137   5.457494   2.500286   1.078657
    18  H    3.382191   4.499798   5.446200   3.654006   2.185759
    19  O    4.960978   4.002857   4.227626   6.171673   6.585137
    20  H    5.951617   5.040804   5.214774   7.064133   7.405251
                   16         17         18         19         20
    16  C    0.000000
    17  H    2.205267   0.000000
    18  H    1.083319   2.603568   0.000000
    19  O    5.947184   7.400917   6.262154   0.000000
    20  H    6.777422   8.147725   6.995663   1.072914   0.000000
 Stoichiometry    C10H6OS3
 Framework group  C1[X(C10H6OS3)]
 Deg. of freedom    54
 Full point group                 C1      NOp   1
 Largest Abelian subgroup         C1      NOp   1
 Largest concise Abelian subgroup C1      NOp   1
                         Standard orientation:                         
 ---------------------------------------------------------------------
 Center     Atomic      Atomic             Coordinates (Angstroms)
 Number     Number       Type             X           Y           Z
 ---------------------------------------------------------------------
      1          6           0       -3.974025    0.546587    0.513140
      2          6           0       -2.588868    0.880221    0.598907
      3          6           0       -1.726504   -0.072750    0.015605
      4          6           0       -4.189521   -0.674194   -0.134063
      5          1           0       -4.775788    1.154836    0.899585
      6         16           0       -2.706398   -1.400169   -0.642731
      7          1           0       -5.156132   -1.115175   -0.318866
      8          6           0       -0.279956   -0.118496   -0.139216
      9         16           0        0.576438    0.972151   -1.250827
     10          6           0        2.112705    0.295908   -0.844020
     11          6           0        1.991580   -0.721874    0.128392
     12          6           0        0.643885   -0.946882    0.542981
     13          1           0        0.375167   -1.572194    1.380002
     14         16           0        3.460083   -0.932714    1.022137
     15          6           0        4.253906    0.328976    0.097274
     16          6           0        3.400754    0.909071   -0.854479
     17          1           0        5.228295    0.707602    0.363185
     18          1           0        3.622821    1.853709   -1.336067
     19          8           0       -1.991547    1.930417    1.436579
     20          1           0       -2.507691    2.740188    1.915130
 ---------------------------------------------------------------------
 Rotational constants (GHZ):           1.2272056           0.2612524           0.2511562
 Standard basis: Aug-CC-pVDZ (5D, 7F)
 There are   416 symmetry adapted cartesian basis functions of A   symmetry.
 There are   388 symmetry adapted basis functions of A   symmetry.
   388 basis functions,   782 primitive gaussians,   416 cartesian basis functions
    61 alpha electrons       61 beta electrons
       nuclear repulsion energy      1113.9745934514 Hartrees.
 NAtoms=   20 NActive=   20 NUniq=   20 SFac= 1.00D+00 NAtFMM=   60 NAOKFM=F Big=F
 Integral buffers will be    131072 words long.
 Raffenetti 1 integral format.
 Two-electron integral symmetry is turned on.
 One-electron integrals computed using PRISM.
 NBasis=   388 RedAO= T EigKep=  4.82D-06  NBF=   388
 NBsUse=   388 1.00D-06 EigRej= -1.00D+00 NBFU=   388
 Initial guess from the checkpoint file:  "/tmp/pbs.4762170[105].pbs/Gau-3534926.chk"
 B after Tr=    -0.000000    0.000000    0.000000
         Rot=    0.999438   -0.033486   -0.000021    0.001233 Ang=  -3.84 deg.
 ExpMin= 2.97D-02 ExpMax= 1.11D+05 ExpMxC= 1.07D+03 IAcc=3 IRadAn=         5 AccDes= 0.00D+00
 Harris functional with IExCor=  205 and IRadAn=       5 diagonalized for initial guess.
 HarFok:  IExCor=  205 AccDes= 0.00D+00 IRadAn=         5 IDoV= 1 UseB2=F ITyADJ=14
 ICtDFT=  3500011 ScaDFX=  1.000000  1.000000  1.000000  1.000000
 FoFCou: FMM=F IPFlag=           0 FMFlag=      100000 FMFlg1=           0
         NFxFlg=           0 DoJE=T BraDBF=F KetDBF=T FulRan=T
         wScrn=  0.000000 ICntrl=       500 IOpCl=  0 I1Cent=   200000004 NGrid=           0
         NMat0=    1 NMatS0=      1 NMatT0=    0 NMatD0=    1 NMtDS0=    0 NMtDT0=    0
 Petite list used in FoFCou.
 Requested convergence on RMS density matrix=1.00D-08 within 128 cycles.
 Requested convergence on MAX density matrix=1.00D-06.
 Requested convergence on             energy=1.00D-06.
 No special actions if energy rises.
 SCF Done:  E(RHF) =  -1649.57465467     A.U. after   15 cycles
            NFock= 15  Conv=0.67D-08     -V/T= 2.0008
 Calling FoFJK, ICntrl=      2127 FMM=F ISym2X=0 I1Cent= 0 IOpClX= 0 NMat=1 NMatS=1 NMatT=0.
 ***** Axes restored to original set *****
 -------------------------------------------------------------------
 Center     Atomic                   Forces (Hartrees/Bohr)
 Number     Number              X              Y              Z
 -------------------------------------------------------------------
      1        6          -0.000633440   -0.037133388    0.006684899
      2        6           0.050082896    0.033711122    0.008526564
      3        6          -0.049660093    0.018272764    0.004475627
      4        6           0.010442626    0.043124881   -0.013908284
      5        1           0.001131398    0.001352305    0.000548618
      6       16          -0.003085112    0.017911675   -0.005200825
      7        1           0.003181531   -0.002180047    0.000306254
      8        6           0.059858148    0.002592547    0.023555131
      9       16          -0.009509303   -0.010508339    0.009360340
     10        6           0.005879784    0.009990191    0.038218458
     11        6          -0.015551356    0.015999811   -0.032804887
     12        6          -0.041735453    0.004724260   -0.033066483
     13        1          -0.003687394   -0.005379023   -0.000609255
     14       16           0.009414474   -0.004874884   -0.011189035
     15        6          -0.043079115   -0.004222276   -0.029772424
     16        6           0.036968458    0.015903075    0.032950508
     17        1           0.002413141   -0.006413452    0.002890894
     18        1           0.003639804   -0.009614445    0.000220110
     19        8          -0.049698900    0.016930955   -0.005544017
     20        1           0.033627905   -0.100187733    0.004357809
 -------------------------------------------------------------------
 Cartesian Forces:  Max     0.100187733 RMS     0.026089834

 GradGradGradGradGradGradGradGradGradGradGradGradGradGradGradGradGradGrad
 Berny optimization.
 Using GEDIIS/GDIIS optimizer.
 FormGI is forming the generalized inverse of G from B-inverse, IUseBI=4.
 Internal  Forces:  Max     0.102637768 RMS     0.018129955
 Search for a local minimum.
 Step number   2 out of a maximum of  116
 All quantities printed in internal units (Hartrees-Bohrs-Radians)
 Mixed Optimization -- RFO/linear search
 Update second derivatives using D2CorX and points    1    2
 DE= -6.94D-02 DEPred=-6.68D-02 R= 1.04D+00
 TightC=F SS=  1.41D+00  RLast= 3.12D-01 DXNew= 5.0454D-01 9.3521D-01
 Trust test= 1.04D+00 RLast= 3.12D-01 DXMaxT set to 5.05D-01
 ITU=  1  0
 Use linear search instead of GDIIS.
     Eigenvalues ---    0.00230   0.00995   0.01056   0.01220   0.01271
     Eigenvalues ---    0.01295   0.01348   0.01403   0.01459   0.01488
     Eigenvalues ---    0.01499   0.01592   0.01595   0.01748   0.02133
     Eigenvalues ---    0.02528   0.15043   0.15277   0.15750   0.15827
     Eigenvalues ---    0.15999   0.16027   0.18244   0.20844   0.22477
     Eigenvalues ---    0.22536   0.23376   0.24123   0.24325   0.24981
     Eigenvalues ---    0.25017   0.25567   0.26305   0.26675   0.28437
     Eigenvalues ---    0.28598   0.30918   0.31230   0.31555   0.34907
     Eigenvalues ---    0.35150   0.35988   0.36004   0.36066   0.36098
     Eigenvalues ---    0.36185   0.36492   0.37537   0.38146   0.39211
     Eigenvalues ---    0.39521   0.40567   0.450211000.000001000.00000
     Eigenvalues --- 1000.000001000.000001000.000001000.000001000.00000
     Eigenvalues --- 1000.000001000.000001000.000001000.000001000.00000
     Eigenvalues --- 1000.000001000.000001000.000001000.000001000.00000
     Eigenvalues --- 1000.000001000.000001000.000001000.000001000.00000
     Eigenvalues --- 1000.000001000.000001000.000001000.000001000.00000
     Eigenvalues --- 1000.000001000.000001000.000001000.000001000.00000
     Eigenvalues --- 1000.000001000.000001000.000001000.000001000.00000
     Eigenvalues --- 1000.000001000.000001000.000001000.000001000.00000
     Eigenvalues --- 1000.000001000.000001000.000001000.000001000.00000
     Eigenvalues --- 1000.000001000.000001000.000001000.000001000.00000
     Eigenvalues --- 1000.00000
 RFO step:  Lambda=-1.49242430D-02 EMin= 2.30033064D-03
 Quartic linear search produced a step of  1.58406.
 Iteration  1 RMS(Cart)=  0.09063182 RMS(Int)=  0.02427059
 Iteration  2 RMS(Cart)=  0.02620216 RMS(Int)=  0.00314425
 Iteration  3 RMS(Cart)=  0.00286589 RMS(Int)=  0.00104577
 Iteration  4 RMS(Cart)=  0.00000540 RMS(Int)=  0.00104576
 Iteration  5 RMS(Cart)=  0.00000000 RMS(Int)=  0.00104576
 Iteration  1 RMS(Cart)=  0.00003826 RMS(Int)=  0.00001746
 Iteration  2 RMS(Cart)=  0.00002093 RMS(Int)=  0.00001951
 Iteration  3 RMS(Cart)=  0.00001145 RMS(Int)=  0.00002204
 Iteration  4 RMS(Cart)=  0.00000626 RMS(Int)=  0.00002372
 Iteration  5 RMS(Cart)=  0.00000342 RMS(Int)=  0.00002470
 Iteration  6 RMS(Cart)=  0.00000187 RMS(Int)=  0.00002526
 Iteration  7 RMS(Cart)=  0.00000102 RMS(Int)=  0.00002557
 Iteration  8 RMS(Cart)=  0.00000056 RMS(Int)=  0.00002574
 Variable       Old X    -DE/DX   Delta X   Delta X   Delta X     New X
                                 (Linear)    (Quad)   (Total)
    R1        2.69730  -0.00664  -0.03464   0.04912   0.01479   2.71209
    R2        2.64266  -0.04518  -0.11288   0.02725  -0.08576   2.55690
    R3        2.03717   0.00000  -0.00120   0.00341   0.00220   2.03937
    R4        2.66717  -0.05618  -0.14557   0.03009  -0.11509   2.55208
    R5        2.77822  -0.08316  -0.20417  -0.07822  -0.28239   2.49583
    R6        3.35693  -0.01827  -0.06154   0.03178  -0.02979   3.32714
    R7        2.75055   0.00416   0.00161   0.02276   0.02437   2.77492
    R8        3.26515  -0.01064  -0.03416   0.02268  -0.01191   3.25324
    R9        2.03789  -0.00156  -0.00450   0.00204  -0.00247   2.03542
   R10        3.35851  -0.01286  -0.03837   0.01321  -0.02610   3.33241
   R11        2.67588  -0.05829  -0.14412   0.01179  -0.13290   2.54298
   R12        3.26377   0.00012  -0.00823   0.02672   0.01872   3.28249
   R13        2.66989  -0.03501  -0.08366   0.00149  -0.08041   2.58949
   R14        2.69586   0.00491   0.00301   0.01683   0.02044   2.71629
   R15        2.69827  -0.00079  -0.01472   0.03023   0.01601   2.71428
   R16        3.27296   0.00090  -0.00417   0.02135   0.01719   3.29014
   R17        2.03865  -0.00054  -0.00176   0.00127  -0.00049   2.03816
   R18        3.31505  -0.01048  -0.03277   0.01855  -0.01509   3.29996
   R19        2.65250  -0.05082  -0.12348   0.01669  -0.10715   2.54535
   R20        2.03837  -0.00149  -0.00416   0.00151  -0.00265   2.03572
   R21        2.04718  -0.00396  -0.01146   0.00492  -0.00654   2.04064
   R22        2.02751  -0.10264  -0.24426  -0.12687  -0.37113   1.65639
    A1        1.96211  -0.00221  -0.01282   0.00887  -0.00348   1.95863
    A2        2.17527  -0.00044   0.00311  -0.01386  -0.01101   2.16425
    A3        2.14581   0.00266   0.00972   0.00499   0.01446   2.16027
    A4        1.99356   0.00763   0.03435  -0.04157  -0.00794   1.98562
    A5        2.20868  -0.00683  -0.01413  -0.00810  -0.02475   2.18393
    A6        2.05957   0.00016  -0.01558   0.06593   0.04840   2.10797
    A7        1.89722   0.00032  -0.01136   0.03862   0.02798   1.92520
    A8        2.30825  -0.00889  -0.01689  -0.03023  -0.04747   2.26079
    A9        2.07751   0.00857   0.02818  -0.00831   0.01950   2.09701
   A10        1.95062  -0.00016  -0.00438   0.01472   0.01017   1.96079
   A11        2.18267   0.00363   0.01089   0.00964   0.02061   2.20329
   A12        2.14972  -0.00348  -0.00654  -0.02441  -0.03085   2.11886
   A13        1.62124  -0.00558  -0.00580  -0.02068  -0.02684   1.59440
   A14        2.12485  -0.00359  -0.00662  -0.01255  -0.01924   2.10560
   A15        2.23387  -0.00338  -0.01021   0.00106  -0.00922   2.22465
   A16        1.92406   0.00704   0.01727   0.01181   0.02887   1.95293
   A17        1.61182  -0.00599  -0.01217  -0.01250  -0.02398   1.58784
   A18        1.94756  -0.00671  -0.02138   0.01578  -0.00683   1.94073
   A19        2.25635   0.00690   0.02705   0.01586   0.03943   2.29578
   A20        1.97369   0.00362   0.01314  -0.00838   0.00448   1.97817
   A21        1.97608   0.00391   0.01474  -0.01071   0.00327   1.97935
   A22        1.94998  -0.00761  -0.02578   0.02267  -0.00441   1.94557
   A23        2.25397   0.00721   0.02754   0.01694   0.04075   2.29472
   A24        1.96462   0.00178   0.00171  -0.00334  -0.00070   1.96392
   A25        2.15361  -0.00364  -0.01230   0.01064  -0.00256   2.15105
   A26        2.15523   0.00244   0.01386  -0.00497   0.00795   2.16318
   A27        1.59487  -0.00149   0.00299  -0.02227  -0.01839   1.57647
   A28        1.96024   0.00216   0.00082   0.01887   0.01903   1.97927
   A29        2.13089  -0.00441  -0.00841  -0.01898  -0.02895   2.10194
   A30        2.17870   0.00331   0.01329   0.00788   0.01980   2.19850
   A31        1.94570   0.00334   0.00884  -0.01024  -0.00051   1.94519
   A32        2.16896  -0.00033   0.00550  -0.00412  -0.00065   2.16831
   A33        2.13792  -0.00119  -0.00443   0.02272   0.01644   2.15436
   A34        2.21158  -0.05171  -0.17467  -0.05378  -0.22844   1.98313
    D1        0.00496  -0.00033  -0.00296   0.01548   0.01241   0.01737
    D2       -2.90980  -0.00561  -0.02513  -0.07753  -0.10044  -3.01024
    D3       -3.13814   0.00072   0.00219   0.02166   0.02319  -3.11495
    D4        0.23028  -0.00456  -0.01998  -0.07134  -0.08965   0.14063
    D5       -0.00716  -0.00025  -0.00072  -0.00686  -0.00719  -0.01436
    D6       -3.12959   0.00016   0.00096  -0.00379  -0.00289  -3.13248
    D7        3.13591  -0.00128  -0.00575  -0.01290  -0.01793   3.11798
    D8        0.01348  -0.00086  -0.00407  -0.00984  -0.01362  -0.00014
    D9       -0.00053   0.00079   0.00530  -0.01656  -0.01150  -0.01204
   D10        3.11871   0.00045   0.00173  -0.01165  -0.01042   3.10829
   D11        2.93498   0.00449   0.02489   0.05909   0.08609   3.02107
   D12       -0.22896   0.00415   0.02132   0.06401   0.08717  -0.14179
   D13       -0.27598   0.00185   0.00663   0.04477   0.05172  -0.22426
   D14        3.10005  -0.00441  -0.02231  -0.03862  -0.06125   3.03879
   D15       -0.00300  -0.00077  -0.00484   0.01066   0.00636   0.00336
   D16       -3.12568  -0.00024  -0.00130   0.00693   0.00641  -3.11927
   D17       -1.22185  -0.00035   0.00000   0.00000  -0.00000  -1.22185
   D18        1.88561   0.00281   0.01603   0.01339   0.02948   1.91509
   D19        1.89553  -0.00083  -0.00428   0.00575   0.00114   1.89668
   D20       -1.28019   0.00233   0.01175   0.01914   0.03063  -1.24956
   D21        0.00587   0.00062   0.00334  -0.00234   0.00069   0.00656
   D22        3.12872   0.00030   0.00192  -0.00491  -0.00274   3.12598
   D23       -3.14094   0.00123   0.00744  -0.01090  -0.00350   3.13874
   D24        0.02932  -0.00127  -0.00549  -0.02205  -0.02820   0.00112
   D25        3.13685  -0.00188  -0.01143   0.01858   0.00710  -3.13923
   D26       -0.14974   0.00272   0.01303   0.03534   0.04816  -0.10158
   D27       -0.03567   0.00083   0.00268   0.03034   0.03373  -0.00195
   D28        2.96092   0.00543   0.02714   0.04710   0.07479   3.03570
   D29       -0.01550   0.00172   0.00786   0.00807   0.01555   0.00005
   D30       -2.63814  -0.00728  -0.03505  -0.04267  -0.07898  -2.71713
   D31       -0.00227  -0.00123  -0.00696   0.00818   0.00113  -0.00114
   D32       -2.71729  -0.00994  -0.04569  -0.05198  -0.09487  -2.81216
   D33        2.70882   0.00789   0.03536   0.05657   0.08928   2.79810
   D34       -0.00620  -0.00082  -0.00336  -0.00359  -0.00672  -0.01292
   D35        2.63647   0.00709   0.03711   0.04136   0.07982   2.71629
   D36       -0.24661  -0.00030  -0.00113   0.00335   0.00337  -0.24323
   D37        0.02000   0.00039   0.00225  -0.01580  -0.01389   0.00611
   D38       -2.86307  -0.00700  -0.03599  -0.05380  -0.09034  -2.95341
   D39        0.02509   0.00031   0.00278  -0.02556  -0.02306   0.00203
   D40       -2.97134  -0.00371  -0.01893  -0.04384  -0.06343  -3.03478
   D41        2.64817   0.00617   0.03192   0.04726   0.08048   2.72865
   D42       -0.34826   0.00215   0.01021   0.02897   0.04011  -0.30816
   D43       -0.00678   0.00103   0.00326   0.01635   0.01917   0.01239
   D44       -2.63597  -0.00739  -0.03536  -0.04776  -0.08435  -2.72032
   D45        0.01836  -0.00072  -0.00180  -0.02543  -0.02751  -0.00915
   D46        2.99287   0.00625   0.03296   0.02392   0.05531   3.04818
   D47       -0.02492   0.00042   0.00036   0.02764   0.02850   0.00358
   D48        2.86351   0.00779   0.03964   0.06036   0.10131   2.96482
   D49       -2.99401  -0.00589  -0.03271  -0.02031  -0.05422  -3.04823
   D50       -0.10559   0.00147   0.00657   0.01241   0.01859  -0.08700
         Item               Value     Threshold  Converged?
 Maximum Force            0.102638     0.000450     NO 
 RMS     Force            0.018216     0.000300     NO 
 Maximum Displacement     0.819935     0.001800     NO 
 RMS     Displacement     0.105065     0.001200     NO 
 Predicted change in Energy=-7.802827D-02
 GradGradGradGradGradGradGradGradGradGradGradGradGradGradGradGradGradGrad

                          Input orientation:                          
 ---------------------------------------------------------------------
 Center     Atomic      Atomic             Coordinates (Angstroms)
 Number     Number       Type             X           Y           Z
 ---------------------------------------------------------------------
      1          6           0       -4.162588   -1.314758   -0.187541
      2          6           0       -2.823370   -0.960706   -0.562875
      3          6           0       -1.968008   -2.005690   -0.577840
      4          6           0       -4.283123   -2.632216    0.096230
      5          1           0       -4.982514   -0.614375   -0.144756
      6         16           0       -2.799534   -3.482782   -0.101769
      7          1           0       -5.185620   -3.139623    0.393174
      8          6           0       -0.546068   -2.044522   -0.942317
      9         16           0       -0.041671   -1.829957   -2.618399
     10          6           0        1.627562   -2.000024   -2.168987
     11          6           0        1.759112   -2.206195   -0.820691
     12          6           0        0.504468   -2.229055   -0.121834
     13          1           0        0.413932   -2.284174    0.951493
     14         16           0        3.375662   -1.856022   -0.277120
     15          6           0        3.836784   -1.413023   -1.902098
     16          6           0        2.835244   -1.534835   -2.794469
     17          1           0        4.815068   -1.007928   -2.100430
     18          1           0        2.890010   -1.159016   -3.805336
     19          8           0       -2.388351    0.271546   -0.754330
     20          1           0       -3.029995    0.866355   -0.807106
 ---------------------------------------------------------------------
                    Distance matrix (angstroms):
                    1          2          3          4          5
     1  C    0.000000
     2  C    1.435177   0.000000
     3  C    2.333646   1.350503   0.000000
     4  C    1.353052   2.315004   2.491318   0.000000
     5  H    1.079187   2.226358   3.348218   2.149163   0.000000
     6  S    2.562343   2.563992   1.760648   1.721541   3.604859
     7  H    2.171165   3.352899   3.547069   1.077097   2.589884
     8  C    3.765828   2.550439   1.468422   3.922951   4.729004
     9  S    4.812115   3.566318   2.811678   5.099288   5.657603
    10  C    6.158048   4.844644   3.931909   6.361374   7.050577
    11  C    6.021800   4.755718   3.740401   6.126242   6.959907
    12  C    4.756224   3.588556   2.524078   4.809482   5.719675
    13  H    4.814737   3.811167   2.844301   4.786954   5.754269
    14  S    7.558188   6.269868   5.354217   7.707065   8.450935
    15  C    8.181645   6.808506   5.983354   8.450600   9.028073
    16  C    7.470887   6.109791   5.310967   7.760897   8.305755
    17  H    9.184312   7.791793   7.023099   9.499510   9.998607
    18  H    7.927915   6.572336   5.893549   8.297372   8.699029
    19  O    2.446534   1.320735   2.322421   3.570077   2.808223
    20  H    2.534538   1.854857   3.070670   3.824440   2.538424
                    6          7          8          9         10
     6  S    0.000000
     7  H    2.460921   0.000000
     8  C    2.802360   4.950578   0.000000
     9  S    4.083021   6.102868   1.763435   0.000000
    10  C    5.105991   7.367687   2.496271   1.737019   0.000000
    11  C    4.788296   7.111544   2.314041   2.572184   1.370297
    12  C    3.533930   5.785453   1.345686   2.586578   2.346195
    13  H    3.587810   5.691967   2.136715   3.627397   3.360213
    14  S    6.388281   8.682884   3.982208   4.142515   2.579873
    15  C    7.180933   9.468537   4.530934   3.966022   2.301404
    16  C    6.541853   8.778990   3.888896   2.897367   1.437401
    17  H    8.252376  10.525015   5.581893   4.952972   3.339033
    18  H    7.175459   9.314832   4.559345   3.233224   2.231302
    19  O    3.832738   4.558240   2.965386   3.660324   4.825852
    20  H    4.411984   4.704811   3.829018   4.413724   5.635928
                   11         12         13         14         15
    11  C    0.000000
    12  C    1.436334   0.000000
    13  H    2.226258   1.078548   0.000000
[...]
      1          6           0       -3.996905    0.344655    0.451315
      2          6           0       -2.624084    0.737201    0.620233
      3          6           0       -1.742528   -0.098699    0.023603
      4          6           0       -4.117573   -0.787392   -0.272228
      5          1           0       -4.832030    0.891416    0.863722
      6         16           0       -2.589995   -1.403801   -0.772879
      7          1           0       -5.028256   -1.296184   -0.539177
      8          6           0       -0.273658   -0.015376    0.000398
      9         16           0        0.534348    1.248332   -0.916505
     10          6           0        2.088058    0.618185   -0.468073
     11          6           0        1.960436   -0.490125    0.317346
     12          6           0        0.603070   -0.860284    0.588407
     13          1           0        0.298164   -1.699915    1.191385
     14         16           0        3.515197   -1.119512    0.771718
     15          6           0        4.309335    0.149701   -0.123394
     16          6           0        3.448684    0.996273   -0.725749
     17          1           0        5.385143    0.189517   -0.148102
     18          1           0        3.754346    1.840789   -1.321551
     19          8           0       -2.234904    1.825771    1.315729
     20          1           0       -2.979942    2.303065    1.639399
 ---------------------------------------------------------------------
 Rotational constants (GHZ):           1.3077720           0.2652104           0.2467663

 **********************************************************************

            Population analysis using the SCF Density.

 **********************************************************************

 Orbital symmetries:
       Occupied  (A) (A) (A) (A) (A) (A) (A) (A) (A) (A) (A) (A)
                 (A) (A) (A) (A) (A) (A) (A) (A) (A) (A) (A) (A)
                 (A) (A) (A) (A) (A) (A) (A) (A) (A) (A) (A) (A)
                 (A) (A) (A) (A) (A) (A) (A) (A) (A) (A) (A) (A)
                 (A) (A) (A) (A) (A) (A) (A) (A) (A) (A) (A) (A)
                 (A)
       Virtual   (A) (A) (A) (A) (A) (A) (A) (A) (A) (A) (A) (A)
                 (A) (A) (A) (A) (A) (A) (A) (A) (A) (A) (A) (A)
                 (A) (A) (A) (A) (A) (A) (A) (A) (A) (A) (A) (A)
                 (A) (A) (A) (A) (A) (A) (A) (A) (A) (A) (A) (A)
                 (A) (A) (A) (A) (A) (A) (A) (A) (A) (A) (A) (A)
                 (A) (A) (A) (A) (A) (A) (A) (A) (A) (A) (A) (A)
                 (A) (A) (A) (A) (A) (A) (A) (A) (A) (A) (A) (A)
                 (A) (A) (A) (A) (A) (A) (A) (A) (A) (A) (A) (A)
                 (A) (A) (A) (A) (A) (A) (A) (A) (A) (A) (A) (A)
                 (A) (A) (A) (A) (A) (A) (A) (A) (A) (A) (A) (A)
                 (A) (A) (A) (A) (A) (A) (A) (A) (A) (A) (A) (A)
                 (A) (A) (A) (A) (A) (A) (A) (A) (A) (A) (A) (A)
                 (A) (A) (A) (A) (A) (A) (A) (A) (A) (A) (A) (A)
                 (A) (A) (A) (A) (A) (A) (A) (A) (A) (A) (A) (A)
                 (A) (A) (A) (A) (A) (A) (A) (A) (A) (A) (A) (A)
                 (A) (A) (A) (A) (A) (A) (A) (A) (A) (A) (A) (A)
                 (A) (A) (A) (A) (A) (A) (A) (A) (A) (A) (A) (A)
                 (A) (A) (A) (A) (A) (A) (A) (A) (A) (A) (A) (A)
                 (A) (A) (A) (A) (A) (A) (A) (A) (A) (A) (A) (A)
                 (A) (A) (A) (A) (A) (A) (A) (A) (A) (A) (A) (A)
                 (A) (A) (A) (A) (A) (A) (A) (A) (A) (A) (A) (A)
                 (A) (A) (A) (A) (A) (A) (A) (A) (A) (A) (A) (A)
                 (A) (A) (A) (A) (A) (A) (A) (A) (A) (A) (A) (A)
                 (A) (A) (A) (A) (A) (A) (A) (A) (A) (A) (A) (A)
                 (A) (A) (A) (A) (A) (A) (A) (A) (A) (A) (A) (A)
                 (A) (A) (A) (A) (A) (A) (A) (A) (A) (A) (A) (A)
                 (A) (A) (A) (A) (A) (A) (A) (A) (A) (A) (A) (A)
                 (A) (A) (A)
 The electronic state is 1-A.
 Alpha  occ. eigenvalues --  -91.99022 -91.98635 -91.98372 -20.60939 -11.31771
 Alpha  occ. eigenvalues --  -11.28461 -11.28372 -11.27410 -11.26913 -11.26830
 Alpha  occ. eigenvalues --  -11.26678 -11.25503 -11.25413 -11.25329  -8.99209
 Alpha  occ. eigenvalues --   -8.98819  -8.98539  -6.67375  -6.67282  -6.67084
 Alpha  occ. eigenvalues --   -6.66986  -6.66908  -6.66702  -6.66701  -6.66620
 Alpha  occ. eigenvalues --   -6.66412  -1.42979  -1.21271  -1.18426  -1.12587
 Alpha  occ. eigenvalues --   -1.02848  -1.01994  -0.98641  -0.95688  -0.94190
 Alpha  occ. eigenvalues --   -0.82564  -0.81178  -0.77049  -0.75071  -0.71893
 Alpha  occ. eigenvalues --   -0.69816  -0.66807  -0.66481  -0.62014  -0.61012
 Alpha  occ. eigenvalues --   -0.58533  -0.56384  -0.56056  -0.53730  -0.53194
 Alpha  occ. eigenvalues --   -0.52660  -0.50754  -0.49344  -0.48532  -0.45984
 Alpha  occ. eigenvalues --   -0.45753  -0.38382  -0.35042  -0.32903  -0.31729
 Alpha  occ. eigenvalues --   -0.29486
 Alpha virt. eigenvalues --    0.02783   0.03710   0.03992   0.04936   0.05099
 Alpha virt. eigenvalues --    0.06244   0.07957   0.08469   0.08704   0.08925
 Alpha virt. eigenvalues --    0.10000   0.10325   0.10464   0.10824   0.11324
 Alpha virt. eigenvalues --    0.12334   0.12583   0.12765   0.13026   0.13406
 Alpha virt. eigenvalues --    0.13935   0.14191   0.14441   0.14651   0.14843
 Alpha virt. eigenvalues --    0.15304   0.15777   0.16303   0.16679   0.16952
 Alpha virt. eigenvalues --    0.17258   0.18146   0.18464   0.18615   0.19327
 Alpha virt. eigenvalues --    0.19375   0.19909   0.20581   0.21317   0.21700
 Alpha virt. eigenvalues --    0.21784   0.22340   0.22981   0.23057   0.23436
 Alpha virt. eigenvalues --    0.23851   0.24759   0.24800   0.25365   0.25779
 Alpha virt. eigenvalues --    0.26229   0.27298   0.27308   0.27776   0.28125
 Alpha virt. eigenvalues --    0.29032   0.29624   0.30708   0.31104   0.31629
 Alpha virt. eigenvalues --    0.32000   0.32113   0.32796   0.32852   0.33333
 Alpha virt. eigenvalues --    0.33934   0.34869   0.35074   0.35883   0.36091
 Alpha virt. eigenvalues --    0.36287   0.37365   0.37670   0.38827   0.39159
 Alpha virt. eigenvalues --    0.40310   0.40723   0.40849   0.41691   0.42469
 Alpha virt. eigenvalues --    0.43117   0.43920   0.44910   0.45388   0.45709
 Alpha virt. eigenvalues --    0.46111   0.46657   0.46796   0.47601   0.48758
 Alpha virt. eigenvalues --    0.49718   0.49905   0.50882   0.51523   0.52064
 Alpha virt. eigenvalues --    0.53192   0.53741   0.54188   0.54962   0.55351
 Alpha virt. eigenvalues --    0.55672   0.57255   0.58676   0.58899   0.59543
 Alpha virt. eigenvalues --    0.60112   0.60856   0.60975   0.61789   0.62328
 Alpha virt. eigenvalues --    0.62934   0.63570   0.64646   0.65279   0.65608
 Alpha virt. eigenvalues --    0.66439   0.67075   0.67794   0.68199   0.68346
 Alpha virt. eigenvalues --    0.69184   0.69708   0.70014   0.70549   0.71083
 Alpha virt. eigenvalues --    0.71697   0.72230   0.72993   0.73307   0.74134
 Alpha virt. eigenvalues --    0.74268   0.74927   0.75532   0.76089   0.76651
 Alpha virt. eigenvalues --    0.78206   0.78359   0.79177   0.79278   0.79907
 Alpha virt. eigenvalues --    0.80654   0.81729   0.83267   0.83849   0.84598
 Alpha virt. eigenvalues --    0.84944   0.85471   0.86886   0.87152   0.87541
 Alpha virt. eigenvalues --    0.87956   0.89061   0.89539   0.90454   0.90933
 Alpha virt. eigenvalues --    0.91241   0.92512   0.93312   0.94315   0.95411
 Alpha virt. eigenvalues --    0.95887   0.95906   0.96747   0.97829   0.98554
 Alpha virt. eigenvalues --    0.99710   1.00242   1.00445   1.01199   1.02461
 Alpha virt. eigenvalues --    1.03820   1.05087   1.05895   1.06667   1.07907
 Alpha virt. eigenvalues --    1.09388   1.10163   1.10716   1.11625   1.12202
 Alpha virt. eigenvalues --    1.14108   1.14671   1.16862   1.18076   1.18463
 Alpha virt. eigenvalues --    1.18817   1.22033   1.22727   1.23232   1.24058
 Alpha virt. eigenvalues --    1.24172   1.25398   1.25579   1.26320   1.27351
 Alpha virt. eigenvalues --    1.28458   1.29646   1.30110   1.31539   1.32620
 Alpha virt. eigenvalues --    1.33726   1.34490   1.35506   1.36199   1.36967
 Alpha virt. eigenvalues --    1.38337   1.39947   1.40137   1.41129   1.42466
 Alpha virt. eigenvalues --    1.44398   1.44796   1.45163   1.46976   1.48558
 Alpha virt. eigenvalues --    1.50161   1.52948   1.55363   1.55846   1.56279
 Alpha virt. eigenvalues --    1.58175   1.59008   1.59284   1.60432   1.61125
 Alpha virt. eigenvalues --    1.61938   1.63927   1.64865   1.66026   1.67186
 Alpha virt. eigenvalues --    1.67999   1.68799   1.69853   1.71194   1.71371
 Alpha virt. eigenvalues --    1.73863   1.74683   1.75352   1.76807   1.77504
 Alpha virt. eigenvalues --    1.78109   1.80345   1.81161   1.82861   1.83352
 Alpha virt. eigenvalues --    1.85404   1.87714   1.89265   1.89833   1.90858
 Alpha virt. eigenvalues --    1.91155   1.92069   1.94664   1.95502   1.97649
 Alpha virt. eigenvalues --    1.98096   2.00614   2.03379   2.04754   2.05007
 Alpha virt. eigenvalues --    2.05977   2.06278   2.07874   2.08620   2.09764
 Alpha virt. eigenvalues --    2.10787   2.12602   2.13430   2.14053   2.15379
 Alpha virt. eigenvalues --    2.16131   2.19927   2.21048   2.21690   2.22752
 Alpha virt. eigenvalues --    2.24427   2.25421   2.26661   2.28769   2.30307
 Alpha virt. eigenvalues --    2.32183   2.33759   2.34809   2.35759   2.37134
 Alpha virt. eigenvalues --    2.38372   2.41210   2.44280   2.44930   2.47816
 Alpha virt. eigenvalues --    2.48383   2.48866   2.49891   2.51507   2.53139
 Alpha virt. eigenvalues --    2.56542   2.57480   2.60482   2.61576   2.65810
 Alpha virt. eigenvalues --    2.74998   2.81796   2.84154   2.85941   2.88083
 Alpha virt. eigenvalues --    2.91687   2.94153   2.97478   3.00432   3.03557
 Alpha virt. eigenvalues --    3.11151   3.19382   3.24476   3.26208   3.34473
 Alpha virt. eigenvalues --    3.42900   3.52386   3.55367   3.66218   3.75882
 Alpha virt. eigenvalues --    3.77712   3.80483   3.88201   3.89600   4.24169
 Alpha virt. eigenvalues --    4.27203   4.48827
          Condensed to atoms (all electrons):
               1          2          3          4          5          6
     1  C    7.544274  -1.885039  -0.029327   0.096703  -0.166780  -0.474579
     2  C   -1.885039  10.430058  -2.290572   0.475591   0.189449  -0.374512
     3  C   -0.029327  -2.290572  10.776303  -1.172050  -0.042994   0.128569
     4  C    0.096703   0.475591  -1.172050   6.369655  -0.013112   0.377274
     5  H   -0.166780   0.189449  -0.042994  -0.013112   1.656709  -0.017097
     6  S   -0.474579  -0.374512   0.128569   0.377274  -0.017097  16.309533
     7  H    0.023408   0.027109   0.057467   0.195871  -0.066900  -0.161293
     8  C    0.406169  -0.085164  -1.449010   0.145116   0.007782  -0.632524
     9  S    0.006598   0.327240  -0.532900  -0.000263   0.002952  -0.091572
    10  C   -0.006190   0.067052  -0.334583   0.014320   0.000271   0.009190
    11  C   -0.028898   0.088498   0.333437  -0.001997   0.000056   0.052522
    12  C   -0.070767  -0.794020   0.197630  -0.122122  -0.009917   0.473036
    13  H   -0.014993   0.114635  -0.032305   0.011730  -0.000938   0.008601
    14  S    0.002151  -0.014624  -0.053501  -0.002536   0.000130  -0.000151
    15  C   -0.002210   0.006729   0.027694   0.000426  -0.000123  -0.002645
    16  C    0.003053   0.007025  -0.342343  -0.002540  -0.000036   0.003102
    17  H   -0.000101   0.000591  -0.000738   0.000006  -0.000006  -0.000059
    18  H    0.000534  -0.000243  -0.008749  -0.000277   0.000042   0.000087
    19  O    0.159221  -0.822101   0.347403  -0.106785  -0.072447   0.002219
    20  H   -0.122837   0.015589  -0.066624  -0.011586  -0.012646   0.017906
               7          8          9         10         11         12
     1  C    0.023408   0.406169   0.006598  -0.006190  -0.028898  -0.070767
     2  C    0.027109  -0.085164   0.327240   0.067052   0.088498  -0.794020
     3  C    0.057467  -1.449010  -0.532900  -0.334583   0.333437   0.197630
     4  C    0.195871   0.145116  -0.000263   0.014320  -0.001997  -0.122122
     5  H   -0.066900   0.007782   0.002952   0.000271   0.000056  -0.009917
     6  S   -0.161293  -0.632524  -0.091572   0.009190   0.052522   0.473036
     7  H    1.254797   0.000317  -0.001145   0.000064   0.000618   0.004272
     8  C    0.000317  12.676533   0.332199  -0.088239  -0.814361  -4.540404
     9  S   -0.001145   0.332199  16.555221   0.190195  -0.446384  -0.635837
    10  C    0.000064  -0.088239   0.190195  10.840237  -0.595070  -1.565446
    11  C    0.000618  -0.814361  -0.446384  -0.595070  12.344296  -3.081092
    12  C    0.004272  -4.540404  -0.635837  -1.565446  -3.081092  16.952973
    13  H    0.001347   0.301408   0.033147  -0.097018   0.719447  -1.225950
    14  S   -0.000162  -0.275388   0.100934   0.013233  -0.303823  -0.002193
    15  C    0.000038   0.062432  -0.087670  -0.095444  -0.991526  -0.141775
    16  C   -0.000135  -0.539416  -0.173803  -2.234500  -1.072665   0.383077
    17  H    0.000003   0.006197   0.008918   0.084071  -0.055569   0.024451
    18  H   -0.000019   0.107439   0.009258   0.537345   0.076453  -0.065653
    19  O   -0.001745  -0.021762   0.000491   0.013682  -0.021073   0.090859
    20  H    0.001150   0.028728  -0.003950   0.002478   0.001383  -0.008479
              13         14         15         16         17         18
     1  C   -0.014993   0.002151  -0.002210   0.003053  -0.000101   0.000534
     2  C    0.114635  -0.014624   0.006729   0.007025   0.000591  -0.000243
     3  C   -0.032305  -0.053501   0.027694  -0.342343  -0.000738  -0.008749
     4  C    0.011730  -0.002536   0.000426  -0.002540   0.000006  -0.000277
     5  H   -0.000938   0.000130  -0.000123  -0.000036  -0.000006   0.000042
     6  S    0.008601  -0.000151  -0.002645   0.003102  -0.000059   0.000087
     7  H    0.001347  -0.000162   0.000038  -0.000135   0.000003  -0.000019
     8  C    0.301408  -0.275388   0.062432  -0.539416   0.006197   0.107439
     9  S    0.033147   0.100934  -0.087670  -0.173803   0.008918   0.009258
    10  C   -0.097018   0.013233  -0.095444  -2.234500   0.084071   0.537345
    11  C    0.719447  -0.303823  -0.991526  -1.072665  -0.055569   0.076453
    12  C   -1.225950  -0.002193  -0.141775   0.383077   0.024451  -0.065653
    13  H    1.705958  -0.040468   0.018203  -0.041882   0.001628  -0.001459
    14  S   -0.040468  15.955461   0.190284  -0.037571  -0.157693  -0.005691
    15  C    0.018203   0.190284   6.917170   0.117618   0.197525  -0.126273
    16  C   -0.041882  -0.037571   0.117618   9.896553   0.043420  -0.564599
    17  H    0.001628  -0.157693   0.197525   0.043420   1.293422  -0.069202
    18  H   -0.001459  -0.005691  -0.126273  -0.564599  -0.069202   1.432531
    19  O   -0.003049   0.001078  -0.000135  -0.002273  -0.000025   0.000238
    20  H    0.001315  -0.000384   0.000284   0.001027   0.000014  -0.000034
              19         20
     1  C    0.159221  -0.122837
     2  C   -0.822101   0.015589
     3  C    0.347403  -0.066624
     4  C   -0.106785  -0.011586
     5  H   -0.072447  -0.012646
     6  S    0.002219   0.017906
     7  H   -0.001745   0.001150
     8  C   -0.021762   0.028728
     9  S    0.000491  -0.003950
    10  C    0.013682   0.002478
    11  C   -0.021073   0.001383
    12  C    0.090859  -0.008479
    13  H   -0.003049   0.001315
    14  S    0.001078  -0.000384
    15  C   -0.000135   0.000284
    16  C   -0.002273   0.001027
    17  H   -0.000025   0.000014
    18  H    0.000238  -0.000034
    19  O    9.026944   0.364745
    20  H    0.364745   0.624502
 Mulliken charges:
               1
     1  C    0.559610
     2  C    0.516708
     3  C    0.487192
     4  C   -0.253422
     5  H   -0.454395
     6  S    0.372392
     7  H   -0.335060
     8  C    0.371950
     9  S    0.406372
    10  C   -0.755648
    11  C   -0.204251
    12  C    0.137356
    13  H   -0.459356
    14  S    0.630915
    15  C   -0.090603
    16  C    0.556888
    17  H   -0.376854
    18  H   -0.321728
    19  O   -0.955486
    20  H    0.167419
 Sum of Mulliken charges =  -0.00000
 Mulliken charges with hydrogens summed into heavy atoms:
               1
     1  C    0.105216
     2  C    0.516708
     3  C    0.487192
     4  C   -0.588482
     6  S    0.372392
     8  C    0.371950
     9  S    0.406372
    10  C   -0.755648
    11  C   -0.204251
    12  C   -0.322000
    14  S    0.630915
    15  C   -0.467457
    16  C    0.235160
    19  O   -0.788067
 Electronic spatial extent (au):  <R**2>=           4301.8785
 Charge=              0.0000 electrons
 Dipole moment (field-independent basis, Debye):
    X=             -2.2598    Y=              0.8923    Z=              0.6699  Tot=              2.5202
 Quadrupole moment (field-independent basis, Debye-Ang):
   XX=            -76.4775   YY=           -100.4140   ZZ=           -105.7170
   XY=             -0.7935   XZ=             -6.5828   YZ=             -0.1180
 Traceless Quadrupole moment (field-independent basis, Debye-Ang):
   XX=             17.7253   YY=             -6.2112   ZZ=            -11.5141
   XY=             -0.7935   XZ=             -6.5828   YZ=             -0.1180
 Octapole moment (field-independent basis, Debye-Ang**2):
  XXX=            -51.6047  YYY=             17.3923  ZZZ=              9.9634  XYY=            -20.1683
  XXY=             32.5018  XXZ=              6.3453  XZZ=            -10.8665  YZZ=              8.0049
  YYZ=              6.4338  XYZ=            -25.9303
 Hexadecapole moment (field-independent basis, Debye-Ang**3):
 XXXX=          -3969.2188 YYYY=           -760.8479 ZZZZ=           -443.8935 XXXY=              5.3844
 XXXZ=            -98.5192 YYYX=            -41.6496 YYYZ=             20.7435 ZZZX=            -32.3815
 ZZZY=             16.3406 XXYY=           -860.2154 XXZZ=           -889.8197 YYZZ=           -178.6923
 XXYZ=             53.7716 YYXZ=            -38.5530 ZZXY=            -20.8458
 N-N= 1.126956875542D+03 E-N=-6.161375854205D+03  KE= 1.649563879460D+03
 Unable to Open any file for archive entry.
 1\1\GINC-CX3-5-14\FOpt\RHF\Aug-CC-pVDZ\C10H6O1S3\NS5018\25-Oct-2021\0\
 \# opt=modredundant hf/aug-cc-pvdz\\pBTTT_-70.pdb\\0,1\C,-4.2049411672
 ,-1.4001854988,-0.1661698263\C,-2.8937292991,-0.9532994312,-0.55124045
 27\C,-1.9707883617,-1.942658214,-0.5856983652\C,-4.2382486739,-2.72524
 57167,0.0842531507\H,-5.0603691016,-0.7463638451,-0.0811926357\S,-2.70
 15283295,-3.4676328949,-0.1425906064\H,-5.0889134024,-3.3089487524,0.3
 926926266\C,-0.5412222879,-1.84977991,-0.9215172862\S,-0.0314099656,-1
 .5219220371,-2.5717122914\C,1.6372267985,-1.6279099476,-2.1062959643\C
 ,1.7593306498,-1.909345716,-0.7768580959\C,0.5083717391,-2.0400427094,
 -0.0905971674\H,0.3970172878,-2.2545911775,0.9596881086\S,3.4295415297
 ,-2.0107021278,-0.3078318045\C,3.9273108167,-1.6644408837,-1.943408747
 7\C,2.8917066519,-1.4821958786,-2.7887167508\H,4.976573223,-1.61719390
 6,-2.1808427676\H,3.0038805793,-1.2591651977,-3.8371878067\O,-2.593162
 3376,0.3295552606,-0.8412459552\H,-3.3596463495,0.8750685838,-0.790527
 3618\\Version=ES64L-G16RevC.01\State=1-A\HF=-1649.6416785\RMSD=6.023e-
 09\RMSF=1.937e-04\Dipole=-0.8963119,0.407505,0.1169857\Quadrupole=11.6
 538801,-6.7549713,-4.8989088,-3.4380774,-6.4583161,-1.4815137\PG=C01 [
 X(C10H6O1S3)]\\@
 The archive entry for this job was punched.


 READER, WHETHER YOU BE DILETTANTE OR PROFESSOR ... SHOW YOURSELF TO BE
 MORE HUMAN THAN CRITICAL, AND THEN YOUR PLEASURE WILL INCREASE.
                                           -- DOMENICO SCARLATTI (1738)
 Job cpu time:       0 days  5 hours  6 minutes 43.5 seconds.
 Elapsed time:       0 days  0 hours 38 minutes 36.5 seconds.
 File lengths (MBytes):  RWF=     95 Int=      0 D2E=      0 Chk=     12 Scr=      1
 Normal termination of Gaussian 16 at Mon Oct 25 22:57:58 2021.
