 Entering Gaussian System, Link 0=g16
 Input=pBTTT_15.gjf
 Output=pBTTT_15.log
 Initial command:
 /apps/gaussian/g16-c01-avx/g16/l1.exe "/tmp/pbs.4762170[190].pbs/Gau-2518341.inp" -scrdir="/tmp/pbs.4762170[190].pbs/"
 Entering Link 1 = /apps/gaussian/g16-c01-avx/g16/l1.exe PID=   2518342.
  
 Copyright (c) 1988-2019, Gaussian, Inc.  All Rights Reserved.
  
 This is part of the Gaussian(R) 16 program.  It is based on
 the Gaussian(R) 09 system (copyright 2009, Gaussian, Inc.),
 the Gaussian(R) 03 system (copyright 2003, Gaussian, Inc.),
 the Gaussian(R) 98 system (copyright 1998, Gaussian, Inc.),
 the Gaussian(R) 94 system (copyright 1995, Gaussian, Inc.),
 the Gaussian 92(TM) system (copyright 1992, Gaussian, Inc.),
 the Gaussian 90(TM) system (copyright 1990, Gaussian, Inc.),
 the Gaussian 88(TM) system (copyright 1988, Gaussian, Inc.),
 the Gaussian 86(TM) system (copyright 1986, Carnegie Mellon
 University), and the Gaussian 82(TM) system (copyright 1983,
 Carnegie Mellon University). Gaussian is a federally registered
 trademark of Gaussian, Inc.
  
 This software contains proprietary and confidential information,
 including trade secrets, belonging to Gaussian, Inc.
  
 This software is provided under written license and may be
 used, copied, transmitted, or stored only in accord with that
 written license.
  
 The following legend is applicable only to US Government
 contracts under FAR:
  
                    RESTRICTED RIGHTS LEGEND
  
 Use, reproduction and disclosure by the US Government is
 subject to restrictions as set forth in subparagraphs (a)
 and (c) of the Commercial Computer Software - Restricted
 Rights clause in FAR 52.227-19.
  
 Gaussian, Inc.
 340 Quinnipiac St., Bldg. 40, Wallingford CT 06492
  
  
 ---------------------------------------------------------------
 Warning -- This program may not be used in any manner that
 competes with the business of Gaussian, Inc. or will provide
 assistance to any competitor of Gaussian, Inc.  The licensee
 of this program is prohibited from giving any competitor of
 Gaussian, Inc. access to this program.  By using this program,
 the user acknowledges that Gaussian, Inc. is engaged in the
 business of creating and licensing software in the field of
 computational chemistry and represents and warrants to the
 licensee that it is not a competitor of Gaussian, Inc. and that
 it will not use this program in any manner prohibited above.
 ---------------------------------------------------------------
  

 Cite this work as:
 Gaussian 16, Revision C.01,
 M. J. Frisch, G. W. Trucks, H. B. Schlegel, G. E. Scuseria, 
 M. A. Robb, J. R. Cheeseman, G. Scalmani, V. Barone, 
 G. A. Petersson, H. Nakatsuji, X. Li, M. Caricato, A. V. Marenich, 
 J. Bloino, B. G. Janesko, R. Gomperts, B. Mennucci, H. P. Hratchian, 
 J. V. Ortiz, A. F. Izmaylov, J. L. Sonnenberg, D. Williams-Young, 
 F. Ding, F. Lipparini, F. Egidi, J. Goings, B. Peng, A. Petrone, 
 T. Henderson, D. Ranasinghe, V. G. Zakrzewski, J. Gao, N. Rega, 
 G. Zheng, W. Liang, M. Hada, M. Ehara, K. Toyota, R. Fukuda, 
 J. Hasegawa, M. Ishida, T. Nakajima, Y. Honda, O. Kitao, H. Nakai, 
 T. Vreven, K. Throssell, J. A. Montgomery, Jr., J. E. Peralta, 
 F. Ogliaro, M. J. Bearpark, J. J. Heyd, E. N. Brothers, K. N. Kudin, 
 V. N. Staroverov, T. A. Keith, R. Kobayashi, J. Normand, 
 K. Raghavachari, A. P. Rendell, J. C. Burant, S. S. Iyengar, 
 J. Tomasi, M. Cossi, J. M. Millam, M. Klene, C. Adamo, R. Cammi, 
 J. W. Ochterski, R. L. Martin, K. Morokuma, O. Farkas, 
 J. B. Foresman, and D. J. Fox, Gaussian, Inc., Wallingford CT, 2019.
 
 ******************************************
 Gaussian 16:  ES64L-G16RevC.01  3-Jul-2019
                25-Oct-2021 
 ******************************************
 %mem=100GB
 %nprocshared=8
 Will use up to    8 processors via shared memory.
 ---------------------------------
 # opt=modredundant hf/aug-cc-pvdz
 ---------------------------------
 1/18=120,19=15,38=1/1,3;
 2/9=110,12=2,17=6,18=5,40=1/2;
 3/5=16,7=10,11=9,25=1,30=1,71=1/1,2,3;
 4//1;
 5/5=2,38=5/2;
 6/7=2,8=2,9=2,10=2,28=1/1;
 7//1,2,3,16;
 1/18=20,19=15/3(2);
 2/9=110/2;
 99//99;
 2/9=110/2;
 3/5=16,7=10,11=9,25=1,30=1,71=1/1,2,3;
 4/5=5,16=3,69=1/1;
 5/5=2,38=5/2;
 7//1,2,3,16;
 1/18=20,19=15/3(-5);
 2/9=110/2;
 6/7=2,8=2,9=2,10=2,19=2,28=1/1;
 99/9=1/99;
 ------------
 pBTTT_15.pdb
 ------------
 Symbolic Z-matrix:
 Charge =  0 Multiplicity = 1
 C                    -4.25     -1.36     -0.21 
 C                    -2.93     -0.95     -0.61 
 C                    -1.97     -2.05     -0.62 
 C                    -4.33     -2.76      0.1 
 H                    -5.1      -0.7      -0.14 
 S                    -2.8      -3.56     -0.11 
 H                    -5.23     -3.27      0.41 
 C                    -0.56     -2.13     -0.97 
 S                     0.459    -0.668    -1.14 
 C                     1.868    -1.593    -1.529 
 C                     1.615    -3.012    -1.513 
 C                     0.257    -3.326    -1.184 
 H                    -0.077    -4.329    -0.965 
 S                     3.04     -3.941    -1.184 
 C                     4.018    -2.475    -1.072 
 C                     3.233    -1.277    -1.264 
 H                     5.038    -2.486    -0.714 
 H                     3.583    -0.292    -0.966 
 O                    -2.4       0.49     -0.72 
 H                    -2.92      1.52     -0.76 
 
 Add virtual bond connecting atoms H20        and O19        Dist= 2.18D+00.
 The following ModRedundant input section has been read:
 D       2       3       8       9 F                                           
 

 GradGradGradGradGradGradGradGradGradGradGradGradGradGradGradGradGradGrad
 Berny optimization.
 Initialization pass.
                           ----------------------------
                           !    Initial Parameters    !
                           ! (Angstroms and Degrees)  !
 --------------------------                            --------------------------
 ! Name  Definition              Value          Derivative Info.                !
 --------------------------------------------------------------------------------
 ! R1    R(1,2)                  1.4389         estimate D2E/DX2                !
 ! R2    R(1,4)                  1.4361         estimate D2E/DX2                !
 ! R3    R(1,5)                  1.0784         estimate D2E/DX2                !
 ! R4    R(2,3)                  1.46           estimate D2E/DX2                !
 ! R5    R(2,19)                 1.5384         estimate D2E/DX2                !
 ! R6    R(3,6)                  1.797          estimate D2E/DX2                !
 ! R7    R(3,8)                  1.455          estimate D2E/DX2                !
 ! R8    R(4,6)                  1.7393         estimate D2E/DX2                !
 ! R9    R(4,7)                  1.0799         estimate D2E/DX2                !
 ! R10   R(8,9)                  1.7902         estimate D2E/DX2                !
 ! R11   R(8,12)                 1.4641         estimate D2E/DX2                !
 ! R12   R(9,10)                 1.7298         estimate D2E/DX2                !
 ! R13   R(10,11)                1.4415         estimate D2E/DX2                !
 ! R14   R(10,16)                1.4259         estimate D2E/DX2                !
 ! R15   R(11,12)                1.4321         estimate D2E/DX2                !
 ! R16   R(11,14)                1.7326         estimate D2E/DX2                !
 ! R17   R(12,13)                1.0796         estimate D2E/DX2                !
 ! R18   R(14,15)                1.7658         estimate D2E/DX2                !
 ! R19   R(15,16)                1.4451         estimate D2E/DX2                !
 ! R20   R(15,17)                1.0811         estimate D2E/DX2                !
 ! R21   R(16,18)                1.087          estimate D2E/DX2                !
 ! R22   R(19,20)                1.1545         estimate D2E/DX2                !
 ! A1    A(2,1,4)              112.8843         estimate D2E/DX2                !
 ! A2    A(2,1,5)              124.5209         estimate D2E/DX2                !
 ! A3    A(4,1,5)              122.5942         estimate D2E/DX2                !
 ! A4    A(1,2,3)              112.9799         estimate D2E/DX2                !
 ! A5    A(1,2,19)             127.059          estimate D2E/DX2                !
 ! A6    A(3,2,19)             118.5686         estimate D2E/DX2                !
 ! A7    A(2,3,6)              109.1138         estimate D2E/DX2                !
 ! A8    A(2,3,8)              132.8639         estimate D2E/DX2                !
 ! A9    A(6,3,8)              118.0132         estimate D2E/DX2                !
 ! A10   A(1,4,6)              111.9209         estimate D2E/DX2                !
 ! A11   A(1,4,7)              124.6643         estimate D2E/DX2                !
 ! A12   A(6,4,7)              123.4062         estimate D2E/DX2                !
 ! A13   A(3,6,4)               93.0997         estimate D2E/DX2                !
 ! A14   A(3,8,9)              121.9756         estimate D2E/DX2                !
 ! A15   A(3,8,12)             128.3764         estimate D2E/DX2                !
 ! A16   A(9,8,12)             109.6096         estimate D2E/DX2                !
 ! A17   A(8,9,10)              92.7682         estimate D2E/DX2                !
 ! A18   A(9,10,11)            112.3923         estimate D2E/DX2                !
 ! A19   A(9,10,16)            128.2749         estimate D2E/DX2                !
 ! A20   A(11,10,16)           112.5883         estimate D2E/DX2                !
 ! A21   A(10,11,12)           112.6324         estimate D2E/DX2                !
 ! A22   A(10,11,14)           112.68           estimate D2E/DX2                !
 ! A23   A(12,11,14)           128.2217         estimate D2E/DX2                !
 ! A24   A(8,12,11)            112.5569         estimate D2E/DX2                !
 ! A25   A(8,12,13)            123.8227         estimate D2E/DX2                !
 ! A26   A(11,12,13)           122.9331         estimate D2E/DX2                !
 ! A27   A(11,14,15)            91.2845         estimate D2E/DX2                !
 ! A28   A(14,15,16)           112.2694         estimate D2E/DX2                !
 ! A29   A(14,15,17)           122.3521         estimate D2E/DX2                !
 ! A30   A(16,15,17)           124.4003         estimate D2E/DX2                !
 ! A31   A(10,16,15)           111.1603         estimate D2E/DX2                !
 ! A32   A(10,16,18)           124.0556         estimate D2E/DX2                !
 ! A33   A(15,16,18)           122.6766         estimate D2E/DX2                !
 ! A34   A(2,19,20)            133.0318         estimate D2E/DX2                !
 ! D1    D(4,1,2,3)              0.3915         estimate D2E/DX2                !
 ! D2    D(4,1,2,19)          -165.8104         estimate D2E/DX2                !
 ! D3    D(5,1,2,3)           -179.8811         estimate D2E/DX2                !
 ! D4    D(5,1,2,19)            13.9169         estimate D2E/DX2                !
 ! D5    D(2,1,4,6)             -0.3845         estimate D2E/DX2                !
 ! D6    D(2,1,4,7)           -179.3471         estimate D2E/DX2                !
 ! D7    D(5,1,4,6)            179.8822         estimate D2E/DX2                !
 ! D8    D(5,1,4,7)              0.9196         estimate D2E/DX2                !
 ! D9    D(1,2,3,6)             -0.2224         estimate D2E/DX2                !
 ! D10   D(1,2,3,8)            178.6265         estimate D2E/DX2                !
 ! D11   D(19,2,3,6)           167.2616         estimate D2E/DX2                !
 ! D12   D(19,2,3,8)           -13.8895         estimate D2E/DX2                !
 ! D13   D(1,2,19,20)          -16.0519         estimate D2E/DX2                !
 ! D14   D(3,2,19,20)          178.4264         estimate D2E/DX2                !
 ! D15   D(2,3,6,4)              0.0033         estimate D2E/DX2                !
 ! D16   D(8,3,6,4)           -179.041          estimate D2E/DX2                !
 ! D17   D(2,3,8,9)             14.9881         Frozen                          !
 ! D18   D(2,3,8,12)          -167.5081         estimate D2E/DX2                !
 ! D19   D(6,3,8,9)           -166.244          estimate D2E/DX2                !
 ! D20   D(6,3,8,12)            11.2598         estimate D2E/DX2                !
 ! D21   D(1,4,6,3)              0.2153         estimate D2E/DX2                !
 ! D22   D(7,4,6,3)            179.1932         estimate D2E/DX2                !
 ! D23   D(3,8,9,10)           179.779          estimate D2E/DX2                !
 ! D24   D(12,8,9,10)            1.8562         estimate D2E/DX2                !
 ! D25   D(3,8,12,11)         -179.8199         estimate D2E/DX2                !
 ! D26   D(3,8,12,13)           -9.094          estimate D2E/DX2                !
 ! D27   D(9,8,12,11)           -2.0676         estimate D2E/DX2                !
 ! D28   D(9,8,12,13)          168.6583         estimate D2E/DX2                !
 ! D29   D(8,9,10,11)           -1.2087         estimate D2E/DX2                !
 ! D30   D(8,9,10,16)         -149.8885         estimate D2E/DX2                !
 ! D31   D(9,10,11,12)           0.2085         estimate D2E/DX2                !
 ! D32   D(9,10,11,14)        -154.0464         estimate D2E/DX2                !
 ! D33   D(16,10,11,12)        153.9777         estimate D2E/DX2                !
 ! D34   D(16,10,11,14)         -0.2772         estimate D2E/DX2                !
 ! D35   D(9,10,16,15)         149.7304         estimate D2E/DX2                !
 ! D36   D(9,10,16,18)         -14.0934         estimate D2E/DX2                !
 ! D37   D(11,10,16,15)          1.1            estimate D2E/DX2                !
 ! D38   D(11,10,16,18)       -162.7238         estimate D2E/DX2                !
 ! D39   D(10,11,12,8)           1.2344         estimate D2E/DX2                !
 ! D40   D(10,11,12,13)       -169.5868         estimate D2E/DX2                !
 ! D41   D(14,11,12,8)         150.561          estimate D2E/DX2                !
 ! D42   D(14,11,12,13)        -20.2601         estimate D2E/DX2                !
 ! D43   D(10,11,14,15)         -0.476          estimate D2E/DX2                !
 ! D44   D(12,11,14,15)       -149.7909         estimate D2E/DX2                !
 ! D45   D(11,14,15,16)          1.107          estimate D2E/DX2                !
 ! D46   D(11,14,15,17)        170.2455         estimate D2E/DX2                !
 ! D47   D(14,15,16,10)         -1.4533         estimate D2E/DX2                !
 ! D48   D(14,15,16,18)        162.6317         estimate D2E/DX2                !
 ! D49   D(17,15,16,10)       -170.3298         estimate D2E/DX2                !
 ! D50   D(17,15,16,18)         -6.2448         estimate D2E/DX2                !
 --------------------------------------------------------------------------------
 Trust Radius=3.00D-01 FncErr=1.00D-07 GrdErr=1.00D-07 EigMax=2.50D+02 EigMin=1.00D-04
 Number of steps in this run=    116 maximum allowed number of steps=    120.
 GradGradGradGradGradGradGradGradGradGradGradGradGradGradGradGradGradGrad

                          Input orientation:                          
 ---------------------------------------------------------------------
 Center     Atomic      Atomic             Coordinates (Angstroms)
 Number     Number       Type             X           Y           Z
 ---------------------------------------------------------------------
      1          6           0       -4.250000   -1.360000   -0.210000
      2          6           0       -2.930000   -0.950000   -0.610000
      3          6           0       -1.970000   -2.050000   -0.620000
      4          6           0       -4.330000   -2.760000    0.100000
      5          1           0       -5.100000   -0.700000   -0.140000
      6         16           0       -2.800000   -3.560000   -0.110000
      7          1           0       -5.230000   -3.270000    0.410000
      8          6           0       -0.560000   -2.130000   -0.970000
      9         16           0        0.459000   -0.668000   -1.140000
     10          6           0        1.868000   -1.593000   -1.529000
     11          6           0        1.615000   -3.012000   -1.513000
     12          6           0        0.257000   -3.326000   -1.184000
     13          1           0       -0.077000   -4.329000   -0.965000
     14         16           0        3.040000   -3.941000   -1.184000
     15          6           0        4.018000   -2.475000   -1.072000
     16          6           0        3.233000   -1.277000   -1.264000
     17          1           0        5.038000   -2.486000   -0.714000
     18          1           0        3.583000   -0.292000   -0.966000
     19          8           0       -2.400000    0.490000   -0.720000
     20          1           0       -2.920000    1.520000   -0.760000
 ---------------------------------------------------------------------
                    Distance matrix (angstroms):
                    1          2          3          4          5
     1  C    0.000000
     2  C    1.438923   0.000000
     3  C    2.417147   1.460034   0.000000
     4  C    1.436141   2.395871   2.567509   0.000000
     5  H    1.078425   2.234346   3.442354   2.212261   0.000000
     6  S    2.636759   2.660639   1.796970   1.739253   3.670218
     7  H    2.234480   3.422397   3.630000   1.079907   2.631406
     8  C    3.845335   2.671872   1.454991   3.969219   4.831708
     9  S    4.849582   3.441765   2.842598   5.371088   5.648319
    10  C    6.262905   4.927354   3.970563   6.513888   7.160991
    11  C    6.230982   5.071911   3.817737   6.165087   7.233374
    12  C    5.012672   4.016444   2.627889   4.796830   6.056671
    13  H    5.176767   4.436584   2.982669   4.656608   6.251463
    14  S    7.794507   6.701974   5.384615   7.573659   8.823470
    15  C    8.387258   7.128378   6.020056   8.434685   9.335801
    16  C    7.557321   6.206224   5.299384   7.826797   8.428238
    17  H    9.369570   8.115364   7.022179   9.407290  10.310107
    18  H    7.941539   6.555827   5.834903   8.357209   8.731737
    19  O    2.665539   1.538376   2.578081   3.867790   3.007075
    20  H    3.219596   2.474571   3.696891   4.587603   3.172570
                    6          7          8          9         10
     6  S    0.000000
     7  H    2.501879   0.000000
     8  C    2.793224   5.001290   0.000000
     9  S    4.477236   6.444969   1.790169   0.000000
    10  C    5.260501   7.546764   2.548732   1.729805   0.000000
    11  C    4.664862   7.114669   2.409024   2.640038   1.441467
    12  C    3.248612   5.714118   1.464138   2.666028   2.391158
    13  H    2.955861   5.437418   2.251425   3.704165   3.403941
    14  S    5.950146   8.448904   4.035532   4.168456   2.646831
    15  C    6.970494   9.399673   4.592114   3.992036   2.368390
    16  C    6.552930   8.854191   3.898832   2.842769   1.425940
    17  H    7.934263  10.359047   5.615147   4.945083   3.392724
    18  H    7.221859   9.403767   4.532407   3.151353   2.225038
    19  O    4.115167   4.839773   3.211308   3.113076   4.817592
    20  H    5.122821   5.445099   4.351574   4.043437   5.762558
                   11         12         13         14         15
    11  C    0.000000
    12  C    1.432132   0.000000
    13  H    2.213065   1.079595   0.000000
    14  S    1.732601   2.850143   3.148681   0.000000
    15  C    2.501451   3.857702   4.496420   1.765838   0.000000
    16  C    2.385404   3.614053   4.512228   2.672180   1.445093
    17  H    3.554153   4.876932   5.442690   2.515935   1.081057
    18  H    3.401563   4.507212   5.449126   3.695616   2.228441
    19  O    5.386379   4.672986   5.355289   7.031547   7.078549
    20  H    6.455405   5.810062   6.506572   8.094683   8.012067
                   16         17         18         19         20
    16  C    0.000000
    17  H    2.241028   0.000000
    18  H    1.086982   2.644648   0.000000
    19  O    5.928652   8.011271   6.038901   0.000000
    20  H    6.777657   8.909541   6.753872   1.154513   0.000000
 Stoichiometry    C10H6OS3
 Framework group  C1[X(C10H6OS3)]
 Deg. of freedom    54
 Full point group                 C1      NOp   1
 Largest Abelian subgroup         C1      NOp   1
 Largest concise Abelian subgroup C1      NOp   1
                         Standard orientation:                         
 ---------------------------------------------------------------------
 Center     Atomic      Atomic             Coordinates (Angstroms)
 Number     Number       Type             X           Y           Z
 ---------------------------------------------------------------------
      1          6           0       -4.110278    0.268363    0.041141
      2          6           0       -2.807851    0.864244   -0.097100
      3          6           0       -1.726100   -0.115719   -0.062660
      4          6           0       -4.058303   -1.158931    0.191578
      5          1           0       -5.037583    0.818909    0.039060
      6         16           0       -2.425589   -1.756988    0.151931
      7          1           0       -4.922807   -1.797089    0.299219
      8          6           0       -0.281058    0.000415   -0.186624
      9         16           0        0.559402    1.574372   -0.041741
     10          6           0        2.115753    0.861112   -0.289244
     11          6           0        2.044069   -0.568731   -0.457285
     12          6           0        0.702807   -1.065545   -0.385215
     13          1           0        0.469113   -2.117831   -0.325155
     14         16           0        3.510055   -1.369730    0.002271
     15          6           0        4.267943    0.170121    0.417782
     16          6           0        3.375470    1.289901    0.223162
     17          1           0        5.216674    0.227583    0.932847
     18          1           0        3.550396    2.264576    0.671424
     19          8           0       -2.453164    2.356144    0.025504
     20          1           0       -3.087094    3.320847    0.005983
 ---------------------------------------------------------------------
 Rotational constants (GHZ):           1.1601085           0.2813452           0.2287528
 Standard basis: Aug-CC-pVDZ (5D, 7F)
 There are   416 symmetry adapted cartesian basis functions of A   symmetry.
 There are   388 symmetry adapted basis functions of A   symmetry.
   388 basis functions,   782 primitive gaussians,   416 cartesian basis functions
    61 alpha electrons       61 beta electrons
       nuclear repulsion energy      1105.1172034656 Hartrees.
 NAtoms=   20 NActive=   20 NUniq=   20 SFac= 1.00D+00 NAtFMM=   60 NAOKFM=F Big=F
 Integral buffers will be    131072 words long.
 Raffenetti 1 integral format.
 Two-electron integral symmetry is turned on.
 One-electron integrals computed using PRISM.
 NBasis=   388 RedAO= T EigKep=  5.28D-06  NBF=   388
 NBsUse=   388 1.00D-06 EigRej= -1.00D+00 NBFU=   388
 ExpMin= 2.97D-02 ExpMax= 1.11D+05 ExpMxC= 1.07D+03 IAcc=3 IRadAn=         5 AccDes= 0.00D+00
 Harris functional with IExCor=  205 and IRadAn=       5 diagonalized for initial guess.
 HarFok:  IExCor=  205 AccDes= 0.00D+00 IRadAn=         5 IDoV= 1 UseB2=F ITyADJ=14
 ICtDFT=  3500011 ScaDFX=  1.000000  1.000000  1.000000  1.000000
 FoFCou: FMM=F IPFlag=           0 FMFlag=      100000 FMFlg1=           0
         NFxFlg=           0 DoJE=T BraDBF=F KetDBF=T FulRan=T
         wScrn=  0.000000 ICntrl=       500 IOpCl=  0 I1Cent=   200000004 NGrid=           0
         NMat0=    1 NMatS0=      1 NMatT0=    0 NMatD0=    1 NMtDS0=    0 NMtDT0=    0
 Petite list used in FoFCou.
 Requested convergence on RMS density matrix=1.00D-08 within 128 cycles.
 Requested convergence on MAX density matrix=1.00D-06.
 Requested convergence on             energy=1.00D-06.
 No special actions if energy rises.
 SCF Done:  E(RHF) =  -1649.50838280     A.U. after   18 cycles
            NFock= 18  Conv=0.63D-08     -V/T= 2.0013

 **********************************************************************

            Population analysis using the SCF Density.

 **********************************************************************

 Orbital symmetries:
       Occupied  (A) (A) (A) (A) (A) (A) (A) (A) (A) (A) (A) (A)
                 (A) (A) (A) (A) (A) (A) (A) (A) (A) (A) (A) (A)
                 (A) (A) (A) (A) (A) (A) (A) (A) (A) (A) (A) (A)
                 (A) (A) (A) (A) (A) (A) (A) (A) (A) (A) (A) (A)
                 (A) (A) (A) (A) (A) (A) (A) (A) (A) (A) (A) (A)
                 (A)
       Virtual   (A) (A) (A) (A) (A) (A) (A) (A) (A) (A) (A) (A)
                 (A) (A) (A) (A) (A) (A) (A) (A) (A) (A) (A) (A)
                 (A) (A) (A) (A) (A) (A) (A) (A) (A) (A) (A) (A)
                 (A) (A) (A) (A) (A) (A) (A) (A) (A) (A) (A) (A)
                 (A) (A) (A) (A) (A) (A) (A) (A) (A) (A) (A) (A)
                 (A) (A) (A) (A) (A) (A) (A) (A) (A) (A) (A) (A)
                 (A) (A) (A) (A) (A) (A) (A) (A) (A) (A) (A) (A)
                 (A) (A) (A) (A) (A) (A) (A) (A) (A) (A) (A) (A)
                 (A) (A) (A) (A) (A) (A) (A) (A) (A) (A) (A) (A)
                 (A) (A) (A) (A) (A) (A) (A) (A) (A) (A) (A) (A)
                 (A) (A) (A) (A) (A) (A) (A) (A) (A) (A) (A) (A)
                 (A) (A) (A) (A) (A) (A) (A) (A) (A) (A) (A) (A)
                 (A) (A) (A) (A) (A) (A) (A) (A) (A) (A) (A) (A)
                 (A) (A) (A) (A) (A) (A) (A) (A) (A) (A) (A) (A)
                 (A) (A) (A) (A) (A) (A) (A) (A) (A) (A) (A) (A)
                 (A) (A) (A) (A) (A) (A) (A) (A) (A) (A) (A) (A)
                 (A) (A) (A) (A) (A) (A) (A) (A) (A) (A) (A) (A)
                 (A) (A) (A) (A) (A) (A) (A) (A) (A) (A) (A) (A)
                 (A) (A) (A) (A) (A) (A) (A) (A) (A) (A) (A) (A)
                 (A) (A) (A) (A) (A) (A) (A) (A) (A) (A) (A) (A)
                 (A) (A) (A) (A) (A) (A) (A) (A) (A) (A) (A) (A)
                 (A) (A) (A) (A) (A) (A) (A) (A) (A) (A) (A) (A)
                 (A) (A) (A) (A) (A) (A) (A) (A) (A) (A) (A) (A)
                 (A) (A) (A) (A) (A) (A) (A) (A) (A) (A) (A) (A)
                 (A) (A) (A) (A) (A) (A) (A) (A) (A) (A) (A) (A)
                 (A) (A) (A) (A) (A) (A) (A) (A) (A) (A) (A) (A)
                 (A) (A) (A) (A) (A) (A) (A) (A) (A) (A) (A) (A)
                 (A) (A) (A)
 The electronic state is 1-A.
 Alpha  occ. eigenvalues --  -92.00750 -91.99628 -91.99204 -20.60663 -11.35146
 Alpha  occ. eigenvalues --  -11.30974 -11.30810 -11.29937 -11.28946 -11.28213
 Alpha  occ. eigenvalues --  -11.27951 -11.27514 -11.27088 -11.26863  -9.00732
 Alpha  occ. eigenvalues --   -8.99685  -8.99219  -6.68896  -6.68798  -6.68621
 Alpha  occ. eigenvalues --   -6.67853  -6.67764  -6.67574  -6.67375  -6.67279
 Alpha  occ. eigenvalues --   -6.67089  -1.31084  -1.19382  -1.16148  -1.10191
 Alpha  occ. eigenvalues --   -1.02883  -1.01095  -0.98615  -0.93931  -0.92657
 Alpha  occ. eigenvalues --   -0.82738  -0.78179  -0.76742  -0.71380  -0.70781
 Alpha  occ. eigenvalues --   -0.68561  -0.65445  -0.62179  -0.60432  -0.57562
 Alpha  occ. eigenvalues --   -0.56718  -0.55068  -0.54428  -0.53629  -0.52174
 Alpha  occ. eigenvalues --   -0.51069  -0.49814  -0.49786  -0.47989  -0.45557
 Alpha  occ. eigenvalues --   -0.45327  -0.39233  -0.35228  -0.34459  -0.31401
 Alpha  occ. eigenvalues --   -0.25321
 Alpha virt. eigenvalues --    0.02689   0.03543   0.03782   0.03971   0.04969
 Alpha virt. eigenvalues --    0.05158   0.05957   0.08442   0.08786   0.09402
 Alpha virt. eigenvalues --    0.09986   0.10308   0.10758   0.11056   0.11157
 Alpha virt. eigenvalues --    0.11833   0.12193   0.12527   0.12959   0.13484
 Alpha virt. eigenvalues --    0.13843   0.13982   0.14516   0.14760   0.15223
 Alpha virt. eigenvalues --    0.15584   0.15831   0.16023   0.16495   0.16938
 Alpha virt. eigenvalues --    0.17149   0.17649   0.17900   0.18533   0.19376
 Alpha virt. eigenvalues --    0.19645   0.19839   0.19975   0.20747   0.20975
 Alpha virt. eigenvalues --    0.21062   0.21731   0.22207   0.22882   0.23224
 Alpha virt. eigenvalues --    0.23967   0.24346   0.24605   0.24961   0.25949
 Alpha virt. eigenvalues --    0.26496   0.26961   0.27464   0.27596   0.28282
 Alpha virt. eigenvalues --    0.28771   0.29164   0.29378   0.30363   0.30884
 Alpha virt. eigenvalues --    0.31232   0.31362   0.32082   0.32773   0.33045
 Alpha virt. eigenvalues --    0.33425   0.33653   0.34615   0.34925   0.35922
 Alpha virt. eigenvalues --    0.36055   0.36533   0.37040   0.38101   0.38396
 Alpha virt. eigenvalues --    0.39547   0.40053   0.40186   0.40722   0.41134
 Alpha virt. eigenvalues --    0.42041   0.42483   0.42785   0.43428   0.44236
 Alpha virt. eigenvalues --    0.44480   0.45488   0.46181   0.46688   0.47401
 Alpha virt. eigenvalues --    0.48132   0.49014   0.49602   0.49965   0.50757
 Alpha virt. eigenvalues --    0.51142   0.51740   0.52493   0.53605   0.54025
 Alpha virt. eigenvalues --    0.54376   0.55397   0.56414   0.56699   0.57768
 Alpha virt. eigenvalues --    0.58652   0.59653   0.60423   0.60896   0.61302
 Alpha virt. eigenvalues --    0.61525   0.62291   0.63036   0.63901   0.64461
 Alpha virt. eigenvalues --    0.64646   0.65579   0.65851   0.66568   0.67461
 Alpha virt. eigenvalues --    0.67827   0.68109   0.68408   0.68779   0.69464
 Alpha virt. eigenvalues --    0.69894   0.70673   0.70919   0.72206   0.73107
 Alpha virt. eigenvalues --    0.73756   0.74471   0.74859   0.75452   0.76314
 Alpha virt. eigenvalues --    0.76610   0.77475   0.77810   0.78266   0.79856
 Alpha virt. eigenvalues --    0.80715   0.80990   0.81238   0.83139   0.83383
 Alpha virt. eigenvalues --    0.83854   0.84215   0.85194   0.85998   0.86366
 Alpha virt. eigenvalues --    0.87734   0.88994   0.89458   0.89830   0.90151
 Alpha virt. eigenvalues --    0.91016   0.91520   0.92301   0.93099   0.94364
 Alpha virt. eigenvalues --    0.94721   0.95902   0.96247   0.96656   0.98234
 Alpha virt. eigenvalues --    0.99183   0.99515   1.00543   1.00885   1.01824
 Alpha virt. eigenvalues --    1.02432   1.02661   1.03391   1.04800   1.05641
 Alpha virt. eigenvalues --    1.07425   1.07853   1.09344   1.10692   1.11718
 Alpha virt. eigenvalues --    1.13958   1.14795   1.15365   1.16082   1.17826
 Alpha virt. eigenvalues --    1.19465   1.20151   1.20469   1.21246   1.22246
 Alpha virt. eigenvalues --    1.22870   1.23647   1.25028   1.25732   1.26898
 Alpha virt. eigenvalues --    1.27664   1.27791   1.28341   1.29474   1.30594
 Alpha virt. eigenvalues --    1.31817   1.32980   1.33389   1.34504   1.35813
 Alpha virt. eigenvalues --    1.37044   1.37283   1.37830   1.40655   1.41436
 Alpha virt. eigenvalues --    1.42697   1.43407   1.45700   1.47290   1.47976
 Alpha virt. eigenvalues --    1.47996   1.50414   1.53865   1.54689   1.55982
 Alpha virt. eigenvalues --    1.56899   1.57076   1.58473   1.59035   1.60030
 Alpha virt. eigenvalues --    1.61090   1.62137   1.62863   1.63973   1.65966
 Alpha virt. eigenvalues --    1.66581   1.66897   1.68712   1.69212   1.70142
 Alpha virt. eigenvalues --    1.71674   1.73124   1.74577   1.75223   1.76886
 Alpha virt. eigenvalues --    1.78049   1.78550   1.79266   1.79891   1.81005
 Alpha virt. eigenvalues --    1.81293   1.83268   1.83812   1.85330   1.85987
 Alpha virt. eigenvalues --    1.88262   1.89195   1.91201   1.92658   1.93094
 Alpha virt. eigenvalues --    1.95428   1.96523   1.97776   1.98982   2.00623
 Alpha virt. eigenvalues --    2.01494   2.03372   2.04872   2.05587   2.08124
 Alpha virt. eigenvalues --    2.08463   2.09686   2.10353   2.11078   2.12533
 Alpha virt. eigenvalues --    2.13312   2.15079   2.16170   2.16392   2.18257
 Alpha virt. eigenvalues --    2.18827   2.19616   2.20991   2.24267   2.25403
 Alpha virt. eigenvalues --    2.26339   2.26613   2.29716   2.30128   2.32922
 Alpha virt. eigenvalues --    2.34936   2.35238   2.36806   2.39011   2.39815
 Alpha virt. eigenvalues --    2.40003   2.42693   2.43927   2.48378   2.48654
 Alpha virt. eigenvalues --    2.50637   2.51397   2.55134   2.55886   2.63139
 Alpha virt. eigenvalues --    2.67764   2.69837   2.73628   2.76256   2.81701
 Alpha virt. eigenvalues --    2.83006   2.85137   2.88099   2.95001   2.97542
 Alpha virt. eigenvalues --    2.99483   3.05751   3.11917   3.14589   3.25100
 Alpha virt. eigenvalues --    3.28640   3.30866   3.41691   3.54955   3.74054
 Alpha virt. eigenvalues --    3.78264   3.78822   3.84177   3.89446   4.01715
 Alpha virt. eigenvalues --    4.10843   4.23801
          Condensed to atoms (all electrons):
               1          2          3          4          5          6
     1  C    6.403147  -0.623077  -0.267889   0.638862  -0.038711  -0.422251
     2  C   -0.623077   9.230098  -1.022117  -0.096650   0.054003  -0.427399
     3  C   -0.267889  -1.022117   9.807115  -1.192080   0.059007   0.163086
     4  C    0.638862  -0.096650  -1.192080   6.482986  -0.069269   0.024799
     5  H   -0.038711   0.054003   0.059007  -0.069269   1.433153  -0.008137
     6  S   -0.422251  -0.427399   0.163086   0.024799  -0.008137  16.285488
     7  H    0.022286   0.025882   0.028307   0.197485  -0.057386  -0.113489
     8  C   -0.096712  -0.258495  -2.584576   0.592833  -0.019989  -0.043089
     9  S    0.017712   0.213084  -0.408087   0.056795   0.010623   0.059232
    10  C   -0.028069  -0.019734   0.112697   0.033255   0.002320   0.015672
    11  C    0.000159   0.028869   0.313434  -0.112822  -0.003481  -0.268402
    12  C   -0.182523  -0.512353   0.137018  -0.326472  -0.006103   0.145463
    13  H   -0.006620   0.018616   0.032731   0.004850  -0.000376  -0.005479
    14  S   -0.000745  -0.002853   0.004885  -0.000926  -0.000033  -0.010666
    15  C   -0.000673  -0.005121   0.023688  -0.002187  -0.000056  -0.011779
    16  C   -0.000351   0.019121  -0.130960   0.005137   0.000111   0.022561
    17  H   -0.000071  -0.000347   0.001456  -0.000105  -0.000006  -0.000461
    18  H    0.000189   0.002153  -0.001237   0.000657   0.000053   0.001215
    19  O    0.008758  -0.636518   0.268565  -0.044200  -0.016090   0.024136
    20  H   -0.025780  -0.018083  -0.000849  -0.003408   0.002968   0.002826
               7          8          9         10         11         12
     1  C    0.022286  -0.096712   0.017712  -0.028069   0.000159  -0.182523
     2  C    0.025882  -0.258495   0.213084  -0.019734   0.028869  -0.512353
     3  C    0.028307  -2.584576  -0.408087   0.112697   0.313434   0.137018
     4  C    0.197485   0.592833   0.056795   0.033255  -0.112822  -0.326472
     5  H   -0.057386  -0.019989   0.010623   0.002320  -0.003481  -0.006103
     6  S   -0.113489  -0.043089   0.059232   0.015672  -0.268402   0.145463
     7  H    1.250474   0.004444  -0.001434   0.000033   0.000663   0.005153
     8  C    0.004444  11.099622   0.291378  -0.632508  -0.712274  -2.254785
     9  S   -0.001434   0.291378  16.426108  -0.016396  -0.214168  -0.808901
    10  C    0.000033  -0.632508  -0.016396   7.728614   0.123385  -0.071133
    11  C    0.000663  -0.712274  -0.214168   0.123385   9.791326  -2.518946
    12  C    0.005153  -2.254785  -0.808901  -0.071133  -2.518946  12.962653
    13  H    0.002730   0.483054   0.036717  -0.057487   0.080735  -0.735077
    14  S   -0.000003  -0.133509   0.002914   0.015611   0.091336  -0.052587
    15  C   -0.000095   0.046894  -0.089985   0.150576  -0.297683  -0.202500
    16  C    0.000247  -0.000176   0.004399  -1.112791   0.216123   0.085536
    17  H   -0.000005  -0.008147  -0.003432  -0.020596  -0.006396   0.041042
    18  H    0.000027   0.030394  -0.007121   0.195365  -0.030204  -0.012956
    19  O   -0.002080   0.012297  -0.094334  -0.005713  -0.002224   0.042630
    20  H    0.000190  -0.010307   0.023879   0.002869  -0.000201  -0.002905
              13         14         15         16         17         18
     1  C   -0.006620  -0.000745  -0.000673  -0.000351  -0.000071   0.000189
     2  C    0.018616  -0.002853  -0.005121   0.019121  -0.000347   0.002153
     3  C    0.032731   0.004885   0.023688  -0.130960   0.001456  -0.001237
     4  C    0.004850  -0.000926  -0.002187   0.005137  -0.000105   0.000657
     5  H   -0.000376  -0.000033  -0.000056   0.000111  -0.000006   0.000053
     6  S   -0.005479  -0.010666  -0.011779   0.022561  -0.000461   0.001215
     7  H    0.002730  -0.000003  -0.000095   0.000247  -0.000005   0.000027
     8  C    0.483054  -0.133509   0.046894  -0.000176  -0.008147   0.030394
     9  S    0.036717   0.002914  -0.089985   0.004399  -0.003432  -0.007121
    10  C   -0.057487   0.015611   0.150576  -1.112791  -0.020596   0.195365
    11  C    0.080735   0.091336  -0.297683   0.216123  -0.006396  -0.030204
    12  C   -0.735077  -0.052587  -0.202500   0.085536   0.041042  -0.012956
    13  H    1.689178  -0.065679   0.002332  -0.002015   0.001816   0.000904
    14  S   -0.065679  15.718355   0.191396  -0.268203  -0.129804   0.010885
    15  C    0.002332   0.191396   5.804163   0.200565   0.243632  -0.063954
    16  C   -0.002015  -0.268203   0.200565   6.725258   0.041208  -0.106996
    17  H    0.001816  -0.129804   0.243632   0.041208   1.246803  -0.059520
    18  H    0.000904   0.010885  -0.063954  -0.106996  -0.059520   1.368838
    19  O    0.001629   0.000350   0.000226  -0.001442   0.000052  -0.000236
    20  H    0.000143  -0.000018  -0.000018   0.000531   0.000000   0.000008
              19         20
     1  C    0.008758  -0.025780
     2  C   -0.636518  -0.018083
     3  C    0.268565  -0.000849
     4  C   -0.044200  -0.003408
     5  H   -0.016090   0.002968
     6  S    0.024136   0.002826
     7  H   -0.002080   0.000190
     8  C    0.012297  -0.010307
     9  S   -0.094334   0.023879
    10  C   -0.005713   0.002869
    11  C   -0.002224  -0.000201
    12  C    0.042630  -0.002905
    13  H    0.001629   0.000143
    14  S    0.000350  -0.000018
    15  C    0.000226  -0.000018
    16  C   -0.001442   0.000531
    17  H    0.000052   0.000000
    18  H   -0.000236   0.000008
    19  O    9.393429   0.274921
    20  H    0.274921   0.340190
 Mulliken charges:
               1
     1  C    0.602357
     2  C    0.030918
     3  C    0.655807
     4  C   -0.189540
     5  H   -0.342604
     6  S    0.566673
     7  H   -0.363429
     8  C    0.193650
     9  S    0.501017
    10  C   -0.415972
    11  C   -0.479229
    12  C    0.267746
    13  H   -0.482704
    14  S    0.629293
    15  C    0.010577
    16  C    0.302135
    17  H   -0.347120
    18  H   -0.328464
    19  O   -1.224158
    20  H    0.413044
 Sum of Mulliken charges =  -0.00000
 Mulliken charges with hydrogens summed into heavy atoms:
               1
     1  C    0.259753
     2  C    0.030918
     3  C    0.655807
     4  C   -0.552968
     6  S    0.566673
     8  C    0.193650
     9  S    0.501017
    10  C   -0.415972
    11  C   -0.479229
    12  C   -0.214958
    14  S    0.629293
    15  C   -0.336542
    16  C   -0.026329
    19  O   -0.811114
 Electronic spatial extent (au):  <R**2>=           4399.2489
 Charge=              0.0000 electrons
 Dipole moment (field-independent basis, Debye):
    X=             -2.4576    Y=              0.8061    Z=              1.1651  Tot=              2.8367
 Quadrupole moment (field-independent basis, Debye-Ang):
   XX=            -79.9374   YY=            -91.9828   ZZ=           -111.5451
   XY=             -2.0103   XZ=              4.5098   YZ=              0.9516
 Traceless Quadrupole moment (field-independent basis, Debye-Ang):
   XX=             14.5510   YY=              2.5056   ZZ=            -17.0566
   XY=             -2.0103   XZ=              4.5098   YZ=              0.9516
 Octapole moment (field-independent basis, Debye-Ang**2):
  XXX=            -78.3686  YYY=             40.7410  ZZZ=              3.8189  XYY=            -39.7409
  XXY=             32.0686  XXZ=             33.2353  XZZ=              2.8961  YZZ=              3.5334
  YYZ=              5.3087  XYZ=              7.7046
 Hexadecapole moment (field-independent basis, Debye-Ang**3):
 XXXX=          -4132.7448 YYYY=           -983.3216 ZZZZ=           -179.4854 XXXY=            -45.9552
 XXXZ=            124.4009 YYYX=           -122.2640 YYYZ=              8.8747 ZZZX=              8.3947
 ZZZY=              0.5454 XXYY=           -821.5929 XXZZ=           -904.0365 YYZZ=           -239.8201
 XXYZ=             -1.0209 YYXZ=              6.8222 ZZXY=             -8.9086
 N-N= 1.105117203466D+03 E-N=-6.115510767322D+03  KE= 1.647294755104D+03
 Calling FoFJK, ICntrl=      2127 FMM=F ISym2X=0 I1Cent= 0 IOpClX= 0 NMat=1 NMatS=1 NMatT=0.
 ***** Axes restored to original set *****
 -------------------------------------------------------------------
 Center     Atomic                   Forces (Hartrees/Bohr)
 Number     Number              X              Y              Z
 -------------------------------------------------------------------
      1        6           0.011134197   -0.058375828    0.010122149
      2        6           0.052220331    0.017947929    0.014107195
      3        6          -0.055218288    0.034209576    0.001103001
      4        6           0.014593805    0.070850489   -0.021068197
      5        1           0.001519125    0.000550032    0.000324065
      6       16          -0.005693636    0.034537765   -0.008243059
      7        1           0.004620950   -0.001774631   -0.000487564
      8        6           0.057696693   -0.042551120   -0.013560873
      9       16          -0.015331682   -0.015390455   -0.009000720
     10        6          -0.000135697   -0.054237093    0.016482564
     11        6          -0.014925491    0.052062179    0.018092144
     12        6          -0.034553306    0.064672528    0.009615313
     13        1          -0.004326070    0.001655275   -0.005564053
     14       16           0.013388882    0.018737268   -0.008431104
     15        6          -0.048901537    0.059833749   -0.005071016
     16        6           0.039086318   -0.064822469    0.019214024
     17        1          -0.000933750   -0.004266347   -0.007670953
     18        1           0.002388650   -0.005055781   -0.010801313
     19        8          -0.048170744    0.019931869   -0.003713711
     20        1           0.031541248   -0.128514936    0.004552106
 -------------------------------------------------------------------
 Cartesian Forces:  Max     0.128514936 RMS     0.033950508

 GradGradGradGradGradGradGradGradGradGradGradGradGradGradGradGradGradGrad
 Berny optimization.
 FormGI is forming the generalized inverse of G from B-inverse, IUseBI=4.
 Internal  Forces:  Max     0.129018844 RMS     0.025377337
 Search for a local minimum.
 Step number   1 out of a maximum of  116
 All quantities printed in internal units (Hartrees-Bohrs-Radians)
 Mixed Optimization -- RFO/linear search
 Second derivative matrix not updated -- first step.
 ITU=  0
     Eigenvalues ---    0.00230   0.00994   0.01059   0.01222   0.01272
     Eigenvalues ---    0.01297   0.01362   0.01419   0.01458   0.01498
     Eigenvalues ---    0.01500   0.01592   0.01594   0.01770   0.02199
     Eigenvalues ---    0.02651   0.15077   0.15683   0.15737   0.15997
     Eigenvalues ---    0.16000   0.16000   0.17993   0.22443   0.22526
     Eigenvalues ---    0.23321   0.23978   0.24118   0.24633   0.24979
     Eigenvalues ---    0.24995   0.26145   0.26560   0.28307   0.28336
     Eigenvalues ---    0.28663   0.30910   0.31293   0.31593   0.34819
     Eigenvalues ---    0.35164   0.35867   0.35872   0.36006   0.36043
     Eigenvalues ---    0.36185   0.36317   0.37598   0.38260   0.38435
     Eigenvalues ---    0.39456   0.39757   0.406391000.000001000.00000
     Eigenvalues --- 1000.000001000.000001000.000001000.000001000.00000
     Eigenvalues --- 1000.000001000.000001000.000001000.000001000.00000
     Eigenvalues --- 1000.000001000.000001000.000001000.000001000.00000
     Eigenvalues --- 1000.000001000.000001000.000001000.000001000.00000
     Eigenvalues --- 1000.000001000.000001000.000001000.000001000.00000
     Eigenvalues --- 1000.000001000.000001000.000001000.000001000.00000
     Eigenvalues --- 1000.000001000.000001000.000001000.000001000.00000
     Eigenvalues --- 1000.000001000.000001000.000001000.000001000.00000
     Eigenvalues --- 1000.000001000.000001000.000001000.000001000.00000
     Eigenvalues --- 1000.000001000.000001000.000001000.000001000.00000
     Eigenvalues --- 1000.00000
 RFO step:  Lambda=-1.50986024D-01 EMin= 2.30000000D-03
 Linear search not attempted -- first point.
 Maximum step size (   0.300) exceeded in Quadratic search.
    -- Step size scaled by   0.526
 Iteration  1 RMS(Cart)=  0.05929451 RMS(Int)=  0.00129157
 Iteration  2 RMS(Cart)=  0.00156677 RMS(Int)=  0.00009632
 Iteration  3 RMS(Cart)=  0.00000783 RMS(Int)=  0.00009615
 Iteration  4 RMS(Cart)=  0.00000000 RMS(Int)=  0.00009615
 Iteration  1 RMS(Cart)=  0.00000057 RMS(Int)=  0.00000027
 Variable       Old X    -DE/DX   Delta X   Delta X   Delta X     New X
                                 (Linear)    (Quad)   (Total)
    R1        2.71917  -0.02216   0.00000  -0.02250  -0.02240   2.69677
    R2        2.71391  -0.07761   0.00000  -0.07438  -0.07436   2.63955
    R3        2.03793  -0.00084   0.00000  -0.00086  -0.00086   2.03707
    R4        2.75906  -0.08918   0.00000  -0.09056  -0.09051   2.66856
    R5        2.90711  -0.10743   0.00000  -0.12905  -0.12905   2.77806
    R6        3.39578  -0.03156   0.00000  -0.03878  -0.03884   3.35694
    R7        2.74954  -0.00772   0.00000  -0.00771  -0.00771   2.74183
    R8        3.28671  -0.01694   0.00000  -0.01805  -0.01813   3.26858
    R9        2.04073  -0.00315   0.00000  -0.00324  -0.00324   2.03749
   R10        3.38293  -0.02025   0.00000  -0.02386  -0.02394   3.35899
   R11        2.76682  -0.08340   0.00000  -0.08516  -0.08518   2.68164
   R12        3.26886  -0.00416   0.00000  -0.00393  -0.00394   3.26492
   R13        2.72398  -0.05488   0.00000  -0.05417  -0.05401   2.66997
   R14        2.69464   0.00216   0.00000   0.00094   0.00104   2.69568
   R15        2.70634  -0.01126   0.00000  -0.01178  -0.01172   2.69462
   R16        3.27414  -0.00247   0.00000  -0.00183  -0.00186   3.27228
   R17        2.04014  -0.00133   0.00000  -0.00137  -0.00137   2.03877
   R18        3.33695  -0.01814   0.00000  -0.02066  -0.02077   3.31618
   R19        2.73083  -0.08035   0.00000  -0.07866  -0.07868   2.65215
   R20        2.04290  -0.00338   0.00000  -0.00348  -0.00348   2.03942
   R21        2.05410  -0.00677   0.00000  -0.00708  -0.00708   2.04701
   R22        2.18171  -0.12902   0.00000  -0.15626  -0.15626   2.02545
    A1        1.97020  -0.00366   0.00000  -0.00792  -0.00779   1.96242
    A2        2.17330   0.00061   0.00000   0.00190   0.00183   2.17513
    A3        2.13967   0.00306   0.00000   0.00604   0.00597   2.14564
    A4        1.97187   0.01881   0.00000   0.02287   0.02302   1.99489
    A5        2.21760  -0.00768   0.00000  -0.00830  -0.00842   2.20918
    A6        2.06941  -0.01016   0.00000  -0.01165  -0.01176   2.05765
    A7        1.90440  -0.00693   0.00000  -0.00871  -0.00870   1.89569
    A8        2.31891  -0.00787   0.00000  -0.01053  -0.01054   2.30837
    A9        2.05972   0.01479   0.00000   0.01919   0.01918   2.07890
   A10        1.95339  -0.00234   0.00000  -0.00299  -0.00303   1.95036
   A11        2.17580   0.00509   0.00000   0.00812   0.00814   2.18394
   A12        2.15384  -0.00275   0.00000  -0.00514  -0.00512   2.14872
   A13        1.62490  -0.00587   0.00000  -0.00324  -0.00349   1.62140
   A14        2.12888  -0.00169   0.00000  -0.00217  -0.00219   2.12669
   A15        2.24059  -0.00646   0.00000  -0.00845  -0.00846   2.23213
   A16        1.91305   0.00822   0.00000   0.01080   0.01082   1.92386
   A17        1.61911  -0.00863   0.00000  -0.00891  -0.00890   1.61021
   A18        1.96162  -0.01021   0.00000  -0.01160  -0.01178   1.94983
   A19        2.23882   0.00827   0.00000   0.01604   0.01578   2.25460
   A20        1.96504   0.00637   0.00000   0.00794   0.00804   1.97307
   A21        1.96581   0.00835   0.00000   0.00965   0.00968   1.97548
   A22        1.96664  -0.01378   0.00000  -0.01607  -0.01620   1.95043
   A23        2.23789   0.00962   0.00000   0.01798   0.01776   2.25565
   A24        1.96449   0.00232   0.00000   0.00017   0.00029   1.96478
   A25        2.16111  -0.00380   0.00000  -0.00399  -0.00409   2.15702
   A26        2.14559   0.00216   0.00000   0.00598   0.00587   2.15145
   A27        1.59321   0.00002   0.00000   0.00174   0.00170   1.59492
   A28        1.95947   0.00061   0.00000   0.00003  -0.00002   1.95945
   A29        2.13545  -0.00367   0.00000  -0.00491  -0.00501   2.13043
   A30        2.17119   0.00436   0.00000   0.00884   0.00876   2.17995
   A31        1.94011   0.00678   0.00000   0.00637   0.00649   1.94660
   A32        2.16518  -0.00037   0.00000   0.00353   0.00332   2.16850
   A33        2.14111  -0.00412   0.00000  -0.00308  -0.00330   2.13781
   A34        2.32184  -0.06480   0.00000  -0.10955  -0.10955   2.21229
    D1        0.00683  -0.00075   0.00000  -0.00255  -0.00254   0.00429
    D2       -2.89394  -0.00458   0.00000  -0.01581  -0.01584  -2.90978
    D3       -3.13952   0.00053   0.00000   0.00176   0.00175  -3.13777
    D4        0.24290  -0.00330   0.00000  -0.01150  -0.01154   0.23135
    D5       -0.00671   0.00048   0.00000   0.00096   0.00092  -0.00579
    D6       -3.13020   0.00051   0.00000   0.00167   0.00166  -3.12854
    D7        3.13954  -0.00077   0.00000  -0.00324  -0.00328   3.13626
    D8        0.01605  -0.00073   0.00000  -0.00253  -0.00254   0.01351
    D9       -0.00388   0.00082   0.00000   0.00307   0.00305  -0.00083
   D10        3.11762   0.00059   0.00000  -0.00036  -0.00034   3.11728
   D11        2.91927   0.00422   0.00000   0.01507   0.01507   2.93434
   D12       -0.24242   0.00399   0.00000   0.01164   0.01168  -0.23073
   D13       -0.28016   0.00227   0.00000   0.00393   0.00386  -0.27630
   D14        3.11413  -0.00524   0.00000  -0.01415  -0.01407   3.10005
   D15        0.00006  -0.00048   0.00000  -0.00217  -0.00214  -0.00209
   D16       -3.12486  -0.00004   0.00000   0.00101   0.00106  -3.12379
   D17        0.26159  -0.00184   0.00000   0.00000  -0.00000   0.26159
   D18       -2.92357   0.00093   0.00000   0.00608   0.00610  -2.91747
   D19       -2.90150  -0.00230   0.00000  -0.00395  -0.00397  -2.90547
   D20        0.19652   0.00047   0.00000   0.00213   0.00213   0.19865
   D21        0.00376   0.00007   0.00000   0.00080   0.00079   0.00455
   D22        3.12751   0.00013   0.00000   0.00026   0.00023   3.12774
   D23        3.13774   0.00085   0.00000   0.00186   0.00189   3.13962
   D24        0.03240  -0.00115   0.00000  -0.00281  -0.00286   0.02954
   D25       -3.13845  -0.00170   0.00000  -0.00358  -0.00355   3.14118
   D26       -0.15872   0.00314   0.00000   0.01151   0.01152  -0.14720
   D27       -0.03609   0.00063   0.00000   0.00169   0.00176  -0.03432
   D28        2.94364   0.00547   0.00000   0.01678   0.01683   2.96048
   D29       -0.02110   0.00181   0.00000   0.00377   0.00375  -0.01735
   D30       -2.61605  -0.00862   0.00000  -0.02371  -0.02376  -2.63980
   D31        0.00364  -0.00131   0.00000  -0.00298  -0.00295   0.00069
   D32       -2.68862  -0.01181   0.00000  -0.02943  -0.02911  -2.71773
   D33        2.68742   0.00905   0.00000   0.02388   0.02367   2.71109
   D34       -0.00484  -0.00145   0.00000  -0.00257  -0.00249  -0.00733
   D35        2.61329   0.00741   0.00000   0.02443   0.02464   2.63793
   D36       -0.24598  -0.00061   0.00000  -0.00061  -0.00051  -0.24649
   D37        0.01920   0.00114   0.00000   0.00182   0.00178   0.02098
   D38       -2.84007  -0.00689   0.00000  -0.02322  -0.02337  -2.86344
   D39        0.02154   0.00048   0.00000   0.00079   0.00075   0.02229
   D40       -2.95985  -0.00367   0.00000  -0.01309  -0.01321  -2.97305
   D41        2.62779   0.00549   0.00000   0.02094   0.02118   2.64897
   D42       -0.35361   0.00135   0.00000   0.00706   0.00723  -0.34638
   D43       -0.00831   0.00141   0.00000   0.00234   0.00230  -0.00601
   D44       -2.61434  -0.00908   0.00000  -0.02420  -0.02417  -2.63851
   D45        0.01932  -0.00064   0.00000  -0.00118  -0.00118   0.01814
   D46        2.97135   0.00704   0.00000   0.02161   0.02151   2.99285
   D47       -0.02537  -0.00001   0.00000   0.00002   0.00006  -0.02530
   D48        2.83846   0.00856   0.00000   0.02587   0.02592   2.86438
   D49       -2.97282  -0.00683   0.00000  -0.02154  -0.02159  -2.99441
   D50       -0.10899   0.00174   0.00000   0.00432   0.00426  -0.10473
         Item               Value     Threshold  Converged?
 Maximum Force            0.129019     0.000450     NO 
 RMS     Force            0.025497     0.000300     NO 
 Maximum Displacement     0.430594     0.001800     NO 
 RMS     Displacement     0.059354     0.001200     NO 
 Predicted change in Energy=-6.587049D-02
 GradGradGradGradGradGradGradGradGradGradGradGradGradGradGradGradGradGrad

                          Input orientation:                          
 ---------------------------------------------------------------------
 Center     Atomic      Atomic             Coordinates (Angstroms)
 Number     Number       Type             X           Y           Z
 ---------------------------------------------------------------------
      1          6           0       -4.211817   -1.350104   -0.220747
      2          6           0       -2.887011   -0.981250   -0.602014
      3          6           0       -1.964654   -2.050537   -0.606523
      4          6           0       -4.321416   -2.710122    0.078194
      5          1           0       -5.045101   -0.668589   -0.164236
      6         16           0       -2.812261   -3.532606   -0.115929
      7          1           0       -5.229659   -3.208479    0.376912
      8          6           0       -0.556290   -2.122846   -0.947743
      9         16           0        0.447301   -0.664018   -1.103106
     10          6           0        1.853777   -1.589855   -1.489984
     11          6           0        1.585185   -2.976952   -1.481721
     12          6           0        0.230434   -3.284577   -1.160329
     13          1           0       -0.117671   -4.285973   -0.960340
     14         16           0        3.017550   -3.906228   -1.193153
     15          6           0        3.992429   -2.450673   -1.090883
     16          6           0        3.226820   -1.285431   -1.251340
     17          1           0        5.024001   -2.473069   -0.774558
     18          1           0        3.594613   -0.304889   -0.974466
     19          8           0       -2.356594    0.385060   -0.716048
     20          1           0       -2.925637    1.292140   -0.762986
 ---------------------------------------------------------------------
                    Distance matrix (angstroms):
                    1          2          3          4          5
     1  C    0.000000
     2  C    1.427070   0.000000
     3  C    2.385198   1.412139   0.000000
     4  C    1.396792   2.347169   2.541302   0.000000
     5  H    1.077969   2.224131   3.405077   2.179530   0.000000
     6  S    2.594814   2.598323   1.776414   1.729657   3.631872
     7  H    2.201535   3.377403   3.601143   1.078191   2.603448
     8  C    3.806381   2.618212   1.450914   3.946342   4.783113
     9  S    4.791310   3.386645   2.826050   5.321906   5.572071
    10  C    6.201602   4.861477   3.946282   6.468940   7.085256
    11  C    6.151578   4.975665   3.771680   6.114938   7.143178
    12  C    4.935443   3.916056   2.578366   4.752187   5.972174
    13  H    5.091989   4.326527   2.921251   4.607964   6.164318
    14  S    7.729366   6.615798   5.348840   7.543701   8.749132
    15  C    8.323343   7.051588   5.990122   8.399648   9.258048
    16  C    7.509968   6.155735   5.287020   7.795722   8.365821
    17  H    9.320305   8.052292   7.003432   9.387236  10.247704
    18  H    7.912074   6.527452   5.838503   8.340070   8.685241
    19  O    2.588043   1.470084   2.469361   3.751200   2.939854
    20  H    2.988266   2.279408   3.481588   4.321329   2.948743
                    6          7          8          9         10
     6  S    0.000000
     7  H    2.488325   0.000000
     8  C    2.787246   4.977317   0.000000
     9  S    4.452871   6.394733   1.777502   0.000000
    10  C    5.237768   7.502019   2.527157   1.727721   0.000000
    11  C    4.638067   7.067546   2.366546   2.605339   1.412886
    12  C    3.226497   5.672875   1.419065   2.630140   2.369809
    13  H    2.922569   5.392741   2.207184   3.668533   3.381742
    14  S    5.940261   8.424275   4.001626   4.138383   2.609226
    15  C    6.958802   9.368863   4.562763   3.969914   2.339685
    16  C    6.542893   8.823908   3.886561   2.851991   1.426490
    17  H    7.934948  10.344285   5.593951   4.932219   3.367821
    18  H    7.225183   9.387482   4.531631   3.170346   2.224277
    19  O    3.989471   4.728910   3.095864   3.018643   4.714497
    20  H    4.869261   5.182997   4.160537   3.913943   5.628251
                   11         12         13         14         15
    11  C    0.000000
    12  C    1.425929   0.000000
    13  H    2.210224   1.078873   0.000000
    14  S    1.731617   2.855791   3.166705   0.000000
    15  C    2.494905   3.853936   4.503142   1.754847   0.000000
    16  C    2.368393   3.603220   4.502616   2.629783   1.403458
    17  H    3.546750   4.877053   5.455082   2.501001   1.079214
    18  H    3.381572   4.497864   5.443370   3.653829   2.185452
    19  O    5.237079   4.511800   5.185654   6.893780   6.963618
    20  H    6.252138   5.573599   6.248117   7.907562   7.872471
                   16         17         18         19         20
    16  C    0.000000
    17  H    2.206278   0.000000
    18  H    1.083233   2.604634   0.000000
    19  O    5.852486   7.914891   5.996638   0.000000
    20  H    6.688429   8.796230   6.716315   1.071824   0.000000
 Stoichiometry    C10H6OS3
 Framework group  C1[X(C10H6OS3)]
 Deg. of freedom    54
 Full point group                 C1      NOp   1
 Largest Abelian subgroup         C1      NOp   1
 Largest concise Abelian subgroup C1      NOp   1
                         Standard orientation:                         
 ---------------------------------------------------------------------
 Center     Atomic      Atomic             Coordinates (Angstroms)
 Number     Number       Type             X           Y           Z
 ---------------------------------------------------------------------
      1          6           0       -4.065225    0.304926    0.032070
      2          6           0       -2.752087    0.848892   -0.095596
      3          6           0       -1.718353   -0.112236   -0.053586
      4          6           0       -4.054910   -1.084020    0.179553
      5          1           0       -4.972966    0.886172    0.018716
      6         16           0       -2.446422   -1.719432    0.152532
      7          1           0       -4.931403   -1.703746    0.280529
      8          6           0       -0.276490   -0.000151   -0.170279
      9         16           0        0.557725    1.562626   -0.024246
     10          6           0        2.106355    0.836059   -0.266874
     11          6           0        2.006962   -0.563500   -0.433012
     12          6           0        0.666008   -1.043335   -0.363174
     13          1           0        0.414078   -2.091371   -0.317156
     14         16           0        3.481165   -1.366444   -0.008155
     15          6           0        4.249345    0.161280    0.386113
     16          6           0        3.382525    1.251895    0.216183
     17          1           0        5.217758    0.210168    0.859912
     18          1           0        3.585492    2.227943    0.639888
     19          8           0       -2.377481    2.266772    0.006554
     20          1           0       -3.037377    3.109806   -0.044805
 ---------------------------------------------------------------------
 Rotational constants (GHZ):           1.2155321           0.2851761           0.2331165
 Standard basis: Aug-CC-pVDZ (5D, 7F)
 There are   416 symmetry adapted cartesian basis functions of A   symmetry.
 There are   388 symmetry adapted basis functions of A   symmetry.
   388 basis functions,   782 primitive gaussians,   416 cartesian basis functions
    61 alpha electrons       61 beta electrons
       nuclear repulsion energy      1118.8860939187 Hartrees.
 NAtoms=   20 NActive=   20 NUniq=   20 SFac= 1.00D+00 NAtFMM=   60 NAOKFM=F Big=F
 Integral buffers will be    131072 words long.
 Raffenetti 1 integral format.
 Two-electron integral symmetry is turned on.
 One-electron integrals computed using PRISM.
 NBasis=   388 RedAO= T EigKep=  4.51D-06  NBF=   388
 NBsUse=   388 1.00D-06 EigRej= -1.00D+00 NBFU=   388
 Initial guess from the checkpoint file:  "/tmp/pbs.4762170[190].pbs/Gau-2518342.chk"
 B after Tr=     0.000000    0.000000   -0.000000
         Rot=    0.999995    0.000343   -0.000145    0.003182 Ang=   0.37 deg.
 ExpMin= 2.97D-02 ExpMax= 1.11D+05 ExpMxC= 1.07D+03 IAcc=3 IRadAn=         5 AccDes= 0.00D+00
 Harris functional with IExCor=  205 and IRadAn=       5 diagonalized for initial guess.
 HarFok:  IExCor=  205 AccDes= 0.00D+00 IRadAn=         5 IDoV= 1 UseB2=F ITyADJ=14
 ICtDFT=  3500011 ScaDFX=  1.000000  1.000000  1.000000  1.000000
 FoFCou: FMM=F IPFlag=           0 FMFlag=      100000 FMFlg1=           0
         NFxFlg=           0 DoJE=T BraDBF=F KetDBF=T FulRan=T
         wScrn=  0.000000 ICntrl=       500 IOpCl=  0 I1Cent=   200000004 NGrid=           0
         NMat0=    1 NMatS0=      1 NMatT0=    0 NMatD0=    1 NMtDS0=    0 NMtDT0=    0
 Petite list used in FoFCou.
 Requested convergence on RMS density matrix=1.00D-08 within 128 cycles.
 Requested convergence on MAX density matrix=1.00D-06.
 Requested convergence on             energy=1.00D-06.
 No special actions if energy rises.
 SCF Done:  E(RHF) =  -1649.57686108     A.U. after   16 cycles
            NFock= 16  Conv=0.67D-08     -V/T= 2.0008
 Calling FoFJK, ICntrl=      2127 FMM=F ISym2X=0 I1Cent= 0 IOpClX= 0 NMat=1 NMatS=1 NMatT=0.
 ***** Axes restored to original set *****
 -------------------------------------------------------------------
 Center     Atomic                   Forces (Hartrees/Bohr)
 Number     Number              X              Y              Z
 -------------------------------------------------------------------
      1        6          -0.000672865   -0.037913284    0.007322424
      2        6           0.048270705    0.033046944    0.010974040
      3        6          -0.043499656    0.018350776   -0.000266362
      4        6           0.008612827    0.045277772   -0.013940186
      5        1           0.001120342    0.001277859    0.000363014
      6       16          -0.002172981    0.016938965   -0.005201436
      7        1           0.003476819   -0.002589940    0.000061698
      8        6           0.042600030   -0.027577310   -0.009882249
      9       16          -0.012021020   -0.006377038   -0.008591671
     10        6          -0.002675870   -0.038414004    0.013826815
     11        6          -0.003712135    0.037322266    0.015288966
     12        6          -0.027584288    0.041076683    0.007950048
     13        1          -0.003219178    0.000705836   -0.005578624
     14       16           0.011045901    0.006954175   -0.007963863
     15        6          -0.032443571    0.040330667   -0.001221595
     16        6           0.028219384   -0.040491161    0.014061138
     17        1          -0.000155645   -0.003968169   -0.006442660
     18        1           0.001661115   -0.001994073   -0.009869256
     19        8          -0.049982070    0.017740665   -0.005344610
     20        1           0.033132155   -0.099697629    0.004454371
 -------------------------------------------------------------------
 Cartesian Forces:  Max     0.099697629 RMS     0.025275192

 GradGradGradGradGradGradGradGradGradGradGradGradGradGradGradGradGradGrad
 Berny optimization.
 Using GEDIIS/GDIIS optimizer.
 FormGI is forming the generalized inverse of G from B-inverse, IUseBI=4.
 Internal  Forces:  Max     0.102158934 RMS     0.017812515
 Search for a local minimum.
 Step number   2 out of a maximum of  116
 All quantities printed in internal units (Hartrees-Bohrs-Radians)
 Mixed Optimization -- RFO/linear search
 Update second derivatives using D2CorX and points    1    2
 DE= -6.85D-02 DEPred=-6.59D-02 R= 1.04D+00
 TightC=F SS=  1.41D+00  RLast= 3.12D-01 DXNew= 5.0454D-01 9.3659D-01
 Trust test= 1.04D+00 RLast= 3.12D-01 DXMaxT set to 5.05D-01
 ITU=  1  0
 Use linear search instead of GDIIS.
     Eigenvalues ---    0.00230   0.00996   0.01056   0.01220   0.01270
     Eigenvalues ---    0.01293   0.01348   0.01402   0.01460   0.01492
     Eigenvalues ---    0.01499   0.01592   0.01592   0.01743   0.02127
     Eigenvalues ---    0.02521   0.15042   0.15279   0.15744   0.15823
     Eigenvalues ---    0.15999   0.16027   0.18280   0.20814   0.22477
     Eigenvalues ---    0.22533   0.23402   0.24102   0.24379   0.24961
     Eigenvalues ---    0.25015   0.25484   0.26308   0.26735   0.28399
     Eigenvalues ---    0.28584   0.30898   0.31291   0.31563   0.34866
     Eigenvalues ---    0.35168   0.35867   0.36004   0.36043   0.36101
     Eigenvalues ---    0.36183   0.36406   0.37486   0.38144   0.39212
     Eigenvalues ---    0.39577   0.40508   0.454421000.000001000.00000
     Eigenvalues --- 1000.000001000.000001000.000001000.000001000.00000
     Eigenvalues --- 1000.000001000.000001000.000001000.000001000.00000
     Eigenvalues --- 1000.000001000.000001000.000001000.000001000.00000
     Eigenvalues --- 1000.000001000.000001000.000001000.000001000.00000
     Eigenvalues --- 1000.000001000.000001000.000001000.000001000.00000
     Eigenvalues --- 1000.000001000.000001000.000001000.000001000.00000
     Eigenvalues --- 1000.000001000.000001000.000001000.000001000.00000
     Eigenvalues --- 1000.000001000.000001000.000001000.000001000.00000
     Eigenvalues --- 1000.000001000.000001000.000001000.000001000.00000
     Eigenvalues --- 1000.000001000.000001000.000001000.000001000.00000
     Eigenvalues --- 1000.00000
 RFO step:  Lambda=-1.53080226D-02 EMin= 2.30031071D-03
 Quartic linear search produced a step of  1.55689.
 Iteration  1 RMS(Cart)=  0.09748433 RMS(Int)=  0.02491613
 Iteration  2 RMS(Cart)=  0.02614014 RMS(Int)=  0.00388735
 Iteration  3 RMS(Cart)=  0.00358660 RMS(Int)=  0.00112871
 Iteration  4 RMS(Cart)=  0.00000467 RMS(Int)=  0.00112869
 Iteration  5 RMS(Cart)=  0.00000000 RMS(Int)=  0.00112869
 Iteration  1 RMS(Cart)=  0.00002249 RMS(Int)=  0.00001135
 Iteration  2 RMS(Cart)=  0.00001226 RMS(Int)=  0.00001268
 Iteration  3 RMS(Cart)=  0.00000668 RMS(Int)=  0.00001432
 Iteration  4 RMS(Cart)=  0.00000364 RMS(Int)=  0.00001541
 Iteration  5 RMS(Cart)=  0.00000199 RMS(Int)=  0.00001604
 Iteration  6 RMS(Cart)=  0.00000108 RMS(Int)=  0.00001640
 Iteration  7 RMS(Cart)=  0.00000059 RMS(Int)=  0.00001659
 Variable       Old X    -DE/DX   Delta X   Delta X   Delta X     New X
                                 (Linear)    (Quad)   (Total)
    R1        2.69677  -0.00658  -0.03487   0.04906   0.01458   2.71135
    R2        2.63955  -0.04643  -0.11577   0.02563  -0.09021   2.54935
    R3        2.03707  -0.00004  -0.00134   0.00344   0.00210   2.03917
    R4        2.66856  -0.05370  -0.14091   0.03195  -0.10855   2.56000
    R5        2.77806  -0.08218  -0.20092  -0.08162  -0.28254   2.49551
    R6        3.35694  -0.01757  -0.06048   0.03394  -0.02666   3.33027
    R7        2.74183   0.00092  -0.01200   0.03867   0.02667   2.76850
    R8        3.26858  -0.00903  -0.02823   0.01687  -0.01183   3.25675
    R9        2.03749  -0.00171  -0.00505   0.00243  -0.00262   2.03487
   R10        3.35899  -0.01181  -0.03727   0.01914  -0.01916   3.33983
   R11        2.68164  -0.05398  -0.13261   0.00753  -0.12566   2.55598
   R12        3.26492   0.00057  -0.00613   0.02323   0.01731   3.28223
   R13        2.66997  -0.03546  -0.08409  -0.00207  -0.08428   2.58569
   R14        2.69568   0.00456   0.00162   0.01815   0.02038   2.71605
   R15        2.69462  -0.00210  -0.01825   0.03107   0.01340   2.70802
   R16        3.27228   0.00141  -0.00290   0.02113   0.01827   3.29055
   R17        2.03877  -0.00065  -0.00213   0.00151  -0.00062   2.03816
   R18        3.31618  -0.01027  -0.03234   0.01863  -0.01461   3.30157
   R19        2.65215  -0.05047  -0.12249   0.01472  -0.10816   2.54399
   R20        2.03942  -0.00195  -0.00542   0.00183  -0.00360   2.03582
   R21        2.04701  -0.00376  -0.01103   0.00487  -0.00616   2.04085
   R22        2.02545  -0.10216  -0.24328  -0.12754  -0.37082   1.65463
    A1        1.96242  -0.00193  -0.01212   0.00843  -0.00307   1.95935
    A2        2.17513  -0.00058   0.00285  -0.01388  -0.01136   2.16377
    A3        2.14564   0.00251   0.00929   0.00545   0.01441   2.16005
    A4        1.99489   0.00845   0.03584  -0.03682  -0.00185   1.99303
    A5        2.20918  -0.00759  -0.01310  -0.01827  -0.03427   2.17491
    A6        2.05765   0.00009  -0.01832   0.07322   0.05269   2.11034
    A7        1.89569  -0.00128  -0.01355   0.03037   0.01750   1.91319
    A8        2.30837  -0.00645  -0.01641  -0.00878  -0.02552   2.28285
    A9        2.07890   0.00773   0.02986  -0.02145   0.00805   2.08695
   A10        1.95036  -0.00033  -0.00471   0.01282   0.00799   1.95835
   A11        2.18394   0.00421   0.01267   0.01125   0.02397   2.20791
   A12        2.14872  -0.00388  -0.00797  -0.02413  -0.03203   2.11669
   A13        1.62140  -0.00490  -0.00544  -0.01487  -0.02087   1.60053
   A14        2.12669   0.00004  -0.00340   0.01110   0.00775   2.13444
   A15        2.23213  -0.00577  -0.01318  -0.01313  -0.02626   2.20587
   A16        1.92386   0.00579   0.01684   0.00199   0.01871   1.94257
   A17        1.61021  -0.00592  -0.01386  -0.00648  -0.01977   1.59043
   A18        1.94983  -0.00595  -0.01834   0.01213  -0.00731   1.94252
   A19        2.25460   0.00617   0.02456   0.01746   0.03835   2.29295
   A20        1.97307   0.00358   0.01251  -0.00628   0.00601   1.97909
   A21        1.97548   0.00412   0.01506  -0.01049   0.00398   1.97946
   A22        1.95043  -0.00748  -0.02523   0.02124  -0.00539   1.94505
   A23        2.25565   0.00701   0.02764   0.01662   0.04047   2.29612
   A24        1.96478   0.00200   0.00046   0.00353   0.00495   1.96973
   A25        2.15702  -0.00233  -0.00637   0.00727  -0.00016   2.15686
   A26        2.15145   0.00092   0.00913  -0.00725   0.00073   2.15219
   A27        1.59492  -0.00160   0.00265  -0.02151  -0.01798   1.57694
   A28        1.95945   0.00186  -0.00003   0.01857   0.01785   1.97730
   A29        2.13043  -0.00420  -0.00780  -0.01882  -0.02814   2.10229
   A30        2.17995   0.00342   0.01363   0.00781   0.02010   2.20006
   A31        1.94660   0.00365   0.01010  -0.01133  -0.00033   1.94627
   A32        2.16850  -0.00041   0.00518  -0.00319  -0.00001   2.16849
   A33        2.13781  -0.00139  -0.00514   0.02222   0.01524   2.15305
   A34        2.21229  -0.05036  -0.17056  -0.05370  -0.22425   1.98804
    D1        0.00429  -0.00023  -0.00396   0.02639   0.02236   0.02665
    D2       -2.90978  -0.00545  -0.02466  -0.07752  -0.09935  -3.00913
    D3       -3.13777   0.00095   0.00272   0.02673   0.02873  -3.10904
    D4        0.23135  -0.00427  -0.01797  -0.07718  -0.09298   0.13837
    D5       -0.00579   0.00006   0.00143  -0.01442  -0.01246  -0.01826
    D6       -3.12854   0.00031   0.00258  -0.01079  -0.00828  -3.13682
    D7        3.13626  -0.00110  -0.00511  -0.01474  -0.01881   3.11745
    D8        0.01351  -0.00085  -0.00396  -0.01111  -0.01463  -0.00112
    D9       -0.00083   0.00034   0.00474  -0.02549  -0.02105  -0.02188
   D10        3.11728   0.00041  -0.00053  -0.01790  -0.01916   3.09812
   D11        2.93434   0.00387   0.02346   0.05754   0.08388   3.01822
   D12       -0.23073   0.00394   0.01819   0.06513   0.08577  -0.14496
   D13       -0.27630   0.00183   0.00600   0.04689   0.05301  -0.22329
   D14        3.10005  -0.00446  -0.02191  -0.04720  -0.06922   3.03083
   D15       -0.00209  -0.00024  -0.00334   0.01448   0.01182   0.00973
   D16       -3.12379  -0.00010   0.00166   0.00797   0.01072  -3.11307
   D17        0.26159  -0.00192  -0.00000   0.00000   0.00000   0.26159
   D18       -2.91747   0.00063   0.00950  -0.00135   0.00851  -2.90896
   D19       -2.90547  -0.00196  -0.00618   0.00880   0.00209  -2.90338
   D20        0.19865   0.00058   0.00332   0.00745   0.01059   0.20925
   D21        0.00455   0.00013   0.00124  -0.00019   0.00069   0.00525
   D22        3.12774  -0.00001   0.00036  -0.00330  -0.00256   3.12518
   D23        3.13962   0.00067   0.00294  -0.01652  -0.01345   3.12617
   D24        0.02954  -0.00126  -0.00445  -0.01504  -0.01994   0.00960
   D25        3.14118  -0.00123  -0.00553   0.02116   0.01578  -3.12622
   D26       -0.14720   0.00321   0.01793   0.04652   0.06462  -0.08258
   D27       -0.03432   0.00100   0.00274   0.02015   0.02342  -0.01090
   D28        2.96048   0.00544   0.02621   0.04551   0.07226   3.03274
   D29       -0.01735   0.00146   0.00583   0.00597   0.01163  -0.00572
   D30       -2.63980  -0.00759  -0.03698  -0.04515  -0.08318  -2.72298
   D31        0.00069  -0.00086  -0.00459   0.00471   0.00004   0.00073
   D32       -2.71773  -0.00984  -0.04532  -0.05280  -0.09531  -2.81303
   D33        2.71109   0.00803   0.03686   0.05365   0.08791   2.79900
   D34       -0.00733  -0.00095  -0.00388  -0.00386  -0.00743  -0.01476
   D35        2.63793   0.00738   0.03837   0.03964   0.07933   2.71727
   D36       -0.24649  -0.00012  -0.00080   0.00434   0.00466  -0.24183
   D37        0.02098   0.00047   0.00277  -0.01648  -0.01412   0.00686
   D38       -2.86344  -0.00703  -0.03639  -0.05178  -0.08880  -2.95224
   D39        0.02229  -0.00005   0.00116  -0.01637  -0.01552   0.00677
   D40       -2.97305  -0.00415  -0.02056  -0.04304  -0.06412  -3.03717
   D41        2.64897   0.00630   0.03298   0.05299   0.08731   2.73628
   D42       -0.34638   0.00220   0.01126   0.02632   0.03871  -0.30766
   D43       -0.00601   0.00114   0.00357   0.01720   0.02027   0.01426
   D44       -2.63851  -0.00778  -0.03763  -0.04398  -0.08290  -2.72141
   D45        0.01814  -0.00080  -0.00184  -0.02664  -0.02876  -0.01062
   D46        2.99285   0.00626   0.03349   0.02127   0.05320   3.04606
   D47       -0.02530   0.00044   0.00010   0.02897   0.02959   0.00429
   D48        2.86438   0.00793   0.04035   0.05932   0.10091   2.96529
   D49       -2.99441  -0.00599  -0.03362  -0.01758  -0.05234  -3.04674
   D50       -0.10473   0.00150   0.00664   0.01277   0.01898  -0.08575
         Item               Value     Threshold  Converged?
 Maximum Force            0.102159     0.000450     NO 
 RMS     Force            0.017895     0.000300     NO 
 Maximum Displacement     0.817984     0.001800     NO 
 RMS     Displacement     0.109735     0.001200     NO 
 Predicted change in Energy=-7.599794D-02
 GradGradGradGradGradGradGradGradGradGradGradGradGradGradGradGradGradGrad

                          Input orientation:                          
 ---------------------------------------------------------------------
 Center     Atomic      Atomic             Coordinates (Angstroms)
 Number     Number       Type             X           Y           Z
 ---------------------------------------------------------------------
      1          6           0       -4.179306   -1.325668   -0.230437
      2          6           0       -2.830023   -0.969290   -0.563661
      3          6           0       -1.965214   -2.012022   -0.567464
      4          6           0       -4.307238   -2.639711    0.046826
      5          1           0       -5.000187   -0.625583   -0.209134
      6         16           0       -2.815358   -3.487461   -0.113533
      7          1           0       -5.214691   -3.151595    0.318887
      8          6           0       -0.539090   -2.071659   -0.897484
      9         16           0        0.464068   -0.621442   -1.016273
     10          6           0        1.865996   -1.579549   -1.381481
     11          6           0        1.565160   -2.914248   -1.398433
     12          6           0        0.187810   -3.191171   -1.116000
     13          1           0       -0.203242   -4.189166   -0.996235
     14         16           0        2.996976   -3.891640   -1.235089
     15          6           0        3.979983   -2.451759   -1.121702
     16          6           0        3.268528   -1.312763   -1.215703
     17          1           0        5.034095   -2.525414   -0.911898
     18          1           0        3.681314   -0.336069   -1.010715
     19          8           0       -2.401769    0.267928   -0.736271
     20          1           0       -3.043810    0.859281   -0.805201
 ---------------------------------------------------------------------
                    Distance matrix (angstroms):
                    1          2          3          4          5
     1  C    0.000000
     2  C    1.434784   0.000000
     3  C    2.342407   1.354695   0.000000
     4  C    1.349055   2.311961   2.501284   0.000000
     5  H    1.079083   2.225631   3.355842   2.145322   0.000000
     6  S    2.558782   2.558127   1.762304   1.723398   3.601800
     7  H    2.169744   3.350819   3.555748   1.076807   2.589509
     8  C    3.775265   2.564183   1.465026   3.925984   4.739869
     9  S    4.761763   3.343186   2.834882   5.288568   5.523547
    10  C    6.159142   4.805606   3.940537   6.424393   7.030571
    11  C    6.073441   4.878252   3.737387   6.053858   7.053808
    12  C    4.830737   3.788027   2.515312   4.675652   5.858324
    13  H    4.959350   4.177882   2.833434   4.509054   6.027382
    14  S    7.687168   6.553233   5.348086   7.520783   8.699100
    15  C    8.284710   6.991803   5.987146   8.371309   9.209297
    16  C    7.512732   6.142919   5.319890   7.794036   8.358053
    17  H    9.316143   8.024160   7.026559   9.391098  10.236701
    18  H    7.960997   6.557312   5.906654   8.381057   8.723234
    19  O    2.440297   1.320569   2.327498   3.563483   2.797858
    20  H    2.528578   1.856804   3.076405   3.816431   2.527356
                    6          7          8          9         10
     6  S    0.000000
     7  H    2.461014   0.000000
     8  C    2.792932   4.950462   0.000000
     9  S    4.447880   6.358666   1.767361   0.000000
    10  C    5.211804   7.449746   2.502172   1.736880   0.000000
    11  C    4.600921   6.997992   2.321373   2.572044   1.368288
    12  C    3.179897   5.589944   1.352567   2.586459   2.341819
    13  H    2.845119   5.284006   2.146249   3.629650   3.352651
    14  S    5.933336   8.390112   3.991249   4.142186   2.578044
    15  C    6.947355   9.333118   4.540569   3.965203   2.301559
    16  C    6.554216   8.814832   3.895528   2.895288   1.437272
    17  H    7.948385  10.341400   5.591644   4.951884   3.339463
    18  H    7.276190   9.425175   4.564745   3.229882   2.231386
    19  O    3.829073   4.551815   2.994867   3.013702   4.695028
    20  H    4.407353   4.697172   3.856494   3.813436   5.512367
                   11         12         13         14         15
    11  C    0.000000
    12  C    1.433021   0.000000
    13  H    2.216850   1.078545   0.000000
    14  S    1.741285   2.897630   3.222883   0.000000
    15  C    2.474237   3.863592   4.531413   1.747117   0.000000
[...]
 ---------------------------------------------------------------------
      1          6           0       -4.027566    0.360488   -0.091029
      2          6           0       -2.676777    0.848852   -0.129099
      3          6           0       -1.735493   -0.119573   -0.005762
      4          6           0       -4.081902   -0.976426    0.063377
      5          1           0       -4.895698    0.996725   -0.178434
      6         16           0       -2.512101   -1.679251    0.174644
      7          1           0       -4.961214   -1.594529    0.122847
      8          6           0       -0.276055   -0.009809   -0.016601
      9         16           0        0.537345    1.541079    0.181390
     10          6           0        2.089352    0.767063    0.102365
     11          6           0        1.962630   -0.579464   -0.067138
     12          6           0        0.608359   -1.032460   -0.137050
     13          1           0        0.317359   -2.061065   -0.273682
     14         16           0        3.517772   -1.348958   -0.162369
     15          6           0        4.311721    0.193451    0.031073
     16          6           0        3.448709    1.223105    0.157697
     17          1           0        5.387414    0.240302    0.040215
     18          1           0        3.753156    2.249174    0.285799
     19          8           0       -2.361328    2.153351   -0.275694
     20          1           0       -3.136510    2.685310   -0.336828
 ---------------------------------------------------------------------
 Rotational constants (GHZ):           1.3017155           0.2823054           0.2331635

 **********************************************************************

            Population analysis using the SCF Density.

 **********************************************************************

 Orbital symmetries:
       Occupied  (A) (A) (A) (A) (A) (A) (A) (A) (A) (A) (A) (A)
                 (A) (A) (A) (A) (A) (A) (A) (A) (A) (A) (A) (A)
                 (A) (A) (A) (A) (A) (A) (A) (A) (A) (A) (A) (A)
                 (A) (A) (A) (A) (A) (A) (A) (A) (A) (A) (A) (A)
                 (A) (A) (A) (A) (A) (A) (A) (A) (A) (A) (A) (A)
                 (A)
       Virtual   (A) (A) (A) (A) (A) (A) (A) (A) (A) (A) (A) (A)
                 (A) (A) (A) (A) (A) (A) (A) (A) (A) (A) (A) (A)
                 (A) (A) (A) (A) (A) (A) (A) (A) (A) (A) (A) (A)
                 (A) (A) (A) (A) (A) (A) (A) (A) (A) (A) (A) (A)
                 (A) (A) (A) (A) (A) (A) (A) (A) (A) (A) (A) (A)
                 (A) (A) (A) (A) (A) (A) (A) (A) (A) (A) (A) (A)
                 (A) (A) (A) (A) (A) (A) (A) (A) (A) (A) (A) (A)
                 (A) (A) (A) (A) (A) (A) (A) (A) (A) (A) (A) (A)
                 (A) (A) (A) (A) (A) (A) (A) (A) (A) (A) (A) (A)
                 (A) (A) (A) (A) (A) (A) (A) (A) (A) (A) (A) (A)
                 (A) (A) (A) (A) (A) (A) (A) (A) (A) (A) (A) (A)
                 (A) (A) (A) (A) (A) (A) (A) (A) (A) (A) (A) (A)
                 (A) (A) (A) (A) (A) (A) (A) (A) (A) (A) (A) (A)
                 (A) (A) (A) (A) (A) (A) (A) (A) (A) (A) (A) (A)
                 (A) (A) (A) (A) (A) (A) (A) (A) (A) (A) (A) (A)
                 (A) (A) (A) (A) (A) (A) (A) (A) (A) (A) (A) (A)
                 (A) (A) (A) (A) (A) (A) (A) (A) (A) (A) (A) (A)
                 (A) (A) (A) (A) (A) (A) (A) (A) (A) (A) (A) (A)
                 (A) (A) (A) (A) (A) (A) (A) (A) (A) (A) (A) (A)
                 (A) (A) (A) (A) (A) (A) (A) (A) (A) (A) (A) (A)
                 (A) (A) (A) (A) (A) (A) (A) (A) (A) (A) (A) (A)
                 (A) (A) (A) (A) (A) (A) (A) (A) (A) (A) (A) (A)
                 (A) (A) (A) (A) (A) (A) (A) (A) (A) (A) (A) (A)
                 (A) (A) (A) (A) (A) (A) (A) (A) (A) (A) (A) (A)
                 (A) (A) (A) (A) (A) (A) (A) (A) (A) (A) (A) (A)
                 (A) (A) (A) (A) (A) (A) (A) (A) (A) (A) (A) (A)
                 (A) (A) (A) (A) (A) (A) (A) (A) (A) (A) (A) (A)
                 (A) (A) (A)
 The electronic state is 1-A.
 Alpha  occ. eigenvalues --  -91.99171 -91.98458 -91.98338 -20.61418 -11.31996
 Alpha  occ. eigenvalues --  -11.28897 -11.28627 -11.27510 -11.27164 -11.26648
 Alpha  occ. eigenvalues --  -11.26363 -11.25789 -11.25270 -11.24944  -8.99395
 Alpha  occ. eigenvalues --   -8.98641  -8.98486  -6.67568  -6.67476  -6.67272
 Alpha  occ. eigenvalues --   -6.66809  -6.66732  -6.66645  -6.66563  -6.66525
 Alpha  occ. eigenvalues --   -6.66351  -1.43485  -1.21195  -1.18668  -1.12529
 Alpha  occ. eigenvalues --   -1.03153  -1.01936  -0.98950  -0.95628  -0.94057
 Alpha  occ. eigenvalues --   -0.82857  -0.81664  -0.77101  -0.75369  -0.71214
 Alpha  occ. eigenvalues --   -0.70205  -0.67288  -0.66309  -0.62085  -0.61594
 Alpha  occ. eigenvalues --   -0.58800  -0.56346  -0.56138  -0.53981  -0.52730
 Alpha  occ. eigenvalues --   -0.52389  -0.51541  -0.49622  -0.47863  -0.46755
 Alpha  occ. eigenvalues --   -0.45362  -0.38898  -0.35943  -0.34180  -0.31651
 Alpha  occ. eigenvalues --   -0.27253
 Alpha virt. eigenvalues --    0.02704   0.03703   0.03908   0.05013   0.05144
 Alpha virt. eigenvalues --    0.06284   0.06779   0.08561   0.09390   0.09574
 Alpha virt. eigenvalues --    0.10393   0.10677   0.10761   0.11028   0.11619
 Alpha virt. eigenvalues --    0.12427   0.12746   0.13053   0.13129   0.13584
 Alpha virt. eigenvalues --    0.13858   0.14135   0.14627   0.15112   0.15318
 Alpha virt. eigenvalues --    0.15431   0.15813   0.16633   0.16827   0.17246
 Alpha virt. eigenvalues --    0.17657   0.18490   0.18781   0.19183   0.19504
 Alpha virt. eigenvalues --    0.19728   0.20216   0.20883   0.21287   0.22149
 Alpha virt. eigenvalues --    0.22406   0.22786   0.22876   0.23368   0.23670
 Alpha virt. eigenvalues --    0.24108   0.24403   0.25296   0.25863   0.26237
 Alpha virt. eigenvalues --    0.26619   0.27074   0.27481   0.27956   0.28098
 Alpha virt. eigenvalues --    0.28836   0.29547   0.29854   0.31328   0.31722
 Alpha virt. eigenvalues --    0.32014   0.32224   0.32563   0.32930   0.33754
 Alpha virt. eigenvalues --    0.34217   0.34563   0.35529   0.35678   0.36254
 Alpha virt. eigenvalues --    0.36603   0.37236   0.38190   0.39293   0.39688
 Alpha virt. eigenvalues --    0.40232   0.40642   0.41771   0.41907   0.42434
 Alpha virt. eigenvalues --    0.42805   0.43262   0.44682   0.45345   0.45515
 Alpha virt. eigenvalues --    0.45844   0.46820   0.47742   0.47881   0.48739
 Alpha virt. eigenvalues --    0.49046   0.49927   0.50798   0.51367   0.52121
 Alpha virt. eigenvalues --    0.52348   0.54133   0.54312   0.54488   0.55652
 Alpha virt. eigenvalues --    0.56468   0.56695   0.58936   0.59306   0.59483
 Alpha virt. eigenvalues --    0.60477   0.61879   0.62630   0.62913   0.63351
 Alpha virt. eigenvalues --    0.63509   0.64261   0.64985   0.66318   0.66561
 Alpha virt. eigenvalues --    0.66786   0.67184   0.67702   0.68308   0.68901
 Alpha virt. eigenvalues --    0.69170   0.69341   0.69718   0.70651   0.71047
 Alpha virt. eigenvalues --    0.71565   0.72179   0.72776   0.73372   0.74312
 Alpha virt. eigenvalues --    0.74729   0.75102   0.75800   0.76407   0.77350
 Alpha virt. eigenvalues --    0.78244   0.78715   0.78964   0.80082   0.80160
 Alpha virt. eigenvalues --    0.81650   0.82770   0.83722   0.83955   0.84572
 Alpha virt. eigenvalues --    0.85501   0.86160   0.86286   0.87092   0.87485
 Alpha virt. eigenvalues --    0.89440   0.89846   0.90948   0.91205   0.91660
 Alpha virt. eigenvalues --    0.92647   0.93035   0.93589   0.94782   0.95924
 Alpha virt. eigenvalues --    0.96397   0.96539   0.97578   0.98173   0.98945
 Alpha virt. eigenvalues --    0.99451   1.00898   1.01257   1.02201   1.03699
 Alpha virt. eigenvalues --    1.04713   1.04876   1.06708   1.07798   1.08711
 Alpha virt. eigenvalues --    1.09895   1.10387   1.11241   1.12090   1.13160
 Alpha virt. eigenvalues --    1.13506   1.15710   1.16903   1.17828   1.19481
 Alpha virt. eigenvalues --    1.20903   1.21415   1.22555   1.23449   1.23922
 Alpha virt. eigenvalues --    1.24729   1.25869   1.26242   1.27974   1.28901
 Alpha virt. eigenvalues --    1.29554   1.30208   1.31118   1.31456   1.33374
 Alpha virt. eigenvalues --    1.34562   1.35436   1.35707   1.36575   1.38065
 Alpha virt. eigenvalues --    1.38517   1.39710   1.40940   1.41951   1.44595
 Alpha virt. eigenvalues --    1.45707   1.45816   1.48844   1.49802   1.51014
 Alpha virt. eigenvalues --    1.51857   1.54438   1.55517   1.56481   1.57466
 Alpha virt. eigenvalues --    1.57919   1.59509   1.60250   1.62049   1.62952
 Alpha virt. eigenvalues --    1.63641   1.64627   1.66104   1.66872   1.69035
 Alpha virt. eigenvalues --    1.69984   1.70153   1.72312   1.72850   1.73731
 Alpha virt. eigenvalues --    1.74480   1.75821   1.76698   1.77569   1.78666
 Alpha virt. eigenvalues --    1.80244   1.81049   1.82106   1.83605   1.84121
 Alpha virt. eigenvalues --    1.85038   1.86695   1.87613   1.89755   1.90307
 Alpha virt. eigenvalues --    1.91087   1.93504   1.93900   1.95420   1.96555
 Alpha virt. eigenvalues --    1.98188   2.00718   2.01676   2.02269   2.03179
 Alpha virt. eigenvalues --    2.04020   2.07363   2.09208   2.10757   2.10938
 Alpha virt. eigenvalues --    2.11204   2.12191   2.14335   2.16182   2.17464
 Alpha virt. eigenvalues --    2.17871   2.20494   2.21627   2.21709   2.22700
 Alpha virt. eigenvalues --    2.25862   2.27553   2.27981   2.28851   2.31798
 Alpha virt. eigenvalues --    2.34090   2.35810   2.36003   2.36715   2.38444
 Alpha virt. eigenvalues --    2.40586   2.42141   2.42767   2.45931   2.46126
 Alpha virt. eigenvalues --    2.48385   2.49645   2.50876   2.52711   2.56097
 Alpha virt. eigenvalues --    2.58036   2.61165   2.62046   2.64031   2.66994
 Alpha virt. eigenvalues --    2.76696   2.81052   2.83900   2.85888   2.88340
 Alpha virt. eigenvalues --    2.92365   2.97630   3.00576   3.03253   3.05319
 Alpha virt. eigenvalues --    3.16710   3.20859   3.26432   3.29854   3.35384
 Alpha virt. eigenvalues --    3.40496   3.53718   3.59016   3.73311   3.75750
 Alpha virt. eigenvalues --    3.76288   3.81723   3.87254   3.92256   4.13621
 Alpha virt. eigenvalues --    4.26620   4.47732
          Condensed to atoms (all electrons):
               1          2          3          4          5          6
     1  C    8.376360  -2.191734   0.234946   0.019300  -0.285741  -0.464177
     2  C   -2.191734  12.880840  -3.461752   0.520893   0.206647  -0.479698
     3  C    0.234946  -3.461752  13.700572  -1.834972   0.098701  -0.196901
     4  C    0.019300   0.520893  -1.834972   7.079175  -0.017608   0.224353
     5  H   -0.285741   0.206647   0.098701  -0.017608   1.664865  -0.032423
     6  S   -0.464177  -0.479698  -0.196901   0.224353  -0.032423  16.507760
     7  H    0.066228   0.079885  -0.017418   0.126583  -0.061185  -0.121995
     8  C   -0.259590  -0.291372  -3.441155   0.657124  -0.057350  -0.018702
     9  S   -0.118739   0.296706  -0.691596   0.121323   0.010749   0.034145
    10  C   -0.102428   0.067724  -0.068242   0.056850  -0.000017   0.033626
    11  C    0.011586  -0.013582   0.236591  -0.046727  -0.001019  -0.088749
    12  C    0.079672  -0.955565   0.398609  -0.520780   0.001262   0.035501
    13  H   -0.014003   0.048009   0.011498   0.013714  -0.001066  -0.002932
    14  S    0.000685  -0.010462  -0.044478   0.000987   0.000066   0.014856
    15  C   -0.002161  -0.012412   0.030450   0.001369  -0.000001   0.006736
    16  C   -0.005361   0.027719  -0.304884   0.001888  -0.000409   0.008996
    17  H   -0.000047  -0.000039  -0.000428   0.000015   0.000001   0.000178
    18  H   -0.000404   0.003150  -0.006538   0.000423  -0.000001   0.000392
    19  O    0.099630  -0.771991   0.328013  -0.065883  -0.050334   0.022939
    20  H   -0.112661  -0.020492  -0.031351  -0.012351  -0.009143   0.009516
               7          8          9         10         11         12
     1  C    0.066228  -0.259590  -0.118739  -0.102428   0.011586   0.079672
     2  C    0.079885  -0.291372   0.296706   0.067724  -0.013582  -0.955565
     3  C   -0.017418  -3.441155  -0.691596  -0.068242   0.236591   0.398609
     4  C    0.126583   0.657124   0.121323   0.056850  -0.046727  -0.520780
     5  H   -0.061185  -0.057350   0.010749  -0.000017  -0.001019   0.001262
     6  S   -0.121995  -0.018702   0.034145   0.033626  -0.088749   0.035501
     7  H    1.287500   0.015977   0.000352   0.000253   0.002108  -0.003237
     8  C    0.015977  14.769173   0.322260  -0.927679  -0.277436  -5.153308
     9  S    0.000352   0.322260  17.005930   0.339312  -0.536514  -1.092823
    10  C    0.000253  -0.927679   0.339312  11.414979  -1.425460  -0.520492
    11  C    0.002108  -0.277436  -0.536514  -1.425460  13.890973  -3.872892
    12  C   -0.003237  -5.153308  -1.092823  -0.520492  -3.872892  19.370072
    13  H    0.004261   0.908039   0.047857  -0.144208   0.495433  -1.630610
    14  S   -0.000095  -0.424592   0.153697   0.177517  -0.644193   0.181572
    15  C    0.000020   0.002517  -0.129769  -0.161831  -1.178269   0.122784
    16  C    0.000049   0.027605  -0.242096  -2.812584  -0.392454  -0.758916
    17  H   -0.000000  -0.002499   0.018186   0.113395  -0.116103   0.032978
    18  H    0.000013   0.055641   0.047799   0.528948   0.052799  -0.046317
    19  O   -0.002006   0.026337  -0.094035   0.010102  -0.006141   0.011051
    20  H    0.001159   0.017659   0.028320   0.006782  -0.001016  -0.007804
              13         14         15         16         17         18
     1  C   -0.014003   0.000685  -0.002161  -0.005361  -0.000047  -0.000404
     2  C    0.048009  -0.010462  -0.012412   0.027719  -0.000039   0.003150
     3  C    0.011498  -0.044478   0.030450  -0.304884  -0.000428  -0.006538
     4  C    0.013714   0.000987   0.001369   0.001888   0.000015   0.000423
     5  H   -0.001066   0.000066  -0.000001  -0.000409   0.000001  -0.000001
     6  S   -0.002932   0.014856   0.006736   0.008996   0.000178   0.000392
     7  H    0.004261  -0.000095   0.000020   0.000049  -0.000000   0.000013
     8  C    0.908039  -0.424592   0.002517   0.027605  -0.002499   0.055641
     9  S    0.047857   0.153697  -0.129769  -0.242096   0.018186   0.047799
    10  C   -0.144208   0.177517  -0.161831  -2.812584   0.113395   0.528948
    11  C    0.495433  -0.644193  -1.178269  -0.392454  -0.116103   0.052799
    12  C   -1.630610   0.181572   0.122784  -0.758916   0.032978  -0.046317
    13  H    1.853166  -0.062684   0.014313  -0.028352   0.002651   0.001491
    14  S   -0.062684  16.168651   0.229881  -0.114074  -0.135846  -0.000103
    15  C    0.014313   0.229881   7.050610   0.107484   0.199766  -0.110233
    16  C   -0.028352  -0.114074   0.107484  10.684429   0.029132  -0.543728
    17  H    0.002651  -0.135846   0.199766   0.029132   1.313289  -0.070606
    18  H    0.001491  -0.000103  -0.110233  -0.543728  -0.070606   1.416487
    19  O    0.000858   0.000637  -0.000073   0.002119   0.000030   0.000149
    20  H    0.000402  -0.000014   0.000015   0.000794   0.000000   0.000080
              19         20
     1  C    0.099630  -0.112661
     2  C   -0.771991  -0.020492
     3  C    0.328013  -0.031351
     4  C   -0.065883  -0.012351
     5  H   -0.050334  -0.009143
     6  S    0.022939   0.009516
     7  H   -0.002006   0.001159
     8  C    0.026337   0.017659
     9  S   -0.094035   0.028320
    10  C    0.010102   0.006782
    11  C   -0.006141  -0.001016
    12  C    0.011051  -0.007804
    13  H    0.000858   0.000402
    14  S    0.000637  -0.000014
    15  C   -0.000073   0.000015
    16  C    0.002119   0.000794
    17  H    0.000030   0.000000
    18  H    0.000149   0.000080
    19  O    9.054175   0.365522
    20  H    0.365522   0.578592
 Mulliken charges:
               1
     1  C    0.668640
     2  C    0.077528
     3  C    1.060334
     4  C   -0.325677
     5  H   -0.465992
     6  S    0.506580
     7  H   -0.378453
     8  C    0.051349
     9  S    0.478934
    10  C   -0.586547
    11  C   -0.088935
    12  C    0.329243
    13  H   -0.517838
    14  S    0.507990
    15  C   -0.171197
    16  C    0.312642
    17  H   -0.384051
    18  H   -0.329443
    19  O   -0.931098
    20  H    0.185990
 Sum of Mulliken charges =  -0.00000
 Mulliken charges with hydrogens summed into heavy atoms:
               1
     1  C    0.202647
     2  C    0.077528
     3  C    1.060334
     4  C   -0.704130
     6  S    0.506580
     8  C    0.051349
     9  S    0.478934
    10  C   -0.586547
    11  C   -0.088935
    12  C   -0.188595
    14  S    0.507990
    15  C   -0.555247
    16  C   -0.016802
    19  O   -0.745108
 Electronic spatial extent (au):  <R**2>=           4307.5930
 Charge=              0.0000 electrons
 Dipole moment (field-independent basis, Debye):
    X=             -2.6938    Y=              1.1725    Z=             -0.1367  Tot=              2.9411
 Quadrupole moment (field-independent basis, Debye-Ang):
   XX=            -75.6837   YY=            -96.1668   ZZ=           -110.5261
   XY=             -1.0059   XZ=              1.4303   YZ=              0.0795
 Traceless Quadrupole moment (field-independent basis, Debye-Ang):
   XX=             18.4418   YY=             -2.0413   ZZ=            -16.4006
   XY=             -1.0059   XZ=              1.4303   YZ=              0.0795
 Octapole moment (field-independent basis, Debye-Ang**2):
  XXX=            -62.2455  YYY=             23.3274  ZZZ=             -1.5691  XYY=            -26.1966
  XXY=             41.1820  XXZ=             -1.3799  XZZ=             -5.2441  YZZ=              4.3222
  YYZ=             -1.3924  XYZ=              6.7061
 Hexadecapole moment (field-independent basis, Debye-Ang**3):
 XXXX=          -3951.8444 YYYY=           -992.8611 ZZZZ=           -153.2326 XXXY=            -13.3671
 XXXZ=             24.0866 YYYX=            -50.1338 YYYZ=             -4.2206 ZZZX=              2.7415
 ZZZY=             -3.8538 XXYY=           -835.1241 XXZZ=           -912.9106 YYZZ=           -216.3278
 XXYZ=            -14.0405 YYXZ=             10.7327 ZZXY=            -14.2972
 N-N= 1.130496934271D+03 E-N=-6.168388621468D+03  KE= 1.649585471654D+03
 Unable to Open any file for archive entry.
 1\1\GINC-CX3-7-1\FOpt\RHF\Aug-CC-pVDZ\C10H6O1S3\NS5018\25-Oct-2021\0\\
 # opt=modredundant hf/aug-cc-pvdz\\pBTTT_15.pdb\\0,1\C,-4.1941222328,-
 1.3112912221,-0.3115155852\C,-2.8184855215,-0.9830348894,-0.5653883125
 \C,-1.9780351495,-2.0460191883,-0.5126591382\C,-4.3680838801,-2.624550
 8363,-0.068161001\H,-4.9928938032,-0.5846481609,-0.3181046794\S,-2.882
 649729,-3.4964637731,-0.1303670618\H,-5.2906265879,-3.1345130655,0.150
 0825147\C,-0.5319970923,-2.1046274653,-0.7309854589\S,0.4622310337,-0.
 6494917664,-0.7437340354\C,1.8952270883,-1.5988774222,-0.987169323\C,1
 .6024948845,-2.9284787296,-1.0534525954\C,0.2116955572,-3.226268875,-0
 .9080466087\H,-0.2040110497,-4.2200530022,-0.9390316371\S,3.0367298767
 ,-3.8744901404,-1.3136208379\C,4.0102632216,-2.4257545427,-1.327662568
 6\C,3.289260398,-1.2993251502,-1.1478765265\H,5.0749054839,-2.50194427
 38,-1.4695266184\H,3.7167011088,-0.3099938996,-1.1270167198\O,-2.38996
 34345,0.2685380762,-0.8349250417\H,-3.1046401721,0.8822883266,-0.82183
 87652\\Version=ES64L-G16RevC.01\State=1-A\HF=-1649.6425775\RMSD=8.927e
 -09\RMSF=1.010e-04\Dipole=-1.0012019,0.5765454,0.0638967\Quadrupole=13
 .1484197,-1.1773433,-11.9710764,-2.4671775,-2.5014143,-0.2243238\PG=C0
 1 [X(C10H6O1S3)]\\@
 The archive entry for this job was punched.


 ARTHROPOD AXIOM: A COMPUTER SYSTEM IS LIKE A SPIDER'S WEB.
 YOU CANNOT PULL ON ONE END WITHOUT MAKING THE OTHER END MOVE.
     -- GREG WETTSTEIN
 Job cpu time:       0 days  4 hours 33 minutes 42.0 seconds.
 Elapsed time:       0 days  0 hours 34 minutes 28.8 seconds.
 File lengths (MBytes):  RWF=     95 Int=      0 D2E=      0 Chk=     12 Scr=      1
 Normal termination of Gaussian 16 at Mon Oct 25 23:13:55 2021.
