 Entering Gaussian System, Link 0=g16
 Input=pBTTT_-65.gjf
 Output=pBTTT_-65.log
 Initial command:
 /apps/gaussian/g16-c01-avx/g16/l1.exe "/tmp/pbs.4762170[110].pbs/Gau-1951261.inp" -scrdir="/tmp/pbs.4762170[110].pbs/"
 Entering Link 1 = /apps/gaussian/g16-c01-avx/g16/l1.exe PID=   1951262.
  
 Copyright (c) 1988-2019, Gaussian, Inc.  All Rights Reserved.
  
 This is part of the Gaussian(R) 16 program.  It is based on
 the Gaussian(R) 09 system (copyright 2009, Gaussian, Inc.),
 the Gaussian(R) 03 system (copyright 2003, Gaussian, Inc.),
 the Gaussian(R) 98 system (copyright 1998, Gaussian, Inc.),
 the Gaussian(R) 94 system (copyright 1995, Gaussian, Inc.),
 the Gaussian 92(TM) system (copyright 1992, Gaussian, Inc.),
 the Gaussian 90(TM) system (copyright 1990, Gaussian, Inc.),
 the Gaussian 88(TM) system (copyright 1988, Gaussian, Inc.),
 the Gaussian 86(TM) system (copyright 1986, Carnegie Mellon
 University), and the Gaussian 82(TM) system (copyright 1983,
 Carnegie Mellon University). Gaussian is a federally registered
 trademark of Gaussian, Inc.
  
 This software contains proprietary and confidential information,
 including trade secrets, belonging to Gaussian, Inc.
  
 This software is provided under written license and may be
 used, copied, transmitted, or stored only in accord with that
 written license.
  
 The following legend is applicable only to US Government
 contracts under FAR:
  
                    RESTRICTED RIGHTS LEGEND
  
 Use, reproduction and disclosure by the US Government is
 subject to restrictions as set forth in subparagraphs (a)
 and (c) of the Commercial Computer Software - Restricted
 Rights clause in FAR 52.227-19.
  
 Gaussian, Inc.
 340 Quinnipiac St., Bldg. 40, Wallingford CT 06492
  
  
 ---------------------------------------------------------------
 Warning -- This program may not be used in any manner that
 competes with the business of Gaussian, Inc. or will provide
 assistance to any competitor of Gaussian, Inc.  The licensee
 of this program is prohibited from giving any competitor of
 Gaussian, Inc. access to this program.  By using this program,
 the user acknowledges that Gaussian, Inc. is engaged in the
 business of creating and licensing software in the field of
 computational chemistry and represents and warrants to the
 licensee that it is not a competitor of Gaussian, Inc. and that
 it will not use this program in any manner prohibited above.
 ---------------------------------------------------------------
  

 Cite this work as:
 Gaussian 16, Revision C.01,
 M. J. Frisch, G. W. Trucks, H. B. Schlegel, G. E. Scuseria, 
 M. A. Robb, J. R. Cheeseman, G. Scalmani, V. Barone, 
 G. A. Petersson, H. Nakatsuji, X. Li, M. Caricato, A. V. Marenich, 
 J. Bloino, B. G. Janesko, R. Gomperts, B. Mennucci, H. P. Hratchian, 
 J. V. Ortiz, A. F. Izmaylov, J. L. Sonnenberg, D. Williams-Young, 
 F. Ding, F. Lipparini, F. Egidi, J. Goings, B. Peng, A. Petrone, 
 T. Henderson, D. Ranasinghe, V. G. Zakrzewski, J. Gao, N. Rega, 
 G. Zheng, W. Liang, M. Hada, M. Ehara, K. Toyota, R. Fukuda, 
 J. Hasegawa, M. Ishida, T. Nakajima, Y. Honda, O. Kitao, H. Nakai, 
 T. Vreven, K. Throssell, J. A. Montgomery, Jr., J. E. Peralta, 
 F. Ogliaro, M. J. Bearpark, J. J. Heyd, E. N. Brothers, K. N. Kudin, 
 V. N. Staroverov, T. A. Keith, R. Kobayashi, J. Normand, 
 K. Raghavachari, A. P. Rendell, J. C. Burant, S. S. Iyengar, 
 J. Tomasi, M. Cossi, J. M. Millam, M. Klene, C. Adamo, R. Cammi, 
 J. W. Ochterski, R. L. Martin, K. Morokuma, O. Farkas, 
 J. B. Foresman, and D. J. Fox, Gaussian, Inc., Wallingford CT, 2019.
 
 ******************************************
 Gaussian 16:  ES64L-G16RevC.01  3-Jul-2019
                25-Oct-2021 
 ******************************************
 %mem=100GB
 %nprocshared=8
 Will use up to    8 processors via shared memory.
 ---------------------------------
 # opt=modredundant hf/aug-cc-pvdz
 ---------------------------------
 1/18=120,19=15,38=1/1,3;
 2/9=110,12=2,17=6,18=5,40=1/2;
 3/5=16,7=10,11=9,25=1,30=1,71=1/1,2,3;
 4//1;
 5/5=2,38=5/2;
 6/7=2,8=2,9=2,10=2,28=1/1;
 7//1,2,3,16;
 1/18=20,19=15/3(2);
 2/9=110/2;
 99//99;
 2/9=110/2;
 3/5=16,7=10,11=9,25=1,30=1,71=1/1,2,3;
 4/5=5,16=3,69=1/1;
 5/5=2,38=5/2;
 7//1,2,3,16;
 1/18=20,19=15/3(-5);
 2/9=110/2;
 6/7=2,8=2,9=2,10=2,19=2,28=1/1;
 99/9=1/99;
 -------------
 pBTTT_-65.pdb
 -------------
 Symbolic Z-matrix:
 Charge =  0 Multiplicity = 1
 C                    -4.25     -1.36     -0.21 
 C                    -2.93     -0.95     -0.61 
 C                    -1.97     -2.05     -0.62 
 C                    -4.33     -2.76      0.1 
 H                    -5.1      -0.7      -0.14 
 S                    -2.8      -3.56     -0.11 
 H                    -5.23     -3.27      0.41 
 C                    -0.56     -2.13     -0.97 
 S                     0.021    -1.84     -2.638 
 C                     1.673    -2.107    -2.199 
 C                     1.829    -2.39     -0.795 
 C                     0.582    -2.389    -0.09 
 H                     0.515    -2.419     0.986 
 S                     3.397    -1.961    -0.197 
 C                     3.899    -1.406    -1.796 
 C                     2.843    -1.531    -2.776 
 H                     4.82     -0.866    -1.959 
 H                     2.858    -1.003    -3.725 
 O                    -2.4       0.49     -0.72 
 H                    -2.92      1.52     -0.76 
 
 Add virtual bond connecting atoms H20        and O19        Dist= 2.18D+00.
 The following ModRedundant input section has been read:
 D       2       3       8       9 F                                           
 

 GradGradGradGradGradGradGradGradGradGradGradGradGradGradGradGradGradGrad
 Berny optimization.
 Initialization pass.
                           ----------------------------
                           !    Initial Parameters    !
                           ! (Angstroms and Degrees)  !
 --------------------------                            --------------------------
 ! Name  Definition              Value          Derivative Info.                !
 --------------------------------------------------------------------------------
 ! R1    R(1,2)                  1.4389         estimate D2E/DX2                !
 ! R2    R(1,4)                  1.4361         estimate D2E/DX2                !
 ! R3    R(1,5)                  1.0784         estimate D2E/DX2                !
 ! R4    R(2,3)                  1.46           estimate D2E/DX2                !
 ! R5    R(2,19)                 1.5384         estimate D2E/DX2                !
 ! R6    R(3,6)                  1.797          estimate D2E/DX2                !
 ! R7    R(3,8)                  1.455          estimate D2E/DX2                !
 ! R8    R(4,6)                  1.7393         estimate D2E/DX2                !
 ! R9    R(4,7)                  1.0799         estimate D2E/DX2                !
 ! R10   R(8,9)                  1.7899         estimate D2E/DX2                !
 ! R11   R(8,12)                 1.4648         estimate D2E/DX2                !
 ! R12   R(9,10)                 1.7301         estimate D2E/DX2                !
 ! R13   R(10,11)                1.4407         estimate D2E/DX2                !
 ! R14   R(10,16)                1.426          estimate D2E/DX2                !
 ! R15   R(11,12)                1.4325         estimate D2E/DX2                !
 ! R16   R(11,14)                1.7321         estimate D2E/DX2                !
 ! R17   R(12,13)                1.0785         estimate D2E/DX2                !
 ! R18   R(14,15)                1.7655         estimate D2E/DX2                !
 ! R19   R(15,16)                1.4461         estimate D2E/DX2                !
 ! R20   R(15,17)                1.08           estimate D2E/DX2                !
 ! R21   R(16,18)                1.0861         estimate D2E/DX2                !
 ! R22   R(19,20)                1.1545         estimate D2E/DX2                !
 ! A1    A(2,1,4)              112.8843         estimate D2E/DX2                !
 ! A2    A(2,1,5)              124.5209         estimate D2E/DX2                !
 ! A3    A(4,1,5)              122.5942         estimate D2E/DX2                !
 ! A4    A(1,2,3)              112.9799         estimate D2E/DX2                !
 ! A5    A(1,2,19)             127.059          estimate D2E/DX2                !
 ! A6    A(3,2,19)             118.5686         estimate D2E/DX2                !
 ! A7    A(2,3,6)              109.1138         estimate D2E/DX2                !
 ! A8    A(2,3,8)              132.8639         estimate D2E/DX2                !
 ! A9    A(6,3,8)              118.0132         estimate D2E/DX2                !
 ! A10   A(1,4,6)              111.9209         estimate D2E/DX2                !
 ! A11   A(1,4,7)              124.6643         estimate D2E/DX2                !
 ! A12   A(6,4,7)              123.4062         estimate D2E/DX2                !
 ! A13   A(3,6,4)               93.0997         estimate D2E/DX2                !
 ! A14   A(3,8,9)              121.9926         estimate D2E/DX2                !
 ! A15   A(3,8,12)             128.3693         estimate D2E/DX2                !
 ! A16   A(9,8,12)             109.5983         estimate D2E/DX2                !
 ! A17   A(8,9,10)              92.7788         estimate D2E/DX2                !
 ! A18   A(9,10,11)            112.3952         estimate D2E/DX2                !
 ! A19   A(9,10,16)            128.2012         estimate D2E/DX2                !
 ! A20   A(11,10,16)           112.6319         estimate D2E/DX2                !
 ! A21   A(10,11,12)           112.657          estimate D2E/DX2                !
 ! A22   A(10,11,14)           112.6942         estimate D2E/DX2                !
 ! A23   A(12,11,14)           128.166          estimate D2E/DX2                !
 ! A24   A(8,12,11)            112.5278         estimate D2E/DX2                !
 ! A25   A(8,12,13)            123.7697         estimate D2E/DX2                !
 ! A26   A(11,12,13)           123.0293         estimate D2E/DX2                !
 ! A27   A(11,14,15)            91.2935         estimate D2E/DX2                !
 ! A28   A(14,15,16)           112.2705         estimate D2E/DX2                !
 ! A29   A(14,15,17)           122.4363         estimate D2E/DX2                !
 ! A30   A(16,15,17)           124.3104         estimate D2E/DX2                !
 ! A31   A(10,16,15)           111.0905         estimate D2E/DX2                !
 ! A32   A(10,16,18)           124.1411         estimate D2E/DX2                !
 ! A33   A(15,16,18)           122.6863         estimate D2E/DX2                !
 ! A34   A(2,19,20)            133.0318         estimate D2E/DX2                !
 ! D1    D(4,1,2,3)              0.3915         estimate D2E/DX2                !
 ! D2    D(4,1,2,19)          -165.8104         estimate D2E/DX2                !
 ! D3    D(5,1,2,3)           -179.8811         estimate D2E/DX2                !
 ! D4    D(5,1,2,19)            13.9169         estimate D2E/DX2                !
 ! D5    D(2,1,4,6)             -0.3845         estimate D2E/DX2                !
 ! D6    D(2,1,4,7)           -179.3471         estimate D2E/DX2                !
 ! D7    D(5,1,4,6)            179.8822         estimate D2E/DX2                !
 ! D8    D(5,1,4,7)              0.9196         estimate D2E/DX2                !
 ! D9    D(1,2,3,6)             -0.2224         estimate D2E/DX2                !
 ! D10   D(1,2,3,8)            178.6265         estimate D2E/DX2                !
 ! D11   D(19,2,3,6)           167.2616         estimate D2E/DX2                !
 ! D12   D(19,2,3,8)           -13.8895         estimate D2E/DX2                !
 ! D13   D(1,2,19,20)          -16.0519         estimate D2E/DX2                !
 ! D14   D(3,2,19,20)          178.4264         estimate D2E/DX2                !
 ! D15   D(2,3,6,4)              0.0033         estimate D2E/DX2                !
 ! D16   D(8,3,6,4)           -179.041          estimate D2E/DX2                !
 ! D17   D(2,3,8,9)            -65.0055         Frozen                          !
 ! D18   D(2,3,8,12)           112.4512         estimate D2E/DX2                !
 ! D19   D(6,3,8,9)            113.7625         estimate D2E/DX2                !
 ! D20   D(6,3,8,12)           -68.7809         estimate D2E/DX2                !
 ! D21   D(1,4,6,3)              0.2153         estimate D2E/DX2                !
 ! D22   D(7,4,6,3)            179.1932         estimate D2E/DX2                !
 ! D23   D(3,8,9,10)           179.7842         estimate D2E/DX2                !
 ! D24   D(12,8,9,10)            1.9007         estimate D2E/DX2                !
 ! D25   D(3,8,12,11)         -179.8409         estimate D2E/DX2                !
 ! D26   D(3,8,12,13)           -9.011          estimate D2E/DX2                !
 ! D27   D(9,8,12,11)           -2.1305         estimate D2E/DX2                !
 ! D28   D(9,8,12,13)          168.6995         estimate D2E/DX2                !
 ! D29   D(8,9,10,11)           -1.2245         estimate D2E/DX2                !
 ! D30   D(8,9,10,16)         -149.8633         estimate D2E/DX2                !
 ! D31   D(9,10,11,12)           0.189          estimate D2E/DX2                !
 ! D32   D(9,10,11,14)        -154.0187         estimate D2E/DX2                !
 ! D33   D(16,10,11,12)        153.8873         estimate D2E/DX2                !
 ! D34   D(16,10,11,14)         -0.3204         estimate D2E/DX2                !
 ! D35   D(9,10,16,15)         149.753          estimate D2E/DX2                !
 ! D36   D(9,10,16,18)         -14.1644         estimate D2E/DX2                !
 ! D37   D(11,10,16,15)          1.174          estimate D2E/DX2                !
 ! D38   D(11,10,16,18)       -162.7433         estimate D2E/DX2                !
 ! D39   D(10,11,12,8)           1.2881         estimate D2E/DX2                !
 ! D40   D(10,11,12,13)       -169.6204         estimate D2E/DX2                !
 ! D41   D(14,11,12,8)         150.5862         estimate D2E/DX2                !
 ! D42   D(14,11,12,13)        -20.3222         estimate D2E/DX2                !
 ! D43   D(10,11,14,15)         -0.4771         estimate D2E/DX2                !
 ! D44   D(12,11,14,15)       -149.766          estimate D2E/DX2                !
 ! D45   D(11,14,15,16)          1.1505         estimate D2E/DX2                !
 ! D46   D(11,14,15,17)        170.2523         estimate D2E/DX2                !
 ! D47   D(14,15,16,10)         -1.5275         estimate D2E/DX2                !
 ! D48   D(14,15,16,18)        162.6641         estimate D2E/DX2                !
 ! D49   D(17,15,16,10)       -170.3888         estimate D2E/DX2                !
 ! D50   D(17,15,16,18)         -6.1972         estimate D2E/DX2                !
 --------------------------------------------------------------------------------
 Trust Radius=3.00D-01 FncErr=1.00D-07 GrdErr=1.00D-07 EigMax=2.50D+02 EigMin=1.00D-04
 Number of steps in this run=    116 maximum allowed number of steps=    120.
 GradGradGradGradGradGradGradGradGradGradGradGradGradGradGradGradGradGrad

                          Input orientation:                          
 ---------------------------------------------------------------------
 Center     Atomic      Atomic             Coordinates (Angstroms)
 Number     Number       Type             X           Y           Z
 ---------------------------------------------------------------------
      1          6           0       -4.250000   -1.360000   -0.210000
      2          6           0       -2.930000   -0.950000   -0.610000
      3          6           0       -1.970000   -2.050000   -0.620000
      4          6           0       -4.330000   -2.760000    0.100000
      5          1           0       -5.100000   -0.700000   -0.140000
      6         16           0       -2.800000   -3.560000   -0.110000
      7          1           0       -5.230000   -3.270000    0.410000
      8          6           0       -0.560000   -2.130000   -0.970000
      9         16           0        0.021000   -1.840000   -2.638000
     10          6           0        1.673000   -2.107000   -2.199000
     11          6           0        1.829000   -2.390000   -0.795000
     12          6           0        0.582000   -2.389000   -0.090000
     13          1           0        0.515000   -2.419000    0.986000
     14         16           0        3.397000   -1.961000   -0.197000
     15          6           0        3.899000   -1.406000   -1.796000
     16          6           0        2.843000   -1.531000   -2.776000
     17          1           0        4.820000   -0.866000   -1.959000
     18          1           0        2.858000   -1.003000   -3.725000
     19          8           0       -2.400000    0.490000   -0.720000
     20          1           0       -2.920000    1.520000   -0.760000
 ---------------------------------------------------------------------
                    Distance matrix (angstroms):
                    1          2          3          4          5
     1  C    0.000000
     2  C    1.438923   0.000000
     3  C    2.417147   1.460034   0.000000
     4  C    1.436141   2.395871   2.567509   0.000000
     5  H    1.078425   2.234346   3.442354   2.212261   0.000000
     6  S    2.636759   2.660639   1.796970   1.739253   3.670218
     7  H    2.234480   3.422397   3.630000   1.079907   2.631406
     8  C    3.845335   2.671872   1.454991   3.969219   4.831708
     9  S    4.936297   3.689619   2.842623   5.222475   5.810701
    10  C    6.292540   5.005115   3.970886   6.461255   7.217524
    11  C    6.193332   4.975531   3.818197   6.234678   7.162134
    12  C    4.941808   3.830831   2.628407   4.929654   5.927929
    13  H    5.025646   4.071020   2.981715   4.937135   5.979219
    14  S    7.670592   6.420562   5.384379   7.773875   8.590249
    15  C    8.302031   6.946206   6.020205   8.552460   9.177297
    16  C    7.544816   6.193274   5.299308   7.825199   8.410131
    17  H    9.250294   7.866979   7.021316   9.568136  10.086759
    18  H    7.937653   6.573202   5.834965   8.329767   8.733487
    19  O    2.665539   1.538376   2.578081   3.867790   3.007075
    20  H    3.219596   2.474571   3.696891   4.587603   3.172570
                    6          7          8          9         10
     6  S    0.000000
     7  H    2.501879   0.000000
     8  C    2.793224   5.001290   0.000000
     9  S    4.160195   6.237644   1.789940   0.000000
    10  C    5.146150   7.470667   2.548972   1.730062   0.000000
    11  C    4.823460   7.214978   2.409470   2.639699   1.440709
    12  C    3.579045   5.899619   1.464802   2.666163   2.391168
    13  H    3.673190   5.836180   2.250574   3.703060   3.403312
    14  S    6.400561   8.746831   4.035336   4.167793   2.646034
    15  C    7.235946   9.574945   4.592291   3.992018   2.368309
    16  C    6.562610   8.851443   3.898826   2.842219   1.426045
    17  H    8.291009  10.601598   5.614287   4.943695   3.391355
    18  H    7.184667   9.362332   4.532425   3.151302   2.225245
    19  O    4.115167   4.839773   3.211308   3.868962   5.051849
    20  H    5.122821   5.445099   4.351574   4.844168   6.026732
                   11         12         13         14         15
    11  C    0.000000
    12  C    1.432493   0.000000
    13  H    2.213458   1.078501   0.000000
    14  S    1.732128   2.849361   3.148837   0.000000
    15  C    2.501031   3.857358   4.496348   1.765455   0.000000
    16  C    2.385464   3.614261   4.512291   2.672650   1.446085
    17  H    3.552964   4.875791   5.442229   2.515670   1.080005
    18  H    3.401104   4.507150   5.448690   3.695277   2.228706
    19  O    5.117076   4.192596   4.457571   6.315547   6.665583
    20  H    6.151612   5.290859   5.510305   7.234557   7.492232
                   16         17         18         19         20
    16  C    0.000000
    17  H    2.240144   0.000000
    18  H    1.086099   2.643288   0.000000
    19  O    5.983362   7.449984   6.237438   0.000000
    20  H    6.825322   8.187686   6.967212   1.154513   0.000000
 Stoichiometry    C10H6OS3
 Framework group  C1[X(C10H6OS3)]
 Deg. of freedom    54
 Full point group                 C1      NOp   1
 Largest Abelian subgroup         C1      NOp   1
 Largest concise Abelian subgroup C1      NOp   1
                         Standard orientation:                         
 ---------------------------------------------------------------------
 Center     Atomic      Atomic             Coordinates (Angstroms)
 Number     Number       Type             X           Y           Z
 ---------------------------------------------------------------------
      1          6           0       -4.020381    0.538909    0.482315
      2          6           0       -2.636532    0.924491    0.564711
      3          6           0       -1.731909   -0.075321    0.004594
      4          6           0       -4.206016   -0.749184   -0.125021
      5          1           0       -4.843879    1.137822    0.837497
      6         16           0       -2.694426   -1.468400   -0.597062
      7          1           0       -5.164776   -1.217784   -0.290530
      8          6           0       -0.286811   -0.121948   -0.158251
      9         16           0        0.583321    1.012924   -1.234736
     10          6           0        2.123649    0.320558   -0.859059
     11          6           0        2.024683   -0.752068    0.097665
     12          6           0        0.675896   -0.999130    0.512117
     13          1           0        0.423563   -1.647166    1.336460
     14         16           0        3.481563   -0.971725    1.008445
     15          6           0        4.272185    0.344447    0.136986
     16          6           0        3.396665    0.962737   -0.833757
     17          1           0        5.227456    0.747668    0.439110
     18          1           0        3.594988    1.940135   -1.263840
     19          8           0       -2.040850    2.066565    1.405800
     20          1           0       -2.506438    2.981072    1.934767
 ---------------------------------------------------------------------
 Rotational constants (GHZ):           1.1687077           0.2594673           0.2453255
 Standard basis: Aug-CC-pVDZ (5D, 7F)
 There are   416 symmetry adapted cartesian basis functions of A   symmetry.
 There are   388 symmetry adapted basis functions of A   symmetry.
   388 basis functions,   782 primitive gaussians,   416 cartesian basis functions
    61 alpha electrons       61 beta electrons
       nuclear repulsion energy      1100.7404663590 Hartrees.
 NAtoms=   20 NActive=   20 NUniq=   20 SFac= 1.00D+00 NAtFMM=   60 NAOKFM=F Big=F
 Integral buffers will be    131072 words long.
 Raffenetti 1 integral format.
 Two-electron integral symmetry is turned on.
 One-electron integrals computed using PRISM.
 NBasis=   388 RedAO= T EigKep=  5.75D-06  NBF=   388
 NBsUse=   388 1.00D-06 EigRej= -1.00D+00 NBFU=   388
 ExpMin= 2.97D-02 ExpMax= 1.11D+05 ExpMxC= 1.07D+03 IAcc=3 IRadAn=         5 AccDes= 0.00D+00
 Harris functional with IExCor=  205 and IRadAn=       5 diagonalized for initial guess.
 HarFok:  IExCor=  205 AccDes= 0.00D+00 IRadAn=         5 IDoV= 1 UseB2=F ITyADJ=14
 ICtDFT=  3500011 ScaDFX=  1.000000  1.000000  1.000000  1.000000
 FoFCou: FMM=F IPFlag=           0 FMFlag=      100000 FMFlg1=           0
         NFxFlg=           0 DoJE=T BraDBF=F KetDBF=T FulRan=T
         wScrn=  0.000000 ICntrl=       500 IOpCl=  0 I1Cent=   200000004 NGrid=           0
         NMat0=    1 NMatS0=      1 NMatT0=    0 NMatD0=    1 NMtDS0=    0 NMtDT0=    0
 Petite list used in FoFCou.
 Requested convergence on RMS density matrix=1.00D-08 within 128 cycles.
 Requested convergence on MAX density matrix=1.00D-06.
 Requested convergence on             energy=1.00D-06.
 No special actions if energy rises.
 SCF Done:  E(RHF) =  -1649.50539227     A.U. after   18 cycles
            NFock= 18  Conv=0.40D-08     -V/T= 2.0014

 **********************************************************************

            Population analysis using the SCF Density.

 **********************************************************************

 Orbital symmetries:
       Occupied  (A) (A) (A) (A) (A) (A) (A) (A) (A) (A) (A) (A)
                 (A) (A) (A) (A) (A) (A) (A) (A) (A) (A) (A) (A)
                 (A) (A) (A) (A) (A) (A) (A) (A) (A) (A) (A) (A)
                 (A) (A) (A) (A) (A) (A) (A) (A) (A) (A) (A) (A)
                 (A) (A) (A) (A) (A) (A) (A) (A) (A) (A) (A) (A)
                 (A)
       Virtual   (A) (A) (A) (A) (A) (A) (A) (A) (A) (A) (A) (A)
                 (A) (A) (A) (A) (A) (A) (A) (A) (A) (A) (A) (A)
                 (A) (A) (A) (A) (A) (A) (A) (A) (A) (A) (A) (A)
                 (A) (A) (A) (A) (A) (A) (A) (A) (A) (A) (A) (A)
                 (A) (A) (A) (A) (A) (A) (A) (A) (A) (A) (A) (A)
                 (A) (A) (A) (A) (A) (A) (A) (A) (A) (A) (A) (A)
                 (A) (A) (A) (A) (A) (A) (A) (A) (A) (A) (A) (A)
                 (A) (A) (A) (A) (A) (A) (A) (A) (A) (A) (A) (A)
                 (A) (A) (A) (A) (A) (A) (A) (A) (A) (A) (A) (A)
                 (A) (A) (A) (A) (A) (A) (A) (A) (A) (A) (A) (A)
                 (A) (A) (A) (A) (A) (A) (A) (A) (A) (A) (A) (A)
                 (A) (A) (A) (A) (A) (A) (A) (A) (A) (A) (A) (A)
                 (A) (A) (A) (A) (A) (A) (A) (A) (A) (A) (A) (A)
                 (A) (A) (A) (A) (A) (A) (A) (A) (A) (A) (A) (A)
                 (A) (A) (A) (A) (A) (A) (A) (A) (A) (A) (A) (A)
                 (A) (A) (A) (A) (A) (A) (A) (A) (A) (A) (A) (A)
                 (A) (A) (A) (A) (A) (A) (A) (A) (A) (A) (A) (A)
                 (A) (A) (A) (A) (A) (A) (A) (A) (A) (A) (A) (A)
                 (A) (A) (A) (A) (A) (A) (A) (A) (A) (A) (A) (A)
                 (A) (A) (A) (A) (A) (A) (A) (A) (A) (A) (A) (A)
                 (A) (A) (A) (A) (A) (A) (A) (A) (A) (A) (A) (A)
                 (A) (A) (A) (A) (A) (A) (A) (A) (A) (A) (A) (A)
                 (A) (A) (A) (A) (A) (A) (A) (A) (A) (A) (A) (A)
                 (A) (A) (A) (A) (A) (A) (A) (A) (A) (A) (A) (A)
                 (A) (A) (A) (A) (A) (A) (A) (A) (A) (A) (A) (A)
                 (A) (A) (A) (A) (A) (A) (A) (A) (A) (A) (A) (A)
                 (A) (A) (A) (A) (A) (A) (A) (A) (A) (A) (A) (A)
                 (A) (A) (A)
 The electronic state is 1-A.
 Alpha  occ. eigenvalues --  -92.00629 -91.99760 -91.99276 -20.60329 -11.35278
 Alpha  occ. eigenvalues --  -11.30337 -11.30248 -11.29924 -11.29139 -11.28282
 Alpha  occ. eigenvalues --  -11.28143 -11.27381 -11.27246 -11.26949  -9.00557
 Alpha  occ. eigenvalues --   -8.99819  -8.99310  -6.68708  -6.68609  -6.68442
 Alpha  occ. eigenvalues --   -6.67985  -6.67896  -6.67707  -6.67471  -6.67375
 Alpha  occ. eigenvalues --   -6.67187  -1.30642  -1.19413  -1.15898  -1.10123
 Alpha  occ. eigenvalues --   -1.02900  -1.00953  -0.98344  -0.94004  -0.92609
 Alpha  occ. eigenvalues --   -0.82597  -0.77670  -0.76940  -0.71551  -0.70760
 Alpha  occ. eigenvalues --   -0.68286  -0.65531  -0.61984  -0.60354  -0.57473
 Alpha  occ. eigenvalues --   -0.56296  -0.55186  -0.54157  -0.53533  -0.52497
 Alpha  occ. eigenvalues --   -0.50466  -0.50115  -0.48983  -0.48287  -0.46166
 Alpha  occ. eigenvalues --   -0.44710  -0.38532  -0.34926  -0.32537  -0.31419
 Alpha  occ. eigenvalues --   -0.27497
 Alpha virt. eigenvalues --    0.02733   0.03569   0.03941   0.04885   0.04994
 Alpha virt. eigenvalues --    0.05626   0.05865   0.07921   0.08598   0.08642
 Alpha virt. eigenvalues --    0.09011   0.09723   0.10217   0.10960   0.11375
 Alpha virt. eigenvalues --    0.11580   0.12329   0.12545   0.12944   0.13044
 Alpha virt. eigenvalues --    0.13649   0.14121   0.14334   0.14455   0.14785
 Alpha virt. eigenvalues --    0.15091   0.15817   0.15857   0.16090   0.16705
 Alpha virt. eigenvalues --    0.17441   0.17812   0.18085   0.18156   0.18532
 Alpha virt. eigenvalues --    0.18907   0.19732   0.20148   0.20424   0.20596
 Alpha virt. eigenvalues --    0.20866   0.21682   0.22043   0.22500   0.23323
 Alpha virt. eigenvalues --    0.23505   0.23852   0.24479   0.24757   0.25523
 Alpha virt. eigenvalues --    0.25900   0.26244   0.26529   0.27527   0.28166
 Alpha virt. eigenvalues --    0.28864   0.29494   0.30138   0.30487   0.31071
 Alpha virt. eigenvalues --    0.31246   0.31725   0.31858   0.32242   0.32630
 Alpha virt. eigenvalues --    0.33027   0.33965   0.34320   0.34702   0.35584
 Alpha virt. eigenvalues --    0.36675   0.36819   0.37233   0.37870   0.38348
 Alpha virt. eigenvalues --    0.39634   0.39933   0.40518   0.40704   0.41157
 Alpha virt. eigenvalues --    0.41702   0.42381   0.42961   0.43866   0.44463
 Alpha virt. eigenvalues --    0.45450   0.46134   0.46218   0.46359   0.47530
 Alpha virt. eigenvalues --    0.48219   0.48942   0.49566   0.50189   0.51043
 Alpha virt. eigenvalues --    0.51417   0.52192   0.52337   0.53287   0.54250
 Alpha virt. eigenvalues --    0.54856   0.55294   0.56092   0.56526   0.57801
 Alpha virt. eigenvalues --    0.58026   0.59162   0.59660   0.60332   0.60821
 Alpha virt. eigenvalues --    0.61280   0.62017   0.62484   0.63666   0.64310
 Alpha virt. eigenvalues --    0.65069   0.65452   0.66014   0.66473   0.67006
 Alpha virt. eigenvalues --    0.67306   0.68032   0.68600   0.69191   0.69800
 Alpha virt. eigenvalues --    0.70418   0.70892   0.71669   0.72421   0.72737
 Alpha virt. eigenvalues --    0.72871   0.73476   0.74351   0.74504   0.74717
 Alpha virt. eigenvalues --    0.76075   0.76362   0.76933   0.77876   0.78194
 Alpha virt. eigenvalues --    0.79075   0.79891   0.80153   0.81955   0.83004
 Alpha virt. eigenvalues --    0.83550   0.84193   0.84605   0.85421   0.86809
 Alpha virt. eigenvalues --    0.87078   0.88048   0.88276   0.89577   0.89989
 Alpha virt. eigenvalues --    0.90745   0.91607   0.91938   0.93306   0.94130
 Alpha virt. eigenvalues --    0.94502   0.95263   0.95768   0.96735   0.97220
 Alpha virt. eigenvalues --    0.98655   0.98889   0.99879   1.00350   1.00936
 Alpha virt. eigenvalues --    1.01927   1.02408   1.02943   1.03573   1.05484
 Alpha virt. eigenvalues --    1.06820   1.08093   1.08559   1.09865   1.12246
 Alpha virt. eigenvalues --    1.12274   1.12941   1.14356   1.17603   1.18092
 Alpha virt. eigenvalues --    1.18481   1.20074   1.20409   1.21226   1.22242
 Alpha virt. eigenvalues --    1.22831   1.23624   1.24001   1.24962   1.25993
 Alpha virt. eigenvalues --    1.26649   1.27296   1.28144   1.29512   1.30042
 Alpha virt. eigenvalues --    1.30803   1.31151   1.32561   1.32686   1.33585
 Alpha virt. eigenvalues --    1.36141   1.37597   1.38010   1.39390   1.40551
 Alpha virt. eigenvalues --    1.40643   1.42087   1.42210   1.44265   1.46583
 Alpha virt. eigenvalues --    1.47466   1.48780   1.51009   1.51359   1.53899
 Alpha virt. eigenvalues --    1.54378   1.55952   1.57562   1.58506   1.59109
 Alpha virt. eigenvalues --    1.59713   1.61463   1.62322   1.62766   1.63618
 Alpha virt. eigenvalues --    1.64531   1.66488   1.66954   1.68502   1.70220
 Alpha virt. eigenvalues --    1.71394   1.71659   1.72532   1.73094   1.76502
 Alpha virt. eigenvalues --    1.77152   1.77830   1.78906   1.79563   1.80646
 Alpha virt. eigenvalues --    1.81761   1.82354   1.83579   1.85918   1.86698
 Alpha virt. eigenvalues --    1.87562   1.88659   1.91034   1.92965   1.94115
 Alpha virt. eigenvalues --    1.95152   1.97971   1.98312   1.98531   1.99038
 Alpha virt. eigenvalues --    2.02815   2.03963   2.04175   2.05048   2.07491
 Alpha virt. eigenvalues --    2.08362   2.09227   2.09722   2.10688   2.11681
 Alpha virt. eigenvalues --    2.13236   2.14453   2.15594   2.17056   2.17919
 Alpha virt. eigenvalues --    2.18689   2.19605   2.21775   2.22677   2.23025
 Alpha virt. eigenvalues --    2.24881   2.25443   2.27877   2.28327   2.30754
 Alpha virt. eigenvalues --    2.33451   2.33875   2.36177   2.36489   2.39812
 Alpha virt. eigenvalues --    2.40798   2.42867   2.43277   2.46294   2.48994
 Alpha virt. eigenvalues --    2.50258   2.52355   2.53151   2.54682   2.58084
 Alpha virt. eigenvalues --    2.69434   2.70993   2.74631   2.75083   2.80166
 Alpha virt. eigenvalues --    2.81744   2.83959   2.86877   2.89797   2.93424
 Alpha virt. eigenvalues --    2.97900   3.03032   3.08542   3.14355   3.22303
 Alpha virt. eigenvalues --    3.24128   3.29427   3.37540   3.46019   3.73947
 Alpha virt. eigenvalues --    3.78357   3.79373   3.81585   3.86755   4.05488
 Alpha virt. eigenvalues --    4.17584   4.22838
          Condensed to atoms (all electrons):
               1          2          3          4          5          6
     1  C    5.916811  -0.150653  -0.671750   0.505801  -0.028213  -0.332912
     2  C   -0.150653   8.417253  -1.212543  -0.015924   0.134584  -0.428907
     3  C   -0.671750  -1.212543   9.791267  -0.829276  -0.034760   0.422698
     4  C    0.505801  -0.015924  -0.829276   5.889170  -0.068957   0.219573
     5  H   -0.028213   0.134584  -0.034760  -0.068957   1.429434  -0.001910
     6  S   -0.332912  -0.428907   0.422698   0.219573  -0.001910  15.882159
     7  H   -0.013438   0.008897   0.090004   0.243385  -0.063500  -0.169684
     8  C    0.173879  -0.179267  -2.099369   0.290978   0.001481  -0.392903
     9  S    0.020957   0.209262  -0.295964   0.003238   0.001912  -0.048052
    10  C   -0.003417   0.030274  -0.066641   0.023155   0.000759  -0.026519
    11  C    0.006682   0.046172   0.220050  -0.024350   0.000687   0.028424
    12  C   -0.118017  -0.433068   0.172704  -0.068192  -0.005592   0.323606
    13  H    0.000545   0.028048  -0.007034   0.003757   0.000040   0.008277
    14  S   -0.001214  -0.006714   0.007344   0.000090  -0.000002   0.006142
    15  C    0.000002   0.003516   0.037817  -0.000157   0.000022  -0.001099
    16  C   -0.002269  -0.003758  -0.190453   0.001361  -0.000315   0.004529
    17  H   -0.000048  -0.000088   0.002008   0.000012  -0.000000   0.000097
    18  H   -0.000021  -0.000618  -0.008548   0.000065   0.000016   0.000062
    19  O    0.038809  -0.573679   0.261373  -0.048667  -0.033781   0.024022
    20  H    0.007873   0.013976  -0.049276  -0.000979   0.006521   0.002581
               7          8          9         10         11         12
     1  C   -0.013438   0.173879   0.020957  -0.003417   0.006682  -0.118017
     2  C    0.008897  -0.179267   0.209262   0.030274   0.046172  -0.433068
     3  C    0.090004  -2.099369  -0.295964  -0.066641   0.220050   0.172704
     4  C    0.243385   0.290978   0.003238   0.023155  -0.024350  -0.068192
     5  H   -0.063500   0.001481   0.001912   0.000759   0.000687  -0.005592
     6  S   -0.169684  -0.392903  -0.048052  -0.026519   0.028424   0.323606
     7  H    1.218252   0.000481   0.000254   0.000193  -0.000414   0.004499
     8  C    0.000481  10.063997   0.260562   0.107901  -0.448869  -1.889709
     9  S    0.000254   0.260562  16.018054   0.099915  -0.214373  -0.437237
    10  C    0.000193   0.107901   0.099915   7.343768   0.263079  -0.466282
    11  C   -0.000414  -0.448869  -0.214373   0.263079   8.198407  -1.628542
    12  C    0.004499  -1.889709  -0.437237  -0.466282  -1.628542  10.584108
    13  H    0.000162   0.193187   0.040275  -0.049521   0.224076  -0.514731
    14  S   -0.000037  -0.148562  -0.004572  -0.027625   0.086075  -0.038067
    15  C    0.000006   0.104497  -0.050183   0.103699  -0.287663  -0.247100
    16  C    0.000091  -0.318525  -0.048988  -1.065138   0.060606   0.584493
    17  H    0.000002  -0.001647  -0.002650   0.002294  -0.007889   0.025004
    18  H   -0.000008   0.050924  -0.033825   0.218155  -0.029787  -0.014063
    19  O   -0.000916  -0.054956   0.011007   0.005407  -0.013865   0.053281
    20  H   -0.000094   0.000681  -0.000496  -0.000129  -0.000406   0.000031
              13         14         15         16         17         18
     1  C    0.000545  -0.001214   0.000002  -0.002269  -0.000048  -0.000021
     2  C    0.028048  -0.006714   0.003516  -0.003758  -0.000088  -0.000618
     3  C   -0.007034   0.007344   0.037817  -0.190453   0.002008  -0.008548
     4  C    0.003757   0.000090  -0.000157   0.001361   0.000012   0.000065
     5  H    0.000040  -0.000002   0.000022  -0.000315  -0.000000   0.000016
     6  S    0.008277   0.006142  -0.001099   0.004529   0.000097   0.000062
     7  H    0.000162  -0.000037   0.000006   0.000091   0.000002  -0.000008
     8  C    0.193187  -0.148562   0.104497  -0.318525  -0.001647   0.050924
     9  S    0.040275  -0.004572  -0.050183  -0.048988  -0.002650  -0.033825
    10  C   -0.049521  -0.027625   0.103699  -1.065138   0.002294   0.218155
    11  C    0.224076   0.086075  -0.287663   0.060606  -0.007889  -0.029787
    12  C   -0.514731  -0.038067  -0.247100   0.584493   0.025004  -0.014063
    13  H    1.564168  -0.056929   0.000609  -0.005884   0.001441  -0.000337
    14  S   -0.056929  15.686424   0.204871  -0.247460  -0.128034   0.007354
    15  C    0.000609   0.204871   5.809072   0.189863   0.241392  -0.050494
    16  C   -0.005884  -0.247460   0.189863   6.674390   0.022940  -0.142803
    17  H    0.001441  -0.128034   0.241392   0.022940   1.241363  -0.057787
    18  H   -0.000337   0.007354  -0.050494  -0.142803  -0.057787   1.382913
    19  O    0.001921  -0.001189  -0.000412   0.002043  -0.000079   0.000461
    20  H   -0.000051   0.000121   0.000065   0.000308   0.000009  -0.000022
              19         20
     1  C    0.038809   0.007873
     2  C   -0.573679   0.013976
     3  C    0.261373  -0.049276
     4  C   -0.048667  -0.000979
     5  H   -0.033781   0.006521
     6  S    0.024022   0.002581
     7  H   -0.000916  -0.000094
     8  C   -0.054956   0.000681
     9  S    0.011007  -0.000496
    10  C    0.005407  -0.000129
    11  C   -0.013865  -0.000406
    12  C    0.053281   0.000031
    13  H    0.001921  -0.000051
    14  S   -0.001189   0.000121
    15  C   -0.000412   0.000065
    16  C    0.002043   0.000308
    17  H   -0.000079   0.000009
    18  H    0.000461  -0.000022
    19  O    9.278856   0.266108
    20  H    0.266108   0.355003
 Mulliken charges:
               1
     1  C    0.650592
     2  C    0.113237
     3  C    0.460348
     4  C   -0.124083
     5  H   -0.338428
     6  S    0.479816
     7  H   -0.318138
     8  C    0.285241
     9  S    0.470903
    10  C   -0.493327
    11  C   -0.478100
    12  C    0.112872
    13  H   -0.432017
    14  S    0.661984
    15  C   -0.058322
    16  C    0.484967
    17  H   -0.338342
    18  H   -0.321637
    19  O   -1.215742
    20  H    0.398176
 Sum of Mulliken charges =  -0.00000
 Mulliken charges with hydrogens summed into heavy atoms:
               1
     1  C    0.312164
     2  C    0.113237
     3  C    0.460348
     4  C   -0.442221
     6  S    0.479816
     8  C    0.285241
     9  S    0.470903
    10  C   -0.493327
    11  C   -0.478100
    12  C   -0.319145
    14  S    0.661984
    15  C   -0.396664
    16  C    0.163330
    19  O   -0.817566
 Electronic spatial extent (au):  <R**2>=           4395.6324
 Charge=             -0.0000 electrons
 Dipole moment (field-independent basis, Debye):
    X=             -2.0514    Y=              1.6503    Z=              1.4640  Tot=              3.0125
 Quadrupole moment (field-independent basis, Debye-Ang):
   XX=            -80.8988   YY=            -96.5536   ZZ=           -106.0931
   XY=              1.5735   XZ=             -2.2414   YZ=              1.7388
 Traceless Quadrupole moment (field-independent basis, Debye-Ang):
   XX=             13.6164   YY=             -2.0385   ZZ=            -11.5779
   XY=              1.5735   XZ=             -2.2414   YZ=              1.7388
 Octapole moment (field-independent basis, Debye-Ang**2):
  XXX=            -63.5495  YYY=             38.5498  ZZZ=             16.4585  XYY=            -26.6247
  XXY=             40.6153  XXZ=             25.2661  XZZ=             -5.9173  YZZ=             14.1711
  YYZ=             19.5532  XYZ=            -27.7909
 Hexadecapole moment (field-independent basis, Debye-Ang**3):
 XXXX=          -4149.3238 YYYY=           -707.8556 ZZZZ=           -539.4040 XXXY=            111.7906
 XXXZ=             29.6326 YYYX=            -68.0718 YYYZ=             73.2822 ZZZX=            -16.8414
 ZZZY=             29.8609 XXYY=           -846.1076 XXZZ=           -924.0137 YYZZ=           -170.1547
 XXYZ=             64.0073 YYXZ=            -62.9801 ZZXY=            -36.1083
 N-N= 1.100740466359D+03 E-N=-6.106811298429D+03  KE= 1.647266153970D+03
 Calling FoFJK, ICntrl=      2127 FMM=F ISym2X=0 I1Cent= 0 IOpClX= 0 NMat=1 NMatS=1 NMatT=0.
 ***** Axes restored to original set *****
 -------------------------------------------------------------------
 Center     Atomic                   Forces (Hartrees/Bohr)
 Number     Number              X              Y              Z
 -------------------------------------------------------------------
      1        6           0.010570604   -0.056225786    0.008774391
      2        6           0.054684300    0.017766171    0.012262917
      3        6          -0.064919384    0.035624194    0.007311504
      4        6           0.018362450    0.066625354   -0.020616259
      5        1           0.001524347    0.000672221    0.000531445
      6       16          -0.007580030    0.036037603   -0.008270744
      7        1           0.004150221   -0.001345664    0.000028670
      8        6           0.083769165   -0.002728088    0.034790554
      9       16          -0.008578755   -0.013770132    0.018400946
     10        6           0.012133974    0.007597421    0.052719663
     11        6          -0.029984049    0.021403353   -0.042512223
     12        6          -0.057152393    0.013316649   -0.054602528
     13        1          -0.005575515   -0.005113047   -0.000897499
     14       16           0.008751366   -0.001953357   -0.023282905
     15        6          -0.064391687   -0.004355280   -0.045658776
     16        6           0.054337600    0.014484218    0.056718456
     17        1           0.002066227   -0.007841528    0.002593816
     18        1           0.005064581   -0.010588666    0.001361392
     19        8          -0.048172468    0.019100102   -0.004264265
     20        1           0.030939447   -0.128705740    0.004611449
 -------------------------------------------------------------------
 Cartesian Forces:  Max     0.128705740 RMS     0.035159493

 GradGradGradGradGradGradGradGradGradGradGradGradGradGradGradGradGradGrad
 Berny optimization.
 FormGI is forming the generalized inverse of G from B-inverse, IUseBI=4.
 Internal  Forces:  Max     0.128920071 RMS     0.025684706
 Search for a local minimum.
 Step number   1 out of a maximum of  116
 All quantities printed in internal units (Hartrees-Bohrs-Radians)
 Mixed Optimization -- RFO/linear search
 Second derivative matrix not updated -- first step.
 ITU=  0
     Eigenvalues ---    0.00230   0.00994   0.01056   0.01221   0.01270
     Eigenvalues ---    0.01293   0.01362   0.01415   0.01458   0.01492
     Eigenvalues ---    0.01500   0.01592   0.01593   0.01762   0.02202
     Eigenvalues ---    0.02656   0.15084   0.15687   0.15737   0.15997
     Eigenvalues ---    0.16000   0.16000   0.17989   0.22443   0.22526
     Eigenvalues ---    0.23318   0.23975   0.24118   0.24633   0.24978
     Eigenvalues ---    0.24995   0.26145   0.26576   0.28307   0.28365
     Eigenvalues ---    0.28663   0.30910   0.31333   0.31569   0.34804
     Eigenvalues ---    0.35267   0.35872   0.35994   0.36006   0.36176
     Eigenvalues ---    0.36185   0.36286   0.37598   0.38191   0.38435
     Eigenvalues ---    0.39456   0.39713   0.406251000.000001000.00000
     Eigenvalues --- 1000.000001000.000001000.000001000.000001000.00000
     Eigenvalues --- 1000.000001000.000001000.000001000.000001000.00000
     Eigenvalues --- 1000.000001000.000001000.000001000.000001000.00000
     Eigenvalues --- 1000.000001000.000001000.000001000.000001000.00000
     Eigenvalues --- 1000.000001000.000001000.000001000.000001000.00000
     Eigenvalues --- 1000.000001000.000001000.000001000.000001000.00000
     Eigenvalues --- 1000.000001000.000001000.000001000.000001000.00000
     Eigenvalues --- 1000.000001000.000001000.000001000.000001000.00000
     Eigenvalues --- 1000.000001000.000001000.000001000.000001000.00000
     Eigenvalues --- 1000.000001000.000001000.000001000.000001000.00000
     Eigenvalues --- 1000.00000
 RFO step:  Lambda=-1.53711781D-01 EMin= 2.30000000D-03
 Linear search not attempted -- first point.
 Maximum step size (   0.300) exceeded in Quadratic search.
    -- Step size scaled by   0.522
 Iteration  1 RMS(Cart)=  0.05578132 RMS(Int)=  0.00141310
 Iteration  2 RMS(Cart)=  0.00174594 RMS(Int)=  0.00009169
 Iteration  3 RMS(Cart)=  0.00000915 RMS(Int)=  0.00009145
 Iteration  4 RMS(Cart)=  0.00000000 RMS(Int)=  0.00009145
 Iteration  1 RMS(Cart)=  0.00000125 RMS(Int)=  0.00000056
 Iteration  2 RMS(Cart)=  0.00000068 RMS(Int)=  0.00000062
 Variable       Old X    -DE/DX   Delta X   Delta X   Delta X     New X
                                 (Linear)    (Quad)   (Total)
    R1        2.71917  -0.02209   0.00000  -0.02214  -0.02205   2.69712
    R2        2.71391  -0.07517   0.00000  -0.07117  -0.07115   2.64276
    R3        2.03793  -0.00076   0.00000  -0.00077  -0.00077   2.03716
    R4        2.75906  -0.09129   0.00000  -0.09166  -0.09160   2.66746
    R5        2.90711  -0.10856   0.00000  -0.12877  -0.12877   2.77834
    R6        3.39578  -0.03203   0.00000  -0.03896  -0.03901   3.35677
    R7        2.74954  -0.00006   0.00000  -0.00006  -0.00006   2.74948
    R8        3.28671  -0.02013   0.00000  -0.02136  -0.02144   3.26527
    R9        2.04073  -0.00282   0.00000  -0.00286  -0.00286   2.03787
   R10        3.38250  -0.02067   0.00000  -0.02424  -0.02431   3.35819
   R11        2.76807  -0.08988   0.00000  -0.09098  -0.09099   2.67708
   R12        3.26934  -0.00539   0.00000  -0.00513  -0.00514   3.26420
   R13        2.72254  -0.05451   0.00000  -0.05287  -0.05273   2.66981
   R14        2.69483   0.00262   0.00000   0.00140   0.00149   2.69633
   R15        2.70702  -0.00875   0.00000  -0.00928  -0.00922   2.69779
   R16        3.27325  -0.00264   0.00000  -0.00198  -0.00201   3.27123
   R17        2.03807  -0.00041   0.00000  -0.00041  -0.00041   2.03766
   R18        3.33623  -0.01837   0.00000  -0.02075  -0.02084   3.31538
   R19        2.73270  -0.08118   0.00000  -0.07878  -0.07879   2.65391
   R20        2.04091  -0.00255   0.00000  -0.00259  -0.00259   2.03832
   R21        2.05243  -0.00627   0.00000  -0.00646  -0.00646   2.04596
   R22        2.18171  -0.12892   0.00000  -0.15416  -0.15416   2.02755
    A1        1.97020  -0.00399   0.00000  -0.00813  -0.00801   1.96219
    A2        2.17330   0.00074   0.00000   0.00197   0.00191   2.17521
    A3        2.13967   0.00326   0.00000   0.00617   0.00611   2.14578
    A4        1.97187   0.01789   0.00000   0.02139   0.02151   1.99339
    A5        2.21760  -0.00804   0.00000  -0.00869  -0.00881   2.20879
    A6        2.06941  -0.00886   0.00000  -0.00972  -0.00983   2.05959
    A7        1.90440  -0.00560   0.00000  -0.00702  -0.00701   1.89739
    A8        2.31891  -0.00795   0.00000  -0.01041  -0.01042   2.30850
    A9        2.05972   0.01354   0.00000   0.01739   0.01738   2.07710
   A10        1.95339  -0.00227   0.00000  -0.00272  -0.00275   1.95064
   A11        2.17580   0.00446   0.00000   0.00689   0.00691   2.18271
   A12        2.15384  -0.00220   0.00000  -0.00419  -0.00418   2.14967
   A13        1.62490  -0.00602   0.00000  -0.00352  -0.00375   1.62115
   A14        2.12917  -0.00320   0.00000  -0.00395  -0.00398   2.12520
   A15        2.24047  -0.00546   0.00000  -0.00687  -0.00690   2.23357
   A16        1.91285   0.00877   0.00000   0.01114   0.01116   1.92401
   A17        1.61930  -0.00782   0.00000  -0.00774  -0.00773   1.61156
   A18        1.96167  -0.01178   0.00000  -0.01341  -0.01361   1.94805
   A19        2.23753   0.00969   0.00000   0.01766   0.01744   2.25497
   A20        1.96580   0.00654   0.00000   0.00803   0.00811   1.97391
   A21        1.96624   0.00819   0.00000   0.00949   0.00953   1.97576
   A22        1.96689  -0.01415   0.00000  -0.01637  -0.01648   1.95041
   A23        2.23692   0.00990   0.00000   0.01751   0.01731   2.25422
   A24        1.96398   0.00269   0.00000   0.00065   0.00077   1.96475
   A25        2.16019  -0.00580   0.00000  -0.00729  -0.00740   2.15279
   A26        2.14727   0.00382   0.00000   0.00879   0.00868   2.15594
   A27        1.59337   0.00013   0.00000   0.00184   0.00179   1.59516
   A28        1.95949   0.00102   0.00000   0.00057   0.00053   1.96002
   A29        2.13692  -0.00402   0.00000  -0.00535  -0.00545   2.13147
   A30        2.16963   0.00427   0.00000   0.00862   0.00854   2.17817
   A31        1.93889   0.00647   0.00000   0.00594   0.00605   1.94495
   A32        2.16667  -0.00032   0.00000   0.00336   0.00317   2.16984
   A33        2.14128  -0.00395   0.00000  -0.00283  -0.00303   2.13825
   A34        2.32184  -0.06617   0.00000  -0.11017  -0.11017   2.21167
    D1        0.00683  -0.00072   0.00000  -0.00183  -0.00182   0.00502
    D2       -2.89394  -0.00486   0.00000  -0.01558  -0.01559  -2.90953
    D3       -3.13952   0.00031   0.00000   0.00124   0.00123  -3.13828
    D4        0.24290  -0.00383   0.00000  -0.01251  -0.01254   0.23035
    D5       -0.00671  -0.00011   0.00000  -0.00071  -0.00074  -0.00745
    D6       -3.13020   0.00021   0.00000   0.00044   0.00043  -3.12977
    D7        3.13954  -0.00111   0.00000  -0.00370  -0.00372   3.13581
    D8        0.01605  -0.00078   0.00000  -0.00255  -0.00256   0.01349
    D9       -0.00388   0.00132   0.00000   0.00356   0.00354  -0.00034
   D10        3.11762   0.00064   0.00000   0.00141   0.00142   3.11904
   D11        2.91927   0.00478   0.00000   0.01571   0.01573   2.93499
   D12       -0.24242   0.00411   0.00000   0.01356   0.01360  -0.22881
   D13       -0.28016   0.00231   0.00000   0.00416   0.00408  -0.27608
   D14        3.11413  -0.00525   0.00000  -0.01401  -0.01394   3.10019
   D15        0.00006  -0.00119   0.00000  -0.00339  -0.00336  -0.00331
   D16       -3.12486  -0.00038   0.00000  -0.00130  -0.00125  -3.12610
   D17       -1.13456   0.00013   0.00000   0.00000   0.00000  -1.13456
   D18        1.96264   0.00346   0.00000   0.01048   0.01047   1.97312
   D19        1.98553  -0.00079   0.00000  -0.00255  -0.00255   1.98298
   D20       -1.20045   0.00254   0.00000   0.00793   0.00792  -1.19253
   D21        0.00376   0.00082   0.00000   0.00246   0.00246   0.00621
   D22        3.12751   0.00058   0.00000   0.00147   0.00145   3.12896
   D23        3.13783   0.00139   0.00000   0.00485   0.00488  -3.14048
   D24        0.03317  -0.00111   0.00000  -0.00352  -0.00357   0.02960
   D25       -3.13882  -0.00254   0.00000  -0.00756  -0.00753   3.13684
   D26       -0.15727   0.00267   0.00000   0.00784   0.00782  -0.14945
   D27       -0.03718   0.00026   0.00000   0.00161   0.00170  -0.03549
   D28        2.94436   0.00547   0.00000   0.01702   0.01705   2.96141
   D29       -0.02137   0.00220   0.00000   0.00519   0.00515  -0.01622
   D30       -2.61561  -0.00817   0.00000  -0.02184  -0.02188  -2.63749
   D31        0.00330  -0.00193   0.00000  -0.00466  -0.00461  -0.00131
   D32       -2.68813  -0.01207   0.00000  -0.02928  -0.02896  -2.71709
   D33        2.68584   0.00890   0.00000   0.02248   0.02227   2.70811
   D34       -0.00559  -0.00124   0.00000  -0.00214  -0.00207  -0.00767
   D35        2.61368   0.00678   0.00000   0.02309   0.02332   2.63701
   D36       -0.24721  -0.00097   0.00000  -0.00084  -0.00072  -0.24794
   D37        0.02049   0.00101   0.00000   0.00142   0.00138   0.02187
   D38       -2.84041  -0.00674   0.00000  -0.02251  -0.02267  -2.86307
   D39        0.02248   0.00114   0.00000   0.00191   0.00187   0.02435
   D40       -2.96043  -0.00301   0.00000  -0.01167  -0.01180  -2.97224
   D41        2.62823   0.00546   0.00000   0.01992   0.02014   2.64837
   D42       -0.35469   0.00131   0.00000   0.00634   0.00646  -0.34822
   D43       -0.00833   0.00125   0.00000   0.00210   0.00207  -0.00626
   D44       -2.61391  -0.00862   0.00000  -0.02233  -0.02229  -2.63620
   D45        0.02008  -0.00053   0.00000  -0.00116  -0.00117   0.01891
   D46        2.97146   0.00699   0.00000   0.02096   0.02086   2.99232
   D47       -0.02666   0.00000   0.00000   0.00025   0.00030  -0.02636
   D48        2.83902   0.00827   0.00000   0.02491   0.02497   2.86399
   D49       -2.97385  -0.00662   0.00000  -0.02054  -0.02060  -2.99445
   D50       -0.10816   0.00165   0.00000   0.00412   0.00407  -0.10410
         Item               Value     Threshold  Converged?
 Maximum Force            0.128920     0.000450     NO 
 RMS     Force            0.025807     0.000300     NO 
 Maximum Displacement     0.415234     0.001800     NO 
 RMS     Displacement     0.055741     0.001200     NO 
 Predicted change in Energy=-6.678812D-02
 GradGradGradGradGradGradGradGradGradGradGradGradGradGradGradGradGradGrad

                          Input orientation:                          
 ---------------------------------------------------------------------
 Center     Atomic      Atomic             Coordinates (Angstroms)
 Number     Number       Type             X           Y           Z
 ---------------------------------------------------------------------
      1          6           0       -4.211451   -1.350496   -0.206324
      2          6           0       -2.892324   -0.973340   -0.599661
      3          6           0       -1.965033   -2.037532   -0.610873
      4          6           0       -4.309176   -2.712451    0.095835
      5          1           0       -5.048589   -0.674292   -0.142497
      6         16           0       -2.798487   -3.524909   -0.112486
      7          1           0       -5.211920   -3.215355    0.404174
      8          6           0       -0.554909   -2.103113   -0.963236
      9         16           0        0.010199   -1.801199   -2.620794
     10          6           0        1.659978   -2.064153   -2.181711
     11          6           0        1.792347   -2.354123   -0.805334
     12          6           0        0.545924   -2.359737   -0.109296
     13          1           0        0.463737   -2.410706    0.964642
     14         16           0        3.371713   -1.960726   -0.215911
     15          6           0        3.875636   -1.414554   -1.805176
     16          6           0        2.844520   -1.511402   -2.753715
     17          1           0        4.816095   -0.911895   -1.967403
     18          1           0        2.880509   -0.998929   -3.706745
     19          8           0       -2.372431    0.396645   -0.719854
     20          1           0       -2.949337    1.300268   -0.762636
 ---------------------------------------------------------------------
                    Distance matrix (angstroms):
                    1          2          3          4          5
     1  C    0.000000
     2  C    1.427255   0.000000
     3  C    2.383710   1.411559   0.000000
     4  C    1.398489   2.348551   2.539677   0.000000
     5  H    1.078020   2.224389   3.403839   2.181199   0.000000
     6  S    2.594869   2.599356   1.776324   1.727908   3.631787
     7  H    2.202577   3.378586   3.599981   1.078393   2.604329
     8  C    3.809153   2.621466   1.454961   3.948094   4.786262
     9  S    4.884172   3.632489   2.827929   5.183383   5.744843
    10  C    6.235795   4.941276   3.950816   6.421705   7.148075
    11  C    6.116509   4.888253   3.775706   6.178114   7.075281
    12  C    4.864216   3.739533   2.580756   4.872215   5.842979
    13  H    4.934835   3.971928   2.918977   4.860718   5.884440
    14  S    7.607684   6.352980   5.351892   7.723881   8.518321
    15  C    8.243871   6.888630   5.993987   8.502325   9.107925
    16  C    7.503453   6.151491   5.291539   7.793447   8.355859
    17  H    9.208169   7.829063   7.006492   9.527305  10.034876
    18  H    7.916593   6.555931   5.843150   8.311880   8.699417
    19  O    2.588090   1.470236   2.470438   3.752707   2.939740
    20  H    2.988138   2.280154   3.483216   4.322968   2.947935
                    6          7          8          9         10
     6  S    0.000000
     7  H    2.487452   0.000000
     8  C    2.789073   4.979422   0.000000
     9  S    4.141438   6.198451   1.777076   0.000000
    10  C    5.127710   7.432028   2.528225   1.727341   0.000000
    11  C    4.788167   7.159915   2.365914   2.603396   1.412805
    12  C    3.541571   5.843671   1.416652   2.628040   2.371369
    13  H    3.611615   5.759745   2.202037   3.665044   3.383878
    14  S    6.366218   8.696973   3.999641   4.136265   2.608660
    15  C    7.201578   9.524063   4.562094   3.969424   2.339423
    16  C    6.547811   8.819406   3.887422   2.852196   1.426836
    17  H    8.261382  10.558948   5.592409   4.930965   3.366706
    18  H    7.179852   9.343426   4.533008   3.172003   2.224889
    19  O    3.991116   4.729977   3.100227   3.757794   4.944984
    20  H    4.871117   5.183781   4.166116   4.672334   5.880381
                   11         12         13         14         15
    11  C    0.000000
    12  C    1.427611   0.000000
    13  H    2.213871   1.078283   0.000000
    14  S    1.731062   2.855812   3.170569   0.000000
    15  C    2.494507   3.854395   4.506136   1.754424   0.000000
    16  C    2.369268   3.605020   4.505891   2.630641   1.404389
    17  H    3.545910   4.876800   5.457687   2.500802   1.078632
    18  H    3.382134   4.499304   5.445710   3.654074   2.186090
    19  O    4.991934   4.060446   4.331581   6.229474   6.595203
    20  H    5.986649   5.102875   5.329530   7.133628   7.418719
                   16         17         18         19         20
    16  C    0.000000
    17  H    2.205631   0.000000
    18  H    1.082678   2.603724   0.000000
    19  O    5.915556   7.412393   6.201816   0.000000
    20  H    6.740820   8.163765   6.923958   1.072933   0.000000
 Stoichiometry    C10H6OS3
 Framework group  C1[X(C10H6OS3)]
 Deg. of freedom    54
 Full point group                 C1      NOp   1
 Largest Abelian subgroup         C1      NOp   1
 Largest concise Abelian subgroup C1      NOp   1
                         Standard orientation:                         
 ---------------------------------------------------------------------
 Center     Atomic      Atomic             Coordinates (Angstroms)
 Number     Number       Type             X           Y           Z
 ---------------------------------------------------------------------
      1          6           0       -3.979280    0.521293    0.506268
      2          6           0       -2.597693    0.869510    0.590046
      3          6           0       -1.726061   -0.075872    0.007799
      4          6           0       -4.182737   -0.703087   -0.138146
      5          1           0       -4.786943    1.121930    0.892327
      6         16           0       -2.692639   -1.414578   -0.647120
      7          1           0       -5.144867   -1.154548   -0.320959
      8          6           0       -0.279832   -0.107540   -0.148182
      9         16           0        0.577859    1.073468   -1.161881
     10          6           0        2.113656    0.364715   -0.811591
     11          6           0        1.991757   -0.731415    0.071391
     12          6           0        0.643671   -0.991007    0.462989
     13          1           0        0.373108   -1.684784    1.242838
     14         16           0        3.458283   -1.017042    0.945633
     15          6           0        4.253623    0.318725    0.132512
     16          6           0        3.401089    0.978276   -0.767758
     17          1           0        5.227315    0.674035    0.431051
     18          1           0        3.623547    1.959673   -1.167212
     19          8           0       -2.010382    1.927463    1.425147
     20          1           0       -2.534296    2.732848    1.902699
 ---------------------------------------------------------------------
 Rotational constants (GHZ):           1.2256400           0.2636101           0.2491971
 Standard basis: Aug-CC-pVDZ (5D, 7F)
 There are   416 symmetry adapted cartesian basis functions of A   symmetry.
 There are   388 symmetry adapted basis functions of A   symmetry.
   388 basis functions,   782 primitive gaussians,   416 cartesian basis functions
    61 alpha electrons       61 beta electrons
       nuclear repulsion energy      1114.2412008778 Hartrees.
 NAtoms=   20 NActive=   20 NUniq=   20 SFac= 1.00D+00 NAtFMM=   60 NAOKFM=F Big=F
 Integral buffers will be    131072 words long.
 Raffenetti 1 integral format.
 Two-electron integral symmetry is turned on.
 One-electron integrals computed using PRISM.
 NBasis=   388 RedAO= T EigKep=  4.77D-06  NBF=   388
 NBsUse=   388 1.00D-06 EigRej= -1.00D+00 NBFU=   388
 Initial guess from the checkpoint file:  "/tmp/pbs.4762170[110].pbs/Gau-1951262.chk"
 B after Tr=     0.000000   -0.000000   -0.000000
         Rot=    0.999733   -0.023073   -0.000091    0.001264 Ang=  -2.65 deg.
 ExpMin= 2.97D-02 ExpMax= 1.11D+05 ExpMxC= 1.07D+03 IAcc=3 IRadAn=         5 AccDes= 0.00D+00
 Harris functional with IExCor=  205 and IRadAn=       5 diagonalized for initial guess.
 HarFok:  IExCor=  205 AccDes= 0.00D+00 IRadAn=         5 IDoV= 1 UseB2=F ITyADJ=14
 ICtDFT=  3500011 ScaDFX=  1.000000  1.000000  1.000000  1.000000
 FoFCou: FMM=F IPFlag=           0 FMFlag=      100000 FMFlg1=           0
         NFxFlg=           0 DoJE=T BraDBF=F KetDBF=T FulRan=T
         wScrn=  0.000000 ICntrl=       500 IOpCl=  0 I1Cent=   200000004 NGrid=           0
         NMat0=    1 NMatS0=      1 NMatT0=    0 NMatD0=    1 NMtDS0=    0 NMtDT0=    0
 Petite list used in FoFCou.
 Requested convergence on RMS density matrix=1.00D-08 within 128 cycles.
 Requested convergence on MAX density matrix=1.00D-06.
 Requested convergence on             energy=1.00D-06.
 No special actions if energy rises.
 SCF Done:  E(RHF) =  -1649.57482079     A.U. after   15 cycles
            NFock= 15  Conv=0.71D-08     -V/T= 2.0008
 Calling FoFJK, ICntrl=      2127 FMM=F ISym2X=0 I1Cent= 0 IOpClX= 0 NMat=1 NMatS=1 NMatT=0.
 ***** Axes restored to original set *****
 -------------------------------------------------------------------
 Center     Atomic                   Forces (Hartrees/Bohr)
 Number     Number              X              Y              Z
 -------------------------------------------------------------------
      1        6          -0.000478760   -0.037138994    0.006601750
      2        6           0.049702417    0.033768339    0.008423899
      3        6          -0.049141351    0.018110273    0.004308707
      4        6           0.010364672    0.043131139   -0.013773991
      5        1           0.001131472    0.001350380    0.000550149
      6       16          -0.002981913    0.017954483   -0.005317969
      7        1           0.003206768   -0.002176298    0.000353086
      8        6           0.059303372   -0.000331852    0.023286009
      9       16          -0.009792156   -0.011130320    0.008542606
     10        6           0.006077963    0.006900759    0.038507113
     11        6          -0.015502997    0.018769481   -0.031628422
     12        6          -0.041675322    0.008209999   -0.032865124
     13        1          -0.003696192   -0.005149920   -0.000664741
     14       16           0.009818844   -0.003991435   -0.011447573
     15        6          -0.043417134   -0.000654546   -0.030634477
     16        6           0.037379871    0.011747083    0.035472330
     17        1           0.002302531   -0.006702570    0.002405967
     18        1           0.003416143   -0.009433645   -0.000961636
     19        8          -0.049680525    0.016950638   -0.005526766
     20        1           0.033662298   -0.100182993    0.004369085
 -------------------------------------------------------------------
 Cartesian Forces:  Max     0.100182993 RMS     0.026087144

 GradGradGradGradGradGradGradGradGradGradGradGradGradGradGradGradGradGrad
 Berny optimization.
 Using GEDIIS/GDIIS optimizer.
 FormGI is forming the generalized inverse of G from B-inverse, IUseBI=4.
 Internal  Forces:  Max     0.102648123 RMS     0.018133929
 Search for a local minimum.
 Step number   2 out of a maximum of  116
 All quantities printed in internal units (Hartrees-Bohrs-Radians)
 Mixed Optimization -- RFO/linear search
 Update second derivatives using D2CorX and points    1    2
 DE= -6.94D-02 DEPred=-6.68D-02 R= 1.04D+00
 TightC=F SS=  1.41D+00  RLast= 3.12D-01 DXNew= 5.0454D-01 9.3517D-01
 Trust test= 1.04D+00 RLast= 3.12D-01 DXMaxT set to 5.05D-01
 ITU=  1  0
 Use linear search instead of GDIIS.
     Eigenvalues ---    0.00230   0.00995   0.01053   0.01218   0.01268
     Eigenvalues ---    0.01290   0.01348   0.01398   0.01459   0.01486
     Eigenvalues ---    0.01499   0.01591   0.01592   0.01736   0.02134
     Eigenvalues ---    0.02530   0.15046   0.15284   0.15750   0.15826
     Eigenvalues ---    0.15999   0.16027   0.18244   0.20858   0.22477
     Eigenvalues ---    0.22536   0.23378   0.24118   0.24326   0.24981
     Eigenvalues ---    0.25016   0.25542   0.26304   0.26685   0.28421
     Eigenvalues ---    0.28596   0.30917   0.31327   0.31537   0.34878
     Eigenvalues ---    0.35271   0.35993   0.36004   0.36090   0.36176
     Eigenvalues ---    0.36184   0.36434   0.37521   0.38088   0.39211
     Eigenvalues ---    0.39548   0.40502   0.450081000.000001000.00000
     Eigenvalues --- 1000.000001000.000001000.000001000.000001000.00000
     Eigenvalues --- 1000.000001000.000001000.000001000.000001000.00000
     Eigenvalues --- 1000.000001000.000001000.000001000.000001000.00000
     Eigenvalues --- 1000.000001000.000001000.000001000.000001000.00000
     Eigenvalues --- 1000.000001000.000001000.000001000.000001000.00000
     Eigenvalues --- 1000.000001000.000001000.000001000.000001000.00000
     Eigenvalues --- 1000.000001000.000001000.000001000.000001000.00000
     Eigenvalues --- 1000.000001000.000001000.000001000.000001000.00000
     Eigenvalues --- 1000.000001000.000001000.000001000.000001000.00000
     Eigenvalues --- 1000.000001000.000001000.000001000.000001000.00000
     Eigenvalues --- 1000.00000
 RFO step:  Lambda=-1.48666535D-02 EMin= 2.30033259D-03
 Quartic linear search produced a step of  1.58507.
 Iteration  1 RMS(Cart)=  0.09087034 RMS(Int)=  0.02433053
 Iteration  2 RMS(Cart)=  0.02620016 RMS(Int)=  0.00321877
 Iteration  3 RMS(Cart)=  0.00293994 RMS(Int)=  0.00104725
 Iteration  4 RMS(Cart)=  0.00000534 RMS(Int)=  0.00104724
 Iteration  5 RMS(Cart)=  0.00000000 RMS(Int)=  0.00104724
 Iteration  1 RMS(Cart)=  0.00003763 RMS(Int)=  0.00001740
 Iteration  2 RMS(Cart)=  0.00002058 RMS(Int)=  0.00001944
 Iteration  3 RMS(Cart)=  0.00001126 RMS(Int)=  0.00002196
 Iteration  4 RMS(Cart)=  0.00000616 RMS(Int)=  0.00002363
 Iteration  5 RMS(Cart)=  0.00000337 RMS(Int)=  0.00002461
 Iteration  6 RMS(Cart)=  0.00000184 RMS(Int)=  0.00002517
 Iteration  7 RMS(Cart)=  0.00000101 RMS(Int)=  0.00002547
 Iteration  8 RMS(Cart)=  0.00000055 RMS(Int)=  0.00002564
 Variable       Old X    -DE/DX   Delta X   Delta X   Delta X     New X
                                 (Linear)    (Quad)   (Total)
    R1        2.69712  -0.00674  -0.03495   0.04935   0.01472   2.71184
    R2        2.64276  -0.04516  -0.11278   0.02714  -0.08577   2.55700
    R3        2.03716   0.00000  -0.00121   0.00342   0.00221   2.03937
    R4        2.66746  -0.05599  -0.14520   0.03037  -0.11444   2.55302
    R5        2.77834  -0.08313  -0.20410  -0.07823  -0.28233   2.49601
    R6        3.35677  -0.01837  -0.06184   0.03188  -0.03000   3.32677
    R7        2.74948   0.00371  -0.00009   0.02456   0.02447   2.77394
    R8        3.26527  -0.01061  -0.03398   0.02236  -0.01205   3.25322
    R9        2.03787  -0.00157  -0.00454   0.00207  -0.00246   2.03540
   R10        3.35819  -0.01289  -0.03853   0.01346  -0.02600   3.33218
   R11        2.67708  -0.05828  -0.14423   0.01170  -0.13310   2.54398
   R12        3.26420   0.00013  -0.00815   0.02650   0.01859   3.28279
   R13        2.66981  -0.03500  -0.08358   0.00142  -0.08040   2.58942
   R14        2.69633   0.00467   0.00237   0.01710   0.02007   2.71640
   R15        2.69779  -0.00074  -0.01462   0.03032   0.01620   2.71399
   R16        3.27123   0.00130  -0.00319   0.02156   0.01838   3.28961
   R17        2.03766  -0.00014  -0.00065   0.00091   0.00025   2.03791
   R18        3.31538  -0.01056  -0.03304   0.01868  -0.01523   3.30015
   R19        2.65391  -0.05133  -0.12489   0.01645  -0.10880   2.54511
   R20        2.03832  -0.00148  -0.00411   0.00149  -0.00262   2.03570
   R21        2.04596  -0.00351  -0.01025   0.00467  -0.00557   2.04039
   R22        2.02755  -0.10265  -0.24436  -0.12677  -0.37113   1.65642
    A1        1.96219  -0.00217  -0.01270   0.00890  -0.00333   1.95887
    A2        2.17521  -0.00046   0.00303  -0.01377  -0.01102   2.16419
    A3        2.14578   0.00264   0.00968   0.00488   0.01430   2.16008
    A4        1.99339   0.00760   0.03410  -0.04103  -0.00763   1.98575
    A5        2.20879  -0.00681  -0.01396  -0.00854  -0.02499   2.18380
    A6        2.05959   0.00016  -0.01557   0.06579   0.04830   2.10788
    A7        1.89739   0.00030  -0.01111   0.03768   0.02727   1.92466
    A8        2.30850  -0.00862  -0.01651  -0.02894  -0.04579   2.26271
    A9        2.07710   0.00832   0.02755  -0.00868   0.01851   2.09561
   A10        1.95064  -0.00019  -0.00436   0.01430   0.00976   1.96040
   A11        2.18271   0.00366   0.01095   0.00975   0.02079   2.20350
   A12        2.14967  -0.00348  -0.00662  -0.02410  -0.03062   2.11904
   A13        1.62115  -0.00554  -0.00594  -0.01987  -0.02618   1.59497
   A14        2.12520  -0.00341  -0.00630  -0.01188  -0.01827   2.10693
   A15        2.23357  -0.00362  -0.01094   0.00118  -0.00985   2.22372
   A16        1.92401   0.00710   0.01769   0.01103   0.02853   1.95254
   A17        1.61156  -0.00595  -0.01226  -0.01196  -0.02351   1.58806
   A18        1.94805  -0.00680  -0.02158   0.01549  -0.00735   1.94071
   A19        2.25497   0.00710   0.02764   0.01623   0.04040   2.29537
   A20        1.97391   0.00354   0.01285  -0.00823   0.00432   1.97822
   A21        1.97576   0.00403   0.01510  -0.01078   0.00360   1.97936
   A22        1.95041  -0.00774  -0.02612   0.02256  -0.00483   1.94558
   A23        2.25422   0.00719   0.02743   0.01681   0.04052   2.29474
   A24        1.96475   0.00166   0.00121  -0.00278  -0.00064   1.96411
   A25        2.15279  -0.00346  -0.01172   0.01076  -0.00187   2.15092
   A26        2.15594   0.00238   0.01376  -0.00553   0.00727   2.16321
   A27        1.59516  -0.00157   0.00284  -0.02230  -0.01861   1.57656
   A28        1.96002   0.00219   0.00085   0.01902   0.01918   1.97920
   A29        2.13147  -0.00449  -0.00864  -0.01908  -0.02930   2.10217
   A30        2.17817   0.00337   0.01354   0.00800   0.02015   2.19832
   A31        1.94495   0.00360   0.00959  -0.01035   0.00017   1.94511
   A32        2.16984  -0.00049   0.00502  -0.00424  -0.00124   2.16859
   A33        2.13825  -0.00131  -0.00481   0.02274   0.01610   2.15435
   A34        2.21167  -0.05168  -0.17463  -0.05370  -0.22833   1.98335
    D1        0.00502  -0.00032  -0.00288   0.01495   0.01196   0.01698
    D2       -2.90953  -0.00554  -0.02472  -0.07777  -0.10027  -3.00980
    D3       -3.13828   0.00068   0.00196   0.02185   0.02315  -3.11513
    D4        0.23035  -0.00454  -0.01988  -0.07086  -0.08908   0.14127
    D5       -0.00745  -0.00032  -0.00118  -0.00556  -0.00636  -0.01381
    D6       -3.12977   0.00013   0.00067  -0.00284  -0.00222  -3.13199
    D7        3.13581  -0.00130  -0.00590  -0.01230  -0.01749   3.11833
    D8        0.01349  -0.00085  -0.00405  -0.00958  -0.01335   0.00015
    D9       -0.00034   0.00084   0.00562  -0.01702  -0.01164  -0.01198
   D10        3.11904   0.00052   0.00225  -0.01364  -0.01189   3.10715
   D11        2.93499   0.00449   0.02493   0.05831   0.08535   3.02034
   D12       -0.22881   0.00416   0.02156   0.06169   0.08510  -0.14371
   D13       -0.27608   0.00182   0.00647   0.04507   0.05185  -0.22423
   D14        3.10019  -0.00437  -0.02209  -0.03810  -0.06050   3.03969
   D15       -0.00331  -0.00084  -0.00533   0.01167   0.00686   0.00356
   D16       -3.12610  -0.00033  -0.00197   0.00922   0.00805  -3.11805
   D17       -1.13456  -0.00034   0.00000   0.00000  -0.00000  -1.13456
   D18        1.97312   0.00292   0.01660   0.01400   0.03065   2.00377
   D19        1.98298  -0.00080  -0.00405   0.00408  -0.00029   1.98269
   D20       -1.19253   0.00245   0.01255   0.01808   0.03037  -1.16217
   D21        0.00621   0.00070   0.00389  -0.00368  -0.00009   0.00613
   D22        3.12896   0.00036   0.00230  -0.00591  -0.00337   3.12559
   D23       -3.14048   0.00128   0.00773  -0.00954  -0.00182   3.14088
   D24        0.02960  -0.00130  -0.00566  -0.02121  -0.02752   0.00208
   D25        3.13684  -0.00199  -0.01193   0.01684   0.00487  -3.14148
   D26       -0.14945   0.00259   0.01239   0.03433   0.04654  -0.10292
   D27       -0.03549   0.00081   0.00269   0.02917   0.03258  -0.00291
   D28        2.96141   0.00540   0.02702   0.04666   0.07425   3.03565
   D29       -0.01622   0.00178   0.00817   0.00778   0.01556  -0.00066
   D30       -2.63749  -0.00720  -0.03469  -0.04326  -0.07924  -2.71673
   D31       -0.00131  -0.00131  -0.00731   0.00785   0.00048  -0.00083
   D32       -2.71709  -0.00999  -0.04590  -0.05178  -0.09486  -2.81195
   D33        2.70811   0.00789   0.03530   0.05666   0.08929   2.79740
   D34       -0.00767  -0.00079  -0.00329  -0.00298  -0.00605  -0.01371
   D35        2.63701   0.00703   0.03697   0.04062   0.07899   2.71600
   D36       -0.24794  -0.00032  -0.00115   0.00327   0.00331  -0.24463
   D37        0.02187   0.00037   0.00218  -0.01675  -0.01492   0.00695
   D38       -2.86307  -0.00698  -0.03593  -0.05410  -0.09060  -2.95368
   D39        0.02435   0.00037   0.00297  -0.02455  -0.02189   0.00247
   D40       -2.97224  -0.00366  -0.01871  -0.04365  -0.06301  -3.03525
   D41        2.64837   0.00617   0.03192   0.04764   0.08084   2.72920
   D42       -0.34822   0.00214   0.01025   0.02854   0.03971  -0.30851
   D43       -0.00626   0.00103   0.00328   0.01626   0.01908   0.01282
   D44       -2.63620  -0.00740  -0.03533  -0.04729  -0.08381  -2.72001
   D45        0.01891  -0.00073  -0.00186  -0.02585  -0.02801  -0.00910
   D46        2.99232   0.00627   0.03306   0.02416   0.05560   3.04792
   D47       -0.02636   0.00045   0.00047   0.02847   0.02944   0.00308
   D48        2.86399   0.00777   0.03957   0.06054   0.10146   2.96545
   D49       -2.99445  -0.00587  -0.03266  -0.02007  -0.05397  -3.04842
   D50       -0.10410   0.00144   0.00644   0.01199   0.01804  -0.08606
         Item               Value     Threshold  Converged?
 Maximum Force            0.102648     0.000450     NO 
 RMS     Force            0.018220     0.000300     NO 
 Maximum Displacement     0.818537     0.001800     NO 
 RMS     Displacement     0.105134     0.001200     NO 
 Predicted change in Energy=-7.799415D-02
 GradGradGradGradGradGradGradGradGradGradGradGradGradGradGradGradGradGrad

                          Input orientation:                          
 ---------------------------------------------------------------------
 Center     Atomic      Atomic             Coordinates (Angstroms)
 Number     Number       Type             X           Y           Z
 ---------------------------------------------------------------------
      1          6           0       -4.164399   -1.317216   -0.189962
      2          6           0       -2.825175   -0.960097   -0.561842
      3          6           0       -1.967088   -2.003505   -0.575433
      4          6           0       -4.283205   -2.635199    0.092343
      5          1           0       -4.985856   -0.618545   -0.148584
      6         16           0       -2.797116   -3.482148   -0.102301
      7          1           0       -5.185436   -3.144790    0.386312
      8          6           0       -0.544952   -2.041874   -0.937113
      9         16           0       -0.025550   -1.698699   -2.586881
     10          6           0        1.636781   -1.945335   -2.146873
     11          6           0        1.755628   -2.266661   -0.820134
     12          6           0        0.496851   -2.318547   -0.130637
     13          1           0        0.398747   -2.461583    0.933741
     14         16           0        3.376362   -2.001370   -0.242916
     15          6           0        3.857087   -1.434127   -1.823085
     16          6           0        2.858276   -1.456946   -2.726281
     17          1           0        4.845427   -1.036528   -1.982948
     18          1           0        2.927732   -0.999350   -3.701779
     19          8           0       -2.392241    0.273404   -0.750638
     20          1           0       -3.034874    0.867117   -0.803990
 ---------------------------------------------------------------------
                    Distance matrix (angstroms):
                    1          2          3          4          5
     1  C    0.000000
     2  C    1.435044   0.000000
     3  C    2.334043   1.350999   0.000000
     4  C    1.353104   2.315120   2.491859   0.000000
     5  H    1.079187   2.226204   3.348623   2.149106   0.000000
     6  S    2.562045   2.563729   1.760450   1.721531   3.604573
     7  H    2.171321   3.353015   3.547570   1.077089   2.589954
     8  C    3.766134   2.551566   1.467908   3.922544   4.729617
     9  S    4.798002   3.533301   2.812187   5.116923   5.631755
    10  C    6.154489   4.836535   3.932007   6.366808   7.043639
    11  C    6.028705   4.770490   3.740019   6.118492   6.972436
    12  C    4.767960   3.614856   2.523507   4.795720   5.740245
    13  H    4.836796   3.858096   2.843346   4.760123   5.793287
    14  S    7.571918   6.296429   5.353786   7.693056   8.476308
    15  C    8.186880   6.816748   5.983463   8.448420   9.036967
    16  C    7.467958   6.101906   5.311215   7.767475   8.299267
    17  H    9.190787   7.801507   7.023283   9.497079  10.009682
    18  H    7.920367   6.554134   5.894203   8.310775   8.683034
    19  O    2.446421   1.320834   2.322879   3.570201   2.808003
    20  H    2.534594   1.855080   3.071299   3.824652   2.538322
                    6          7          8          9         10
     6  S    0.000000
     7  H    2.461021   0.000000
     8  C    2.800633   4.949946   0.000000
     9  S    4.127397   6.128252   1.763316   0.000000
    10  C    5.118742   7.375525   2.496557   1.737176   0.000000
    11  C    4.766568   7.099647   2.314493   2.572270   1.370260
    12  C    3.493564   5.765267   1.346219   2.586552   2.346047
    13  H    3.511194   5.652394   2.137012   3.627230   3.359974
    14  S    6.350142   8.660699   3.982493   4.142316   2.579599
    15  C    7.171743   9.464408   4.531252   3.965886   2.301288
    16  C    6.555163   8.788534   3.889115   2.897296   1.437458
    17  H    8.241745  10.520284   5.582175   4.952739   3.338894
    18  H    7.203777   9.334821   4.559579   3.233258   2.231406
    19  O    3.832550   4.558360   2.967788   3.586392   4.806797
    20  H    4.411916   4.705011   3.831405   4.337989   5.615834
                   11         12         13         14         15
    11  C    0.000000
    12  C    1.436181   0.000000
    13  H    2.226027   1.078418   0.000000
[...]
      2          6           0       -2.634384    0.753810    0.576620
      3          6           0       -1.741697   -0.098990    0.021176
      4          6           0       -4.109503   -0.820196   -0.259079
      5          1           0       -4.844643    0.899376    0.800040
      6         16           0       -2.573626   -1.443153   -0.725128
      7          1           0       -5.014143   -1.347679   -0.509686
      8          6           0       -0.273825   -0.011079    0.004881
      9         16           0        0.535118    1.295658   -0.848607
     10          6           0        2.088441    0.641697   -0.433792
     11          6           0        1.960148   -0.504734    0.294594
     12          6           0        0.602771   -0.886115    0.548562
     13          1           0        0.297969   -1.754275    1.109730
     14         16           0        3.514562   -1.156986    0.716716
     15          6           0        4.309474    0.155551   -0.112979
     16          6           0        3.449168    1.032011   -0.671534
     17          1           0        5.385299    0.195834   -0.135926
     18          1           0        3.755254    1.905491   -1.223789
     19          8           0       -2.259299    1.873668    1.229245
     20          1           0       -3.010507    2.355592    1.531041
 ---------------------------------------------------------------------
 Rotational constants (GHZ):           1.3063130           0.2675632           0.2448281

 **********************************************************************

            Population analysis using the SCF Density.

 **********************************************************************

 Orbital symmetries:
       Occupied  (A) (A) (A) (A) (A) (A) (A) (A) (A) (A) (A) (A)
                 (A) (A) (A) (A) (A) (A) (A) (A) (A) (A) (A) (A)
                 (A) (A) (A) (A) (A) (A) (A) (A) (A) (A) (A) (A)
                 (A) (A) (A) (A) (A) (A) (A) (A) (A) (A) (A) (A)
                 (A) (A) (A) (A) (A) (A) (A) (A) (A) (A) (A) (A)
                 (A)
       Virtual   (A) (A) (A) (A) (A) (A) (A) (A) (A) (A) (A) (A)
                 (A) (A) (A) (A) (A) (A) (A) (A) (A) (A) (A) (A)
                 (A) (A) (A) (A) (A) (A) (A) (A) (A) (A) (A) (A)
                 (A) (A) (A) (A) (A) (A) (A) (A) (A) (A) (A) (A)
                 (A) (A) (A) (A) (A) (A) (A) (A) (A) (A) (A) (A)
                 (A) (A) (A) (A) (A) (A) (A) (A) (A) (A) (A) (A)
                 (A) (A) (A) (A) (A) (A) (A) (A) (A) (A) (A) (A)
                 (A) (A) (A) (A) (A) (A) (A) (A) (A) (A) (A) (A)
                 (A) (A) (A) (A) (A) (A) (A) (A) (A) (A) (A) (A)
                 (A) (A) (A) (A) (A) (A) (A) (A) (A) (A) (A) (A)
                 (A) (A) (A) (A) (A) (A) (A) (A) (A) (A) (A) (A)
                 (A) (A) (A) (A) (A) (A) (A) (A) (A) (A) (A) (A)
                 (A) (A) (A) (A) (A) (A) (A) (A) (A) (A) (A) (A)
                 (A) (A) (A) (A) (A) (A) (A) (A) (A) (A) (A) (A)
                 (A) (A) (A) (A) (A) (A) (A) (A) (A) (A) (A) (A)
                 (A) (A) (A) (A) (A) (A) (A) (A) (A) (A) (A) (A)
                 (A) (A) (A) (A) (A) (A) (A) (A) (A) (A) (A) (A)
                 (A) (A) (A) (A) (A) (A) (A) (A) (A) (A) (A) (A)
                 (A) (A) (A) (A) (A) (A) (A) (A) (A) (A) (A) (A)
                 (A) (A) (A) (A) (A) (A) (A) (A) (A) (A) (A) (A)
                 (A) (A) (A) (A) (A) (A) (A) (A) (A) (A) (A) (A)
                 (A) (A) (A) (A) (A) (A) (A) (A) (A) (A) (A) (A)
                 (A) (A) (A) (A) (A) (A) (A) (A) (A) (A) (A) (A)
                 (A) (A) (A) (A) (A) (A) (A) (A) (A) (A) (A) (A)
                 (A) (A) (A) (A) (A) (A) (A) (A) (A) (A) (A) (A)
                 (A) (A) (A) (A) (A) (A) (A) (A) (A) (A) (A) (A)
                 (A) (A) (A) (A) (A) (A) (A) (A) (A) (A) (A) (A)
                 (A) (A) (A)
 The electronic state is 1-A.
 Alpha  occ. eigenvalues --  -91.99047 -91.98624 -91.98368 -20.60956 -11.31778
 Alpha  occ. eigenvalues --  -11.28501 -11.28380 -11.27393 -11.26963 -11.26815
 Alpha  occ. eigenvalues --  -11.26668 -11.25526 -11.25405 -11.25302  -8.99235
 Alpha  occ. eigenvalues --   -8.98808  -8.98535  -6.67402  -6.67309  -6.67111
 Alpha  occ. eigenvalues --   -6.66975  -6.66897  -6.66698  -6.66690  -6.66617
 Alpha  occ. eigenvalues --   -6.66408  -1.42994  -1.21271  -1.18450  -1.12588
 Alpha  occ. eigenvalues --   -1.02872  -1.01993  -0.98669  -0.95686  -0.94182
 Alpha  occ. eigenvalues --   -0.82589  -0.81209  -0.77052  -0.75097  -0.71828
 Alpha  occ. eigenvalues --   -0.69847  -0.66812  -0.66491  -0.62012  -0.61036
 Alpha  occ. eigenvalues --   -0.58572  -0.56382  -0.56060  -0.53759  -0.53132
 Alpha  occ. eigenvalues --   -0.52664  -0.50805  -0.49375  -0.48493  -0.46037
 Alpha  occ. eigenvalues --   -0.45737  -0.38408  -0.35126  -0.33121  -0.31720
 Alpha  occ. eigenvalues --   -0.29201
 Alpha virt. eigenvalues --    0.02784   0.03714   0.03988   0.04953   0.05101
 Alpha virt. eigenvalues --    0.06249   0.07897   0.08469   0.08658   0.08963
 Alpha virt. eigenvalues --    0.10129   0.10340   0.10473   0.10848   0.11290
 Alpha virt. eigenvalues --    0.12331   0.12608   0.12792   0.13049   0.13320
 Alpha virt. eigenvalues --    0.13916   0.14204   0.14425   0.14648   0.14857
 Alpha virt. eigenvalues --    0.15305   0.15738   0.16354   0.16878   0.16959
 Alpha virt. eigenvalues --    0.17405   0.18132   0.18398   0.18689   0.19298
 Alpha virt. eigenvalues --    0.19384   0.19915   0.20589   0.21538   0.21728
 Alpha virt. eigenvalues --    0.21816   0.22391   0.23006   0.23085   0.23409
 Alpha virt. eigenvalues --    0.23856   0.24732   0.24943   0.25415   0.25717
 Alpha virt. eigenvalues --    0.26230   0.27249   0.27403   0.27815   0.28044
 Alpha virt. eigenvalues --    0.28953   0.29693   0.30704   0.31024   0.31562
 Alpha virt. eigenvalues --    0.32016   0.32123   0.32760   0.32868   0.33311
 Alpha virt. eigenvalues --    0.34000   0.34779   0.35015   0.35783   0.36086
 Alpha virt. eigenvalues --    0.36402   0.37384   0.37735   0.38822   0.39011
 Alpha virt. eigenvalues --    0.40380   0.40738   0.40873   0.41516   0.42347
 Alpha virt. eigenvalues --    0.43361   0.44110   0.44900   0.45496   0.45522
 Alpha virt. eigenvalues --    0.46051   0.46661   0.46907   0.47318   0.48620
 Alpha virt. eigenvalues --    0.49666   0.49923   0.50680   0.51441   0.52045
 Alpha virt. eigenvalues --    0.53064   0.53692   0.54140   0.55001   0.55570
 Alpha virt. eigenvalues --    0.55642   0.57264   0.58799   0.59131   0.59573
 Alpha virt. eigenvalues --    0.60165   0.60767   0.61074   0.61832   0.62342
 Alpha virt. eigenvalues --    0.63014   0.63530   0.64741   0.65043   0.65649
 Alpha virt. eigenvalues --    0.66519   0.67043   0.67871   0.68191   0.68364
 Alpha virt. eigenvalues --    0.69140   0.69520   0.70014   0.70434   0.71012
 Alpha virt. eigenvalues --    0.71804   0.72133   0.72625   0.73145   0.74032
 Alpha virt. eigenvalues --    0.74207   0.74975   0.75354   0.76068   0.76660
 Alpha virt. eigenvalues --    0.78237   0.78314   0.79010   0.79332   0.79778
 Alpha virt. eigenvalues --    0.80621   0.82089   0.83476   0.84099   0.84534
 Alpha virt. eigenvalues --    0.85129   0.85649   0.86901   0.87433   0.87638
 Alpha virt. eigenvalues --    0.87801   0.89267   0.89839   0.90468   0.90790
 Alpha virt. eigenvalues --    0.91413   0.92747   0.93060   0.94243   0.95356
 Alpha virt. eigenvalues --    0.95769   0.96322   0.96978   0.97881   0.98507
 Alpha virt. eigenvalues --    0.99726   1.00611   1.00648   1.01344   1.02360
 Alpha virt. eigenvalues --    1.03807   1.05232   1.05736   1.06844   1.08035
 Alpha virt. eigenvalues --    1.09596   1.10435   1.10845   1.11365   1.12324
 Alpha virt. eigenvalues --    1.14071   1.14777   1.16884   1.18327   1.18438
 Alpha virt. eigenvalues --    1.18771   1.21709   1.22367   1.23347   1.23831
 Alpha virt. eigenvalues --    1.24309   1.25241   1.25721   1.26409   1.27229
 Alpha virt. eigenvalues --    1.28501   1.29353   1.29793   1.31787   1.32716
 Alpha virt. eigenvalues --    1.34131   1.34823   1.35528   1.36422   1.36884
 Alpha virt. eigenvalues --    1.38371   1.39567   1.40200   1.41048   1.42248
 Alpha virt. eigenvalues --    1.44266   1.44786   1.44965   1.47090   1.48480
 Alpha virt. eigenvalues --    1.50401   1.52758   1.55424   1.55843   1.56140
 Alpha virt. eigenvalues --    1.58335   1.59030   1.59198   1.60379   1.61256
 Alpha virt. eigenvalues --    1.62035   1.63737   1.64828   1.66359   1.67293
 Alpha virt. eigenvalues --    1.67686   1.68987   1.69833   1.71154   1.71636
 Alpha virt. eigenvalues --    1.73898   1.74601   1.75333   1.76836   1.77357
 Alpha virt. eigenvalues --    1.78650   1.80119   1.81321   1.83099   1.83472
 Alpha virt. eigenvalues --    1.85405   1.87462   1.89178   1.90015   1.91049
 Alpha virt. eigenvalues --    1.91098   1.92324   1.94729   1.95744   1.97647
 Alpha virt. eigenvalues --    1.98488   2.00610   2.03252   2.04715   2.05411
 Alpha virt. eigenvalues --    2.05679   2.06532   2.07889   2.08624   2.09798
 Alpha virt. eigenvalues --    2.10901   2.12804   2.13080   2.14167   2.15534
 Alpha virt. eigenvalues --    2.16083   2.20439   2.21061   2.21677   2.22282
 Alpha virt. eigenvalues --    2.24132   2.25414   2.26747   2.28944   2.30710
 Alpha virt. eigenvalues --    2.32336   2.33645   2.34831   2.35820   2.37384
 Alpha virt. eigenvalues --    2.38334   2.41134   2.44657   2.45226   2.47979
 Alpha virt. eigenvalues --    2.48293   2.48754   2.50103   2.51614   2.53432
 Alpha virt. eigenvalues --    2.56834   2.57426   2.60359   2.61197   2.65699
 Alpha virt. eigenvalues --    2.75014   2.81824   2.83989   2.85977   2.88021
 Alpha virt. eigenvalues --    2.91759   2.94369   2.97906   3.00504   3.03471
 Alpha virt. eigenvalues --    3.11648   3.19197   3.24178   3.26464   3.34670
 Alpha virt. eigenvalues --    3.42551   3.52310   3.55171   3.66482   3.75873
 Alpha virt. eigenvalues --    3.77698   3.80450   3.88234   3.89653   4.24406
 Alpha virt. eigenvalues --    4.27084   4.48964
          Condensed to atoms (all electrons):
               1          2          3          4          5          6
     1  C    7.610032  -1.931563   0.008081   0.103456  -0.163588  -0.453490
     2  C   -1.931563  10.746154  -2.508222   0.448985   0.182285  -0.434580
     3  C    0.008081  -2.508222  10.820504  -1.148829  -0.029010   0.140661
     4  C    0.103456   0.448985  -1.148829   6.357772  -0.019215   0.370626
     5  H   -0.163588   0.182285  -0.029010  -0.019215   1.655312  -0.017579
     6  S   -0.453490  -0.434580   0.140661   0.370626  -0.017579  16.287464
     7  H    0.021542   0.032870   0.047511   0.195821  -0.066806  -0.157774
     8  C    0.335881   0.066930  -1.422391   0.146288   0.002356  -0.594810
     9  S    0.006702   0.378215  -0.524040  -0.002347   0.003870  -0.120072
    10  C   -0.012548   0.085978  -0.312863   0.012830  -0.000052   0.013084
    11  C   -0.028590   0.088649   0.319615  -0.004132   0.000403   0.034159
    12  C   -0.052998  -0.973474   0.190376  -0.115377  -0.009826   0.524681
    13  H   -0.017446   0.115833  -0.030156   0.012830  -0.001121   0.002775
    14  S    0.002087  -0.015026  -0.053313  -0.002335   0.000123  -0.000064
    15  C   -0.002119   0.008028   0.025948   0.000359  -0.000115  -0.003841
    16  C    0.002240   0.003137  -0.334738  -0.002474  -0.000087   0.006941
    17  H   -0.000103   0.000612  -0.000707   0.000003  -0.000006  -0.000094
    18  H    0.000522   0.000010  -0.008090  -0.000280   0.000042   0.000048
    19  O    0.167251  -0.841507   0.347735  -0.103283  -0.069346   0.004559
    20  H   -0.125655   0.017485  -0.060194  -0.010767  -0.012089   0.016512
               7          8          9         10         11         12
     1  C    0.021542   0.335881   0.006702  -0.012548  -0.028590  -0.052998
     2  C    0.032870   0.066930   0.378215   0.085978   0.088649  -0.973474
     3  C    0.047511  -1.422391  -0.524040  -0.312863   0.319615   0.190376
     4  C    0.195821   0.146288  -0.002347   0.012830  -0.004132  -0.115377
     5  H   -0.066806   0.002356   0.003870  -0.000052   0.000403  -0.009826
     6  S   -0.157774  -0.594810  -0.120072   0.013084   0.034159   0.524681
     7  H    1.255485   0.004614  -0.001399   0.000237   0.000591   0.003701
     8  C    0.004614  12.688420   0.367752  -0.220106  -0.728283  -4.770674
     9  S   -0.001399   0.367752  16.571962   0.184320  -0.434621  -0.732043
    10  C    0.000237  -0.220106   0.184320  10.813785  -0.644736  -1.438648
    11  C    0.000591  -0.728283  -0.434621  -0.644736  12.490244  -3.215478
    12  C    0.003701  -4.770674  -0.732043  -1.438648  -3.215478  17.459588
    13  H    0.001591   0.373282   0.032723  -0.102381   0.704182  -1.271101
    14  S   -0.000155  -0.289567   0.104901   0.026553  -0.333437   0.021363
    15  C    0.000033   0.064359  -0.086082  -0.096493  -1.008467  -0.120190
    16  C   -0.000127  -0.465424  -0.165190  -2.202084  -1.045588   0.295551
    17  H    0.000003   0.005159   0.009939   0.088270  -0.063044   0.024755
    18  H   -0.000018   0.100382   0.009706   0.519914   0.082784  -0.064413
    19  O   -0.001921   0.007222  -0.009676   0.012737  -0.020487   0.077711
    20  H    0.001157   0.025548  -0.003148   0.002668   0.000099  -0.006311
              13         14         15         16         17         18
     1  C   -0.017446   0.002087  -0.002119   0.002240  -0.000103   0.000522
     2  C    0.115833  -0.015026   0.008028   0.003137   0.000612   0.000010
     3  C   -0.030156  -0.053313   0.025948  -0.334738  -0.000707  -0.008090
     4  C    0.012830  -0.002335   0.000359  -0.002474   0.000003  -0.000280
     5  H   -0.001121   0.000123  -0.000115  -0.000087  -0.000006   0.000042
     6  S    0.002775  -0.000064  -0.003841   0.006941  -0.000094   0.000048
     7  H    0.001591  -0.000155   0.000033  -0.000127   0.000003  -0.000018
     8  C    0.373282  -0.289567   0.064359  -0.465424   0.005159   0.100382
     9  S    0.032723   0.104901  -0.086082  -0.165190   0.009939   0.009706
    10  C   -0.102381   0.026553  -0.096493  -2.202084   0.088270   0.519914
    11  C    0.704182  -0.333437  -1.008467  -1.045588  -0.063044   0.082784
    12  C   -1.271101   0.021363  -0.120190   0.295551   0.024755  -0.064413
    13  H    1.714270  -0.042031   0.016851  -0.040476   0.001677  -0.001237
    14  S   -0.042031  15.968670   0.190461  -0.039333  -0.156518  -0.005139
    15  C    0.016851   0.190461   6.917283   0.113420   0.199680  -0.126824
    16  C   -0.040476  -0.039333   0.113420   9.856147   0.042820  -0.547146
    17  H    0.001677  -0.156518   0.199680   0.042820   1.293788  -0.069384
    18  H   -0.001237  -0.005139  -0.126824  -0.547146  -0.069384   1.429457
    19  O   -0.002768   0.001145  -0.000031  -0.001617  -0.000015   0.000225
    20  H    0.001251  -0.000361   0.000266   0.001075   0.000013  -0.000034
              19         20
     1  C    0.167251  -0.125655
     2  C   -0.841507   0.017485
     3  C    0.347735  -0.060194
     4  C   -0.103283  -0.010767
     5  H   -0.069346  -0.012089
     6  S    0.004559   0.016512
     7  H   -0.001921   0.001157
     8  C    0.007222   0.025548
     9  S   -0.009676  -0.003148
    10  C    0.012737   0.002668
    11  C   -0.020487   0.000099
    12  C    0.077711  -0.006311
    13  H   -0.002768   0.001251
    14  S    0.001145  -0.000361
    15  C   -0.000031   0.000266
    16  C   -0.001617   0.001075
    17  H   -0.000015   0.000013
    18  H    0.000225  -0.000034
    19  O    9.023242   0.362861
    20  H    0.362861   0.622112
 Mulliken charges:
               1
     1  C    0.530305
     2  C    0.529201
     3  C    0.532123
     4  C   -0.239932
     5  H   -0.455549
     6  S    0.380793
     7  H   -0.336957
     8  C    0.303064
     9  S    0.408526
    10  C   -0.730465
    11  C   -0.193864
    12  C    0.172807
    13  H   -0.468547
    14  S    0.621975
    15  C   -0.092528
    16  C    0.522953
    17  H   -0.376849
    18  H   -0.320527
    19  O   -0.954039
    20  H    0.167511
 Sum of Mulliken charges =  -0.00000
 Mulliken charges with hydrogens summed into heavy atoms:
               1
     1  C    0.074756
     2  C    0.529201
     3  C    0.532123
     4  C   -0.576889
     6  S    0.380793
     8  C    0.303064
     9  S    0.408526
    10  C   -0.730465
    11  C   -0.193864
    12  C   -0.295740
    14  S    0.621975
    15  C   -0.469378
    16  C    0.202426
    19  O   -0.786528
 Electronic spatial extent (au):  <R**2>=           4301.8987
 Charge=             -0.0000 electrons
 Dipole moment (field-independent basis, Debye):
    X=             -2.2940    Y=              0.9088    Z=              0.6222  Tot=              2.5447
 Quadrupole moment (field-independent basis, Debye-Ang):
   XX=            -76.3544   YY=            -99.8507   ZZ=           -106.3792
   XY=             -0.7459   XZ=             -6.1508   YZ=             -0.1352
 Traceless Quadrupole moment (field-independent basis, Debye-Ang):
   XX=             17.8404   YY=             -5.6560   ZZ=            -12.1844
   XY=             -0.7459   XZ=             -6.1508   YZ=             -0.1352
 Octapole moment (field-independent basis, Debye-Ang**2):
  XXX=            -52.7153  YYY=             17.9973  ZZZ=              8.9940  XYY=            -20.8413
  XXY=             33.6253  XXZ=              6.3107  XZZ=            -10.2432  YZZ=              7.5177
  YYZ=              5.9931  XYZ=            -24.8968
 Hexadecapole moment (field-independent basis, Debye-Ang**3):
 XXXX=          -3965.3510 YYYY=           -796.0848 ZZZZ=           -405.1842 XXXY=              3.2938
 XXXZ=            -94.0372 YYYX=            -42.1989 YYYZ=             19.3623 ZZZX=            -27.9783
 ZZZY=             15.5607 XXYY=           -856.6893 XXZZ=           -891.9995 YYZZ=           -182.1419
 XXYZ=             52.1005 YYXZ=            -37.5582 ZZXY=            -20.1970
 N-N= 1.127264152309D+03 E-N=-6.161983805321D+03  KE= 1.649565584723D+03
 Unable to Open any file for archive entry.
 1\1\GINC-CX3-6-15\FOpt\RHF\Aug-CC-pVDZ\C10H6O1S3\NS5018\25-Oct-2021\0\
 \# opt=modredundant hf/aug-cc-pvdz\\pBTTT_-65.pdb\\0,1\C,-4.207962407,
 -1.4026524909,-0.1786327921\C,-2.895638298,-0.9522950679,-0.5549621556
 \C,-1.968871128,-1.9387672269,-0.580485692\C,-4.2390484819,-2.72709517
 11,0.0752723083\H,-5.0659432621,-0.7512128175,-0.1014292193\S,-2.69851
 27035,-3.4650430126,-0.1400829052\H,-5.0899892245,-3.3128679217,0.3788
 934978\C,-0.5364729157,-1.8462837361,-0.9003705911\S,-0.0072936475,-1.
 3903281623,-2.5135872803\C,1.6550532887,-1.5779860185,-2.0510560148\C,
 1.7610918279,-1.9768713395,-0.7506884306\C,0.5028589857,-2.1345712601,
 -0.0840524599\H,0.3797403299,-2.4355469695,0.9434552207\S,3.4251254713
 ,-2.1584484358,-0.2839513221\C,3.942448361,-1.6829524153,-1.880607788\
 C,2.9172762189,-1.4028617762,-2.7117904866\H,4.9941599153,-1.640654267
 7,-2.1079029366\H,3.0419847389,-1.0920171199,-3.7362240258\O,-2.597443
 3147,0.3314895338,-0.8442148976\H,-3.3655637546,0.8749656758,-0.796582
 029\\Version=ES64L-G16RevC.01\State=1-A\HF=-1649.6417796\RMSD=6.408e-0
 9\RMSF=2.051e-04\Dipole=-0.9074823,0.4082603,0.1101629\Quadrupole=11.7
 933218,-6.5186547,-5.2746671,-3.291808,-6.3016755,-1.9549275\PG=C01 [X
 (C10H6O1S3)]\\@
 The archive entry for this job was punched.


 ALL OUR THINKING ABOUT NATURE MUST NECESSARILY MOVE IN CIRCLES OR SPIRALS;
 FOR WE CAN ONLY UNDERSTAND NATURE IF WE THINK ABOUT HER, AND WE CAN ONLY
 THINK BECAUSE OUR BRAIN IS BUILT IN ACCORDANCE WITH NATURE'S LAWS.

                                             -- TIMOTHY FERRIS, "GALAXIES"
 Job cpu time:       0 days  5 hours 30 minutes 26.2 seconds.
 Elapsed time:       0 days  0 hours 42 minutes 59.5 seconds.
 File lengths (MBytes):  RWF=     95 Int=      0 D2E=      0 Chk=     12 Scr=      1
 Normal termination of Gaussian 16 at Mon Oct 25 23:02:29 2021.
