 Entering Gaussian System, Link 0=g16
 Input=pBTTT_110.gjf
 Output=pBTTT_110.log
 Initial command:
 /apps/gaussian/g16-c01-avx/g16/l1.exe "/tmp/pbs.4762170[285].pbs/Gau-3046614.inp" -scrdir="/tmp/pbs.4762170[285].pbs/"
 Entering Link 1 = /apps/gaussian/g16-c01-avx/g16/l1.exe PID=   3046615.
  
 Copyright (c) 1988-2019, Gaussian, Inc.  All Rights Reserved.
  
 This is part of the Gaussian(R) 16 program.  It is based on
 the Gaussian(R) 09 system (copyright 2009, Gaussian, Inc.),
 the Gaussian(R) 03 system (copyright 2003, Gaussian, Inc.),
 the Gaussian(R) 98 system (copyright 1998, Gaussian, Inc.),
 the Gaussian(R) 94 system (copyright 1995, Gaussian, Inc.),
 the Gaussian 92(TM) system (copyright 1992, Gaussian, Inc.),
 the Gaussian 90(TM) system (copyright 1990, Gaussian, Inc.),
 the Gaussian 88(TM) system (copyright 1988, Gaussian, Inc.),
 the Gaussian 86(TM) system (copyright 1986, Carnegie Mellon
 University), and the Gaussian 82(TM) system (copyright 1983,
 Carnegie Mellon University). Gaussian is a federally registered
 trademark of Gaussian, Inc.
  
 This software contains proprietary and confidential information,
 including trade secrets, belonging to Gaussian, Inc.
  
 This software is provided under written license and may be
 used, copied, transmitted, or stored only in accord with that
 written license.
  
 The following legend is applicable only to US Government
 contracts under FAR:
  
                    RESTRICTED RIGHTS LEGEND
  
 Use, reproduction and disclosure by the US Government is
 subject to restrictions as set forth in subparagraphs (a)
 and (c) of the Commercial Computer Software - Restricted
 Rights clause in FAR 52.227-19.
  
 Gaussian, Inc.
 340 Quinnipiac St., Bldg. 40, Wallingford CT 06492
  
  
 ---------------------------------------------------------------
 Warning -- This program may not be used in any manner that
 competes with the business of Gaussian, Inc. or will provide
 assistance to any competitor of Gaussian, Inc.  The licensee
 of this program is prohibited from giving any competitor of
 Gaussian, Inc. access to this program.  By using this program,
 the user acknowledges that Gaussian, Inc. is engaged in the
 business of creating and licensing software in the field of
 computational chemistry and represents and warrants to the
 licensee that it is not a competitor of Gaussian, Inc. and that
 it will not use this program in any manner prohibited above.
 ---------------------------------------------------------------
  

 Cite this work as:
 Gaussian 16, Revision C.01,
 M. J. Frisch, G. W. Trucks, H. B. Schlegel, G. E. Scuseria, 
 M. A. Robb, J. R. Cheeseman, G. Scalmani, V. Barone, 
 G. A. Petersson, H. Nakatsuji, X. Li, M. Caricato, A. V. Marenich, 
 J. Bloino, B. G. Janesko, R. Gomperts, B. Mennucci, H. P. Hratchian, 
 J. V. Ortiz, A. F. Izmaylov, J. L. Sonnenberg, D. Williams-Young, 
 F. Ding, F. Lipparini, F. Egidi, J. Goings, B. Peng, A. Petrone, 
 T. Henderson, D. Ranasinghe, V. G. Zakrzewski, J. Gao, N. Rega, 
 G. Zheng, W. Liang, M. Hada, M. Ehara, K. Toyota, R. Fukuda, 
 J. Hasegawa, M. Ishida, T. Nakajima, Y. Honda, O. Kitao, H. Nakai, 
 T. Vreven, K. Throssell, J. A. Montgomery, Jr., J. E. Peralta, 
 F. Ogliaro, M. J. Bearpark, J. J. Heyd, E. N. Brothers, K. N. Kudin, 
 V. N. Staroverov, T. A. Keith, R. Kobayashi, J. Normand, 
 K. Raghavachari, A. P. Rendell, J. C. Burant, S. S. Iyengar, 
 J. Tomasi, M. Cossi, J. M. Millam, M. Klene, C. Adamo, R. Cammi, 
 J. W. Ochterski, R. L. Martin, K. Morokuma, O. Farkas, 
 J. B. Foresman, and D. J. Fox, Gaussian, Inc., Wallingford CT, 2019.
 
 ******************************************
 Gaussian 16:  ES64L-G16RevC.01  3-Jul-2019
                25-Oct-2021 
 ******************************************
 %mem=100GB
 %nprocshared=8
 Will use up to    8 processors via shared memory.
 ---------------------------------
 # opt=modredundant hf/aug-cc-pvdz
 ---------------------------------
 1/18=120,19=15,38=1/1,3;
 2/9=110,12=2,17=6,18=5,40=1/2;
 3/5=16,7=10,11=9,25=1,30=1,71=1/1,2,3;
 4//1;
 5/5=2,38=5/2;
 6/7=2,8=2,9=2,10=2,28=1/1;
 7//1,2,3,16;
 1/18=20,19=15/3(2);
 2/9=110/2;
 99//99;
 2/9=110/2;
 3/5=16,7=10,11=9,25=1,30=1,71=1/1,2,3;
 4/5=5,16=3,69=1/1;
 5/5=2,38=5/2;
 7//1,2,3,16;
 1/18=20,19=15/3(-5);
 2/9=110/2;
 6/7=2,8=2,9=2,10=2,19=2,28=1/1;
 99/9=1/99;
 -------------
 pBTTT_110.pdb
 -------------
 Symbolic Z-matrix:
 Charge =  0 Multiplicity = 1
 C                    -4.25     -1.36     -0.21 
 C                    -2.93     -0.95     -0.61 
 C                    -1.97     -2.05     -0.62 
 C                    -4.33     -2.76      0.1 
 H                    -5.1      -0.7      -0.14 
 S                    -2.8      -3.56     -0.11 
 H                    -5.23     -3.27      0.41 
 C                    -0.56     -2.13     -0.97 
 S                     0.71     -2.394     0.264 
 C                     1.977    -2.366    -0.913 
 C                     1.478    -2.187    -2.253 
 C                     0.051    -2.07     -2.299 
 H                    -0.51     -2.094    -3.22 
 S                     2.539    -2.846    -3.454 
 C                     3.683    -3.366    -2.215 
 C                     3.228    -3.051    -0.881 
 H                     4.523    -4.009    -2.437 
 H                     3.642    -3.521     0.007 
 O                    -2.4       0.49     -0.72 
 H                    -2.92      1.52     -0.76 
 
 Add virtual bond connecting atoms H20        and O19        Dist= 2.18D+00.
 The following ModRedundant input section has been read:
 D       2       3       8       9 F                                           
 

 GradGradGradGradGradGradGradGradGradGradGradGradGradGradGradGradGradGrad
 Berny optimization.
 Initialization pass.
                           ----------------------------
                           !    Initial Parameters    !
                           ! (Angstroms and Degrees)  !
 --------------------------                            --------------------------
 ! Name  Definition              Value          Derivative Info.                !
 --------------------------------------------------------------------------------
 ! R1    R(1,2)                  1.4389         estimate D2E/DX2                !
 ! R2    R(1,4)                  1.4361         estimate D2E/DX2                !
 ! R3    R(1,5)                  1.0784         estimate D2E/DX2                !
 ! R4    R(2,3)                  1.46           estimate D2E/DX2                !
 ! R5    R(2,19)                 1.5384         estimate D2E/DX2                !
 ! R6    R(3,6)                  1.797          estimate D2E/DX2                !
 ! R7    R(3,8)                  1.455          estimate D2E/DX2                !
 ! R8    R(4,6)                  1.7393         estimate D2E/DX2                !
 ! R9    R(4,7)                  1.0799         estimate D2E/DX2                !
 ! R10   R(8,9)                  1.7903         estimate D2E/DX2                !
 ! R11   R(8,12)                 1.464          estimate D2E/DX2                !
 ! R12   R(9,10)                 1.7296         estimate D2E/DX2                !
 ! R13   R(10,11)                1.4411         estimate D2E/DX2                !
 ! R14   R(10,16)                1.4266         estimate D2E/DX2                !
 ! R15   R(11,12)                1.4325         estimate D2E/DX2                !
 ! R16   R(11,14)                1.7327         estimate D2E/DX2                !
 ! R17   R(12,13)                1.0787         estimate D2E/DX2                !
 ! R18   R(14,15)                1.7647         estimate D2E/DX2                !
 ! R19   R(15,16)                1.4442         estimate D2E/DX2                !
 ! R20   R(15,17)                1.0809         estimate D2E/DX2                !
 ! R21   R(16,18)                1.0867         estimate D2E/DX2                !
 ! R22   R(19,20)                1.1545         estimate D2E/DX2                !
 ! A1    A(2,1,4)              112.8843         estimate D2E/DX2                !
 ! A2    A(2,1,5)              124.5209         estimate D2E/DX2                !
 ! A3    A(4,1,5)              122.5942         estimate D2E/DX2                !
 ! A4    A(1,2,3)              112.9799         estimate D2E/DX2                !
 ! A5    A(1,2,19)             127.059          estimate D2E/DX2                !
 ! A6    A(3,2,19)             118.5686         estimate D2E/DX2                !
 ! A7    A(2,3,6)              109.1138         estimate D2E/DX2                !
 ! A8    A(2,3,8)              132.8639         estimate D2E/DX2                !
 ! A9    A(6,3,8)              118.0132         estimate D2E/DX2                !
 ! A10   A(1,4,6)              111.9209         estimate D2E/DX2                !
 ! A11   A(1,4,7)              124.6643         estimate D2E/DX2                !
 ! A12   A(6,4,7)              123.4062         estimate D2E/DX2                !
 ! A13   A(3,6,4)               93.0997         estimate D2E/DX2                !
 ! A14   A(3,8,9)              121.9873         estimate D2E/DX2                !
 ! A15   A(3,8,12)             128.3585         estimate D2E/DX2                !
 ! A16   A(9,8,12)             109.6149         estimate D2E/DX2                !
 ! A17   A(8,9,10)              92.7632         estimate D2E/DX2                !
 ! A18   A(9,10,11)            112.4044         estimate D2E/DX2                !
 ! A19   A(9,10,16)            128.2677         estimate D2E/DX2                !
 ! A20   A(11,10,16)           112.5908         estimate D2E/DX2                !
 ! A21   A(10,11,12)           112.6402         estimate D2E/DX2                !
 ! A22   A(10,11,14)           112.6587         estimate D2E/DX2                !
 ! A23   A(12,11,14)           128.2261         estimate D2E/DX2                !
 ! A24   A(8,12,11)            112.5354         estimate D2E/DX2                !
 ! A25   A(8,12,13)            123.8583         estimate D2E/DX2                !
 ! A26   A(11,12,13)           122.9343         estimate D2E/DX2                !
 ! A27   A(11,14,15)            91.2822         estimate D2E/DX2                !
 ! A28   A(14,15,16)           112.3339         estimate D2E/DX2                !
 ! A29   A(14,15,17)           122.3353         estimate D2E/DX2                !
 ! A30   A(16,15,17)           124.353          estimate D2E/DX2                !
 ! A31   A(10,16,15)           111.1168         estimate D2E/DX2                !
 ! A32   A(10,16,18)           124.0618         estimate D2E/DX2                !
 ! A33   A(15,16,18)           122.7139         estimate D2E/DX2                !
 ! A34   A(2,19,20)            133.0318         estimate D2E/DX2                !
 ! D1    D(4,1,2,3)              0.3915         estimate D2E/DX2                !
 ! D2    D(4,1,2,19)          -165.8104         estimate D2E/DX2                !
 ! D3    D(5,1,2,3)           -179.8811         estimate D2E/DX2                !
 ! D4    D(5,1,2,19)            13.9169         estimate D2E/DX2                !
 ! D5    D(2,1,4,6)             -0.3845         estimate D2E/DX2                !
 ! D6    D(2,1,4,7)           -179.3471         estimate D2E/DX2                !
 ! D7    D(5,1,4,6)            179.8822         estimate D2E/DX2                !
 ! D8    D(5,1,4,7)              0.9196         estimate D2E/DX2                !
 ! D9    D(1,2,3,6)             -0.2224         estimate D2E/DX2                !
 ! D10   D(1,2,3,8)            178.6265         estimate D2E/DX2                !
 ! D11   D(19,2,3,6)           167.2616         estimate D2E/DX2                !
 ! D12   D(19,2,3,8)           -13.8895         estimate D2E/DX2                !
 ! D13   D(1,2,19,20)          -16.0519         estimate D2E/DX2                !
 ! D14   D(3,2,19,20)          178.4264         estimate D2E/DX2                !
 ! D15   D(2,3,6,4)              0.0033         estimate D2E/DX2                !
 ! D16   D(8,3,6,4)           -179.041          estimate D2E/DX2                !
 ! D17   D(2,3,8,9)            109.9813         Frozen                          !
 ! D18   D(2,3,8,12)           -72.546          estimate D2E/DX2                !
 ! D19   D(6,3,8,9)            -71.2508         estimate D2E/DX2                !
 ! D20   D(6,3,8,12)           106.2219         estimate D2E/DX2                !
 ! D21   D(1,4,6,3)              0.2153         estimate D2E/DX2                !
 ! D22   D(7,4,6,3)            179.1932         estimate D2E/DX2                !
 ! D23   D(3,8,9,10)           179.7714         estimate D2E/DX2                !
 ! D24   D(12,8,9,10)            1.875          estimate D2E/DX2                !
 ! D25   D(3,8,12,11)         -179.8341         estimate D2E/DX2                !
 ! D26   D(3,8,12,13)           -9.006          estimate D2E/DX2                !
 ! D27   D(9,8,12,11)           -2.1096         estimate D2E/DX2                !
 ! D28   D(9,8,12,13)          168.7185         estimate D2E/DX2                !
 ! D29   D(8,9,10,11)           -1.1993         estimate D2E/DX2                !
 ! D30   D(8,9,10,16)         -149.8965         estimate D2E/DX2                !
 ! D31   D(9,10,11,12)           0.1726         estimate D2E/DX2                !
 ! D32   D(9,10,11,14)        -154.0671         estimate D2E/DX2                !
 ! D33   D(16,10,11,12)        153.9525         estimate D2E/DX2                !
 ! D34   D(16,10,11,14)         -0.2871         estimate D2E/DX2                !
 ! D35   D(9,10,16,15)         149.7545         estimate D2E/DX2                !
 ! D36   D(9,10,16,18)         -14.0748         estimate D2E/DX2                !
 ! D37   D(11,10,16,15)          1.1042         estimate D2E/DX2                !
 ! D38   D(11,10,16,18)       -162.7251         estimate D2E/DX2                !
 ! D39   D(10,11,12,8)           1.2848         estimate D2E/DX2                !
 ! D40   D(10,11,12,13)       -169.6411         estimate D2E/DX2                !
 ! D41   D(14,11,12,8)         150.5854         estimate D2E/DX2                !
 ! D42   D(14,11,12,13)        -20.3405         estimate D2E/DX2                !
 ! D43   D(10,11,14,15)         -0.4664         estimate D2E/DX2                !
 ! D44   D(12,11,14,15)       -149.7624         estimate D2E/DX2                !
 ! D45   D(11,14,15,16)          1.1012         estimate D2E/DX2                !
 ! D46   D(11,14,15,17)        170.2383         estimate D2E/DX2                !
 ! D47   D(14,15,16,10)         -1.4513         estimate D2E/DX2                !
 ! D48   D(14,15,16,18)        162.6335         estimate D2E/DX2                !
 ! D49   D(17,15,16,10)       -170.3305         estimate D2E/DX2                !
 ! D50   D(17,15,16,18)         -6.2457         estimate D2E/DX2                !
 --------------------------------------------------------------------------------
 Trust Radius=3.00D-01 FncErr=1.00D-07 GrdErr=1.00D-07 EigMax=2.50D+02 EigMin=1.00D-04
 Number of steps in this run=    116 maximum allowed number of steps=    120.
 GradGradGradGradGradGradGradGradGradGradGradGradGradGradGradGradGradGrad

                          Input orientation:                          
 ---------------------------------------------------------------------
 Center     Atomic      Atomic             Coordinates (Angstroms)
 Number     Number       Type             X           Y           Z
 ---------------------------------------------------------------------
      1          6           0       -4.250000   -1.360000   -0.210000
      2          6           0       -2.930000   -0.950000   -0.610000
      3          6           0       -1.970000   -2.050000   -0.620000
      4          6           0       -4.330000   -2.760000    0.100000
      5          1           0       -5.100000   -0.700000   -0.140000
      6         16           0       -2.800000   -3.560000   -0.110000
      7          1           0       -5.230000   -3.270000    0.410000
      8          6           0       -0.560000   -2.130000   -0.970000
      9         16           0        0.710000   -2.394000    0.264000
     10          6           0        1.977000   -2.366000   -0.913000
     11          6           0        1.478000   -2.187000   -2.253000
     12          6           0        0.051000   -2.070000   -2.299000
     13          1           0       -0.510000   -2.094000   -3.220000
     14         16           0        2.539000   -2.846000   -3.454000
     15          6           0        3.683000   -3.366000   -2.215000
     16          6           0        3.228000   -3.051000   -0.881000
     17          1           0        4.523000   -4.009000   -2.437000
     18          1           0        3.642000   -3.521000    0.007000
     19          8           0       -2.400000    0.490000   -0.720000
     20          1           0       -2.920000    1.520000   -0.760000
 ---------------------------------------------------------------------
                    Distance matrix (angstroms):
                    1          2          3          4          5
     1  C    0.000000
     2  C    1.438923   0.000000
     3  C    2.417147   1.460034   0.000000
     4  C    1.436141   2.395871   2.567509   0.000000
     5  H    1.078425   2.234346   3.442354   2.212261   0.000000
     6  S    2.636759   2.660639   1.796970   1.739253   3.670218
     7  H    2.234480   3.422397   3.630000   1.079907   2.631406
     8  C    3.845335   2.671872   1.454991   3.969219   4.831708
     9  S    5.088755   4.012308   2.842920   5.055932   6.065390
    10  C    6.346792   5.116201   3.970455   6.399973   7.311430
    11  C    6.137407   4.864163   3.817612   6.292678   7.067250
    12  C    4.833903   3.604647   2.627524   5.042268   5.750738
    13  H    4.856589   3.738614   2.982203   5.104739   5.700679
    14  S    7.669567   6.449272   5.384817   7.734434   8.598967
    15  C    8.424758   7.221139   6.019326   8.362693   9.410328
    16  C    7.696116   6.512189   5.299936   7.626953   8.685152
    17  H    9.430920   8.260909   7.021269   9.293653  10.432057
    18  H    8.185394   7.083919   5.835368   8.008780   9.187068
    19  O    2.665539   1.538376   2.578081   3.867790   3.007075
    20  H    3.219596   2.474571   3.696891   4.587603   3.172570
                    6          7          8          9         10
     6  S    0.000000
     7  H    2.501879   0.000000
     8  C    2.793224   5.001290   0.000000
     9  S    3.717463   6.006021   1.790350   0.000000
    10  C    4.989005   7.382980   2.548591   1.729567   0.000000
    11  C    4.977837   7.298063   2.408896   2.639690   1.441056
    12  C    3.891018   6.055381   1.463954   2.666126   2.391252
    13  H    4.131024   6.069454   2.250843   3.703600   3.403146
    14  S    6.340115   8.687211   4.035680   4.168101   2.646304
    15  C    6.818941   9.292008   4.591380   3.991109   2.367623
    16  C    6.098386   8.558762   3.899373   2.843061   1.426622
    17  H    7.696938  10.186881   5.614234   4.943945   3.391775
    18  H    6.443180   8.884694   4.532793   3.151635   2.225455
    19  O    4.115167   4.839773   3.211308   4.354057   5.229925
    20  H    5.122821   5.445099   4.351574   5.435519   6.253400
                   11         12         13         14         15
    11  C    0.000000
    12  C    1.432527   0.000000
    13  H    2.212664   1.078674   0.000000
    14  S    1.732744   2.850674   3.149073   0.000000
    15  C    2.500702   3.857214   4.495471   1.764726   0.000000
    16  C    2.385661   3.614750   4.512141   2.671530   1.444232
    17  H    3.553247   4.876223   5.441636   2.514580   1.080895
    18  H    3.401478   4.507584   5.448758   3.694693   2.227777
    19  O    4.955331   3.879980   4.061915   6.557238   7.355722
    20  H    5.942500   4.907490   4.992063   7.491347   8.342040
                   16         17         18         19         20
    16  C    0.000000
    17  H    2.239626   0.000000
    18  H    1.086665   2.643377   0.000000
    19  O    6.651239   8.433091   7.288512   0.000000
    20  H    7.662022   9.422336   8.310223   1.154513   0.000000
 Stoichiometry    C10H6OS3
 Framework group  C1[X(C10H6OS3)]
 Deg. of freedom    54
 Full point group                 C1      NOp   1
 Largest Abelian subgroup         C1      NOp   1
 Largest concise Abelian subgroup C1      NOp   1
                         Standard orientation:                         
 ---------------------------------------------------------------------
 Center     Atomic      Atomic             Coordinates (Angstroms)
 Number     Number       Type             X           Y           Z
 ---------------------------------------------------------------------
      1          6           0       -4.099143    0.496411   -0.150780
      2          6           0       -2.799646    0.995774    0.213150
      3          6           0       -1.725159    0.048806   -0.070451
      4          6           0       -4.053525   -0.827771   -0.704821
      5          1           0       -5.020866    1.041776   -0.024270
      6         16           0       -2.428487   -1.442440   -0.785025
      7          1           0       -4.915463   -1.379085   -1.050243
      8          6           0       -0.280949    0.112020    0.094653
      9         16           0        0.576543   -0.864844    1.325830
     10          6           0        2.122163   -0.238246    0.867752
     11          6           0        2.034665    0.690948   -0.230240
     12          6           0        0.689651    0.882878   -0.684369
     13          1           0        0.447238    1.411083   -1.593090
     14         16           0        3.499726    0.775438   -1.151578
     15          6           0        4.276671   -0.408915   -0.098999
     16          6           0        3.393448   -0.881407    0.941421
     17          1           0        5.232773   -0.853872   -0.336096
     18          1           0        3.583799   -1.790582    1.505343
     19          8           0       -2.489565    2.217898    1.094548
     20          1           0       -3.124521    3.114033    1.450460
 ---------------------------------------------------------------------
 Rotational constants (GHZ):           1.1594994           0.2571042           0.2472161
 Standard basis: Aug-CC-pVDZ (5D, 7F)
 There are   416 symmetry adapted cartesian basis functions of A   symmetry.
 There are   388 symmetry adapted basis functions of A   symmetry.
   388 basis functions,   782 primitive gaussians,   416 cartesian basis functions
    61 alpha electrons       61 beta electrons
       nuclear repulsion energy      1100.6711472573 Hartrees.
 NAtoms=   20 NActive=   20 NUniq=   20 SFac= 1.00D+00 NAtFMM=   60 NAOKFM=F Big=F
 Integral buffers will be    131072 words long.
 Raffenetti 1 integral format.
 Two-electron integral symmetry is turned on.
 One-electron integrals computed using PRISM.
 NBasis=   388 RedAO= T EigKep=  6.73D-06  NBF=   388
 NBsUse=   388 1.00D-06 EigRej= -1.00D+00 NBFU=   388
 ExpMin= 2.97D-02 ExpMax= 1.11D+05 ExpMxC= 1.07D+03 IAcc=3 IRadAn=         5 AccDes= 0.00D+00
 Harris functional with IExCor=  205 and IRadAn=       5 diagonalized for initial guess.
 HarFok:  IExCor=  205 AccDes= 0.00D+00 IRadAn=         5 IDoV= 1 UseB2=F ITyADJ=14
 ICtDFT=  3500011 ScaDFX=  1.000000  1.000000  1.000000  1.000000
 FoFCou: FMM=F IPFlag=           0 FMFlag=      100000 FMFlg1=           0
         NFxFlg=           0 DoJE=T BraDBF=F KetDBF=T FulRan=T
         wScrn=  0.000000 ICntrl=       500 IOpCl=  0 I1Cent=   200000004 NGrid=           0
         NMat0=    1 NMatS0=      1 NMatT0=    0 NMatD0=    1 NMtDS0=    0 NMtDT0=    0
 Petite list used in FoFCou.
 Requested convergence on RMS density matrix=1.00D-08 within 128 cycles.
 Requested convergence on MAX density matrix=1.00D-06.
 Requested convergence on             energy=1.00D-06.
 No special actions if energy rises.
 SCF Done:  E(RHF) =  -1649.50499237     A.U. after   18 cycles
            NFock= 18  Conv=0.42D-08     -V/T= 2.0014

 **********************************************************************

            Population analysis using the SCF Density.

 **********************************************************************

 Orbital symmetries:
       Occupied  (A) (A) (A) (A) (A) (A) (A) (A) (A) (A) (A) (A)
                 (A) (A) (A) (A) (A) (A) (A) (A) (A) (A) (A) (A)
                 (A) (A) (A) (A) (A) (A) (A) (A) (A) (A) (A) (A)
                 (A) (A) (A) (A) (A) (A) (A) (A) (A) (A) (A) (A)
                 (A) (A) (A) (A) (A) (A) (A) (A) (A) (A) (A) (A)
                 (A)
       Virtual   (A) (A) (A) (A) (A) (A) (A) (A) (A) (A) (A) (A)
                 (A) (A) (A) (A) (A) (A) (A) (A) (A) (A) (A) (A)
                 (A) (A) (A) (A) (A) (A) (A) (A) (A) (A) (A) (A)
                 (A) (A) (A) (A) (A) (A) (A) (A) (A) (A) (A) (A)
                 (A) (A) (A) (A) (A) (A) (A) (A) (A) (A) (A) (A)
                 (A) (A) (A) (A) (A) (A) (A) (A) (A) (A) (A) (A)
                 (A) (A) (A) (A) (A) (A) (A) (A) (A) (A) (A) (A)
                 (A) (A) (A) (A) (A) (A) (A) (A) (A) (A) (A) (A)
                 (A) (A) (A) (A) (A) (A) (A) (A) (A) (A) (A) (A)
                 (A) (A) (A) (A) (A) (A) (A) (A) (A) (A) (A) (A)
                 (A) (A) (A) (A) (A) (A) (A) (A) (A) (A) (A) (A)
                 (A) (A) (A) (A) (A) (A) (A) (A) (A) (A) (A) (A)
                 (A) (A) (A) (A) (A) (A) (A) (A) (A) (A) (A) (A)
                 (A) (A) (A) (A) (A) (A) (A) (A) (A) (A) (A) (A)
                 (A) (A) (A) (A) (A) (A) (A) (A) (A) (A) (A) (A)
                 (A) (A) (A) (A) (A) (A) (A) (A) (A) (A) (A) (A)
                 (A) (A) (A) (A) (A) (A) (A) (A) (A) (A) (A) (A)
                 (A) (A) (A) (A) (A) (A) (A) (A) (A) (A) (A) (A)
                 (A) (A) (A) (A) (A) (A) (A) (A) (A) (A) (A) (A)
                 (A) (A) (A) (A) (A) (A) (A) (A) (A) (A) (A) (A)
                 (A) (A) (A) (A) (A) (A) (A) (A) (A) (A) (A) (A)
                 (A) (A) (A) (A) (A) (A) (A) (A) (A) (A) (A) (A)
                 (A) (A) (A) (A) (A) (A) (A) (A) (A) (A) (A) (A)
                 (A) (A) (A) (A) (A) (A) (A) (A) (A) (A) (A) (A)
                 (A) (A) (A) (A) (A) (A) (A) (A) (A) (A) (A) (A)
                 (A) (A) (A) (A) (A) (A) (A) (A) (A) (A) (A) (A)
                 (A) (A) (A) (A) (A) (A) (A) (A) (A) (A) (A) (A)
                 (A) (A) (A)
 The electronic state is 1-A.
 Alpha  occ. eigenvalues --  -92.00600 -91.99794 -91.99358 -20.60232 -11.35258
 Alpha  occ. eigenvalues --  -11.30231 -11.30149 -11.29968 -11.29198 -11.28350
 Alpha  occ. eigenvalues --  -11.28170 -11.27351 -11.27219 -11.26987  -9.00538
 Alpha  occ. eigenvalues --   -8.99856  -8.99395  -6.68691  -6.68592  -6.68425
 Alpha  occ. eigenvalues --   -6.68022  -6.67933  -6.67744  -6.67558  -6.67461
 Alpha  occ. eigenvalues --   -6.67275  -1.30532  -1.19452  -1.15888  -1.10160
 Alpha  occ. eigenvalues --   -1.02909  -1.00977  -0.98300  -0.94073  -0.92596
 Alpha  occ. eigenvalues --   -0.82589  -0.77567  -0.76977  -0.71703  -0.70695
 Alpha  occ. eigenvalues --   -0.68245  -0.65559  -0.61921  -0.60426  -0.57310
 Alpha  occ. eigenvalues --   -0.56314  -0.54846  -0.54349  -0.53565  -0.52751
 Alpha  occ. eigenvalues --   -0.50392  -0.50125  -0.48879  -0.48357  -0.46277
 Alpha  occ. eigenvalues --   -0.44661  -0.38465  -0.34908  -0.32370  -0.31409
 Alpha  occ. eigenvalues --   -0.27787
 Alpha virt. eigenvalues --    0.02778   0.03666   0.03817   0.04922   0.05061
 Alpha virt. eigenvalues --    0.05680   0.05917   0.07934   0.08223   0.08540
 Alpha virt. eigenvalues --    0.09088   0.09697   0.10207   0.10903   0.11470
 Alpha virt. eigenvalues --    0.11757   0.12377   0.12453   0.12987   0.13152
 Alpha virt. eigenvalues --    0.13359   0.14034   0.14367   0.14713   0.14857
 Alpha virt. eigenvalues --    0.15069   0.15559   0.15981   0.16323   0.16631
 Alpha virt. eigenvalues --    0.17094   0.17332   0.17581   0.17915   0.18671
 Alpha virt. eigenvalues --    0.19048   0.19701   0.20109   0.20609   0.20922
 Alpha virt. eigenvalues --    0.21234   0.21626   0.21935   0.22180   0.22981
 Alpha virt. eigenvalues --    0.23497   0.24222   0.24285   0.25138   0.25587
 Alpha virt. eigenvalues --    0.25891   0.26325   0.26766   0.27790   0.27990
 Alpha virt. eigenvalues --    0.28719   0.29263   0.30115   0.30474   0.31015
 Alpha virt. eigenvalues --    0.31312   0.31764   0.32032   0.32157   0.32678
 Alpha virt. eigenvalues --    0.32944   0.33731   0.34267   0.35150   0.35477
 Alpha virt. eigenvalues --    0.36200   0.36614   0.36919   0.38180   0.38508
 Alpha virt. eigenvalues --    0.39475   0.40237   0.40557   0.40863   0.41373
 Alpha virt. eigenvalues --    0.41932   0.42464   0.43230   0.43801   0.44127
 Alpha virt. eigenvalues --    0.44452   0.45937   0.46065   0.46930   0.47946
 Alpha virt. eigenvalues --    0.48088   0.49238   0.49655   0.50001   0.50589
 Alpha virt. eigenvalues --    0.51428   0.51906   0.52961   0.53762   0.54406
 Alpha virt. eigenvalues --    0.54567   0.55285   0.55792   0.56673   0.57512
 Alpha virt. eigenvalues --    0.57909   0.58997   0.59657   0.60263   0.60529
 Alpha virt. eigenvalues --    0.61149   0.62555   0.62761   0.63002   0.63844
 Alpha virt. eigenvalues --    0.64512   0.65221   0.65557   0.66143   0.67541
 Alpha virt. eigenvalues --    0.67773   0.68065   0.68887   0.69322   0.69387
 Alpha virt. eigenvalues --    0.70209   0.71230   0.71877   0.72076   0.72677
 Alpha virt. eigenvalues --    0.73083   0.73589   0.74182   0.74899   0.75501
 Alpha virt. eigenvalues --    0.75864   0.76431   0.77069   0.77421   0.77909
 Alpha virt. eigenvalues --    0.78525   0.79963   0.80214   0.82114   0.82766
 Alpha virt. eigenvalues --    0.83572   0.83730   0.85463   0.85721   0.86024
 Alpha virt. eigenvalues --    0.87252   0.88245   0.88415   0.89415   0.89724
 Alpha virt. eigenvalues --    0.91361   0.91480   0.91975   0.93458   0.94246
 Alpha virt. eigenvalues --    0.94990   0.95433   0.95941   0.96268   0.97684
 Alpha virt. eigenvalues --    0.98281   0.99447   0.99837   1.00160   1.01004
 Alpha virt. eigenvalues --    1.01359   1.02844   1.03290   1.03552   1.05507
 Alpha virt. eigenvalues --    1.06249   1.08350   1.09394   1.10047   1.10985
 Alpha virt. eigenvalues --    1.11519   1.12801   1.15636   1.16959   1.17613
 Alpha virt. eigenvalues --    1.18752   1.18980   1.20629   1.21723   1.21890
 Alpha virt. eigenvalues --    1.22475   1.23166   1.23895   1.25098   1.25582
 Alpha virt. eigenvalues --    1.26501   1.27753   1.28252   1.29498   1.30738
 Alpha virt. eigenvalues --    1.30830   1.30866   1.31878   1.32869   1.33683
 Alpha virt. eigenvalues --    1.35669   1.37094   1.38430   1.39639   1.40589
 Alpha virt. eigenvalues --    1.41256   1.42377   1.44053   1.45148   1.46304
 Alpha virt. eigenvalues --    1.47388   1.49072   1.49645   1.51834   1.53507
 Alpha virt. eigenvalues --    1.55167   1.56882   1.57607   1.58268   1.59479
 Alpha virt. eigenvalues --    1.59749   1.60988   1.61834   1.62429   1.63189
 Alpha virt. eigenvalues --    1.65019   1.65613   1.66552   1.68457   1.69801
 Alpha virt. eigenvalues --    1.70825   1.71344   1.72963   1.74227   1.75141
 Alpha virt. eigenvalues --    1.76647   1.77985   1.78833   1.79738   1.80306
 Alpha virt. eigenvalues --    1.81835   1.82563   1.83206   1.87013   1.87100
 Alpha virt. eigenvalues --    1.88245   1.89209   1.90528   1.91702   1.93882
 Alpha virt. eigenvalues --    1.95806   1.96288   1.97037   1.98473   1.99238
 Alpha virt. eigenvalues --    2.01736   2.02144   2.05237   2.06673   2.07211
 Alpha virt. eigenvalues --    2.08036   2.09510   2.10044   2.10518   2.11761
 Alpha virt. eigenvalues --    2.14171   2.15432   2.15727   2.16119   2.16646
 Alpha virt. eigenvalues --    2.18725   2.19964   2.20871   2.21173   2.24103
 Alpha virt. eigenvalues --    2.25691   2.27001   2.27448   2.29061   2.29750
 Alpha virt. eigenvalues --    2.31380   2.33701   2.36084   2.36655   2.38900
 Alpha virt. eigenvalues --    2.40856   2.41658   2.44442   2.45491   2.49570
 Alpha virt. eigenvalues --    2.50637   2.51567   2.53328   2.55322   2.61070
 Alpha virt. eigenvalues --    2.67185   2.71324   2.74307   2.76456   2.79799
 Alpha virt. eigenvalues --    2.81424   2.84857   2.87193   2.88891   2.94388
 Alpha virt. eigenvalues --    2.98048   3.02039   3.10606   3.13675   3.21860
 Alpha virt. eigenvalues --    3.26445   3.30668   3.38249   3.45097   3.74595
 Alpha virt. eigenvalues --    3.78383   3.79656   3.81519   3.86711   4.05995
 Alpha virt. eigenvalues --    4.16744   4.23109
          Condensed to atoms (all electrons):
               1          2          3          4          5          6
     1  C    6.000295  -0.253079  -0.742828   0.484279  -0.017801  -0.372600
     2  C   -0.253079   8.028774  -0.872837  -0.049585   0.096254  -0.387906
     3  C   -0.742828  -0.872837   9.530807  -0.864136  -0.039069   0.486625
     4  C    0.484279  -0.049585  -0.864136   5.975220  -0.065485   0.267870
     5  H   -0.017801   0.096254  -0.039069  -0.065485   1.433473   0.000043
     6  S   -0.372600  -0.387906   0.486625   0.267870   0.000043  15.912361
     7  H   -0.014052   0.014150   0.097821   0.247735  -0.064535  -0.171680
     8  C    0.335003  -0.361294  -2.024467   0.279294   0.026973  -0.407262
     9  S   -0.009535  -0.005338  -0.274724  -0.006052  -0.000358   0.133268
    10  C    0.011371  -0.000755  -0.032307   0.025328   0.001539   0.000093
    11  C   -0.041629  -0.085338   0.344399   0.001691  -0.002996   0.063160
    12  C   -0.084527   0.182977  -0.090574  -0.045685  -0.004274  -0.014325
    13  H    0.011320   0.021235   0.013514  -0.000286   0.000772   0.007261
    14  S    0.000756   0.008070   0.002461   0.000084   0.000021  -0.005804
    15  C   -0.002139  -0.011532   0.032112   0.001102  -0.000138   0.004557
    16  C    0.004087   0.026786  -0.183173  -0.002602   0.000356  -0.019511
    17  H   -0.000091  -0.000178   0.002435   0.000087  -0.000003  -0.000109
    18  H    0.000435   0.001195  -0.010978  -0.000276   0.000024  -0.000736
    19  O    0.015166  -0.582929   0.308253  -0.055400  -0.032363   0.026091
    20  H    0.013819   0.010285  -0.051438  -0.001678   0.006693   0.002373
               7          8          9         10         11         12
     1  C   -0.014052   0.335003  -0.009535   0.011371  -0.041629  -0.084527
     2  C    0.014150  -0.361294  -0.005338  -0.000755  -0.085338   0.182977
     3  C    0.097821  -2.024467  -0.274724  -0.032307   0.344399  -0.090574
     4  C    0.247735   0.279294  -0.006052   0.025328   0.001691  -0.045685
     5  H   -0.064535   0.026973  -0.000358   0.001539  -0.002996  -0.004274
     6  S   -0.171680  -0.407262   0.133268   0.000093   0.063160  -0.014325
     7  H    1.215232  -0.016980   0.000442  -0.000239   0.001065   0.006501
     8  C   -0.016980   9.722610   0.270937   0.110455  -0.467209  -1.488389
     9  S    0.000442   0.270937  15.934163   0.120028  -0.221434  -0.337784
    10  C   -0.000239   0.110455   0.120028   7.329099   0.327807  -0.576746
    11  C    0.001065  -0.467209  -0.221434   0.327807   8.064553  -1.449181
    12  C    0.006501  -1.488389  -0.337784  -0.576746  -1.449181   9.820396
    13  H   -0.000020   0.078339   0.040780  -0.034043   0.248231  -0.435188
    14  S    0.000007  -0.128425  -0.005572  -0.069156   0.084887   0.001592
    15  C    0.000107   0.140659  -0.044861   0.098003  -0.269982  -0.316836
    16  C   -0.000229  -0.372945  -0.046773  -1.054168  -0.045772   0.678609
    17  H    0.000007  -0.006911  -0.002663  -0.017801   0.005482   0.032079
    18  H   -0.000026   0.064629  -0.040532   0.209191  -0.024304  -0.021752
    19  O   -0.000849  -0.069520   0.008633   0.001430   0.019386   0.025107
    20  H   -0.000120  -0.004080  -0.001057  -0.000989   0.001709   0.003499
              13         14         15         16         17         18
     1  C    0.011320   0.000756  -0.002139   0.004087  -0.000091   0.000435
     2  C    0.021235   0.008070  -0.011532   0.026786  -0.000178   0.001195
     3  C    0.013514   0.002461   0.032112  -0.183173   0.002435  -0.010978
     4  C   -0.000286   0.000084   0.001102  -0.002602   0.000087  -0.000276
     5  H    0.000772   0.000021  -0.000138   0.000356  -0.000003   0.000024
     6  S    0.007261  -0.005804   0.004557  -0.019511  -0.000109  -0.000736
     7  H   -0.000020   0.000007   0.000107  -0.000229   0.000007  -0.000026
     8  C    0.078339  -0.128425   0.140659  -0.372945  -0.006911   0.064629
     9  S    0.040780  -0.005572  -0.044861  -0.046773  -0.002663  -0.040532
    10  C   -0.034043  -0.069156   0.098003  -1.054168  -0.017801   0.209191
    11  C    0.248231   0.084887  -0.269982  -0.045772   0.005482  -0.024304
    12  C   -0.435188   0.001592  -0.316836   0.678609   0.032079  -0.021752
    13  H    1.528553  -0.059055   0.005539  -0.015315   0.001669  -0.000754
    14  S   -0.059055  15.654458   0.190021  -0.224839  -0.130937   0.007304
    15  C    0.005539   0.190021   5.853891   0.191555   0.230633  -0.042321
    16  C   -0.015315  -0.224839   0.191555   6.698286   0.042849  -0.147154
    17  H    0.001669  -0.130937   0.230633   0.042849   1.235879  -0.057274
    18  H   -0.000754   0.007304  -0.042321  -0.147154  -0.057274   1.382282
    19  O    0.000912   0.000187   0.000714  -0.000185   0.000030   0.000047
    20  H    0.000021   0.000048   0.000065  -0.000269   0.000004  -0.000011
              19         20
     1  C    0.015166   0.013819
     2  C   -0.582929   0.010285
     3  C    0.308253  -0.051438
     4  C   -0.055400  -0.001678
     5  H   -0.032363   0.006693
     6  S    0.026091   0.002373
     7  H   -0.000849  -0.000120
     8  C   -0.069520  -0.004080
     9  S    0.008633  -0.001057
    10  C    0.001430  -0.000989
    11  C    0.019386   0.001709
    12  C    0.025107   0.003499
    13  H    0.000912   0.000021
    14  S    0.000187   0.000048
    15  C    0.000714   0.000065
    16  C   -0.000185  -0.000269
    17  H    0.000030   0.000004
    18  H    0.000047  -0.000011
    19  O    9.281071   0.268787
    20  H    0.268787   0.354278
 Mulliken charges:
               1
     1  C    0.661752
     2  C    0.221045
     3  C    0.368102
     4  C   -0.191504
     5  H   -0.339125
     6  S    0.476232
     7  H   -0.314336
     8  C    0.318585
     9  S    0.488431
    10  C   -0.448140
    11  C   -0.554523
    12  C    0.114500
    13  H   -0.413484
    14  S    0.673890
    15  C   -0.061151
    16  C    0.470407
    17  H   -0.335186
    18  H   -0.318989
    19  O   -1.214569
    20  H    0.398063
 Sum of Mulliken charges =  -0.00000
 Mulliken charges with hydrogens summed into heavy atoms:
               1
     1  C    0.322627
     2  C    0.221045
     3  C    0.368102
     4  C   -0.505840
     6  S    0.476232
     8  C    0.318585
     9  S    0.488431
    10  C   -0.448140
    11  C   -0.554523
    12  C   -0.298984
    14  S    0.673890
    15  C   -0.396337
    16  C    0.151418
    19  O   -0.816506
 Electronic spatial extent (au):  <R**2>=           4404.4265
 Charge=             -0.0000 electrons
 Dipole moment (field-independent basis, Debye):
    X=             -2.1386    Y=             -0.0256    Z=             -0.7816  Tot=              2.2771
 Quadrupole moment (field-independent basis, Debye-Ang):
   XX=            -79.1506   YY=            -97.3830   ZZ=           -106.0842
   XY=            -10.8714   XZ=             -0.6711   YZ=              0.2905
 Traceless Quadrupole moment (field-independent basis, Debye-Ang):
   XX=             15.0553   YY=             -3.1771   ZZ=            -11.8782
   XY=            -10.8714   XZ=             -0.6711   YZ=              0.2905
 Octapole moment (field-independent basis, Debye-Ang**2):
  XXX=            -72.5470  YYY=             29.3442  ZZZ=              2.7417  XYY=            -36.1322
  XXY=             -6.6131  XXZ=             -5.9426  XZZ=             -2.2632  YZZ=              5.8135
  YYZ=             13.1525  XYZ=            -27.5213
 Hexadecapole moment (field-independent basis, Debye-Ang**3):
 XXXX=          -4115.2919 YYYY=           -657.6336 ZZZZ=           -596.6298 XXXY=           -225.0130
 XXXZ=            -49.3057 YYYX=           -138.9206 YYYZ=             63.9521 ZZZX=            -32.4562
 ZZZY=              5.9863 XXYY=           -792.4482 XXZZ=           -924.0765 YYZZ=           -189.3116
 XXYZ=             72.7564 YYXZ=            -36.6444 ZZXY=            -28.9710
 N-N= 1.100671147257D+03 E-N=-6.106669766047D+03  KE= 1.647271251752D+03
 Calling FoFJK, ICntrl=      2127 FMM=F ISym2X=0 I1Cent= 0 IOpClX= 0 NMat=1 NMatS=1 NMatT=0.
 ***** Axes restored to original set *****
 -------------------------------------------------------------------
 Center     Atomic                   Forces (Hartrees/Bohr)
 Number     Number              X              Y              Z
 -------------------------------------------------------------------
      1        6           0.009925824   -0.056436477    0.008864397
      2        6           0.055944566    0.017716266    0.013221442
      3        6          -0.066341208    0.040619781    0.004533328
      4        6           0.018602022    0.067376615   -0.020528553
      5        1           0.001444796    0.000584139    0.000415064
      6       16          -0.007924563    0.035111097   -0.007620700
      7        1           0.004140213   -0.001490141   -0.000271427
      8        6           0.058330529    0.007359237   -0.070965240
      9       16          -0.013721074    0.014336609   -0.013374164
     10        6          -0.014637359   -0.012284754   -0.051526125
     11        6          -0.008427493   -0.015254520    0.053876728
     12        6          -0.025207080   -0.003782330    0.076005920
     13        1          -0.004195798    0.006485816    0.003101503
     14       16           0.018343289    0.002392624    0.016083191
     15        6          -0.033578868    0.014352458    0.068453073
     16        6           0.019285420   -0.024890387   -0.071882095
     17        1           0.000872732    0.007822253   -0.003831975
     18        1           0.004683326    0.009963656   -0.005034555
     19        8          -0.048449095    0.018701762   -0.004319565
     20        1           0.030909822   -0.128683705    0.004799753
 -------------------------------------------------------------------
 Cartesian Forces:  Max     0.128683705 RMS     0.035303079

 GradGradGradGradGradGradGradGradGradGradGradGradGradGradGradGradGradGrad
 Berny optimization.
 FormGI is forming the generalized inverse of G from B-inverse, IUseBI=4.
 Internal  Forces:  Max     0.128893593 RMS     0.025695914
 Search for a local minimum.
 Step number   1 out of a maximum of  116
 All quantities printed in internal units (Hartrees-Bohrs-Radians)
 Mixed Optimization -- RFO/linear search
 Second derivative matrix not updated -- first step.
 ITU=  0
     Eigenvalues ---    0.00230   0.00994   0.01059   0.01223   0.01275
     Eigenvalues ---    0.01302   0.01362   0.01427   0.01458   0.01496
     Eigenvalues ---    0.01500   0.01592   0.01594   0.01771   0.02198
     Eigenvalues ---    0.02650   0.15076   0.15688   0.15739   0.15997
     Eigenvalues ---    0.16000   0.16000   0.17991   0.22443   0.22526
     Eigenvalues ---    0.23320   0.23978   0.24118   0.24633   0.24978
     Eigenvalues ---    0.24995   0.26145   0.26548   0.28307   0.28421
     Eigenvalues ---    0.28663   0.30910   0.31284   0.31615   0.34850
     Eigenvalues ---    0.35201   0.35872   0.35886   0.36006   0.36155
     Eigenvalues ---    0.36185   0.36358   0.37598   0.38343   0.38435
     Eigenvalues ---    0.39456   0.39707   0.405581000.000001000.00000
     Eigenvalues --- 1000.000001000.000001000.000001000.000001000.00000
     Eigenvalues --- 1000.000001000.000001000.000001000.000001000.00000
     Eigenvalues --- 1000.000001000.000001000.000001000.000001000.00000
     Eigenvalues --- 1000.000001000.000001000.000001000.000001000.00000
     Eigenvalues --- 1000.000001000.000001000.000001000.000001000.00000
     Eigenvalues --- 1000.000001000.000001000.000001000.000001000.00000
     Eigenvalues --- 1000.000001000.000001000.000001000.000001000.00000
     Eigenvalues --- 1000.000001000.000001000.000001000.000001000.00000
     Eigenvalues --- 1000.000001000.000001000.000001000.000001000.00000
     Eigenvalues --- 1000.000001000.000001000.000001000.000001000.00000
     Eigenvalues --- 1000.00000
 RFO step:  Lambda=-1.53714681D-01 EMin= 2.30000000D-03
 Linear search not attempted -- first point.
 Maximum step size (   0.300) exceeded in Quadratic search.
    -- Step size scaled by   0.522
 Iteration  1 RMS(Cart)=  0.06220777 RMS(Int)=  0.00123309
 Iteration  2 RMS(Cart)=  0.00138877 RMS(Int)=  0.00009239
 Iteration  3 RMS(Cart)=  0.00000667 RMS(Int)=  0.00009225
 Iteration  4 RMS(Cart)=  0.00000000 RMS(Int)=  0.00009225
 Iteration  1 RMS(Cart)=  0.00000032 RMS(Int)=  0.00000013
 Variable       Old X    -DE/DX   Delta X   Delta X   Delta X     New X
                                 (Linear)    (Quad)   (Total)
    R1        2.71917  -0.02166   0.00000  -0.02174  -0.02164   2.69753
    R2        2.71391  -0.07562   0.00000  -0.07161  -0.07159   2.64232
    R3        2.03793  -0.00075   0.00000  -0.00076  -0.00076   2.03716
    R4        2.75906  -0.09176   0.00000  -0.09214  -0.09209   2.66697
    R5        2.90711  -0.10903   0.00000  -0.12934  -0.12934   2.77777
    R6        3.39578  -0.03111   0.00000  -0.03781  -0.03787   3.35791
    R7        2.74954   0.00112   0.00000   0.00110   0.00110   2.75064
    R8        3.28671  -0.02011   0.00000  -0.02135  -0.02143   3.26528
    R9        2.04073  -0.00282   0.00000  -0.00287  -0.00287   2.03786
   R10        3.38327  -0.01957   0.00000  -0.02289  -0.02297   3.36030
   R11        2.76647  -0.09028   0.00000  -0.09122  -0.09123   2.67524
   R12        3.26841  -0.00569   0.00000  -0.00544  -0.00546   3.26295
   R13        2.72320  -0.05466   0.00000  -0.05306  -0.05292   2.67029
   R14        2.69592   0.00256   0.00000   0.00135   0.00144   2.69737
   R15        2.70708  -0.00886   0.00000  -0.00939  -0.00933   2.69775
   R16        3.27441  -0.00268   0.00000  -0.00203  -0.00206   3.27235
   R17        2.03840  -0.00061   0.00000  -0.00062  -0.00062   2.03778
   R18        3.33485  -0.01791   0.00000  -0.02017  -0.02027   3.31458
   R19        2.72920  -0.08026   0.00000  -0.07755  -0.07756   2.65164
   R20        2.04259  -0.00319   0.00000  -0.00325  -0.00325   2.03935
   R21        2.05350  -0.00664   0.00000  -0.00686  -0.00686   2.04664
   R22        2.18171  -0.12889   0.00000  -0.15415  -0.15415   2.02756
    A1        1.97020  -0.00412   0.00000  -0.00832  -0.00819   1.96201
    A2        2.17330   0.00088   0.00000   0.00220   0.00214   2.17544
    A3        2.13967   0.00324   0.00000   0.00613   0.00606   2.14574
    A4        1.97187   0.01809   0.00000   0.02167   0.02180   1.99367
    A5        2.21760  -0.00841   0.00000  -0.00916  -0.00928   2.20832
    A6        2.06941  -0.00866   0.00000  -0.00946  -0.00956   2.05985
    A7        1.90440  -0.00577   0.00000  -0.00723  -0.00722   1.89717
    A8        2.31891  -0.00752   0.00000  -0.00986  -0.00986   2.30905
    A9        2.05972   0.01328   0.00000   0.01706   0.01705   2.07677
   A10        1.95339  -0.00200   0.00000  -0.00236  -0.00240   1.95099
   A11        2.17580   0.00443   0.00000   0.00689   0.00691   2.18271
   A12        2.15384  -0.00243   0.00000  -0.00455  -0.00453   2.14931
   A13        1.62490  -0.00620   0.00000  -0.00376  -0.00399   1.62091
   A14        2.12908  -0.00271   0.00000  -0.00332  -0.00334   2.12574
   A15        2.24028  -0.00554   0.00000  -0.00698  -0.00699   2.23328
   A16        1.91314   0.00833   0.00000   0.01056   0.01057   1.92371
   A17        1.61902  -0.00771   0.00000  -0.00756  -0.00756   1.61147
   A18        1.96183  -0.01189   0.00000  -0.01354  -0.01373   1.94809
   A19        2.23869   0.00949   0.00000   0.01738   0.01715   2.25584
   A20        1.96508   0.00685   0.00000   0.00842   0.00850   1.97358
   A21        1.96594   0.00838   0.00000   0.00974   0.00978   1.97573
   A22        1.96627  -0.01412   0.00000  -0.01631  -0.01642   1.94984
   A23        2.23797   0.00968   0.00000   0.01722   0.01700   2.25497
   A24        1.96411   0.00294   0.00000   0.00097   0.00109   1.96520
   A25        2.16174  -0.00621   0.00000  -0.00791  -0.00802   2.15372
   A26        2.14561   0.00395   0.00000   0.00905   0.00894   2.15455
   A27        1.59318   0.00022   0.00000   0.00196   0.00191   1.59509
   A28        1.96060   0.00079   0.00000   0.00026   0.00022   1.96081
   A29        2.13515  -0.00375   0.00000  -0.00493  -0.00504   2.13012
   A30        2.17037   0.00424   0.00000   0.00855   0.00847   2.17884
   A31        1.93935   0.00627   0.00000   0.00568   0.00580   1.94515
   A32        2.16529  -0.00012   0.00000   0.00368   0.00348   2.16877
   A33        2.14176  -0.00390   0.00000  -0.00275  -0.00296   2.13880
   A34        2.32184  -0.06623   0.00000  -0.11029  -0.11029   2.21155
    D1        0.00683  -0.00048   0.00000  -0.00122  -0.00120   0.00563
    D2       -2.89394  -0.00478   0.00000  -0.01539  -0.01540  -2.90934
    D3       -3.13952   0.00057   0.00000   0.00198   0.00198  -3.13754
    D4        0.24290  -0.00373   0.00000  -0.01220  -0.01222   0.23067
    D5       -0.00671  -0.00007   0.00000  -0.00060  -0.00063  -0.00734
    D6       -3.13020   0.00034   0.00000   0.00087   0.00086  -3.12933
    D7        3.13954  -0.00109   0.00000  -0.00371  -0.00373   3.13581
    D8        0.01605  -0.00068   0.00000  -0.00224  -0.00224   0.01381
    D9       -0.00388   0.00093   0.00000   0.00253   0.00252  -0.00136
   D10        3.11762   0.00059   0.00000   0.00089   0.00089   3.11851
   D11        2.91927   0.00445   0.00000   0.01495   0.01498   2.93425
   D12       -0.24242   0.00412   0.00000   0.01331   0.01336  -0.22906
   D13       -0.28016   0.00254   0.00000   0.00487   0.00480  -0.27536
   D14        3.11413  -0.00518   0.00000  -0.01373  -0.01365   3.10047
   D15        0.00006  -0.00084   0.00000  -0.00247  -0.00244  -0.00239
   D16       -3.12486  -0.00032   0.00000  -0.00081  -0.00076  -3.12562
   D17        1.91954  -0.00029   0.00000   0.00000   0.00000   1.91954
   D18       -1.26617   0.00265   0.00000   0.00861   0.00861  -1.25755
   D19       -1.24356  -0.00085   0.00000  -0.00200  -0.00201  -1.24557
   D20        1.85392   0.00209   0.00000   0.00660   0.00660   1.86052
   D21        0.00376   0.00059   0.00000   0.00186   0.00186   0.00561
   D22        3.12751   0.00027   0.00000   0.00055   0.00054   3.12805
   D23        3.13760   0.00068   0.00000   0.00230   0.00231   3.13991
   D24        0.03273  -0.00149   0.00000  -0.00453  -0.00458   0.02815
   D25       -3.13870  -0.00180   0.00000  -0.00487  -0.00483   3.13966
   D26       -0.15718   0.00336   0.00000   0.01031   0.01029  -0.14690
   D27       -0.03682   0.00066   0.00000   0.00265   0.00273  -0.03408
   D28        2.94469   0.00582   0.00000   0.01783   0.01785   2.96254
   D29       -0.02093   0.00247   0.00000   0.00592   0.00587  -0.01506
   D30       -2.61619  -0.00801   0.00000  -0.02129  -0.02134  -2.63752
   D31        0.00301  -0.00202   0.00000  -0.00492  -0.00487  -0.00186
   D32       -2.68898  -0.01211   0.00000  -0.02947  -0.02915  -2.71813
   D33        2.68698   0.00874   0.00000   0.02214   0.02193   2.70891
   D34       -0.00501  -0.00134   0.00000  -0.00241  -0.00234  -0.00735
   D35        2.61371   0.00687   0.00000   0.02340   0.02364   2.63735
   D36       -0.24565  -0.00099   0.00000  -0.00089  -0.00077  -0.24642
   D37        0.01927   0.00109   0.00000   0.00168   0.00165   0.02092
   D38       -2.84009  -0.00677   0.00000  -0.02261  -0.02277  -2.86286
   D39        0.02242   0.00094   0.00000   0.00140   0.00137   0.02379
   D40       -2.96080  -0.00308   0.00000  -0.01183  -0.01196  -2.97276
   D41        2.62821   0.00532   0.00000   0.01951   0.01973   2.64794
   D42       -0.35501   0.00129   0.00000   0.00628   0.00640  -0.34861
   D43       -0.00814   0.00129   0.00000   0.00222   0.00219  -0.00595
   D44       -2.61385  -0.00866   0.00000  -0.02234  -0.02230  -2.63615
   D45        0.01922  -0.00054   0.00000  -0.00114  -0.00115   0.01806
   D46        2.97122   0.00704   0.00000   0.02114   0.02104   2.99226
   D47       -0.02533  -0.00005   0.00000   0.00008   0.00012  -0.02521
   D48        2.83849   0.00837   0.00000   0.02518   0.02524   2.86373
   D49       -2.97283  -0.00677   0.00000  -0.02098  -0.02104  -2.99387
   D50       -0.10901   0.00165   0.00000   0.00412   0.00407  -0.10494
         Item               Value     Threshold  Converged?
 Maximum Force            0.128894     0.000450     NO 
 RMS     Force            0.025818     0.000300     NO 
 Maximum Displacement     0.426610     0.001800     NO 
 RMS     Displacement     0.062277     0.001200     NO 
 Predicted change in Energy=-6.679034D-02
 GradGradGradGradGradGradGradGradGradGradGradGradGradGradGradGradGradGrad

                          Input orientation:                          
 ---------------------------------------------------------------------
 Center     Atomic      Atomic             Coordinates (Angstroms)
 Number     Number       Type             X           Y           Z
 ---------------------------------------------------------------------
      1          6           0       -4.210100   -1.336545   -0.220059
      2          6           0       -2.884737   -0.979139   -0.611656
      3          6           0       -1.972490   -2.055957   -0.618180
      4          6           0       -4.327318   -2.695811    0.086180
      5          1           0       -5.037989   -0.648676   -0.160368
      6         16           0       -2.827786   -3.530256   -0.115793
      7          1           0       -5.237698   -3.185247    0.393721
      8          6           0       -0.562253   -2.143014   -0.967967
      9         16           0        0.693116   -2.414008    0.261905
     10          6           0        1.953992   -2.385978   -0.917429
     11          6           0        1.443245   -2.195867   -2.221162
     12          6           0        0.021163   -2.075575   -2.256072
     13          1           0       -0.553231   -2.077425   -3.168706
     14         16           0        2.519036   -2.816871   -3.427666
     15          6           0        3.666365   -3.327285   -2.203076
     16          6           0        3.218964   -3.047085   -0.902976
     17          1           0        4.526983   -3.933094   -2.441722
     18          1           0        3.658435   -3.503417   -0.024573
     19          8           0       -2.346080    0.383000   -0.734655
     20          1           0       -2.910618    1.294248   -0.780745
 ---------------------------------------------------------------------
                    Distance matrix (angstroms):
                    1          2          3          4          5
     1  C    0.000000
     2  C    1.427471   0.000000
     3  C    2.383894   1.411302   0.000000
     4  C    1.398258   2.348399   2.539833   0.000000
     5  H    1.078020   2.224716   3.404014   2.180963   0.000000
     6  S    2.595000   2.599484   1.776930   1.727914   3.631871
     7  H    2.202358   3.378479   3.600114   1.078388   2.604053
     8  C    3.810058   2.622116   1.455575   3.948737   4.787220
     9  S    5.043286   3.952592   2.829877   5.031406   6.011678
    10  C    6.291555   5.048365   3.951674   6.368523   7.244250
    11  C    6.058313   4.775182   3.775761   6.234835   6.974745
    12  C    4.753430   3.514332   2.580257   4.977964   5.658890
    13  H    4.755640   3.630517   2.918893   5.021993   5.586096
    14  S    7.600090   6.364584   5.352196   7.696384   8.513808
    15  C    8.362661   7.138861   5.993735   8.338970   9.333455
    16  C    7.653973   6.451080   5.292886   7.618937   8.630243
    17  H    9.381602   8.185876   7.006575   9.290845  10.367288
    18  H    8.163785   7.037737   5.844213   8.027250   9.154003
    19  O    2.587705   1.469933   2.470152   3.752087   2.939478
    20  H    2.987322   2.279813   3.482870   4.321940   2.947122
                    6          7          8          9         10
     6  S    0.000000
     7  H    2.487230   0.000000
     8  C    2.789853   4.979983   0.000000
     9  S    3.712871   5.982201   1.778194   0.000000
    10  C    4.981706   7.353798   2.528453   1.726680   0.000000
    11  C    4.945187   7.242340   2.365442   2.603056   1.413054
    12  C    3.848818   5.992361   1.415675   2.627978   2.371528
    13  H    4.074873   5.988521   2.201734   3.665482   3.383728
    14  S    6.329765   8.654803   3.999818   4.136329   2.608876
    15  C    6.824364   9.276091   4.561710   3.968680   2.339053
    16  C    6.116886   8.556614   3.888338   2.852656   1.427384
    17  H    7.724302  10.195489   5.592554   4.931101   3.367093
    18  H    6.486918   8.911643   4.533751   3.172066   2.225082
    19  O    3.991065   4.729384   3.101165   4.248893   5.117740
    20  H    4.870816   5.182716   4.167089   5.274957   6.101407
                   11         12         13         14         15
    11  C    0.000000
    12  C    1.427588   0.000000
    13  H    2.213094   1.078347   0.000000
    14  S    1.731654   2.856838   3.170594   0.000000
    15  C    2.494533   3.854489   4.505506   1.753998   0.000000
    16  C    2.369675   3.605639   4.505910   2.630011   1.403188
    17  H    3.546271   4.877218   5.457159   2.499978   1.079175
    18  H    3.382566   4.499786   5.445838   3.653850   2.185626
    19  O    4.818636   3.736729   3.897769   6.415672   7.216091
    20  H    5.762970   4.704001   4.756869   7.306752   8.163228
                   16         17         18         19         20
    16  C    0.000000
    17  H    2.205371   0.000000
    18  H    1.083036   2.604152   0.000000
    19  O    6.539383   8.293476   7.187674   0.000000
    20  H    7.512249   9.241311   8.169568   1.072939   0.000000
 Stoichiometry    C10H6OS3
 Framework group  C1[X(C10H6OS3)]
 Deg. of freedom    54
 Full point group                 C1      NOp   1
 Largest Abelian subgroup         C1      NOp   1
 Largest concise Abelian subgroup C1      NOp   1
                         Standard orientation:                         
 ---------------------------------------------------------------------
 Center     Atomic      Atomic             Coordinates (Angstroms)
 Number     Number       Type             X           Y           Z
 ---------------------------------------------------------------------
      1          6           0       -4.054609    0.536924   -0.083450
      2          6           0       -2.741968    0.963214    0.281138
      3          6           0       -1.720578    0.052310   -0.063519
      4          6           0       -4.054687   -0.714156   -0.707889
      5          1           0       -4.954615    1.102441    0.096290
      6         16           0       -2.457549   -1.356501   -0.856995
      7          1           0       -4.931568   -1.222989   -1.075433
      8          6           0       -0.274322    0.096298    0.094936
      9         16           0        0.574276   -0.957513    1.248772
     10          6           0        2.114537   -0.305956    0.819244
     11          6           0        2.001162    0.675913   -0.190609
     12          6           0        0.655544    0.893692   -0.614746
     13          1           0        0.392271    1.490026   -1.473760
     14         16           0        3.472507    0.845099   -1.087907
     15          6           0        4.256824   -0.386706   -0.116304
     16          6           0        3.399352   -0.926802    0.854250
     17          1           0        5.229675   -0.780629   -0.367312
     18          1           0        3.614531   -1.854178    1.370619
     19          8           0       -2.401342    2.074675    1.180767
     20          1           0       -3.054809    2.862192    1.503252
 ---------------------------------------------------------------------
 Rotational constants (GHZ):           1.2138442           0.2610999           0.2512602
 Standard basis: Aug-CC-pVDZ (5D, 7F)
 There are   416 symmetry adapted cartesian basis functions of A   symmetry.
 There are   388 symmetry adapted basis functions of A   symmetry.
   388 basis functions,   782 primitive gaussians,   416 cartesian basis functions
    61 alpha electrons       61 beta electrons
       nuclear repulsion energy      1113.8700981584 Hartrees.
 NAtoms=   20 NActive=   20 NUniq=   20 SFac= 1.00D+00 NAtFMM=   60 NAOKFM=F Big=F
 Integral buffers will be    131072 words long.
 Raffenetti 1 integral format.
 Two-electron integral symmetry is turned on.
 One-electron integrals computed using PRISM.
 NBasis=   388 RedAO= T EigKep=  5.70D-06  NBF=   388
 NBsUse=   388 1.00D-06 EigRej= -1.00D+00 NBFU=   388
 Initial guess from the checkpoint file:  "/tmp/pbs.4762170[285].pbs/Gau-3046615.chk"
 B after Tr=    -0.000000    0.000000    0.000000
         Rot=    0.999436   -0.033463   -0.002063    0.002061 Ang=  -3.85 deg.
 ExpMin= 2.97D-02 ExpMax= 1.11D+05 ExpMxC= 1.07D+03 IAcc=3 IRadAn=         5 AccDes= 0.00D+00
 Harris functional with IExCor=  205 and IRadAn=       5 diagonalized for initial guess.
 HarFok:  IExCor=  205 AccDes= 0.00D+00 IRadAn=         5 IDoV= 1 UseB2=F ITyADJ=14
 ICtDFT=  3500011 ScaDFX=  1.000000  1.000000  1.000000  1.000000
 FoFCou: FMM=F IPFlag=           0 FMFlag=      100000 FMFlg1=           0
         NFxFlg=           0 DoJE=T BraDBF=F KetDBF=T FulRan=T
         wScrn=  0.000000 ICntrl=       500 IOpCl=  0 I1Cent=   200000004 NGrid=           0
         NMat0=    1 NMatS0=      1 NMatT0=    0 NMatD0=    1 NMtDS0=    0 NMtDT0=    0
 Petite list used in FoFCou.
 Requested convergence on RMS density matrix=1.00D-08 within 128 cycles.
 Requested convergence on MAX density matrix=1.00D-06.
 Requested convergence on             energy=1.00D-06.
 No special actions if energy rises.
 SCF Done:  E(RHF) =  -1649.57444055     A.U. after   15 cycles
            NFock= 15  Conv=0.76D-08     -V/T= 2.0008
 Calling FoFJK, ICntrl=      2127 FMM=F ISym2X=0 I1Cent= 0 IOpClX= 0 NMat=1 NMatS=1 NMatT=0.
 ***** Axes restored to original set *****
 -------------------------------------------------------------------
 Center     Atomic                   Forces (Hartrees/Bohr)
 Number     Number              X              Y              Z
 -------------------------------------------------------------------
      1        6          -0.001488302   -0.037290447    0.006713514
      2        6           0.051367447    0.033253005    0.009229053
      3        6          -0.049381468    0.022058209    0.002719317
      4        6           0.011148937    0.043470454   -0.013777466
      5        1           0.001108620    0.001282639    0.000430462
      6       16          -0.003005106    0.017257691   -0.004749343
      7        1           0.003142789   -0.002331462    0.000115921
      8        6           0.042000855    0.006717492   -0.047393413
      9       16          -0.010878372    0.012007158   -0.003838620
     10        6          -0.013253147   -0.010016139   -0.036291894
     11        6          -0.000244574   -0.015036710    0.037288967
     12        6          -0.021632946   -0.002314406    0.049032300
     13        1          -0.002652009    0.006188016    0.001981630
     14       16           0.013981142    0.003557666    0.004988941
     15        6          -0.022759700    0.007378130    0.046202626
     16        6           0.014533758   -0.018554107   -0.046073839
     17        1           0.001194560    0.006486704   -0.003723204
     18        1           0.004217909    0.009103466   -0.001997377
     19        8          -0.049673647    0.017399237   -0.005774078
     20        1           0.032273253   -0.100616598    0.004916502
 -------------------------------------------------------------------
 Cartesian Forces:  Max     0.100616598 RMS     0.026138721

 GradGradGradGradGradGradGradGradGradGradGradGradGradGradGradGradGradGrad
 Berny optimization.
 Using GEDIIS/GDIIS optimizer.
 FormGI is forming the generalized inverse of G from B-inverse, IUseBI=4.
 Internal  Forces:  Max     0.102645766 RMS     0.018146175
 Search for a local minimum.
 Step number   2 out of a maximum of  116
 All quantities printed in internal units (Hartrees-Bohrs-Radians)
 Mixed Optimization -- RFO/linear search
 Update second derivatives using D2CorX and points    1    2
 DE= -6.94D-02 DEPred=-6.68D-02 R= 1.04D+00
 TightC=F SS=  1.41D+00  RLast= 3.12D-01 DXNew= 5.0454D-01 9.3489D-01
 Trust test= 1.04D+00 RLast= 3.12D-01 DXMaxT set to 5.05D-01
 ITU=  1  0
 Use linear search instead of GDIIS.
     Eigenvalues ---    0.00230   0.00995   0.01056   0.01220   0.01273
     Eigenvalues ---    0.01299   0.01348   0.01410   0.01459   0.01491
     Eigenvalues ---    0.01499   0.01592   0.01592   0.01745   0.02130
     Eigenvalues ---    0.02525   0.15037   0.15278   0.15750   0.15826
     Eigenvalues ---    0.15999   0.16027   0.18251   0.20815   0.22477
     Eigenvalues ---    0.22536   0.23377   0.24124   0.24329   0.24983
     Eigenvalues ---    0.25010   0.25586   0.26311   0.26654   0.28468
     Eigenvalues ---    0.28605   0.30918   0.31283   0.31582   0.34914
     Eigenvalues ---    0.35205   0.35886   0.36004   0.36098   0.36155
     Eigenvalues ---    0.36185   0.36507   0.37549   0.38171   0.39211
     Eigenvalues ---    0.39544   0.40442   0.450371000.000001000.00000
     Eigenvalues --- 1000.000001000.000001000.000001000.000001000.00000
     Eigenvalues --- 1000.000001000.000001000.000001000.000001000.00000
     Eigenvalues --- 1000.000001000.000001000.000001000.000001000.00000
     Eigenvalues --- 1000.000001000.000001000.000001000.000001000.00000
     Eigenvalues --- 1000.000001000.000001000.000001000.000001000.00000
     Eigenvalues --- 1000.000001000.000001000.000001000.000001000.00000
     Eigenvalues --- 1000.000001000.000001000.000001000.000001000.00000
     Eigenvalues --- 1000.000001000.000001000.000001000.000001000.00000
     Eigenvalues --- 1000.000001000.000001000.000001000.000001000.00000
     Eigenvalues --- 1000.000001000.000001000.000001000.000001000.00000
     Eigenvalues --- 1000.00000
 RFO step:  Lambda=-1.49103962D-02 EMin= 2.30034606D-03
 Quartic linear search produced a step of  1.58363.
 Iteration  1 RMS(Cart)=  0.10455161 RMS(Int)=  0.02290834
 Iteration  2 RMS(Cart)=  0.02633655 RMS(Int)=  0.00177213
 Iteration  3 RMS(Cart)=  0.00141512 RMS(Int)=  0.00103084
 Iteration  4 RMS(Cart)=  0.00000304 RMS(Int)=  0.00103083
 Iteration  5 RMS(Cart)=  0.00000000 RMS(Int)=  0.00103083
 Iteration  1 RMS(Cart)=  0.00003518 RMS(Int)=  0.00001462
 Iteration  2 RMS(Cart)=  0.00001924 RMS(Int)=  0.00001633
 Iteration  3 RMS(Cart)=  0.00001052 RMS(Int)=  0.00001845
 Iteration  4 RMS(Cart)=  0.00000575 RMS(Int)=  0.00001986
 Iteration  5 RMS(Cart)=  0.00000314 RMS(Int)=  0.00002068
 Iteration  6 RMS(Cart)=  0.00000172 RMS(Int)=  0.00002115
 Iteration  7 RMS(Cart)=  0.00000094 RMS(Int)=  0.00002140
 Variable       Old X    -DE/DX   Delta X   Delta X   Delta X     New X
                                 (Linear)    (Quad)   (Total)
    R1        2.69753  -0.00641  -0.03427   0.04956   0.01560   2.71313
    R2        2.64232  -0.04542  -0.11337   0.02724  -0.08625   2.55607
    R3        2.03716  -0.00001  -0.00121   0.00334   0.00213   2.03929
    R4        2.66697  -0.05639  -0.14584   0.02970  -0.11575   2.55122
    R5        2.77777  -0.08342  -0.20482  -0.07798  -0.28280   2.49497
    R6        3.35791  -0.01762  -0.05997   0.03291  -0.02710   3.33081
    R7        2.75064   0.00399   0.00175   0.02130   0.02305   2.77368
    R8        3.26528  -0.01055  -0.03393   0.02272  -0.01163   3.25365
    R9        2.03786  -0.00156  -0.00455   0.00216  -0.00239   2.03547
   R10        3.36030  -0.01215  -0.03638   0.01336  -0.02394   3.33636
   R11        2.67524  -0.05864  -0.14448   0.01077  -0.13425   2.54099
   R12        3.26295   0.00003  -0.00864   0.02734   0.01890   3.28185
   R13        2.67029  -0.03510  -0.08380   0.00140  -0.08067   2.58962
   R14        2.69737   0.00451   0.00228   0.01643   0.01930   2.71667
   R15        2.69775  -0.00080  -0.01478   0.03035   0.01608   2.71383
   R16        3.27235   0.00121  -0.00326   0.02111   0.01787   3.29022
   R17        2.03778  -0.00028  -0.00098   0.00089  -0.00009   2.03769
   R18        3.31458  -0.01027  -0.03211   0.01840  -0.01456   3.30001
   R19        2.65164  -0.05059  -0.12283   0.01693  -0.10626   2.54539
   R20        2.03935  -0.00187  -0.00515   0.00175  -0.00340   2.03595
   R21        2.04664  -0.00374  -0.01086   0.00474  -0.00612   2.04052
   R22        2.02756  -0.10265  -0.24412  -0.12684  -0.37096   1.65660
    A1        1.96201  -0.00220  -0.01297   0.00952  -0.00299   1.95902
    A2        2.17544  -0.00042   0.00338  -0.01449  -0.01137   2.16407
    A3        2.14574   0.00262   0.00960   0.00498   0.01433   2.16007
    A4        1.99367   0.00765   0.03452  -0.04201  -0.00825   1.98542
    A5        2.20832  -0.00710  -0.01469  -0.00878  -0.02599   2.18233
    A6        2.05985   0.00042  -0.01515   0.06708   0.04999   2.10984
    A7        1.89717   0.00030  -0.01144   0.03874   0.02798   1.92516
    A8        2.30905  -0.00880  -0.01562  -0.03341  -0.04938   2.25967
    A9        2.07677   0.00850   0.02700  -0.00511   0.02153   2.09830
   A10        1.95099   0.00000  -0.00380   0.01441   0.01043   1.96142
   A11        2.18271   0.00363   0.01094   0.00959   0.02061   2.20332
   A12        2.14931  -0.00365  -0.00718  -0.02400  -0.03109   2.11823
   A13        1.62091  -0.00575  -0.00632  -0.02068  -0.02738   1.59353
   A14        2.12574  -0.00279  -0.00529  -0.00919  -0.01451   2.11123
   A15        2.23328  -0.00406  -0.01108  -0.00263  -0.01375   2.21953
   A16        1.92371   0.00691   0.01674   0.01182   0.02855   1.95226
   A17        1.61147  -0.00598  -0.01197  -0.01295  -0.02420   1.58726
   A18        1.94809  -0.00684  -0.02175   0.01584  -0.00711   1.94098
   A19        2.25584   0.00692   0.02716   0.01548   0.03921   2.29505
   A20        1.97358   0.00374   0.01346  -0.00845   0.00473   1.97831
   A21        1.97573   0.00416   0.01549  -0.01110   0.00379   1.97951
   A22        1.94984  -0.00767  -0.02601   0.02285  -0.00441   1.94544
   A23        2.25497   0.00699   0.02693   0.01599   0.03926   2.29424
   A24        1.96520   0.00180   0.00172  -0.00316  -0.00054   1.96466
   A25        2.15372  -0.00376  -0.01270   0.01091  -0.00287   2.15085
   A26        2.15455   0.00255   0.01416  -0.00413   0.00893   2.16348
   A27        1.59509  -0.00153   0.00303  -0.02238  -0.01851   1.57658
   A28        1.96081   0.00201   0.00034   0.01885   0.01855   1.97937
   A29        2.13012  -0.00428  -0.00797  -0.01910  -0.02856   2.10156
   A30        2.17884   0.00334   0.01341   0.00762   0.01973   2.19857
   A31        1.94515   0.00346   0.00918  -0.01021  -0.00015   1.94500
   A32        2.16877  -0.00035   0.00552  -0.00441  -0.00086   2.16791
   A33        2.13880  -0.00129  -0.00469   0.02237   0.01590   2.15470
   A34        2.21155  -0.05175  -0.17466  -0.05378  -0.22844   1.98311
    D1        0.00563  -0.00009  -0.00190   0.01849   0.01644   0.02208
    D2       -2.90934  -0.00546  -0.02438  -0.07487  -0.09700  -3.00634
    D3       -3.13754   0.00092   0.00313   0.02373   0.02621  -3.11134
    D4        0.23067  -0.00445  -0.01935  -0.06963  -0.08724   0.14343
    D5       -0.00734  -0.00028  -0.00099  -0.00528  -0.00579  -0.01313
    D6       -3.12933   0.00023   0.00137  -0.00437  -0.00302  -3.13236
    D7        3.13581  -0.00127  -0.00591  -0.01039  -0.01550   3.12030
    D8        0.01381  -0.00076  -0.00355  -0.00949  -0.01273   0.00108
    D9       -0.00136   0.00047   0.00399  -0.02255  -0.01886  -0.02023
   D10        3.11851   0.00047   0.00141  -0.00971  -0.00898   3.10954
   D11        2.93425   0.00418   0.02372   0.05323   0.07916   3.01341
   D12       -0.22906   0.00419   0.02115   0.06607   0.08905  -0.14001
   D13       -0.27536   0.00207   0.00760   0.05316   0.06111  -0.21425
   D14        3.10047  -0.00425  -0.02162  -0.03043  -0.05240   3.04808
   D15       -0.00239  -0.00051  -0.00387   0.01646   0.01321   0.01082
   D16       -3.12562  -0.00028  -0.00121   0.00611   0.00541  -3.12021
   D17        1.91954  -0.00055   0.00000   0.00000   0.00000   1.91954
   D18       -1.25755   0.00215   0.01364   0.00049   0.01433  -1.24323
   D19       -1.24557  -0.00066  -0.00318   0.01428   0.01068  -1.23489
   D20        1.86052   0.00205   0.01045   0.01477   0.02501   1.88553
   D21        0.00561   0.00049   0.00294  -0.00662  -0.00395   0.00166
   D22        3.12805   0.00009   0.00085  -0.00707  -0.00592   3.12212
   D23        3.13991   0.00063   0.00366  -0.00786  -0.00420   3.13572
   D24        0.02815  -0.00147  -0.00725  -0.00808  -0.01585   0.01230
   D25        3.13966  -0.00134  -0.00765   0.01430   0.00674  -3.13679
   D26       -0.14690   0.00330   0.01629   0.04058   0.05675  -0.09015
   D27       -0.03408   0.00098   0.00433   0.01442   0.01933  -0.01475
   D28        2.96254   0.00561   0.02827   0.04071   0.06934   3.03188
   D29       -0.01506   0.00191   0.00929  -0.00039   0.00869  -0.00638
   D30       -2.63752  -0.00714  -0.03379  -0.05020  -0.08510  -2.72262
   D31       -0.00186  -0.00138  -0.00772   0.00901   0.00128  -0.00058
   D32       -2.71813  -0.00999  -0.04616  -0.04879  -0.09223  -2.81035
   D33        2.70891   0.00776   0.03474   0.05654   0.08876   2.79767
   D34       -0.00735  -0.00085  -0.00371  -0.00126  -0.00475  -0.01210
   D35        2.63735   0.00711   0.03744   0.03886   0.07769   2.71504
   D36       -0.24642  -0.00032  -0.00122   0.00340   0.00335  -0.24307
   D37        0.02092   0.00043   0.00261  -0.01737  -0.01512   0.00579
   D38       -2.86286  -0.00700  -0.03606  -0.05283  -0.08947  -2.95232
   D39        0.02379   0.00031   0.00217  -0.01553  -0.01365   0.01014
   D40       -2.97276  -0.00372  -0.01894  -0.04328  -0.06294  -3.03570
   D41        2.64794   0.00615   0.03125   0.05485   0.08738   2.73532
   D42       -0.34861   0.00212   0.01014   0.02710   0.03809  -0.31051
   D43       -0.00595   0.00105   0.00347   0.01446   0.01751   0.01156
   D44       -2.63615  -0.00742  -0.03531  -0.04715  -0.08365  -2.71980
   D45        0.01806  -0.00072  -0.00183  -0.02442  -0.02655  -0.00848
   D46        2.99226   0.00630   0.03332   0.02229   0.05408   3.04634
   D47       -0.02521   0.00040   0.00020   0.02776   0.02845   0.00325
   D48        2.86373   0.00783   0.03997   0.05802   0.09927   2.96300
   D49       -2.99387  -0.00597  -0.03332  -0.01750  -0.05200  -3.04587
   D50       -0.10494   0.00145   0.00645   0.01275   0.01882  -0.08611
         Item               Value     Threshold  Converged?
 Maximum Force            0.102646     0.000450     NO 
 RMS     Force            0.018232     0.000300     NO 
 Maximum Displacement     0.841759     0.001800     NO 
 RMS     Displacement     0.118833     0.001200     NO 
 Predicted change in Energy=-7.801649D-02
 GradGradGradGradGradGradGradGradGradGradGradGradGradGradGradGradGradGrad

                          Input orientation:                          
 ---------------------------------------------------------------------
 Center     Atomic      Atomic             Coordinates (Angstroms)
 Number     Number       Type             X           Y           Z
 ---------------------------------------------------------------------
      1          6           0       -4.150537   -1.270925   -0.226684
      2          6           0       -2.793211   -0.984595   -0.596801
      3          6           0       -1.989598   -2.069414   -0.598643
      4          6           0       -4.335138   -2.577172    0.071987
      5          1           0       -4.936550   -0.532089   -0.197269
      6         16           0       -2.892098   -3.499948   -0.102877
      7          1           0       -5.262629   -3.037697    0.368415
      8          6           0       -0.569395   -2.177884   -0.953057
      9         16           0        0.653679   -2.489549    0.281459
     10          6           0        1.909978   -2.470367   -0.917459
     11          6           0        1.397786   -2.247131   -2.168751
     12          6           0       -0.029324   -2.087213   -2.181121
     13          1           0       -0.617680   -1.998295   -3.080375
     14         16           0        2.512996   -2.741267   -3.411165
     15          6           0        3.652387   -3.263119   -2.195026
     16          6           0        3.218798   -3.064810   -0.935273
     17          1           0        4.560863   -3.767568   -2.479528
     18          1           0        3.714441   -3.467890   -0.064738
     19          8           0       -2.300532    0.224125   -0.795317
     20          1           0       -2.913235    0.848808   -0.848778
 ---------------------------------------------------------------------
                    Distance matrix (angstroms):
                    1          2          3          4          5
     1  C    0.000000
     2  C    1.435724   0.000000
     3  C    2.333580   1.350048   0.000000
     4  C    1.352614   2.315409   2.491810   0.000000
     5  H    1.079148   2.226722   3.347984   2.148619   0.000000
     6  S    2.562721   2.565295   1.762589   1.721759   3.605119
     7  H    2.170800   3.353341   3.547606   1.077122   2.589285
     8  C    3.764939   2.548767   1.467771   3.923132   4.727779
     9  S    4.982343   3.862289   2.817446   4.993981   5.942347
    10  C    6.216565   4.942705   3.933078   6.323914   7.151961
    11  C    5.958900   4.650751   3.737806   6.164110   6.852148
    12  C    4.633632   3.371187   2.519371   4.884321   5.516788
    13  H    4.599315   3.453790   2.836585   4.908358   5.395804
    14  S    7.530305   6.257985   5.351170   7.684804   8.408647
    15  C    8.290285   7.020807   5.983758   8.331292   9.231435
    16  C    7.617560   6.370723   5.313335   7.636381   8.571408
    17  H    9.337935   8.085296   7.023532   9.330922  10.289698
    18  H    8.167665   6.985655   5.897190   8.099864   9.136528
    19  O    2.445616   1.320283   2.322861   3.569188   2.806798
    20  H    2.532032   1.854526   3.071106   3.821905   2.534787
                    6          7          8          9         10
     6  S    0.000000
     7  H    2.460734   0.000000
     8  C    2.804569   4.950961   0.000000
     9  S    3.706906   5.942283   1.765524   0.000000
    10  C    4.978305   7.309010   2.496819   1.736681   0.000000
    11  C    4.923464   7.171007   2.313550   2.572157   1.370367
    12  C    3.809251   5.898393   1.344634   2.587019   2.346176
    13  H    4.036513   5.877930   2.135431   3.627618   3.360076
    14  S    6.382430   8.650633   3.982566   4.141968   2.579842
    15  C    6.874843   9.278985   4.532512   3.965305   2.301438
    16  C    6.182660   8.581081   3.890677   2.896757   1.437599
    17  H    7.827306  10.253999   5.583615   4.952017   3.339158
    18  H    6.606727   8.997804   4.561193   3.231914   2.231204
    19  O    3.833816   4.557167   2.965023   4.153412   5.000360
    20  H    4.412312   4.701716   3.829533   5.014472   5.855342
                   11         12         13         14         15
    11  C    0.000000
    12  C    1.436096   0.000000
    13  H    2.226001   1.078298   0.000000
    14  S    1.741108   2.898998   3.234588   0.000000
    15  C    2.473084   3.864964   4.540605   1.746292   0.000000
[...]
 Number     Number       Type             X           Y           Z
 ---------------------------------------------------------------------
      1          6           0       -3.946120    0.731918    0.263630
      2          6           0       -2.543163    0.964892    0.478070
      3          6           0       -1.743978    0.034650   -0.094343
      4          6           0       -4.171740   -0.382763   -0.460983
      5          1           0       -4.726029    1.375336    0.643350
      6         16           0       -2.709982   -1.172228   -0.913542
      7          1           0       -5.125151   -0.783152   -0.761205
      8          6           0       -0.275973   -0.039867   -0.051781
      9         16           0        0.528549   -1.306920    0.867976
     10          6           0        2.084117   -0.672762    0.430587
     11          6           0        1.959240    0.437131   -0.352853
     12          6           0        0.602984    0.802829   -0.636627
     13          1           0        0.300052    1.643197   -1.238949
     14         16           0        3.515623    1.072870   -0.791689
     15          6           0        4.306472   -0.195614    0.107214
     16          6           0        3.443480   -1.046511    0.700188
     17          1           0        5.382145   -0.231837    0.141215
     18          1           0        3.746671   -1.891147    1.297069
     19          8           0       -2.057536    2.010974    1.179087
     20          1           0       -2.756348    2.496853    1.583300
 ---------------------------------------------------------------------
 Rotational constants (GHZ):           1.3155991           0.2652026           0.2467184

 **********************************************************************

            Population analysis using the SCF Density.

 **********************************************************************

 Orbital symmetries:
       Occupied  (A) (A) (A) (A) (A) (A) (A) (A) (A) (A) (A) (A)
                 (A) (A) (A) (A) (A) (A) (A) (A) (A) (A) (A) (A)
                 (A) (A) (A) (A) (A) (A) (A) (A) (A) (A) (A) (A)
                 (A) (A) (A) (A) (A) (A) (A) (A) (A) (A) (A) (A)
                 (A) (A) (A) (A) (A) (A) (A) (A) (A) (A) (A) (A)
                 (A)
       Virtual   (A) (A) (A) (A) (A) (A) (A) (A) (A) (A) (A) (A)
                 (A) (A) (A) (A) (A) (A) (A) (A) (A) (A) (A) (A)
                 (A) (A) (A) (A) (A) (A) (A) (A) (A) (A) (A) (A)
                 (A) (A) (A) (A) (A) (A) (A) (A) (A) (A) (A) (A)
                 (A) (A) (A) (A) (A) (A) (A) (A) (A) (A) (A) (A)
                 (A) (A) (A) (A) (A) (A) (A) (A) (A) (A) (A) (A)
                 (A) (A) (A) (A) (A) (A) (A) (A) (A) (A) (A) (A)
                 (A) (A) (A) (A) (A) (A) (A) (A) (A) (A) (A) (A)
                 (A) (A) (A) (A) (A) (A) (A) (A) (A) (A) (A) (A)
                 (A) (A) (A) (A) (A) (A) (A) (A) (A) (A) (A) (A)
                 (A) (A) (A) (A) (A) (A) (A) (A) (A) (A) (A) (A)
                 (A) (A) (A) (A) (A) (A) (A) (A) (A) (A) (A) (A)
                 (A) (A) (A) (A) (A) (A) (A) (A) (A) (A) (A) (A)
                 (A) (A) (A) (A) (A) (A) (A) (A) (A) (A) (A) (A)
                 (A) (A) (A) (A) (A) (A) (A) (A) (A) (A) (A) (A)
                 (A) (A) (A) (A) (A) (A) (A) (A) (A) (A) (A) (A)
                 (A) (A) (A) (A) (A) (A) (A) (A) (A) (A) (A) (A)
                 (A) (A) (A) (A) (A) (A) (A) (A) (A) (A) (A) (A)
                 (A) (A) (A) (A) (A) (A) (A) (A) (A) (A) (A) (A)
                 (A) (A) (A) (A) (A) (A) (A) (A) (A) (A) (A) (A)
                 (A) (A) (A) (A) (A) (A) (A) (A) (A) (A) (A) (A)
                 (A) (A) (A) (A) (A) (A) (A) (A) (A) (A) (A) (A)
                 (A) (A) (A) (A) (A) (A) (A) (A) (A) (A) (A) (A)
                 (A) (A) (A) (A) (A) (A) (A) (A) (A) (A) (A) (A)
                 (A) (A) (A) (A) (A) (A) (A) (A) (A) (A) (A) (A)
                 (A) (A) (A) (A) (A) (A) (A) (A) (A) (A) (A) (A)
                 (A) (A) (A) (A) (A) (A) (A) (A) (A) (A) (A) (A)
                 (A) (A) (A)
 The electronic state is 1-A.
 Alpha  occ. eigenvalues --  -91.98959 -91.98650 -91.98456 -20.60961 -11.31796
 Alpha  occ. eigenvalues --  -11.28387 -11.28371 -11.27420 -11.26920 -11.26859
 Alpha  occ. eigenvalues --  -11.26704 -11.25484 -11.25434 -11.25275  -8.99152
 Alpha  occ. eigenvalues --   -8.98834  -8.98621  -6.67319  -6.67226  -6.67028
 Alpha  occ. eigenvalues --   -6.67001  -6.66923  -6.66785  -6.66716  -6.66703
 Alpha  occ. eigenvalues --   -6.66495  -1.42975  -1.21273  -1.18406  -1.12582
 Alpha  occ. eigenvalues --   -1.02870  -1.01993  -0.98621  -0.95618  -0.94241
 Alpha  occ. eigenvalues --   -0.82572  -0.81125  -0.77020  -0.74971  -0.72254
 Alpha  occ. eigenvalues --   -0.69674  -0.66792  -0.66480  -0.62127  -0.61044
 Alpha  occ. eigenvalues --   -0.58311  -0.56329  -0.56027  -0.53829  -0.53149
 Alpha  occ. eigenvalues --   -0.52700  -0.50653  -0.49296  -0.48613  -0.46014
 Alpha  occ. eigenvalues --   -0.45820  -0.38405  -0.35001  -0.32982  -0.31712
 Alpha  occ. eigenvalues --   -0.29514
 Alpha virt. eigenvalues --    0.02760   0.03716   0.03962   0.04966   0.05093
 Alpha virt. eigenvalues --    0.06233   0.08075   0.08328   0.08637   0.09041
 Alpha virt. eigenvalues --    0.09948   0.10254   0.10444   0.10939   0.11355
 Alpha virt. eigenvalues --    0.12357   0.12512   0.12682   0.12955   0.13600
 Alpha virt. eigenvalues --    0.13749   0.14109   0.14424   0.14677   0.15009
 Alpha virt. eigenvalues --    0.15456   0.16025   0.16201   0.16464   0.16724
 Alpha virt. eigenvalues --    0.17582   0.18109   0.18287   0.18616   0.19502
 Alpha virt. eigenvalues --    0.19680   0.20205   0.20585   0.20930   0.21071
 Alpha virt. eigenvalues --    0.21877   0.22239   0.23073   0.23242   0.23477
 Alpha virt. eigenvalues --    0.23879   0.24403   0.24746   0.24918   0.25806
 Alpha virt. eigenvalues --    0.26622   0.27127   0.27834   0.27867   0.28000
 Alpha virt. eigenvalues --    0.28788   0.30029   0.30746   0.31264   0.31680
 Alpha virt. eigenvalues --    0.32083   0.32364   0.32689   0.33002   0.33172
 Alpha virt. eigenvalues --    0.33899   0.34811   0.35132   0.35376   0.35949
 Alpha virt. eigenvalues --    0.36504   0.37217   0.37383   0.38785   0.39222
 Alpha virt. eigenvalues --    0.40151   0.40620   0.40817   0.41416   0.42221
 Alpha virt. eigenvalues --    0.43421   0.43626   0.44672   0.45293   0.45581
 Alpha virt. eigenvalues --    0.45933   0.46456   0.46865   0.48258   0.48719
 Alpha virt. eigenvalues --    0.49216   0.49596   0.50049   0.51276   0.51911
 Alpha virt. eigenvalues --    0.53086   0.54175   0.54465   0.54848   0.55136
 Alpha virt. eigenvalues --    0.56147   0.57504   0.58619   0.59063   0.59639
 Alpha virt. eigenvalues --    0.60320   0.60935   0.61413   0.61946   0.62355
 Alpha virt. eigenvalues --    0.62674   0.63455   0.64610   0.64883   0.65994
 Alpha virt. eigenvalues --    0.66191   0.67161   0.67743   0.68463   0.68613
 Alpha virt. eigenvalues --    0.68995   0.69571   0.70255   0.70485   0.70860
 Alpha virt. eigenvalues --    0.72163   0.72269   0.72927   0.73507   0.74203
 Alpha virt. eigenvalues --    0.74268   0.75104   0.75581   0.76316   0.76549
 Alpha virt. eigenvalues --    0.77121   0.77885   0.78531   0.78912   0.79901
 Alpha virt. eigenvalues --    0.81275   0.81840   0.82994   0.83323   0.84088
 Alpha virt. eigenvalues --    0.85341   0.85489   0.86136   0.87469   0.88063
 Alpha virt. eigenvalues --    0.88447   0.89244   0.89703   0.90981   0.91580
 Alpha virt. eigenvalues --    0.92236   0.92537   0.93639   0.94228   0.95466
 Alpha virt. eigenvalues --    0.95854   0.96382   0.96832   0.97335   0.98287
 Alpha virt. eigenvalues --    0.99439   0.99718   1.00735   1.02914   1.03678
 Alpha virt. eigenvalues --    1.04480   1.04878   1.06019   1.06853   1.07937
 Alpha virt. eigenvalues --    1.09588   1.09599   1.10386   1.11347   1.12602
 Alpha virt. eigenvalues --    1.13502   1.14486   1.17594   1.18144   1.19052
 Alpha virt. eigenvalues --    1.20120   1.21317   1.22320   1.22609   1.23651
 Alpha virt. eigenvalues --    1.25075   1.25280   1.25337   1.25771   1.26775
 Alpha virt. eigenvalues --    1.28065   1.29143   1.30026   1.30859   1.32308
 Alpha virt. eigenvalues --    1.33142   1.34528   1.34765   1.36820   1.37053
 Alpha virt. eigenvalues --    1.38002   1.38770   1.41021   1.41894   1.42128
 Alpha virt. eigenvalues --    1.43146   1.44961   1.45667   1.47107   1.49207
 Alpha virt. eigenvalues --    1.50792   1.54421   1.54925   1.55901   1.56916
 Alpha virt. eigenvalues --    1.57068   1.58391   1.59406   1.60483   1.61570
 Alpha virt. eigenvalues --    1.62171   1.63391   1.65061   1.65832   1.66671
 Alpha virt. eigenvalues --    1.67037   1.69517   1.70377   1.71371   1.72413
 Alpha virt. eigenvalues --    1.73743   1.74486   1.75733   1.76311   1.77139
 Alpha virt. eigenvalues --    1.79765   1.80331   1.81537   1.82076   1.84549
 Alpha virt. eigenvalues --    1.86149   1.86244   1.87912   1.88594   1.90203
 Alpha virt. eigenvalues --    1.91945   1.92155   1.94172   1.95354   1.97240
 Alpha virt. eigenvalues --    1.98090   1.99407   2.02098   2.03438   2.04865
 Alpha virt. eigenvalues --    2.06152   2.07812   2.08652   2.08900   2.09999
 Alpha virt. eigenvalues --    2.10851   2.12548   2.13739   2.14995   2.16084
 Alpha virt. eigenvalues --    2.17514   2.18791   2.19960   2.20370   2.21822
 Alpha virt. eigenvalues --    2.23334   2.25708   2.28079   2.28858   2.30700
 Alpha virt. eigenvalues --    2.32587   2.33364   2.33654   2.35498   2.37946
 Alpha virt. eigenvalues --    2.40448   2.41477   2.42911   2.45298   2.45922
 Alpha virt. eigenvalues --    2.47670   2.49887   2.50518   2.51291   2.52985
 Alpha virt. eigenvalues --    2.56852   2.58399   2.60803   2.62868   2.66661
 Alpha virt. eigenvalues --    2.74430   2.81879   2.84431   2.86515   2.87832
 Alpha virt. eigenvalues --    2.92284   2.92980   2.98712   3.00128   3.03794
 Alpha virt. eigenvalues --    3.10753   3.17638   3.24972   3.26053   3.35436
 Alpha virt. eigenvalues --    3.43594   3.53355   3.58252   3.63437   3.76131
 Alpha virt. eigenvalues --    3.77984   3.80536   3.87385   3.87981   4.22934
 Alpha virt. eigenvalues --    4.24412   4.48558
          Condensed to atoms (all electrons):
               1          2          3          4          5          6
     1  C    7.582398  -1.848731  -0.086490   0.035063  -0.171346  -0.533284
     2  C   -1.848731   9.820674  -1.787944   0.500534   0.180145  -0.248995
     3  C   -0.086490  -1.787944  11.678850  -1.388766  -0.068819  -0.139950
     4  C    0.035063   0.500534  -1.388766   6.518823   0.002260   0.425517
     5  H   -0.171346   0.180145  -0.068819   0.002260   1.656721  -0.015217
     6  S   -0.533284  -0.248995  -0.139950   0.425517  -0.015217  16.352237
     7  H    0.010743   0.045935   0.059218   0.193385  -0.068579  -0.161634
     8  C    0.515574  -0.626349  -2.104762   0.208170   0.026358  -0.300204
     9  S   -0.024870   0.045963  -0.683486   0.038654  -0.003321   0.230916
    10  C    0.017704   0.056526  -0.439333   0.022978   0.001464   0.019067
    11  C   -0.044448  -0.113062   0.589847  -0.005571  -0.002947   0.061121
    12  C   -0.070760   0.377612  -0.257192  -0.109006  -0.003564  -0.129371
    13  H    0.005779  -0.019662   0.090412   0.005555   0.000664   0.014886
    14  S    0.000233   0.008754  -0.078343  -0.000912  -0.000014   0.003123
    15  C   -0.001173  -0.011717   0.035558   0.000797  -0.000058   0.005007
    16  C    0.002069   0.027102  -0.375252  -0.002359  -0.000026  -0.000067
    17  H   -0.000074   0.000145  -0.000211   0.000040  -0.000004   0.000180
    18  H   -0.000088   0.000043  -0.011378  -0.000053  -0.000012   0.001257
    19  O    0.102253  -0.703767   0.332483  -0.094959  -0.070547  -0.000528
    20  H   -0.143566   0.005758  -0.035779  -0.015841  -0.010929   0.017259
               7          8          9         10         11         12
     1  C    0.010743   0.515574  -0.024870   0.017704  -0.044448  -0.070760
     2  C    0.045935  -0.626349   0.045963   0.056526  -0.113062   0.377612
     3  C    0.059218  -2.104762  -0.683486  -0.439333   0.589847  -0.257192
     4  C    0.193385   0.208170   0.038654   0.022978  -0.005571  -0.109006
     5  H   -0.068579   0.026358  -0.003321   0.001464  -0.002947  -0.003564
     6  S   -0.161634  -0.300204   0.230916   0.019067   0.061121  -0.129371
     7  H    1.261240  -0.011426   0.002695   0.000321   0.001071   0.002805
     8  C   -0.011426  12.085341   0.311295   0.181476  -0.749383  -3.389235
     9  S    0.002695   0.311295  16.461372   0.306553  -0.468456  -0.483896
    10  C    0.000321   0.181476   0.306553  10.760048  -0.549872  -1.623475
    11  C    0.001071  -0.749383  -0.468456  -0.549872  11.863534  -2.805396
    12  C    0.002805  -3.389235  -0.483896  -1.623475  -2.805396  15.234136
    13  H    0.000353   0.222306   0.035154  -0.063062   0.620488  -1.069387
    14  S   -0.000075  -0.257948   0.094922  -0.106424  -0.300269   0.049728
    15  C    0.000069   0.075186  -0.094072  -0.105964  -0.948184  -0.172777
    16  C   -0.000069  -0.653770  -0.188756  -2.297632  -1.032644   0.432788
    17  H    0.000004   0.002128   0.007754   0.057370  -0.040172   0.034698
    18  H    0.000005   0.116209   0.011096   0.579334   0.052715  -0.073108
    19  O   -0.001223  -0.016828   0.006879  -0.003607   0.038719  -0.038306
    20  H    0.001265   0.009998  -0.001142   0.001249  -0.000806   0.004933
              13         14         15         16         17         18
     1  C    0.005779   0.000233  -0.001173   0.002069  -0.000074  -0.000088
     2  C   -0.019662   0.008754  -0.011717   0.027102   0.000145   0.000043
     3  C    0.090412  -0.078343   0.035558  -0.375252  -0.000211  -0.011378
     4  C    0.005555  -0.000912   0.000797  -0.002359   0.000040  -0.000053
     5  H    0.000664  -0.000014  -0.000058  -0.000026  -0.000004  -0.000012
     6  S    0.014886   0.003123   0.005007  -0.000067   0.000180   0.001257
     7  H    0.000353  -0.000075   0.000069  -0.000069   0.000004   0.000005
     8  C    0.222306  -0.257948   0.075186  -0.653770   0.002128   0.116209
     9  S    0.035154   0.094922  -0.094072  -0.188756   0.007754   0.011096
    10  C   -0.063062  -0.106424  -0.105964  -2.297632   0.057370   0.579334
    11  C    0.620488  -0.300269  -0.948184  -1.032644  -0.040172   0.052715
    12  C   -1.069387   0.049728  -0.172777   0.432788   0.034698  -0.073108
    13  H    1.634945  -0.042961   0.015568  -0.037526   0.001721  -0.001324
    14  S   -0.042961  15.989169   0.191349  -0.018111  -0.160168  -0.004940
    15  C    0.015568   0.191349   6.899387   0.129721   0.186315  -0.116715
    16  C   -0.037526  -0.018111   0.129721   9.951941   0.064171  -0.595692
    17  H    0.001721  -0.160168   0.186315   0.064171   1.291853  -0.068754
    18  H   -0.001324  -0.004940  -0.116715  -0.595692  -0.068754   1.436366
    19  O    0.010551  -0.003266  -0.000058  -0.001642  -0.000054   0.000140
    20  H   -0.000275   0.000425  -0.000030   0.000603   0.000010   0.000026
              19         20
     1  C    0.102253  -0.143566
     2  C   -0.703767   0.005758
     3  C    0.332483  -0.035779
     4  C   -0.094959  -0.015841
     5  H   -0.070547  -0.010929
     6  S   -0.000528   0.017259
     7  H   -0.001223   0.001265
     8  C   -0.016828   0.009998
     9  S    0.006879  -0.001142
    10  C   -0.003607   0.001249
    11  C    0.038719  -0.000806
    12  C   -0.038306   0.004933
    13  H    0.010551  -0.000275
    14  S   -0.003266   0.000425
    15  C   -0.000058  -0.000030
    16  C   -0.001642   0.000603
    17  H   -0.000054   0.000010
    18  H    0.000140   0.000026
    19  O    8.992586   0.377929
    20  H    0.377929   0.628372
 Mulliken charges:
               1
     1  C    0.653014
     2  C    0.291037
     3  C    0.671339
     4  C   -0.334309
     5  H   -0.452228
     6  S    0.398680
     7  H   -0.336104
     8  C    0.355864
     9  S    0.394746
    10  C   -0.814722
    11  C   -0.166286
    12  C    0.088774
    13  H   -0.424185
    14  S    0.635731
    15  C   -0.088208
    16  C    0.595151
    17  H   -0.376952
    18  H   -0.325127
    19  O   -0.926756
    20  H    0.160542
 Sum of Mulliken charges =  -0.00000
 Mulliken charges with hydrogens summed into heavy atoms:
               1
     1  C    0.200786
     2  C    0.291037
     3  C    0.671339
     4  C   -0.670413
     6  S    0.398680
     8  C    0.355864
     9  S    0.394746
    10  C   -0.814722
    11  C   -0.166286
    12  C   -0.335411
    14  S    0.635731
    15  C   -0.465160
    16  C    0.270024
    19  O   -0.766214
 Electronic spatial extent (au):  <R**2>=           4299.3746
 Charge=             -0.0000 electrons
 Dipole moment (field-independent basis, Debye):
    X=             -2.1399    Y=              1.0411    Z=              0.7424  Tot=              2.4928
 Quadrupole moment (field-independent basis, Debye-Ang):
   XX=            -77.4052   YY=           -100.1418   ZZ=           -105.3198
   XY=             -9.3381   XZ=             -0.7126   YZ=              0.2449
 Traceless Quadrupole moment (field-independent basis, Debye-Ang):
   XX=             16.8837   YY=             -5.8529   ZZ=            -11.0309
   XY=             -9.3381   XZ=             -0.7126   YZ=              0.2449
 Octapole moment (field-independent basis, Debye-Ang**2):
  XXX=            -46.2378  YYY=             20.5156  ZZZ=             10.0522  XYY=            -19.5133
  XXY=              6.4257  XXZ=             22.1545  XZZ=            -10.8932  YZZ=              7.9888
  YYZ=             10.6248  XYZ=            -26.3716
 Hexadecapole moment (field-independent basis, Debye-Ang**3):
 XXXX=          -3989.4114 YYYY=           -748.1992 ZZZZ=           -441.2681 XXXY=           -117.1435
 XXXZ=             15.7347 YYYX=            -81.2349 YYYZ=             25.2070 ZZZX=            -25.2297
 ZZZY=             18.6521 XXYY=           -866.5722 XXZZ=           -893.0052 YYZZ=           -173.8591
 XXYZ=             50.9603 YYXZ=            -24.0404 ZZXY=            -31.9627
 N-N= 1.126875955087D+03 E-N=-6.161209191583D+03  KE= 1.649563343456D+03
 Unable to Open any file for archive entry.
 1\1\GINC-CX3-6-4\FOpt\RHF\Aug-CC-pVDZ\C10H6O1S3\NS5018\25-Oct-2021\0\\
 # opt=modredundant hf/aug-cc-pvdz\\pBTTT_110.pdb\\0,1\C,-4.1077076517,
 -1.1677573559,-0.1883265212\C,-2.7444475981,-1.0325053659,-0.626250542
 4\C,-2.0548113982,-2.1970229539,-0.6242004833\C,-4.4108324467,-2.43845
 37049,0.1462305414\H,-4.8042103601,-0.3442709902,-0.1318880121\S,-3.07
 5319938,-3.5041986271,-0.0668293969\H,-5.3559380799,-2.8106278704,0.50
 35815124\C,-0.6463627087,-2.4096399365,-0.9895322932\S,0.5452594941,-2
 .813959906,0.241399496\C,1.8055132525,-2.8457017688,-0.9519196191\C,1.
 3162034925,-2.5504446014,-2.1907229495\C,-0.0950494073,-2.3028360406,-
 2.2181057863\H,-0.665156816,-2.0588768355,-3.0991508424\S,2.5765955896
 ,-2.5821160454,-3.3863301139\C,3.7490850461,-2.9997926003,-2.164308587
 9\C,3.2163116431,-3.1091186418,-0.9295623444\H,4.7798053148,-3.1403181
 962,-2.4425333372\H,3.7855029845,-3.35988328,-0.0493683011\O,-2.194843
 6956,0.1392385347,-1.0090002624\H,-2.7885967169,0.854286186,-0.8541821
 565\\Version=ES64L-G16RevC.01\State=1-A\HF=-1649.6416963\RMSD=6.435e-0
 9\RMSF=2.260e-04\Dipole=-0.7542146,0.6022028,0.174313\Quadrupole=11.60
 1127,-4.2693161,-7.3318108,-7.9961008,-1.7814541,-0.0019124\PG=C01 [X(
 C10H6O1S3)]\\@
 The archive entry for this job was punched.


 ON A TOMBSTONE, "HERE LIES LESTER MOORE,
 FOUR SLUGS FROM A 44, NO LES, NO MORE".
 Job cpu time:       0 days  3 hours 49 minutes 34.5 seconds.
 Elapsed time:       0 days  0 hours 28 minutes 55.6 seconds.
 File lengths (MBytes):  RWF=     95 Int=      0 D2E=      0 Chk=     12 Scr=      1
 Normal termination of Gaussian 16 at Mon Oct 25 23:32:37 2021.
