 Entering Gaussian System, Link 0=g16
 Input=pBTTT_90.gjf
 Output=pBTTT_90.log
 Initial command:
 /apps/gaussian/g16-c01-avx/g16/l1.exe "/tmp/pbs.4762170[265].pbs/Gau-1693867.inp" -scrdir="/tmp/pbs.4762170[265].pbs/"
 Entering Link 1 = /apps/gaussian/g16-c01-avx/g16/l1.exe PID=   1693868.
  
 Copyright (c) 1988-2019, Gaussian, Inc.  All Rights Reserved.
  
 This is part of the Gaussian(R) 16 program.  It is based on
 the Gaussian(R) 09 system (copyright 2009, Gaussian, Inc.),
 the Gaussian(R) 03 system (copyright 2003, Gaussian, Inc.),
 the Gaussian(R) 98 system (copyright 1998, Gaussian, Inc.),
 the Gaussian(R) 94 system (copyright 1995, Gaussian, Inc.),
 the Gaussian 92(TM) system (copyright 1992, Gaussian, Inc.),
 the Gaussian 90(TM) system (copyright 1990, Gaussian, Inc.),
 the Gaussian 88(TM) system (copyright 1988, Gaussian, Inc.),
 the Gaussian 86(TM) system (copyright 1986, Carnegie Mellon
 University), and the Gaussian 82(TM) system (copyright 1983,
 Carnegie Mellon University). Gaussian is a federally registered
 trademark of Gaussian, Inc.
  
 This software contains proprietary and confidential information,
 including trade secrets, belonging to Gaussian, Inc.
  
 This software is provided under written license and may be
 used, copied, transmitted, or stored only in accord with that
 written license.
  
 The following legend is applicable only to US Government
 contracts under FAR:
  
                    RESTRICTED RIGHTS LEGEND
  
 Use, reproduction and disclosure by the US Government is
 subject to restrictions as set forth in subparagraphs (a)
 and (c) of the Commercial Computer Software - Restricted
 Rights clause in FAR 52.227-19.
  
 Gaussian, Inc.
 340 Quinnipiac St., Bldg. 40, Wallingford CT 06492
  
  
 ---------------------------------------------------------------
 Warning -- This program may not be used in any manner that
 competes with the business of Gaussian, Inc. or will provide
 assistance to any competitor of Gaussian, Inc.  The licensee
 of this program is prohibited from giving any competitor of
 Gaussian, Inc. access to this program.  By using this program,
 the user acknowledges that Gaussian, Inc. is engaged in the
 business of creating and licensing software in the field of
 computational chemistry and represents and warrants to the
 licensee that it is not a competitor of Gaussian, Inc. and that
 it will not use this program in any manner prohibited above.
 ---------------------------------------------------------------
  

 Cite this work as:
 Gaussian 16, Revision C.01,
 M. J. Frisch, G. W. Trucks, H. B. Schlegel, G. E. Scuseria, 
 M. A. Robb, J. R. Cheeseman, G. Scalmani, V. Barone, 
 G. A. Petersson, H. Nakatsuji, X. Li, M. Caricato, A. V. Marenich, 
 J. Bloino, B. G. Janesko, R. Gomperts, B. Mennucci, H. P. Hratchian, 
 J. V. Ortiz, A. F. Izmaylov, J. L. Sonnenberg, D. Williams-Young, 
 F. Ding, F. Lipparini, F. Egidi, J. Goings, B. Peng, A. Petrone, 
 T. Henderson, D. Ranasinghe, V. G. Zakrzewski, J. Gao, N. Rega, 
 G. Zheng, W. Liang, M. Hada, M. Ehara, K. Toyota, R. Fukuda, 
 J. Hasegawa, M. Ishida, T. Nakajima, Y. Honda, O. Kitao, H. Nakai, 
 T. Vreven, K. Throssell, J. A. Montgomery, Jr., J. E. Peralta, 
 F. Ogliaro, M. J. Bearpark, J. J. Heyd, E. N. Brothers, K. N. Kudin, 
 V. N. Staroverov, T. A. Keith, R. Kobayashi, J. Normand, 
 K. Raghavachari, A. P. Rendell, J. C. Burant, S. S. Iyengar, 
 J. Tomasi, M. Cossi, J. M. Millam, M. Klene, C. Adamo, R. Cammi, 
 J. W. Ochterski, R. L. Martin, K. Morokuma, O. Farkas, 
 J. B. Foresman, and D. J. Fox, Gaussian, Inc., Wallingford CT, 2019.
 
 ******************************************
 Gaussian 16:  ES64L-G16RevC.01  3-Jul-2019
                25-Oct-2021 
 ******************************************
 %mem=100GB
 %nprocshared=8
 Will use up to    8 processors via shared memory.
 ---------------------------------
 # opt=modredundant hf/aug-cc-pvdz
 ---------------------------------
 1/18=120,19=15,38=1/1,3;
 2/9=110,12=2,17=6,18=5,40=1/2;
 3/5=16,7=10,11=9,25=1,30=1,71=1/1,2,3;
 4//1;
 5/5=2,38=5/2;
 6/7=2,8=2,9=2,10=2,28=1/1;
 7//1,2,3,16;
 1/18=20,19=15/3(2);
 2/9=110/2;
 99//99;
 2/9=110/2;
 3/5=16,7=10,11=9,25=1,30=1,71=1/1,2,3;
 4/5=5,16=3,69=1/1;
 5/5=2,38=5/2;
 7//1,2,3,16;
 1/18=20,19=15/3(-5);
 2/9=110/2;
 6/7=2,8=2,9=2,10=2,19=2,28=1/1;
 99/9=1/99;
 ------------
 pBTTT_90.pdb
 ------------
 Symbolic Z-matrix:
 Charge =  0 Multiplicity = 1
 C                    -4.25     -1.36     -0.21 
 C                    -2.93     -0.95     -0.61 
 C                    -1.97     -2.05     -0.62 
 C                    -4.33     -2.76      0.1 
 H                    -5.1      -0.7      -0.14 
 S                    -2.8      -3.56     -0.11 
 H                    -5.23     -3.27      0.41 
 C                    -0.56     -2.13     -0.97 
 S                     0.733    -1.868     0.24 
 C                     1.989    -2.133    -0.922 
 C                     1.47     -2.448    -2.228 
 C                     0.038    -2.467    -2.264 
 H                    -0.524    -2.84     -3.106 
 S                     2.577    -3.383    -3.178 
 C                     3.768    -3.37     -1.875 
 C                     3.293    -2.667    -0.706 
 H                     4.658    -3.982    -1.899 
 H                     3.75     -2.781     0.274 
 O                    -2.4       0.49     -0.72 
 H                    -2.92      1.52     -0.76 
 
 Add virtual bond connecting atoms H20        and O19        Dist= 2.18D+00.
 The following ModRedundant input section has been read:
 D       2       3       8       9 F                                           
 

 GradGradGradGradGradGradGradGradGradGradGradGradGradGradGradGradGradGrad
 Berny optimization.
 Initialization pass.
                           ----------------------------
                           !    Initial Parameters    !
                           ! (Angstroms and Degrees)  !
 --------------------------                            --------------------------
 ! Name  Definition              Value          Derivative Info.                !
 --------------------------------------------------------------------------------
 ! R1    R(1,2)                  1.4389         estimate D2E/DX2                !
 ! R2    R(1,4)                  1.4361         estimate D2E/DX2                !
 ! R3    R(1,5)                  1.0784         estimate D2E/DX2                !
 ! R4    R(2,3)                  1.46           estimate D2E/DX2                !
 ! R5    R(2,19)                 1.5384         estimate D2E/DX2                !
 ! R6    R(3,6)                  1.797          estimate D2E/DX2                !
 ! R7    R(3,8)                  1.455          estimate D2E/DX2                !
 ! R8    R(4,6)                  1.7393         estimate D2E/DX2                !
 ! R9    R(4,7)                  1.0799         estimate D2E/DX2                !
 ! R10   R(8,9)                  1.7901         estimate D2E/DX2                !
 ! R11   R(8,12)                 1.4648         estimate D2E/DX2                !
 ! R12   R(9,10)                 1.7315         estimate D2E/DX2                !
 ! R13   R(10,11)                1.4402         estimate D2E/DX2                !
 ! R14   R(10,16)                1.4256         estimate D2E/DX2                !
 ! R15   R(11,12)                1.4326         estimate D2E/DX2                !
 ! R16   R(11,14)                1.7327         estimate D2E/DX2                !
 ! R17   R(12,13)                1.0789         estimate D2E/DX2                !
 ! R18   R(14,15)                1.7653         estimate D2E/DX2                !
 ! R19   R(15,16)                1.4444         estimate D2E/DX2                !
 ! R20   R(15,17)                1.0804         estimate D2E/DX2                !
 ! R21   R(16,18)                1.0873         estimate D2E/DX2                !
 ! R22   R(19,20)                1.1545         estimate D2E/DX2                !
 ! A1    A(2,1,4)              112.8843         estimate D2E/DX2                !
 ! A2    A(2,1,5)              124.5209         estimate D2E/DX2                !
 ! A3    A(4,1,5)              122.5942         estimate D2E/DX2                !
 ! A4    A(1,2,3)              112.9799         estimate D2E/DX2                !
 ! A5    A(1,2,19)             127.059          estimate D2E/DX2                !
 ! A6    A(3,2,19)             118.5686         estimate D2E/DX2                !
 ! A7    A(2,3,6)              109.1138         estimate D2E/DX2                !
 ! A8    A(2,3,8)              132.8639         estimate D2E/DX2                !
 ! A9    A(6,3,8)              118.0132         estimate D2E/DX2                !
 ! A10   A(1,4,6)              111.9209         estimate D2E/DX2                !
 ! A11   A(1,4,7)              124.6643         estimate D2E/DX2                !
 ! A12   A(6,4,7)              123.4062         estimate D2E/DX2                !
 ! A13   A(3,6,4)               93.0997         estimate D2E/DX2                !
 ! A14   A(3,8,9)              121.9591         estimate D2E/DX2                !
 ! A15   A(3,8,12)             128.3731         estimate D2E/DX2                !
 ! A16   A(9,8,12)             109.628          estimate D2E/DX2                !
 ! A17   A(8,9,10)              92.7472         estimate D2E/DX2                !
 ! A18   A(9,10,11)            112.3729         estimate D2E/DX2                !
 ! A19   A(9,10,16)            128.2564         estimate D2E/DX2                !
 ! A20   A(11,10,16)           112.6501         estimate D2E/DX2                !
 ! A21   A(10,11,12)           112.7            estimate D2E/DX2                !
 ! A22   A(10,11,14)           112.6425         estimate D2E/DX2                !
 ! A23   A(12,11,14)           128.1485         estimate D2E/DX2                !
 ! A24   A(8,12,11)            112.5093         estimate D2E/DX2                !
 ! A25   A(8,12,13)            123.8025         estimate D2E/DX2                !
 ! A26   A(11,12,13)           123.0184         estimate D2E/DX2                !
 ! A27   A(11,14,15)            91.2819         estimate D2E/DX2                !
 ! A28   A(14,15,16)           112.2765         estimate D2E/DX2                !
 ! A29   A(14,15,17)           122.3576         estimate D2E/DX2                !
 ! A30   A(16,15,17)           124.3728         estimate D2E/DX2                !
 ! A31   A(10,16,15)           111.1303         estimate D2E/DX2                !
 ! A32   A(10,16,18)           124.0767         estimate D2E/DX2                !
 ! A33   A(15,16,18)           122.6969         estimate D2E/DX2                !
 ! A34   A(2,19,20)            133.0318         estimate D2E/DX2                !
 ! D1    D(4,1,2,3)              0.3915         estimate D2E/DX2                !
 ! D2    D(4,1,2,19)          -165.8104         estimate D2E/DX2                !
 ! D3    D(5,1,2,3)           -179.8811         estimate D2E/DX2                !
 ! D4    D(5,1,2,19)            13.9169         estimate D2E/DX2                !
 ! D5    D(2,1,4,6)             -0.3845         estimate D2E/DX2                !
 ! D6    D(2,1,4,7)           -179.3471         estimate D2E/DX2                !
 ! D7    D(5,1,4,6)            179.8822         estimate D2E/DX2                !
 ! D8    D(5,1,4,7)              0.9196         estimate D2E/DX2                !
 ! D9    D(1,2,3,6)             -0.2224         estimate D2E/DX2                !
 ! D10   D(1,2,3,8)            178.6265         estimate D2E/DX2                !
 ! D11   D(19,2,3,6)           167.2616         estimate D2E/DX2                !
 ! D12   D(19,2,3,8)           -13.8895         estimate D2E/DX2                !
 ! D13   D(1,2,19,20)          -16.0519         estimate D2E/DX2                !
 ! D14   D(3,2,19,20)          178.4264         estimate D2E/DX2                !
 ! D15   D(2,3,6,4)              0.0033         estimate D2E/DX2                !
 ! D16   D(8,3,6,4)           -179.041          estimate D2E/DX2                !
 ! D17   D(2,3,8,9)             89.9956         Frozen                          !
 ! D18   D(2,3,8,12)           -92.5459         estimate D2E/DX2                !
 ! D19   D(6,3,8,9)            -91.2364         estimate D2E/DX2                !
 ! D20   D(6,3,8,12)            86.222          estimate D2E/DX2                !
 ! D21   D(1,4,6,3)              0.2153         estimate D2E/DX2                !
 ! D22   D(7,4,6,3)            179.1932         estimate D2E/DX2                !
 ! D23   D(3,8,9,10)           179.7575         estimate D2E/DX2                !
 ! D24   D(12,8,9,10)            1.8728         estimate D2E/DX2                !
 ! D25   D(3,8,12,11)         -179.8612         estimate D2E/DX2                !
 ! D26   D(3,8,12,13)           -9.0092         estimate D2E/DX2                !
 ! D27   D(9,8,12,11)           -2.1504         estimate D2E/DX2                !
 ! D28   D(9,8,12,13)          168.7016         estimate D2E/DX2                !
 ! D29   D(8,9,10,11)           -1.1555         estimate D2E/DX2                !
 ! D30   D(8,9,10,16)         -149.9053         estimate D2E/DX2                !
 ! D31   D(9,10,11,12)           0.0963         estimate D2E/DX2                !
 ! D32   D(9,10,11,14)        -154.0584         estimate D2E/DX2                !
 ! D33   D(16,10,11,12)        153.9023         estimate D2E/DX2                !
 ! D34   D(16,10,11,14)         -0.2524         estimate D2E/DX2                !
 ! D35   D(9,10,16,15)         149.7873         estimate D2E/DX2                !
 ! D36   D(9,10,16,18)         -14.0814         estimate D2E/DX2                !
 ! D37   D(11,10,16,15)          1.1073         estimate D2E/DX2                !
 ! D38   D(11,10,16,18)       -162.7615         estimate D2E/DX2                !
 ! D39   D(10,11,12,8)           1.3588         estimate D2E/DX2                !
 ! D40   D(10,11,12,13)       -169.5761         estimate D2E/DX2                !
 ! D41   D(14,11,12,8)         150.5872         estimate D2E/DX2                !
 ! D42   D(14,11,12,13)        -20.3477         estimate D2E/DX2                !
 ! D43   D(10,11,14,15)         -0.5142         estimate D2E/DX2                !
 ! D44   D(12,11,14,15)       -149.7568         estimate D2E/DX2                !
 ! D45   D(11,14,15,16)          1.1495         estimate D2E/DX2                !
 ! D46   D(11,14,15,17)        170.2039         estimate D2E/DX2                !
 ! D47   D(14,15,16,10)         -1.4886         estimate D2E/DX2                !
 ! D48   D(14,15,16,18)        162.6409         estimate D2E/DX2                !
 ! D49   D(17,15,16,10)       -170.2831         estimate D2E/DX2                !
 ! D50   D(17,15,16,18)         -6.1536         estimate D2E/DX2                !
 --------------------------------------------------------------------------------
 Trust Radius=3.00D-01 FncErr=1.00D-07 GrdErr=1.00D-07 EigMax=2.50D+02 EigMin=1.00D-04
 Number of steps in this run=    116 maximum allowed number of steps=    120.
 GradGradGradGradGradGradGradGradGradGradGradGradGradGradGradGradGradGrad

                          Input orientation:                          
 ---------------------------------------------------------------------
 Center     Atomic      Atomic             Coordinates (Angstroms)
 Number     Number       Type             X           Y           Z
 ---------------------------------------------------------------------
      1          6           0       -4.250000   -1.360000   -0.210000
      2          6           0       -2.930000   -0.950000   -0.610000
      3          6           0       -1.970000   -2.050000   -0.620000
      4          6           0       -4.330000   -2.760000    0.100000
      5          1           0       -5.100000   -0.700000   -0.140000
      6         16           0       -2.800000   -3.560000   -0.110000
      7          1           0       -5.230000   -3.270000    0.410000
      8          6           0       -0.560000   -2.130000   -0.970000
      9         16           0        0.733000   -1.868000    0.240000
     10          6           0        1.989000   -2.133000   -0.922000
     11          6           0        1.470000   -2.448000   -2.228000
     12          6           0        0.038000   -2.467000   -2.264000
     13          1           0       -0.524000   -2.840000   -3.106000
     14         16           0        2.577000   -3.383000   -3.178000
     15          6           0        3.768000   -3.370000   -1.875000
     16          6           0        3.293000   -2.667000   -0.706000
     17          1           0        4.658000   -3.982000   -1.899000
     18          1           0        3.750000   -2.781000    0.274000
     19          8           0       -2.400000    0.490000   -0.720000
     20          1           0       -2.920000    1.520000   -0.760000
 ---------------------------------------------------------------------
                    Distance matrix (angstroms):
                    1          2          3          4          5
     1  C    0.000000
     2  C    1.438923   0.000000
     3  C    2.417147   1.460034   0.000000
     4  C    1.436141   2.395871   2.567509   0.000000
     5  H    1.078425   2.234346   3.442354   2.212261   0.000000
     6  S    2.636759   2.660639   1.796970   1.739253   3.670218
     7  H    2.234480   3.422397   3.630000   1.079907   2.631406
     8  C    3.845335   2.671872   1.454991   3.969219   4.831708
     9  S    5.029001   3.870761   2.842346   5.142882   5.960915
    10  C    6.326894   5.068865   3.971369   6.431747   7.274540
    11  C    6.162343   4.921578   3.818071   6.257550   7.111972
    12  C    4.881732   3.721025   2.628439   4.975316   5.833756
    13  H    4.945735   3.948538   2.982484   4.976994   5.858031
    14  S    7.714239   6.545316   5.384743   7.670728   8.681259
    15  C    8.432120   7.233245   6.020139   8.357651   9.422343
    16  C    7.671448   6.456240   5.299741   7.666056   8.638975
    17  H    9.438224   8.272381   7.021314   9.288349  10.444337
    18  H    8.139625   6.982580   5.835409   8.081901   9.100794
    19  O    2.665539   1.538376   2.578081   3.867790   3.007075
    20  H    3.219596   2.474571   3.696891   4.587603   3.172570
                    6          7          8          9         10
     6  S    0.000000
     7  H    2.501879   0.000000
     8  C    2.793224   5.001290   0.000000
     9  S    3.932868   6.127958   1.790138   0.000000
    10  C    5.062627   7.428388   2.549454   1.731475   0.000000
    11  C    4.894422   7.247395   2.409271   2.640188   1.440216
    12  C    3.726742   5.962123   1.464790   2.666804   2.391427
    13  H    3.830743   5.890127   2.251198   3.704126   3.403656
    14  S    6.193229   8.592774   4.035597   4.168727   2.645332
    15  C    6.803672   9.284139   4.592190   3.992550   2.367112
    16  C    6.186866   8.616878   3.899189   2.843751   1.425562
    17  H    7.681170  10.178947   5.614309   4.944688   3.390707
    18  H    6.607329   8.994332   4.532928   3.152303   2.225183
    19  O    4.115167   4.839773   3.211308   4.037010   5.117055
    20  H    5.122821   5.445099   4.351574   5.081629   6.121187
                   11         12         13         14         15
    11  C    0.000000
    12  C    1.432578   0.000000
    13  H    2.213726   1.078859   0.000000
    14  S    1.732678   2.849732   3.149005   0.000000
    15  C    2.501099   3.857412   4.496390   1.765350   0.000000
    16  C    2.384905   3.614193   4.512141   2.671347   1.444436
    17  H    3.553131   4.875741   5.441887   2.514996   1.080380
    18  H    3.401366   4.507658   5.449308   3.695218   2.228328
    19  O    5.087515   4.131783   4.505693   6.768487   7.367350
    20  H    6.096897   5.187287   5.500376   7.752622   8.359705
                   16         17         18         19         20
    16  C    0.000000
    17  H    2.239576   0.000000
    18  H    1.087311   2.643633   0.000000
    19  O    6.509769   8.438257   7.036333   0.000000
    20  H    7.492346   9.433738   8.003540   1.154513   0.000000
 Stoichiometry    C10H6OS3
 Framework group  C1[X(C10H6OS3)]
 Deg. of freedom    54
 Full point group                 C1      NOp   1
 Largest Abelian subgroup         C1      NOp   1
 Largest concise Abelian subgroup C1      NOp   1
                         Standard orientation:                         
 ---------------------------------------------------------------------
 Center     Atomic      Atomic             Coordinates (Angstroms)
 Number     Number       Type             X           Y           Z
 ---------------------------------------------------------------------
      1          6           0       -4.114535    0.128270   -0.391134
      2          6           0       -2.828529    0.734906   -0.611775
      3          6           0       -1.724656   -0.060540   -0.082221
      4          6           0       -4.029228   -1.122357    0.309689
      5          1           0       -5.053541    0.554398   -0.706862
      6         16           0       -2.384162   -1.547751    0.680902
      7          1           0       -4.875810   -1.742092    0.565477
      8          6           0       -0.281238    0.122546   -0.087158
      9         16           0        0.568017    0.992772    1.226640
     10          6           0        2.118553    0.758809    0.492401
     11          6           0        2.037134    0.004988   -0.732078
     12          6           0        0.695033   -0.374101   -1.059704
     13          1           0        0.457101   -1.074973   -1.844627
     14         16           0        3.506439   -0.838562   -1.095036
     15          6           0        4.277522   -0.202744    0.360170
     16          6           0        3.387494    0.634801    1.130082
     17          1           0        5.233487   -0.562456    0.712247
     18          1           0        3.573879    0.889311    2.170625
     19          8           0       -2.549275    2.184389   -1.044921
     20          1           0       -3.210912    3.009873   -1.507213
 ---------------------------------------------------------------------
 Rotational constants (GHZ):           1.1609163           0.2571933           0.2471286
 Standard basis: Aug-CC-pVDZ (5D, 7F)
 There are   416 symmetry adapted cartesian basis functions of A   symmetry.
 There are   388 symmetry adapted basis functions of A   symmetry.
   388 basis functions,   782 primitive gaussians,   416 cartesian basis functions
    61 alpha electrons       61 beta electrons
       nuclear repulsion energy      1100.3949728914 Hartrees.
 NAtoms=   20 NActive=   20 NUniq=   20 SFac= 1.00D+00 NAtFMM=   60 NAOKFM=F Big=F
 Integral buffers will be    131072 words long.
 Raffenetti 1 integral format.
 Two-electron integral symmetry is turned on.
 One-electron integrals computed using PRISM.
 NBasis=   388 RedAO= T EigKep=  7.12D-06  NBF=   388
 NBsUse=   388 1.00D-06 EigRej= -1.00D+00 NBFU=   388
 ExpMin= 2.97D-02 ExpMax= 1.11D+05 ExpMxC= 1.07D+03 IAcc=3 IRadAn=         5 AccDes= 0.00D+00
 Harris functional with IExCor=  205 and IRadAn=       5 diagonalized for initial guess.
 HarFok:  IExCor=  205 AccDes= 0.00D+00 IRadAn=         5 IDoV= 1 UseB2=F ITyADJ=14
 ICtDFT=  3500011 ScaDFX=  1.000000  1.000000  1.000000  1.000000
 FoFCou: FMM=F IPFlag=           0 FMFlag=      100000 FMFlg1=           0
         NFxFlg=           0 DoJE=T BraDBF=F KetDBF=T FulRan=T
         wScrn=  0.000000 ICntrl=       500 IOpCl=  0 I1Cent=   200000004 NGrid=           0
         NMat0=    1 NMatS0=      1 NMatT0=    0 NMatD0=    1 NMtDS0=    0 NMtDT0=    0
 Petite list used in FoFCou.
 Requested convergence on RMS density matrix=1.00D-08 within 128 cycles.
 Requested convergence on MAX density matrix=1.00D-06.
 Requested convergence on             energy=1.00D-06.
 No special actions if energy rises.
 SCF Done:  E(RHF) =  -1649.50420968     A.U. after   18 cycles
            NFock= 18  Conv=0.41D-08     -V/T= 2.0014

 **********************************************************************

            Population analysis using the SCF Density.

 **********************************************************************

 Orbital symmetries:
       Occupied  (A) (A) (A) (A) (A) (A) (A) (A) (A) (A) (A) (A)
                 (A) (A) (A) (A) (A) (A) (A) (A) (A) (A) (A) (A)
                 (A) (A) (A) (A) (A) (A) (A) (A) (A) (A) (A) (A)
                 (A) (A) (A) (A) (A) (A) (A) (A) (A) (A) (A) (A)
                 (A) (A) (A) (A) (A) (A) (A) (A) (A) (A) (A) (A)
                 (A)
       Virtual   (A) (A) (A) (A) (A) (A) (A) (A) (A) (A) (A) (A)
                 (A) (A) (A) (A) (A) (A) (A) (A) (A) (A) (A) (A)
                 (A) (A) (A) (A) (A) (A) (A) (A) (A) (A) (A) (A)
                 (A) (A) (A) (A) (A) (A) (A) (A) (A) (A) (A) (A)
                 (A) (A) (A) (A) (A) (A) (A) (A) (A) (A) (A) (A)
                 (A) (A) (A) (A) (A) (A) (A) (A) (A) (A) (A) (A)
                 (A) (A) (A) (A) (A) (A) (A) (A) (A) (A) (A) (A)
                 (A) (A) (A) (A) (A) (A) (A) (A) (A) (A) (A) (A)
                 (A) (A) (A) (A) (A) (A) (A) (A) (A) (A) (A) (A)
                 (A) (A) (A) (A) (A) (A) (A) (A) (A) (A) (A) (A)
                 (A) (A) (A) (A) (A) (A) (A) (A) (A) (A) (A) (A)
                 (A) (A) (A) (A) (A) (A) (A) (A) (A) (A) (A) (A)
                 (A) (A) (A) (A) (A) (A) (A) (A) (A) (A) (A) (A)
                 (A) (A) (A) (A) (A) (A) (A) (A) (A) (A) (A) (A)
                 (A) (A) (A) (A) (A) (A) (A) (A) (A) (A) (A) (A)
                 (A) (A) (A) (A) (A) (A) (A) (A) (A) (A) (A) (A)
                 (A) (A) (A) (A) (A) (A) (A) (A) (A) (A) (A) (A)
                 (A) (A) (A) (A) (A) (A) (A) (A) (A) (A) (A) (A)
                 (A) (A) (A) (A) (A) (A) (A) (A) (A) (A) (A) (A)
                 (A) (A) (A) (A) (A) (A) (A) (A) (A) (A) (A) (A)
                 (A) (A) (A) (A) (A) (A) (A) (A) (A) (A) (A) (A)
                 (A) (A) (A) (A) (A) (A) (A) (A) (A) (A) (A) (A)
                 (A) (A) (A) (A) (A) (A) (A) (A) (A) (A) (A) (A)
                 (A) (A) (A) (A) (A) (A) (A) (A) (A) (A) (A) (A)
                 (A) (A) (A) (A) (A) (A) (A) (A) (A) (A) (A) (A)
                 (A) (A) (A) (A) (A) (A) (A) (A) (A) (A) (A) (A)
                 (A) (A) (A) (A) (A) (A) (A) (A) (A) (A) (A) (A)
                 (A) (A) (A)
 The electronic state is 1-A.
 Alpha  occ. eigenvalues --  -92.00606 -91.99807 -91.99285 -20.60204 -11.35202
 Alpha  occ. eigenvalues --  -11.30181 -11.30072 -11.29898 -11.29250 -11.28394
 Alpha  occ. eigenvalues --  -11.28138 -11.27450 -11.27165 -11.26998  -9.00532
 Alpha  occ. eigenvalues --   -8.99868  -8.99312  -6.68684  -6.68585  -6.68419
 Alpha  occ. eigenvalues --   -6.68033  -6.67945  -6.67755  -6.67474  -6.67377
 Alpha  occ. eigenvalues --   -6.67192  -1.30507  -1.19446  -1.15834  -1.10131
 Alpha  occ. eigenvalues --   -1.02908  -1.00929  -0.98260  -0.94045  -0.92604
 Alpha  occ. eigenvalues --   -0.82575  -0.77595  -0.76933  -0.71615  -0.70725
 Alpha  occ. eigenvalues --   -0.68216  -0.65574  -0.61874  -0.60385  -0.57183
 Alpha  occ. eigenvalues --   -0.56540  -0.54895  -0.54385  -0.53459  -0.52730
 Alpha  occ. eigenvalues --   -0.50382  -0.50144  -0.48635  -0.48533  -0.46208
 Alpha  occ. eigenvalues --   -0.44508  -0.38415  -0.34868  -0.31741  -0.31569
 Alpha  occ. eigenvalues --   -0.28217
 Alpha virt. eigenvalues --    0.02817   0.03676   0.03815   0.04895   0.05098
 Alpha virt. eigenvalues --    0.05765   0.06431   0.07541   0.07999   0.08491
 Alpha virt. eigenvalues --    0.09063   0.09688   0.10274   0.10694   0.11402
 Alpha virt. eigenvalues --    0.11694   0.12289   0.12459   0.12904   0.13307
 Alpha virt. eigenvalues --    0.13576   0.14059   0.14186   0.14507   0.14847
 Alpha virt. eigenvalues --    0.14946   0.15227   0.16239   0.16631   0.16651
 Alpha virt. eigenvalues --    0.16848   0.17161   0.17507   0.17973   0.18749
 Alpha virt. eigenvalues --    0.19145   0.19430   0.19726   0.20495   0.20945
 Alpha virt. eigenvalues --    0.21289   0.21954   0.22114   0.22301   0.23009
 Alpha virt. eigenvalues --    0.23473   0.24111   0.24441   0.25093   0.25570
 Alpha virt. eigenvalues --    0.25830   0.26281   0.26679   0.27623   0.28195
 Alpha virt. eigenvalues --    0.28820   0.29286   0.30105   0.30822   0.31035
 Alpha virt. eigenvalues --    0.31168   0.31778   0.32106   0.32367   0.32431
 Alpha virt. eigenvalues --    0.33119   0.33690   0.34026   0.35284   0.35567
 Alpha virt. eigenvalues --    0.36175   0.36480   0.36824   0.37944   0.38736
 Alpha virt. eigenvalues --    0.39056   0.39980   0.40682   0.40810   0.41447
 Alpha virt. eigenvalues --    0.41917   0.42572   0.43185   0.43935   0.44120
 Alpha virt. eigenvalues --    0.45079   0.45307   0.46190   0.47247   0.48011
 Alpha virt. eigenvalues --    0.48475   0.48914   0.49532   0.50926   0.51305
 Alpha virt. eigenvalues --    0.51382   0.52029   0.52476   0.53067   0.54393
 Alpha virt. eigenvalues --    0.54521   0.55061   0.55339   0.56610   0.57400
 Alpha virt. eigenvalues --    0.57768   0.59166   0.59803   0.60257   0.60623
 Alpha virt. eigenvalues --    0.61127   0.62211   0.62746   0.63494   0.63961
 Alpha virt. eigenvalues --    0.64402   0.65317   0.65848   0.66459   0.67020
 Alpha virt. eigenvalues --    0.67509   0.68243   0.68782   0.69047   0.69622
 Alpha virt. eigenvalues --    0.70413   0.70681   0.71842   0.71958   0.72348
 Alpha virt. eigenvalues --    0.72875   0.74158   0.74340   0.74852   0.75559
 Alpha virt. eigenvalues --    0.75756   0.76668   0.77195   0.77727   0.78067
 Alpha virt. eigenvalues --    0.78242   0.79928   0.80292   0.82033   0.83162
 Alpha virt. eigenvalues --    0.83200   0.83883   0.84231   0.85875   0.85956
 Alpha virt. eigenvalues --    0.87939   0.88170   0.89255   0.89982   0.90575
 Alpha virt. eigenvalues --    0.90811   0.91185   0.92280   0.93080   0.93951
 Alpha virt. eigenvalues --    0.94679   0.94794   0.95636   0.96286   0.97684
 Alpha virt. eigenvalues --    0.98342   0.98999   0.99399   1.00558   1.01653
 Alpha virt. eigenvalues --    1.01937   1.02570   1.03558   1.04228   1.05533
 Alpha virt. eigenvalues --    1.05930   1.07650   1.08959   1.10515   1.11163
 Alpha virt. eigenvalues --    1.11858   1.12780   1.15369   1.16685   1.17923
 Alpha virt. eigenvalues --    1.18203   1.19442   1.20394   1.21308   1.21743
 Alpha virt. eigenvalues --    1.22961   1.23764   1.24228   1.24598   1.25921
 Alpha virt. eigenvalues --    1.26653   1.27484   1.28361   1.29091   1.29627
 Alpha virt. eigenvalues --    1.30612   1.31588   1.32096   1.33125   1.33928
 Alpha virt. eigenvalues --    1.35959   1.37474   1.38793   1.38966   1.40123
 Alpha virt. eigenvalues --    1.41428   1.42570   1.44042   1.45136   1.46540
 Alpha virt. eigenvalues --    1.47129   1.48932   1.49622   1.51827   1.52986
 Alpha virt. eigenvalues --    1.54428   1.56934   1.57729   1.58116   1.59301
 Alpha virt. eigenvalues --    1.59737   1.60966   1.61691   1.62968   1.63234
 Alpha virt. eigenvalues --    1.64779   1.65788   1.66527   1.68815   1.69264
 Alpha virt. eigenvalues --    1.70666   1.71434   1.73596   1.74164   1.75250
 Alpha virt. eigenvalues --    1.75794   1.77362   1.79110   1.79984   1.80811
 Alpha virt. eigenvalues --    1.81596   1.82495   1.82932   1.86605   1.87237
 Alpha virt. eigenvalues --    1.89334   1.89568   1.90563   1.92150   1.93791
 Alpha virt. eigenvalues --    1.95380   1.96457   1.97838   1.98327   1.98959
 Alpha virt. eigenvalues --    2.01077   2.02847   2.05218   2.05756   2.06894
 Alpha virt. eigenvalues --    2.08036   2.09419   2.09889   2.10067   2.12013
 Alpha virt. eigenvalues --    2.14348   2.15403   2.15690   2.16273   2.17476
 Alpha virt. eigenvalues --    2.18437   2.19697   2.20493   2.22185   2.23745
 Alpha virt. eigenvalues --    2.25537   2.26165   2.27951   2.28479   2.30718
 Alpha virt. eigenvalues --    2.31115   2.33827   2.35992   2.37051   2.38914
 Alpha virt. eigenvalues --    2.40345   2.41243   2.43463   2.45363   2.49263
 Alpha virt. eigenvalues --    2.50078   2.51423   2.53601   2.55135   2.60883
 Alpha virt. eigenvalues --    2.68679   2.70977   2.74185   2.76374   2.79158
 Alpha virt. eigenvalues --    2.81194   2.84209   2.87012   2.89033   2.94620
 Alpha virt. eigenvalues --    2.96666   3.01766   3.10116   3.14072   3.21315
 Alpha virt. eigenvalues --    3.24856   3.30449   3.39170   3.45512   3.74512
 Alpha virt. eigenvalues --    3.78560   3.79642   3.80395   3.87255   4.05947
 Alpha virt. eigenvalues --    4.16891   4.23709
          Condensed to atoms (all electrons):
               1          2          3          4          5          6
     1  C    5.937806  -0.260588  -0.599099   0.478230   0.015737  -0.384615
     2  C   -0.260588   7.891166  -0.758460  -0.100498   0.079916  -0.314614
     3  C   -0.599099  -0.758460   8.746356  -0.721654  -0.050937   0.494679
     4  C    0.478230  -0.100498  -0.721654   5.917941  -0.069987   0.280228
     5  H    0.015737   0.079916  -0.050937  -0.069987   1.428507  -0.000042
     6  S   -0.384615  -0.314614   0.494679   0.280228  -0.000042  15.911591
     7  H   -0.016610   0.017571   0.090457   0.255906  -0.065462  -0.170952
     8  C    0.314503  -0.336218  -1.504893   0.184857   0.030533  -0.579816
     9  S   -0.008416   0.160352  -0.362335  -0.026313  -0.000112   0.043936
    10  C    0.013233  -0.049451   0.065767   0.020482   0.001519  -0.002740
    11  C   -0.040988  -0.051346   0.285856   0.020119  -0.002176   0.095172
    12  C   -0.081673  -0.138697  -0.025803  -0.029931  -0.006829   0.151511
    13  H   -0.002583   0.051611  -0.020549   0.002298   0.000190   0.020570
    14  S   -0.000114   0.000465   0.005177  -0.000072  -0.000014  -0.006515
    15  C   -0.002040  -0.011521   0.040566   0.001651  -0.000110   0.005882
    16  C    0.006931   0.033588  -0.199078  -0.003744   0.000446  -0.025008
    17  H   -0.000068  -0.000369   0.002449   0.000126  -0.000001   0.000041
    18  H    0.000478   0.002055  -0.009922  -0.000360   0.000029  -0.001398
    19  O    0.008610  -0.580522   0.298495  -0.060981  -0.031299   0.027605
    20  H    0.008430   0.008933  -0.042208  -0.002460   0.006412   0.003295
               7          8          9         10         11         12
     1  C   -0.016610   0.314503  -0.008416   0.013233  -0.040988  -0.081673
     2  C    0.017571  -0.336218   0.160352  -0.049451  -0.051346  -0.138697
     3  C    0.090457  -1.504893  -0.362335   0.065767   0.285856  -0.025803
     4  C    0.255906   0.184857  -0.026313   0.020482   0.020119  -0.029931
     5  H   -0.065462   0.030533  -0.000112   0.001519  -0.002176  -0.006829
     6  S   -0.170952  -0.579816   0.043936  -0.002740   0.095172   0.151511
     7  H    1.213871  -0.018539  -0.000727  -0.000562   0.002101   0.008078
     8  C   -0.018539   9.446553   0.201126  -0.031975  -0.359793  -1.410104
     9  S   -0.000727   0.201126  16.030026   0.099670  -0.266290  -0.256966
    10  C   -0.000562  -0.031975   0.099670   7.283868   0.347673  -0.422842
    11  C    0.002101  -0.359793  -0.266290   0.347673   8.098781  -1.609011
    12  C    0.008078  -1.410104  -0.256966  -0.422842  -1.609011   9.795047
    13  H    0.000246   0.104611   0.044354  -0.054338   0.268546  -0.484688
    14  S    0.000046  -0.110675   0.000571  -0.067943   0.084025  -0.029121
    15  C    0.000120   0.093177  -0.041614   0.053860  -0.233775  -0.289481
    16  C   -0.000338  -0.303652  -0.048356  -0.990976  -0.094998   0.605524
    17  H    0.000009  -0.006751  -0.004112  -0.021264   0.008442   0.031141
    18  H   -0.000033   0.055499  -0.036659   0.185370  -0.005487  -0.017531
    19  O   -0.001184  -0.078036   0.013587   0.006501   0.002574   0.055652
    20  H   -0.000035  -0.005047   0.000037  -0.000899   0.000855   0.001265
              13         14         15         16         17         18
     1  C   -0.002583  -0.000114  -0.002040   0.006931  -0.000068   0.000478
     2  C    0.051611   0.000465  -0.011521   0.033588  -0.000369   0.002055
     3  C   -0.020549   0.005177   0.040566  -0.199078   0.002449  -0.009922
     4  C    0.002298  -0.000072   0.001651  -0.003744   0.000126  -0.000360
     5  H    0.000190  -0.000014  -0.000110   0.000446  -0.000001   0.000029
     6  S    0.020570  -0.006515   0.005882  -0.025008   0.000041  -0.001398
     7  H    0.000246   0.000046   0.000120  -0.000338   0.000009  -0.000033
     8  C    0.104611  -0.110675   0.093177  -0.303652  -0.006751   0.055499
     9  S    0.044354   0.000571  -0.041614  -0.048356  -0.004112  -0.036659
    10  C   -0.054338  -0.067943   0.053860  -0.990976  -0.021264   0.185370
    11  C    0.268546   0.084025  -0.233775  -0.094998   0.008442  -0.005487
    12  C   -0.484688  -0.029121  -0.289481   0.605524   0.031141  -0.017531
    13  H    1.563538  -0.055328   0.004090  -0.016118   0.001487  -0.000668
    14  S   -0.055328  15.649430   0.191396  -0.214664  -0.130636   0.006064
    15  C    0.004090   0.191396   5.828202   0.245154   0.239442  -0.059065
    16  C   -0.016118  -0.214664   0.245154   6.631113   0.037945  -0.122686
    17  H    0.001487  -0.130636   0.239442   0.037945   1.234433  -0.057843
    18  H   -0.000668   0.006064  -0.059065  -0.122686  -0.057843   1.375584
    19  O   -0.000715   0.000603   0.000082   0.000161   0.000003   0.000176
    20  H    0.000324  -0.000058   0.000085  -0.000235   0.000003  -0.000012
              19         20
     1  C    0.008610   0.008430
     2  C   -0.580522   0.008933
     3  C    0.298495  -0.042208
     4  C   -0.060981  -0.002460
     5  H   -0.031299   0.006412
     6  S    0.027605   0.003295
     7  H   -0.001184  -0.000035
     8  C   -0.078036  -0.005047
     9  S    0.013587   0.000037
    10  C    0.006501  -0.000899
    11  C    0.002574   0.000855
    12  C    0.055652   0.001265
    13  H   -0.000715   0.000324
    14  S    0.000603  -0.000058
    15  C    0.000082   0.000085
    16  C    0.000161  -0.000235
    17  H    0.000003   0.000003
    18  H    0.000176  -0.000012
    19  O    9.297786   0.268198
    20  H    0.268198   0.352902
 Mulliken charges:
               1
     1  C    0.612836
     2  C    0.356628
     3  C    0.265136
     4  C   -0.145838
     5  H   -0.336319
     6  S    0.451190
     7  H   -0.313964
     8  C    0.314639
     9  S    0.458241
    10  C   -0.434953
    11  C   -0.550280
    12  C    0.154459
    13  H   -0.426877
    14  S    0.677361
    15  C   -0.066100
    16  C    0.458990
    17  H   -0.334477
    18  H   -0.313591
    19  O   -1.227297
    20  H    0.400216
 Sum of Mulliken charges =  -0.00000
 Mulliken charges with hydrogens summed into heavy atoms:
               1
     1  C    0.276517
     2  C    0.356628
     3  C    0.265136
     4  C   -0.459801
     6  S    0.451190
     8  C    0.314639
     9  S    0.458241
    10  C   -0.434953
    11  C   -0.550280
    12  C   -0.272418
    14  S    0.677361
    15  C   -0.400577
    16  C    0.145399
    19  O   -0.827081
 Electronic spatial extent (au):  <R**2>=           4404.1098
 Charge=             -0.0000 electrons
 Dipole moment (field-independent basis, Debye):
    X=             -2.1107    Y=             -0.5060    Z=              0.0273  Tot=              2.1706
 Quadrupole moment (field-independent basis, Debye-Ang):
   XX=            -78.8904   YY=           -101.1570   ZZ=           -102.5579
   XY=             -5.5948   XZ=              8.7139   YZ=             -1.8326
 Traceless Quadrupole moment (field-independent basis, Debye-Ang):
   XX=             15.3114   YY=             -6.9552   ZZ=             -8.3561
   XY=             -5.5948   XZ=              8.7139   YZ=             -1.8326
 Octapole moment (field-independent basis, Debye-Ang**2):
  XXX=            -73.7545  YYY=             24.4626  ZZZ=             -1.0678  XYY=            -40.1705
  XXY=              0.9169  XXZ=             10.6460  XZZ=              1.9696  YZZ=              8.2889
  YYZ=            -12.4534  XYZ=             27.7583
 Hexadecapole moment (field-independent basis, Debye-Ang**3):
 XXXX=          -4105.3319 YYYY=           -675.6301 ZZZZ=           -578.7503 XXXY=           -154.7318
 XXXZ=            179.4478 YYYX=           -115.5439 YYYZ=            -71.9884 ZZZX=             43.2737
 ZZZY=             -1.5290 XXYY=           -819.5975 XXZZ=           -895.5436 YYZZ=           -194.5715
 XXYZ=            -88.3289 YYXZ=             44.9155 ZZXY=            -29.6677
 N-N= 1.100394972891D+03 E-N=-6.106137475557D+03  KE= 1.647266927968D+03
 Calling FoFJK, ICntrl=      2127 FMM=F ISym2X=0 I1Cent= 0 IOpClX= 0 NMat=1 NMatS=1 NMatT=0.
 ***** Axes restored to original set *****
 -------------------------------------------------------------------
 Center     Atomic                   Forces (Hartrees/Bohr)
 Number     Number              X              Y              Z
 -------------------------------------------------------------------
      1        6           0.010017041   -0.056368464    0.009566315
      2        6           0.056087230    0.017377262    0.014512972
      3        6          -0.069125567    0.040278334    0.003408960
      4        6           0.018431391    0.067031661   -0.020879617
      5        1           0.001414781    0.000580915    0.000362067
      6       16          -0.007431175    0.035976445   -0.007837413
      7        1           0.004001609   -0.001519378   -0.000571610
      8        6           0.060484960   -0.010977124   -0.068999975
      9       16          -0.014320912    0.007764175   -0.018173331
     10        6          -0.015793697   -0.029090449   -0.042874543
     11        6          -0.006491997    0.001964524    0.055455817
     12        6          -0.025099094    0.019059214    0.075093693
     13        1          -0.004501263    0.006988310    0.000664869
     14       16           0.018710303    0.008830088    0.013901798
     15        6          -0.035324203    0.033771777    0.060655315
     16        6           0.022317577   -0.045621503   -0.059745489
     17        1           0.000522857    0.005939292   -0.006250540
     18        1           0.003553822    0.008098568   -0.008606744
     19        8          -0.048450081    0.018573734   -0.004407100
     20        1           0.030996417   -0.128657381    0.004724554
 -------------------------------------------------------------------
 Cartesian Forces:  Max     0.128657381 RMS     0.035436742

 GradGradGradGradGradGradGradGradGradGradGradGradGradGradGradGradGradGrad
 Berny optimization.
 FormGI is forming the generalized inverse of G from B-inverse, IUseBI=4.
 Internal  Forces:  Max     0.128906505 RMS     0.025725924
 Search for a local minimum.
 Step number   1 out of a maximum of  116
 All quantities printed in internal units (Hartrees-Bohrs-Radians)
 Mixed Optimization -- RFO/linear search
 Second derivative matrix not updated -- first step.
 ITU=  0
     Eigenvalues ---    0.00230   0.00994   0.01053   0.01220   0.01274
     Eigenvalues ---    0.01299   0.01362   0.01426   0.01458   0.01491
     Eigenvalues ---    0.01500   0.01592   0.01600   0.01776   0.02202
     Eigenvalues ---    0.02654   0.15081   0.15688   0.15736   0.15997
     Eigenvalues ---    0.16000   0.16000   0.17993   0.22443   0.22526
     Eigenvalues ---    0.23317   0.23980   0.24118   0.24633   0.24978
     Eigenvalues ---    0.24995   0.26145   0.26562   0.28307   0.28374
     Eigenvalues ---    0.28663   0.30910   0.31288   0.31450   0.34814
     Eigenvalues ---    0.35125   0.35872   0.35949   0.36006   0.36133
     Eigenvalues ---    0.36185   0.36342   0.37598   0.38350   0.38435
     Eigenvalues ---    0.39456   0.39705   0.406961000.000001000.00000
     Eigenvalues --- 1000.000001000.000001000.000001000.000001000.00000
     Eigenvalues --- 1000.000001000.000001000.000001000.000001000.00000
     Eigenvalues --- 1000.000001000.000001000.000001000.000001000.00000
     Eigenvalues --- 1000.000001000.000001000.000001000.000001000.00000
     Eigenvalues --- 1000.000001000.000001000.000001000.000001000.00000
     Eigenvalues --- 1000.000001000.000001000.000001000.000001000.00000
     Eigenvalues --- 1000.000001000.000001000.000001000.000001000.00000
     Eigenvalues --- 1000.000001000.000001000.000001000.000001000.00000
     Eigenvalues --- 1000.000001000.000001000.000001000.000001000.00000
     Eigenvalues --- 1000.000001000.000001000.000001000.000001000.00000
     Eigenvalues --- 1000.00000
 RFO step:  Lambda=-1.53960003D-01 EMin= 2.30000000D-03
 Linear search not attempted -- first point.
 Maximum step size (   0.300) exceeded in Quadratic search.
    -- Step size scaled by   0.522
 Iteration  1 RMS(Cart)=  0.06112738 RMS(Int)=  0.00122914
 Iteration  2 RMS(Cart)=  0.00139787 RMS(Int)=  0.00009201
 Iteration  3 RMS(Cart)=  0.00000676 RMS(Int)=  0.00009187
 Iteration  4 RMS(Cart)=  0.00000000 RMS(Int)=  0.00009187
 Iteration  1 RMS(Cart)=  0.00000035 RMS(Int)=  0.00000014
 Variable       Old X    -DE/DX   Delta X   Delta X   Delta X     New X
                                 (Linear)    (Quad)   (Total)
    R1        2.71917  -0.02148   0.00000  -0.02154  -0.02145   2.69772
    R2        2.71391  -0.07566   0.00000  -0.07158  -0.07156   2.64235
    R3        2.03793  -0.00074   0.00000  -0.00075  -0.00075   2.03718
    R4        2.75906  -0.09213   0.00000  -0.09244  -0.09239   2.66668
    R5        2.90711  -0.10908   0.00000  -0.12928  -0.12928   2.77782
    R6        3.39578  -0.03186   0.00000  -0.03873  -0.03879   3.35699
    R7        2.74954   0.00329   0.00000   0.00325   0.00325   2.75278
    R8        3.28671  -0.02020   0.00000  -0.02142  -0.02149   3.26522
    R9        2.04073  -0.00278   0.00000  -0.00283  -0.00283   2.03790
   R10        3.38287  -0.02006   0.00000  -0.02347  -0.02355   3.35932
   R11        2.76805  -0.09072   0.00000  -0.09175  -0.09177   2.67628
   R12        3.27201  -0.00692   0.00000  -0.00682  -0.00683   3.26518
   R13        2.72161  -0.05435   0.00000  -0.05261  -0.05246   2.66915
   R14        2.69392   0.00326   0.00000   0.00199   0.00208   2.69600
   R15        2.70718  -0.00864   0.00000  -0.00917  -0.00911   2.69807
   R16        3.27429  -0.00244   0.00000  -0.00177  -0.00180   3.27249
   R17        2.03875  -0.00059   0.00000  -0.00060  -0.00060   2.03815
   R18        3.33603  -0.01828   0.00000  -0.02064  -0.02073   3.31529
   R19        2.72959  -0.08023   0.00000  -0.07749  -0.07751   2.65208
   R20        2.04162  -0.00279   0.00000  -0.00284  -0.00284   2.03878
   R21        2.05472  -0.00711   0.00000  -0.00735  -0.00735   2.04737
   R22        2.18171  -0.12891   0.00000  -0.15403  -0.15403   2.02769
    A1        1.97020  -0.00421   0.00000  -0.00841  -0.00828   1.96192
    A2        2.17330   0.00093   0.00000   0.00226   0.00219   2.17549
    A3        2.13967   0.00328   0.00000   0.00617   0.00610   2.14577
    A4        1.97187   0.01826   0.00000   0.02187   0.02200   1.99387
    A5        2.21760  -0.00816   0.00000  -0.00878  -0.00890   2.20870
    A6        2.06941  -0.00905   0.00000  -0.00996  -0.01007   2.05934
    A7        1.90440  -0.00590   0.00000  -0.00742  -0.00741   1.89699
    A8        2.31891  -0.00651   0.00000  -0.00854  -0.00854   2.31037
    A9        2.05972   0.01240   0.00000   0.01592   0.01591   2.07563
   A10        1.95339  -0.00231   0.00000  -0.00276  -0.00279   1.95060
   A11        2.17580   0.00452   0.00000   0.00698   0.00699   2.18280
   A12        2.15384  -0.00222   0.00000  -0.00424  -0.00422   2.14962
   A13        1.62490  -0.00584   0.00000  -0.00328  -0.00352   1.62138
   A14        2.12859  -0.00256   0.00000  -0.00315  -0.00316   2.12543
   A15        2.24053  -0.00561   0.00000  -0.00710  -0.00711   2.23342
   A16        1.91337   0.00825   0.00000   0.01043   0.01045   1.92382
   A17        1.61874  -0.00749   0.00000  -0.00731  -0.00731   1.61143
   A18        1.96128  -0.01170   0.00000  -0.01331  -0.01350   1.94778
   A19        2.23850   0.00957   0.00000   0.01739   0.01716   2.25566
   A20        1.96612   0.00659   0.00000   0.00812   0.00820   1.97431
   A21        1.96699   0.00791   0.00000   0.00910   0.00914   1.97613
   A22        1.96598  -0.01401   0.00000  -0.01618  -0.01629   1.94969
   A23        2.23661   0.01014   0.00000   0.01792   0.01771   2.25432
   A24        1.96366   0.00309   0.00000   0.00121   0.00133   1.96499
   A25        2.16076  -0.00598   0.00000  -0.00751  -0.00762   2.15315
   A26        2.14708   0.00359   0.00000   0.00842   0.00831   2.15539
   A27        1.59317   0.00018   0.00000   0.00186   0.00183   1.59500
   A28        1.95959   0.00109   0.00000   0.00066   0.00062   1.96022
   A29        2.13554  -0.00389   0.00000  -0.00511  -0.00521   2.13033
   A30        2.17072   0.00411   0.00000   0.00837   0.00829   2.17900
   A31        1.93959   0.00617   0.00000   0.00555   0.00566   1.94525
   A32        2.16555  -0.00011   0.00000   0.00367   0.00347   2.16902
   A33        2.14146  -0.00384   0.00000  -0.00272  -0.00292   2.13854
   A34        2.32184  -0.06603   0.00000  -0.10982  -0.10982   2.21202
    D1        0.00683  -0.00063   0.00000  -0.00189  -0.00188   0.00495
    D2       -2.89394  -0.00502   0.00000  -0.01639  -0.01640  -2.91034
    D3       -3.13952   0.00072   0.00000   0.00234   0.00234  -3.13718
    D4        0.24290  -0.00367   0.00000  -0.01215  -0.01218   0.23071
    D5       -0.00671   0.00034   0.00000   0.00060   0.00057  -0.00614
    D6       -3.13020   0.00061   0.00000   0.00182   0.00181  -3.12839
    D7        3.13954  -0.00097   0.00000  -0.00353  -0.00356   3.13598
    D8        0.01605  -0.00070   0.00000  -0.00231  -0.00232   0.01373
    D9       -0.00388   0.00076   0.00000   0.00241   0.00239  -0.00149
   D10        3.11762   0.00058   0.00000   0.00021   0.00021   3.11783
   D11        2.91927   0.00446   0.00000   0.01524   0.01526   2.93453
   D12       -0.24242   0.00427   0.00000   0.01304   0.01308  -0.22934
   D13       -0.28016   0.00257   0.00000   0.00491   0.00483  -0.27533
   D14        3.11413  -0.00532   0.00000  -0.01412  -0.01404   3.10009
   D15        0.00006  -0.00050   0.00000  -0.00179  -0.00176  -0.00171
   D16       -3.12486  -0.00013   0.00000   0.00031   0.00035  -3.12450
   D17        1.57072  -0.00110   0.00000   0.00000  -0.00000   1.57072
   D18       -1.61523   0.00148   0.00000   0.00635   0.00636  -1.60887
   D19       -1.59238  -0.00148   0.00000  -0.00259  -0.00260  -1.59498
   D20        1.50486   0.00110   0.00000   0.00375   0.00375   1.50861
   D21        0.00376   0.00016   0.00000   0.00078   0.00077   0.00453
   D22        3.12751  -0.00003   0.00000  -0.00028  -0.00031   3.12721
   D23        3.13736   0.00060   0.00000   0.00142   0.00142   3.13879
   D24        0.03269  -0.00128   0.00000  -0.00352  -0.00357   0.02912
   D25       -3.13917  -0.00154   0.00000  -0.00347  -0.00343   3.14059
   D26       -0.15724   0.00361   0.00000   0.01179   0.01177  -0.14547
   D27       -0.03753   0.00061   0.00000   0.00202   0.00210  -0.03543
   D28        2.94440   0.00575   0.00000   0.01728   0.01730   2.96170
   D29       -0.02017   0.00216   0.00000   0.00478   0.00475  -0.01542
   D30       -2.61634  -0.00827   0.00000  -0.02224  -0.02228  -2.63863
   D31        0.00168  -0.00169   0.00000  -0.00395  -0.00391  -0.00222
   D32       -2.68883  -0.01206   0.00000  -0.02903  -0.02872  -2.71754
   D33        2.68610   0.00912   0.00000   0.02304   0.02283   2.70893
   D34       -0.00440  -0.00124   0.00000  -0.00204  -0.00198  -0.00638
   D35        2.61428   0.00683   0.00000   0.02299   0.02322   2.63750
   D36       -0.24577  -0.00095   0.00000  -0.00093  -0.00082  -0.24659
   D37        0.01933   0.00097   0.00000   0.00128   0.00124   0.02056
   D38       -2.84072  -0.00681   0.00000  -0.02264  -0.02280  -2.86352
   D39        0.02372   0.00079   0.00000   0.00123   0.00119   0.02491
   D40       -2.95966  -0.00329   0.00000  -0.01221  -0.01235  -2.97201
   D41        2.62824   0.00531   0.00000   0.01967   0.01989   2.64814
   D42       -0.35514   0.00122   0.00000   0.00623   0.00636  -0.34878
   D43       -0.00897   0.00126   0.00000   0.00205   0.00202  -0.00695
   D44       -2.61375  -0.00870   0.00000  -0.02266  -0.02262  -2.63637
   D45        0.02006  -0.00056   0.00000  -0.00118  -0.00120   0.01887
   D46        2.97062   0.00707   0.00000   0.02119   0.02109   2.99171
   D47       -0.02598   0.00003   0.00000   0.00033   0.00038  -0.02560
   D48        2.83862   0.00836   0.00000   0.02505   0.02510   2.86372
   D49       -2.97200  -0.00674   0.00000  -0.02081  -0.02087  -2.99287
   D50       -0.10740   0.00159   0.00000   0.00391   0.00386  -0.10354
         Item               Value     Threshold  Converged?
 Maximum Force            0.128907     0.000450     NO 
 RMS     Force            0.025848     0.000300     NO 
 Maximum Displacement     0.426313     0.001800     NO 
 RMS     Displacement     0.061194     0.001200     NO 
 Predicted change in Energy=-6.688346D-02
 GradGradGradGradGradGradGradGradGradGradGradGradGradGradGradGradGradGrad

                          Input orientation:                          
 ---------------------------------------------------------------------
 Center     Atomic      Atomic             Coordinates (Angstroms)
 Number     Number       Type             X           Y           Z
 ---------------------------------------------------------------------
      1          6           0       -4.211894   -1.339740   -0.221641
      2          6           0       -2.886050   -0.979469   -0.609336
      3          6           0       -1.971843   -2.054420   -0.615204
      4          6           0       -4.327653   -2.699860    0.081415
      5          1           0       -5.041223   -0.653472   -0.163340
      6         16           0       -2.825592   -3.530495   -0.117136
      7          1           0       -5.238124   -3.191670    0.384959
      8          6           0       -0.559660   -2.140352   -0.962124
      9         16           0        0.718505   -1.888102    0.247338
     10          6           0        1.968737   -2.154442   -0.915192
     11          6           0        1.438478   -2.449084   -2.190744
     12          6           0        0.011026   -2.460213   -2.218193
     13          1           0       -0.565390   -2.811080   -3.059556
     14         16           0        2.557964   -3.349786   -3.157370
     15          6           0        3.750109   -3.330841   -1.870407
     16          6           0        3.284899   -2.670290   -0.722870
     17          1           0        4.657718   -3.911840   -1.921954
     18          1           0        3.765360   -2.771847    0.242865
     19          8           0       -2.349017    0.383599   -0.729451
     20          1           0       -2.914349    1.294405   -0.776057
 ---------------------------------------------------------------------
                    Distance matrix (angstroms):
                    1          2          3          4          5
     1  C    0.000000
     2  C    1.427574   0.000000
     3  C    2.384007   1.411144   0.000000
     4  C    1.398274   2.348425   2.540022   0.000000
     5  H    1.078030   2.224850   3.404105   2.181008   0.000000
     6  S    2.594641   2.598779   1.776445   1.727878   3.631587
     7  H    2.202443   3.378566   3.600312   1.078412   2.604199
     8  C    3.811576   2.623776   1.456709   3.949658   4.788870
     9  S    4.982919   3.814751   2.830126   5.113726   5.904866
    10  C    6.272556   5.004305   3.953248   6.398065   7.208171
    11  C    6.085616   4.833442   3.777351   6.202730   7.022899
    12  C    4.803617   3.629611   2.581862   4.916275   5.745603
    13  H    4.849289   3.839771   2.919846   4.902315   5.751210
    14  S    7.647861   6.461282   5.353479   7.637005   8.601277
    15  C    8.371165   7.152472   5.995459   8.334146   9.347187
    16  C    7.630433   6.399404   5.293791   7.654978   8.585158
    17  H    9.390250   8.199403   7.007759   9.285434  10.381674
    18  H    8.118083   6.941190   5.845210   8.094943   9.066886
    19  O    2.588065   1.469961   2.469666   3.752362   2.940063
    20  H    2.988264   2.280153   3.482645   4.322827   2.948429
                    6          7          8          9         10
     6  S    0.000000
     7  H    2.487410   0.000000
     8  C    2.789436   4.980756   0.000000
     9  S    3.923127   6.099152   1.777677   0.000000
    10  C    5.051337   7.396288   2.528871   1.727858   0.000000
    11  C    4.863291   7.194629   2.365878   2.603326   1.412453
    12  C    3.688678   5.904659   1.416229   2.628057   2.371485
    13  H    3.779406   5.817557   2.202074   3.665491   3.383973
    14  S    6.185334   8.564583   4.000177   4.136685   2.608332
    15  C    6.808353   9.267922   4.562494   3.969504   2.338725
    16  C    6.200401   8.610519   3.888278   2.852980   1.426664
    17  H    7.707317  10.186667   5.592895   4.931404   3.366398
    18  H    6.644230   9.014386   4.533936   3.172435   2.224890
    19  O    3.990262   4.729841   3.102623   3.940107   5.011901
    20  H    4.870494   5.183893   4.168541   4.936934   5.979836
                   11         12         13         14         15
    11  C    0.000000
    12  C    1.427759   0.000000
    13  H    2.213902   1.078543   0.000000
    14  S    1.731727   2.856621   3.170980   0.000000
    15  C    2.494744   3.854827   4.506413   1.754378   0.000000
    16  C    2.369147   3.605325   4.506068   2.630008   1.403421
    17  H    3.546183   4.877164   5.457717   2.500225   1.078875
    18  H    3.382456   4.499883   5.446367   3.654233   2.186007
    19  O    4.950211   3.984147   4.337821   6.626569   7.231749
    20  H    5.912880   4.973403   5.252331   7.562101   8.185689
                   16         17         18         19         20
    16  C    0.000000
    17  H    2.205421   0.000000
    18  H    1.083420   2.604291   0.000000
    19  O    6.408377   8.304650   6.948945   0.000000
    20  H    7.358825   9.260360   7.886134   1.073005   0.000000
 Stoichiometry    C10H6OS3
 Framework group  C1[X(C10H6OS3)]
 Deg. of freedom    54
 Full point group                 C1      NOp   1
 Largest Abelian subgroup         C1      NOp   1
 Largest concise Abelian subgroup C1      NOp   1
                         Standard orientation:                         
 ---------------------------------------------------------------------
 Center     Atomic      Atomic             Coordinates (Angstroms)
 Number     Number       Type             X           Y           Z
 ---------------------------------------------------------------------
      1          6           0       -4.071724    0.154135   -0.409223
      2          6           0       -2.771743    0.700429   -0.631888
      3          6           0       -1.720881   -0.059416   -0.075424
      4          6           0       -4.031922   -1.032603    0.329181
      5          1           0       -4.990192    0.594092   -0.762780
      6         16           0       -2.413448   -1.478833    0.737818
      7          1           0       -4.893141   -1.620988    0.603184
      8          6           0       -0.274201    0.110957   -0.085070
      9         16           0        0.568471    1.031730    1.180716
     10          6           0        2.112137    0.747593    0.458321
     11          6           0        2.003402   -0.044308   -0.706193
     12          6           0        0.659652   -0.421558   -1.007052
     13          1           0        0.399698   -1.144676   -1.763872
     14         16           0        3.478172   -0.884635   -1.049386
     15          6           0        4.258080   -0.176291    0.353409
     16          6           0        3.395541    0.662780    1.075613
     17          1           0        5.231033   -0.497792    0.691004
     18          1           0        3.607928    0.983880    2.088326
     19          8           0       -2.462040    2.051363   -1.121629
     20          1           0       -3.140168    2.732078   -1.599237
 ---------------------------------------------------------------------
 Rotational constants (GHZ):           1.2148289           0.2606553           0.2515560
 Standard basis: Aug-CC-pVDZ (5D, 7F)
 There are   416 symmetry adapted cartesian basis functions of A   symmetry.
 There are   388 symmetry adapted basis functions of A   symmetry.
   388 basis functions,   782 primitive gaussians,   416 cartesian basis functions
    61 alpha electrons       61 beta electrons
       nuclear repulsion energy      1113.5840401380 Hartrees.
 NAtoms=   20 NActive=   20 NUniq=   20 SFac= 1.00D+00 NAtFMM=   60 NAOKFM=F Big=F
 Integral buffers will be    131072 words long.
 Raffenetti 1 integral format.
 Two-electron integral symmetry is turned on.
 One-electron integrals computed using PRISM.
 NBasis=   388 RedAO= T EigKep=  5.95D-06  NBF=   388
 NBsUse=   388 1.00D-06 EigRej= -1.00D+00 NBFU=   388
 Initial guess from the checkpoint file:  "/tmp/pbs.4762170[265].pbs/Gau-1693868.chk"
 B after Tr=    -0.000000    0.000000   -0.000000
         Rot=    0.999720    0.023428    0.000538    0.003145 Ang=   2.71 deg.
 ExpMin= 2.97D-02 ExpMax= 1.11D+05 ExpMxC= 1.07D+03 IAcc=3 IRadAn=         5 AccDes= 0.00D+00
 Harris functional with IExCor=  205 and IRadAn=       5 diagonalized for initial guess.
 HarFok:  IExCor=  205 AccDes= 0.00D+00 IRadAn=         5 IDoV= 1 UseB2=F ITyADJ=14
 ICtDFT=  3500011 ScaDFX=  1.000000  1.000000  1.000000  1.000000
 FoFCou: FMM=F IPFlag=           0 FMFlag=      100000 FMFlg1=           0
         NFxFlg=           0 DoJE=T BraDBF=F KetDBF=T FulRan=T
         wScrn=  0.000000 ICntrl=       500 IOpCl=  0 I1Cent=   200000004 NGrid=           0
         NMat0=    1 NMatS0=      1 NMatT0=    0 NMatD0=    1 NMtDS0=    0 NMtDT0=    0
 Petite list used in FoFCou.
 Requested convergence on RMS density matrix=1.00D-08 within 128 cycles.
 Requested convergence on MAX density matrix=1.00D-06.
 Requested convergence on             energy=1.00D-06.
 No special actions if energy rises.
 SCF Done:  E(RHF) =  -1649.57375612     A.U. after   15 cycles
            NFock= 15  Conv=0.71D-08     -V/T= 2.0008
 Calling FoFJK, ICntrl=      2127 FMM=F ISym2X=0 I1Cent= 0 IOpClX= 0 NMat=1 NMatS=1 NMatT=0.
 ***** Axes restored to original set *****
 -------------------------------------------------------------------
 Center     Atomic                   Forces (Hartrees/Bohr)
 Number     Number              X              Y              Z
 -------------------------------------------------------------------
      1        6          -0.001279038   -0.037237955    0.007087802
      2        6           0.051441984    0.033161290    0.010679857
      3        6          -0.051324891    0.021793175    0.001539338
      4        6           0.011000700    0.043265597   -0.013921760
      5        1           0.001091913    0.001284578    0.000380091
      6       16          -0.002635006    0.017698097   -0.004902682
      7        1           0.003068716   -0.002340916   -0.000090708
      8        6           0.043368587   -0.005196855   -0.046204234
      9       16          -0.011509684    0.008995771   -0.008108360
     10        6          -0.013882975   -0.022016322   -0.029577281
     11        6           0.001370580   -0.002586424    0.039655691
     12        6          -0.021654353    0.011844988    0.048692808
     13        1          -0.003017947    0.006498285   -0.000320924
     14       16           0.014017395    0.006004892    0.003179773
     15        6          -0.023799380    0.020628484    0.041761616
     16        6           0.016846607   -0.031479756   -0.037610190
     17        1           0.000833311    0.004838652   -0.005717755
     18        1           0.003257440    0.008235870   -0.005279579
     19        8          -0.049637544    0.017195373   -0.006031724
     20        1           0.032443585   -0.100586825    0.004788220
 -------------------------------------------------------------------
 Cartesian Forces:  Max     0.100586825 RMS     0.026225319

 GradGradGradGradGradGradGradGradGradGradGradGradGradGradGradGradGradGrad
 Berny optimization.
 Using GEDIIS/GDIIS optimizer.
 FormGI is forming the generalized inverse of G from B-inverse, IUseBI=4.
 Internal  Forces:  Max     0.102683236 RMS     0.018174978
 Search for a local minimum.
 Step number   2 out of a maximum of  116
 All quantities printed in internal units (Hartrees-Bohrs-Radians)
 Mixed Optimization -- RFO/linear search
 Update second derivatives using D2CorX and points    1    2
 DE= -6.95D-02 DEPred=-6.69D-02 R= 1.04D+00
 TightC=F SS=  1.41D+00  RLast= 3.12D-01 DXNew= 5.0454D-01 9.3488D-01
 Trust test= 1.04D+00 RLast= 3.12D-01 DXMaxT set to 5.05D-01
 ITU=  1  0
 Use linear search instead of GDIIS.
     Eigenvalues ---    0.00230   0.00995   0.01050   0.01218   0.01272
     Eigenvalues ---    0.01296   0.01347   0.01409   0.01459   0.01486
     Eigenvalues ---    0.01499   0.01592   0.01597   0.01750   0.02134
     Eigenvalues ---    0.02527   0.15046   0.15281   0.15750   0.15823
     Eigenvalues ---    0.15999   0.16028   0.18251   0.20817   0.22477
     Eigenvalues ---    0.22536   0.23373   0.24125   0.24324   0.24981
     Eigenvalues ---    0.25006   0.25603   0.26323   0.26672   0.28428
     Eigenvalues ---    0.28600   0.30919   0.31286   0.31424   0.34886
     Eigenvalues ---    0.35131   0.35948   0.36004   0.36098   0.36133
     Eigenvalues ---    0.36185   0.36486   0.37546   0.38176   0.39214
     Eigenvalues ---    0.39542   0.40576   0.449771000.000001000.00000
     Eigenvalues --- 1000.000001000.000001000.000001000.000001000.00000
     Eigenvalues --- 1000.000001000.000001000.000001000.000001000.00000
     Eigenvalues --- 1000.000001000.000001000.000001000.000001000.00000
     Eigenvalues --- 1000.000001000.000001000.000001000.000001000.00000
     Eigenvalues --- 1000.000001000.000001000.000001000.000001000.00000
     Eigenvalues --- 1000.000001000.000001000.000001000.000001000.00000
     Eigenvalues --- 1000.000001000.000001000.000001000.000001000.00000
     Eigenvalues --- 1000.000001000.000001000.000001000.000001000.00000
     Eigenvalues --- 1000.000001000.000001000.000001000.000001000.00000
     Eigenvalues --- 1000.000001000.000001000.000001000.000001000.00000
     Eigenvalues --- 1000.00000
 RFO step:  Lambda=-1.50386090D-02 EMin= 2.30032115D-03
 Quartic linear search produced a step of  1.58483.
 Iteration  1 RMS(Cart)=  0.10346209 RMS(Int)=  0.02309151
 Iteration  2 RMS(Cart)=  0.02635570 RMS(Int)=  0.00193206
 Iteration  3 RMS(Cart)=  0.00158066 RMS(Int)=  0.00105399
 Iteration  4 RMS(Cart)=  0.00000330 RMS(Int)=  0.00105398
 Iteration  5 RMS(Cart)=  0.00000000 RMS(Int)=  0.00105398
 Iteration  1 RMS(Cart)=  0.00003333 RMS(Int)=  0.00001415
 Iteration  2 RMS(Cart)=  0.00001823 RMS(Int)=  0.00001581
 Iteration  3 RMS(Cart)=  0.00000997 RMS(Int)=  0.00001786
 Iteration  4 RMS(Cart)=  0.00000545 RMS(Int)=  0.00001922
 Iteration  5 RMS(Cart)=  0.00000298 RMS(Int)=  0.00002002
 Iteration  6 RMS(Cart)=  0.00000163 RMS(Int)=  0.00002047
 Iteration  7 RMS(Cart)=  0.00000089 RMS(Int)=  0.00002072
 Variable       Old X    -DE/DX   Delta X   Delta X   Delta X     New X
                                 (Linear)    (Quad)   (Total)
    R1        2.69772  -0.00640  -0.03399   0.04886   0.01520   2.71292
    R2        2.64235  -0.04539  -0.11341   0.02773  -0.08582   2.55653
    R3        2.03718  -0.00000  -0.00118   0.00331   0.00213   2.03931
    R4        2.66668  -0.05680  -0.14642   0.02866  -0.11733   2.54934
    R5        2.77782  -0.08351  -0.20489  -0.07820  -0.28309   2.49473
    R6        3.35699  -0.01810  -0.06147   0.03335  -0.02815   3.32884
    R7        2.75278   0.00520   0.00514   0.01975   0.02489   2.77767
    R8        3.26522  -0.01060  -0.03407   0.02286  -0.01166   3.25356
    R9        2.03790  -0.00155  -0.00448   0.00205  -0.00242   2.03548
   R10        3.35932  -0.01253  -0.03732   0.01295  -0.02531   3.33401
   R11        2.67628  -0.05901  -0.14544   0.01048  -0.13550   2.54078
   R12        3.26518  -0.00081  -0.01083   0.02738   0.01675   3.28192
   R13        2.66915  -0.03484  -0.08315   0.00180  -0.07958   2.58957
   R14        2.69600   0.00499   0.00330   0.01655   0.02042   2.71643
   R15        2.69807  -0.00068  -0.01443   0.03015   0.01624   2.71431
   R16        3.27249   0.00134  -0.00285   0.02080   0.01799   3.29048
   R17        2.03815  -0.00025  -0.00095   0.00096   0.00002   2.03817
   R18        3.31529  -0.01052  -0.03286   0.01848  -0.01524   3.30005
   R19        2.65208  -0.05065  -0.12284   0.01651  -0.10670   2.54538
   R20        2.03878  -0.00163  -0.00450   0.00156  -0.00295   2.03583
   R21        2.04737  -0.00403  -0.01165   0.00495  -0.00670   2.04067
   R22        2.02769  -0.10268  -0.24411  -0.12682  -0.37093   1.65676
    A1        1.96192  -0.00226  -0.01313   0.00943  -0.00320   1.95872
    A2        2.17549  -0.00040   0.00347  -0.01459  -0.01139   2.16410
    A3        2.14577   0.00266   0.00967   0.00516   0.01457   2.16034
    A4        1.99387   0.00772   0.03487  -0.04242  -0.00840   1.98547
    A5        2.20870  -0.00679  -0.01411  -0.00701  -0.02385   2.18485
    A6        2.05934   0.00007  -0.01596   0.06666   0.04851   2.10785
    A7        1.89699   0.00034  -0.01174   0.03986   0.02887   1.92586
    A8        2.31037  -0.00816  -0.01354  -0.03381  -0.04776   2.26261
    A9        2.07563   0.00782   0.02521  -0.00572   0.01907   2.09470
   A10        1.95060  -0.00017  -0.00442   0.01487   0.01025   1.96085
   A11        2.18280   0.00369   0.01108   0.00943   0.02061   2.20340
   A12        2.14962  -0.00352  -0.00669  -0.02435  -0.03094   2.11868
   A13        1.62138  -0.00563  -0.00557  -0.02181  -0.02777   1.59361
   A14        2.12543  -0.00274  -0.00501  -0.00968  -0.01472   2.11071
   A15        2.23342  -0.00414  -0.01127  -0.00291  -0.01421   2.21921
   A16        1.92382   0.00694   0.01656   0.01265   0.02920   1.95302
   A17        1.61143  -0.00587  -0.01159  -0.01327  -0.02414   1.58729
   A18        1.94778  -0.00671  -0.02139   0.01578  -0.00676   1.94102
   A19        2.25566   0.00699   0.02720   0.01574   0.03945   2.29511
   A20        1.97431   0.00354   0.01299  -0.00869   0.00403   1.97834
   A21        1.97613   0.00383   0.01449  -0.01087   0.00291   1.97904
   A22        1.94969  -0.00761  -0.02582   0.02295  -0.00420   1.94549
   A23        2.25432   0.00734   0.02807   0.01640   0.04075   2.29507
   A24        1.96499   0.00185   0.00211  -0.00370  -0.00068   1.96431
   A25        2.15315  -0.00358  -0.01207   0.01113  -0.00202   2.15112
   A26        2.15539   0.00232   0.01317  -0.00382   0.00823   2.16362
   A27        1.59500  -0.00155   0.00289  -0.02241  -0.01861   1.57638
   A28        1.96022   0.00223   0.00099   0.01897   0.01928   1.97950
   A29        2.13033  -0.00439  -0.00826  -0.01902  -0.02878   2.10155
   A30        2.17900   0.00324   0.01313   0.00756   0.01938   2.19839
   A31        1.94525   0.00340   0.00897  -0.01013  -0.00027   1.94498
   A32        2.16902  -0.00034   0.00550  -0.00450  -0.00093   2.16808
   A33        2.13854  -0.00125  -0.00463   0.02234   0.01595   2.15449
   A34        2.21202  -0.05159  -0.17405  -0.05329  -0.22734   1.98468
    D1        0.00495  -0.00018  -0.00298   0.02271   0.01958   0.02453
    D2       -2.91034  -0.00569  -0.02599  -0.07569  -0.09945  -3.00979
    D3       -3.13718   0.00105   0.00371   0.02473   0.02780  -3.10938
    D4        0.23071  -0.00446  -0.01931  -0.07367  -0.09123   0.13949
    D5       -0.00614  -0.00000   0.00090  -0.01167  -0.01028  -0.01643
    D6       -3.12839   0.00041   0.00287  -0.00845  -0.00559  -3.13398
    D7        3.13598  -0.00121  -0.00564  -0.01364  -0.01848   3.11750
    D8        0.01373  -0.00079  -0.00367  -0.01042  -0.01378  -0.00005
    D9       -0.00149   0.00033   0.00379  -0.02271  -0.01922  -0.02071
   D10        3.11783   0.00048   0.00033  -0.00369  -0.00407   3.11376
   D11        2.93453   0.00426   0.02419   0.05794   0.08433   3.01886
   D12       -0.22934   0.00441   0.02073   0.07696   0.09948  -0.12986
   D13       -0.27533   0.00208   0.00766   0.05083   0.05888  -0.21644
   D14        3.10009  -0.00443  -0.02225  -0.03798  -0.06063   3.03945
   D15       -0.00171  -0.00027  -0.00280   0.01351   0.01138   0.00967
   D16       -3.12450  -0.00017   0.00056  -0.00202  -0.00109  -3.12559
   D17        1.57072  -0.00114  -0.00000   0.00000   0.00000   1.57072
   D18       -1.60887   0.00124   0.01008   0.00214   0.01247  -1.59641
   D19       -1.59498  -0.00107  -0.00413   0.02099   0.01640  -1.57858
   D20        1.50861   0.00130   0.00595   0.02313   0.02886   1.53747
   D21        0.00453   0.00018   0.00122  -0.00121  -0.00028   0.00425
   D22        3.12721  -0.00013  -0.00048  -0.00393  -0.00408   3.12313
   D23        3.13879   0.00051   0.00226  -0.00931  -0.00709   3.13169
   D24        0.02912  -0.00130  -0.00566  -0.01089  -0.01708   0.01204
   D25        3.14059  -0.00107  -0.00544   0.01626   0.01090  -3.13170
   D26       -0.14547   0.00358   0.01865   0.04258   0.06115  -0.08432
   D27       -0.03543   0.00094   0.00333   0.01783   0.02172  -0.01372
   D28        2.96170   0.00558   0.02742   0.04415   0.07197   3.03367
   D29       -0.01542   0.00166   0.00752   0.00112   0.00843  -0.00699
   D30       -2.63863  -0.00735  -0.03532  -0.04856  -0.08501  -2.72363
   D31       -0.00222  -0.00110  -0.00619   0.00921   0.00296   0.00073
   D32       -2.71754  -0.00996  -0.04551  -0.05000  -0.09272  -2.81026
   D33        2.70893   0.00808   0.03618   0.05680   0.09038   2.79931
   D34       -0.00638  -0.00078  -0.00314  -0.00240  -0.00530  -0.01168
   D35        2.63750   0.00705   0.03680   0.03926   0.07739   2.71489
   D36       -0.24659  -0.00030  -0.00130   0.00392   0.00377  -0.24282
   D37        0.02056   0.00032   0.00196  -0.01691  -0.01533   0.00524
   D38       -2.86352  -0.00703  -0.03613  -0.05225  -0.08895  -2.95247
   D39        0.02491   0.00016   0.00189  -0.01794  -0.01632   0.00859
   D40       -2.97201  -0.00392  -0.01957  -0.04574  -0.06600  -3.03801
   D41        2.64814   0.00615   0.03153   0.05402   0.08689   2.73502
   D42       -0.34878   0.00207   0.01007   0.02622   0.03721  -0.31157
   D43       -0.00695   0.00103   0.00320   0.01563   0.01837   0.01142
   D44       -2.63637  -0.00750  -0.03585  -0.04754  -0.08471  -2.72108
   D45        0.01887  -0.00075  -0.00190  -0.02533  -0.02753  -0.00866
   D46        2.99171   0.00632   0.03342   0.02180   0.05368   3.04538
   D47       -0.02560   0.00048   0.00060   0.02818   0.02929   0.00369
   D48        2.86372   0.00783   0.03978   0.05830   0.09937   2.96309
   D49       -2.99287  -0.00595  -0.03307  -0.01751  -0.05175  -3.04461
   D50       -0.10354   0.00140   0.00611   0.01261   0.01833  -0.08521
         Item               Value     Threshold  Converged?
 Maximum Force            0.102683     0.000450     NO 
 RMS     Force            0.018261     0.000300     NO 
 Maximum Displacement     0.846005     0.001800     NO 
 RMS     Displacement     0.117777     0.001200     NO 
 Predicted change in Energy=-7.845284D-02
 GradGradGradGradGradGradGradGradGradGradGradGradGradGradGradGradGradGrad

                          Input orientation:                          
 ---------------------------------------------------------------------
 Center     Atomic      Atomic             Coordinates (Angstroms)
 Number     Number       Type             X           Y           Z
 ---------------------------------------------------------------------
      1          6           0       -4.155071   -1.281331   -0.231192
      2          6           0       -2.797250   -0.986261   -0.592090
      3          6           0       -1.988395   -2.065936   -0.593723
      4          6           0       -4.333416   -2.589518    0.063880
      5          1           0       -4.945579   -0.547171   -0.205003
      6         16           0       -2.884317   -3.503054   -0.108888
      7          1           0       -5.259536   -3.056212    0.354922
      8          6           0       -0.562467   -2.168803   -0.935336
      9         16           0        0.682717   -1.960643    0.297094
     10          6           0        1.931865   -2.238583   -0.877033
     11          6           0        1.401637   -2.480799   -2.117202
     12          6           0       -0.034076   -2.444772   -2.140486
     13          1           0       -0.629386   -2.701183   -3.002536
     14         16           0        2.553065   -3.267345   -3.160032
     15          6           0        3.733152   -3.268079   -1.872785
     16          6           0        3.285808   -2.700439   -0.736142
     17          1           0        4.679979   -3.765688   -2.001283
     18          1           0        3.814506   -2.753999    0.203933
     19          8           0       -2.308515    0.224100   -0.789506
     20          1           0       -2.922720    0.846718   -0.850592
 ---------------------------------------------------------------------
                    Distance matrix (angstroms):
                    1          2          3          4          5
     1  C    0.000000
     2  C    1.435615   0.000000
     3  C    2.332706   1.349054   0.000000
     4  C    1.352859   2.315283   2.491124   0.000000
     5  H    1.079157   2.226646   3.347041   2.149005   0.000000
     6  S    2.562387   2.564237   1.761547   1.721710   3.604898
     7  H    2.171077   3.353264   3.546961   1.077129   2.589860
     8  C    3.766992   2.551564   1.469882   3.923708   4.730195
     9  S    4.913730   3.721591   2.817709   5.060776   5.824751
    10  C    6.195501   4.900412   3.934274   6.345251   7.114192
    11  C    5.989387   4.710654   3.739708   6.136755   6.905257
    12  C    4.688454   3.487107   2.520983   4.833684   5.609799
    13  H    4.703911   3.667539   2.837750   4.809907   5.576332
    14  S    7.584289   6.357951   5.352961   7.633916   8.506539
    15  C    8.298558   7.035128   5.984752   8.323499   9.246903
    16  C    7.591806   6.321610   5.314141   7.661913   8.524928
    17  H    9.346836   8.100617   7.024072   9.321457  10.307125
    18  H    8.116171   6.890128   5.897741   8.150785   9.043031
    19  O    2.447000   1.320155   2.320576   3.570005   2.809023
    20  H    2.535930   1.855365   3.069609   3.825446   2.540014
                    6          7          8          9         10
     6  S    0.000000
     7  H    2.460986   0.000000
     8  C    2.802540   4.951234   0.000000
     9  S    3.907375   6.042680   1.764284   0.000000
    10  C    5.038308   7.341831   2.495989   1.736720   0.000000
    11  C    4.842285   7.128374   2.313407   2.572204   1.370339
    12  C    3.656668   5.822916   1.344523   2.586497   2.346007
    13  H    3.755117   5.730345   2.135702   3.627336   3.360323
    14  S    6.239404   8.569493   3.982789   4.142148   2.579986
    15  C    6.852550   9.266931   4.532060   3.965214   2.301309
    16  C    6.253645   8.622059   3.889928   2.896715   1.437471
    17  H    7.801840  10.239581   5.582967   4.951648   3.338880
    18  H    6.747826   9.080328   4.560513   3.232057   2.231250
    19  O    3.832293   4.558365   2.965794   3.860216   4.904415
    20  H    4.412723   4.706043   3.830319   4.711437   5.752111
                   11         12         13         14         15
    11  C    0.000000
    12  C    1.436353   0.000000
    13  H    2.226531   1.078551   0.000000
    14  S    1.741246   2.899896   3.236254   0.000000
    15  C    2.472957   3.865424   4.541966   1.746314   0.000000
[...]
 Number     Number       Type             X           Y           Z
 ---------------------------------------------------------------------
      1          6           0       -3.970670    0.675759   -0.108466
      2          6           0       -2.579954    1.022661    0.012458
      3          6           0       -1.744688   -0.035956   -0.095866
      4          6           0       -4.149474   -0.647124   -0.301117
      5          1           0       -4.775553    1.393714   -0.052535
      6         16           0       -2.658098   -1.506184   -0.345405
      7          1           0       -5.084571   -1.166677   -0.424544
      8          6           0       -0.274090   -0.038845   -0.014252
      9         16           0        0.532176   -0.259711    1.533254
     10          6           0        2.086637   -0.144390    0.770347
     11          6           0        1.960468    0.048290   -0.574508
     12          6           0        0.603196    0.106779   -1.030999
     13          1           0        0.298170    0.252525   -2.054277
     14         16           0        3.516004    0.165637   -1.340208
     15          6           0        4.308406   -0.050984    0.198425
     16          6           0        3.446912   -0.202944    1.225505
     17          1           0        5.384164   -0.052658    0.246531
     18          1           0        3.751519   -0.348223    2.249063
     19          8           0       -2.135068    2.280658    0.209732
     20          1           0       -2.854957    2.880716    0.306483
 ---------------------------------------------------------------------
 Rotational constants (GHZ):           1.3127587           0.2558198           0.2552812

 **********************************************************************

            Population analysis using the SCF Density.

 **********************************************************************

 Orbital symmetries:
       Occupied  (A) (A) (A) (A) (A) (A) (A) (A) (A) (A) (A) (A)
                 (A) (A) (A) (A) (A) (A) (A) (A) (A) (A) (A) (A)
                 (A) (A) (A) (A) (A) (A) (A) (A) (A) (A) (A) (A)
                 (A) (A) (A) (A) (A) (A) (A) (A) (A) (A) (A) (A)
                 (A) (A) (A) (A) (A) (A) (A) (A) (A) (A) (A) (A)
                 (A)
       Virtual   (A) (A) (A) (A) (A) (A) (A) (A) (A) (A) (A) (A)
                 (A) (A) (A) (A) (A) (A) (A) (A) (A) (A) (A) (A)
                 (A) (A) (A) (A) (A) (A) (A) (A) (A) (A) (A) (A)
                 (A) (A) (A) (A) (A) (A) (A) (A) (A) (A) (A) (A)
                 (A) (A) (A) (A) (A) (A) (A) (A) (A) (A) (A) (A)
                 (A) (A) (A) (A) (A) (A) (A) (A) (A) (A) (A) (A)
                 (A) (A) (A) (A) (A) (A) (A) (A) (A) (A) (A) (A)
                 (A) (A) (A) (A) (A) (A) (A) (A) (A) (A) (A) (A)
                 (A) (A) (A) (A) (A) (A) (A) (A) (A) (A) (A) (A)
                 (A) (A) (A) (A) (A) (A) (A) (A) (A) (A) (A) (A)
                 (A) (A) (A) (A) (A) (A) (A) (A) (A) (A) (A) (A)
                 (A) (A) (A) (A) (A) (A) (A) (A) (A) (A) (A) (A)
                 (A) (A) (A) (A) (A) (A) (A) (A) (A) (A) (A) (A)
                 (A) (A) (A) (A) (A) (A) (A) (A) (A) (A) (A) (A)
                 (A) (A) (A) (A) (A) (A) (A) (A) (A) (A) (A) (A)
                 (A) (A) (A) (A) (A) (A) (A) (A) (A) (A) (A) (A)
                 (A) (A) (A) (A) (A) (A) (A) (A) (A) (A) (A) (A)
                 (A) (A) (A) (A) (A) (A) (A) (A) (A) (A) (A) (A)
                 (A) (A) (A) (A) (A) (A) (A) (A) (A) (A) (A) (A)
                 (A) (A) (A) (A) (A) (A) (A) (A) (A) (A) (A) (A)
                 (A) (A) (A) (A) (A) (A) (A) (A) (A) (A) (A) (A)
                 (A) (A) (A) (A) (A) (A) (A) (A) (A) (A) (A) (A)
                 (A) (A) (A) (A) (A) (A) (A) (A) (A) (A) (A) (A)
                 (A) (A) (A) (A) (A) (A) (A) (A) (A) (A) (A) (A)
                 (A) (A) (A) (A) (A) (A) (A) (A) (A) (A) (A) (A)
                 (A) (A) (A) (A) (A) (A) (A) (A) (A) (A) (A) (A)
                 (A) (A) (A) (A) (A) (A) (A) (A) (A) (A) (A) (A)
                 (A) (A) (A)
 The electronic state is 1-A.
 Alpha  occ. eigenvalues --  -91.98945 -91.98659 -91.98400 -20.60918 -11.31771
 Alpha  occ. eigenvalues --  -11.28367 -11.28354 -11.27445 -11.26866 -11.26817
 Alpha  occ. eigenvalues --  -11.26696 -11.25450 -11.25432 -11.25367  -8.99131
 Alpha  occ. eigenvalues --   -8.98843  -8.98564  -6.67297  -6.67205  -6.67010
 Alpha  occ. eigenvalues --   -6.67007  -6.66932  -6.66727  -6.66725  -6.66645
 Alpha  occ. eigenvalues --   -6.66438  -1.42958  -1.21270  -1.18372  -1.12580
 Alpha  occ. eigenvalues --   -1.02810  -1.01993  -0.98576  -0.95669  -0.94219
 Alpha  occ. eigenvalues --   -0.82517  -0.81108  -0.77037  -0.74987  -0.72114
 Alpha  occ. eigenvalues --   -0.69716  -0.66809  -0.66455  -0.62051  -0.60980
 Alpha  occ. eigenvalues --   -0.58388  -0.56371  -0.56043  -0.53667  -0.53337
 Alpha  occ. eigenvalues --   -0.52663  -0.50631  -0.49272  -0.48616  -0.45884
 Alpha  occ. eigenvalues --   -0.45806  -0.38344  -0.34874  -0.32302  -0.31706
 Alpha  occ. eigenvalues --   -0.30262
 Alpha virt. eigenvalues --    0.02772   0.03701   0.03988   0.04906   0.05095
 Alpha virt. eigenvalues --    0.06232   0.07990   0.08439   0.08818   0.09040
 Alpha virt. eigenvalues --    0.09642   0.10280   0.10391   0.10852   0.11489
 Alpha virt. eigenvalues --    0.12425   0.12514   0.12680   0.12982   0.13572
 Alpha virt. eigenvalues --    0.13961   0.14125   0.14435   0.14533   0.15126
 Alpha virt. eigenvalues --    0.15344   0.15899   0.16080   0.16317   0.16798
 Alpha virt. eigenvalues --    0.17029   0.17967   0.18476   0.18978   0.19219
 Alpha virt. eigenvalues --    0.19617   0.19893   0.20659   0.20785   0.21285
 Alpha virt. eigenvalues --    0.21846   0.22276   0.23041   0.23084   0.23418
 Alpha virt. eigenvalues --    0.24053   0.24324   0.24635   0.25033   0.25949
 Alpha virt. eigenvalues --    0.26072   0.27268   0.27416   0.27685   0.28385
 Alpha virt. eigenvalues --    0.29127   0.29747   0.30717   0.31393   0.31751
 Alpha virt. eigenvalues --    0.31962   0.32118   0.32853   0.33148   0.33360
 Alpha virt. eigenvalues --    0.33682   0.34664   0.35176   0.35618   0.36222
 Alpha virt. eigenvalues --    0.36371   0.36930   0.37325   0.38869   0.39761
 Alpha virt. eigenvalues --    0.40146   0.40561   0.40886   0.42069   0.42609
 Alpha virt. eigenvalues --    0.43408   0.43856   0.44838   0.45084   0.45768
 Alpha virt. eigenvalues --    0.46096   0.46700   0.47252   0.48290   0.48655
 Alpha virt. eigenvalues --    0.49253   0.49529   0.50632   0.51292   0.52207
 Alpha virt. eigenvalues --    0.53149   0.53935   0.54262   0.54841   0.55076
 Alpha virt. eigenvalues --    0.55808   0.57287   0.58023   0.58991   0.59348
 Alpha virt. eigenvalues --    0.60281   0.60508   0.61528   0.61949   0.61999
 Alpha virt. eigenvalues --    0.62670   0.63635   0.64400   0.65614   0.66051
 Alpha virt. eigenvalues --    0.66593   0.67093   0.67782   0.68009   0.68589
 Alpha virt. eigenvalues --    0.69440   0.69617   0.70039   0.70853   0.71205
 Alpha virt. eigenvalues --    0.72026   0.72724   0.73046   0.73934   0.74601
 Alpha virt. eigenvalues --    0.74784   0.75245   0.75798   0.76591   0.77084
 Alpha virt. eigenvalues --    0.77297   0.78435   0.78742   0.78920   0.80025
 Alpha virt. eigenvalues --    0.80772   0.81606   0.82142   0.83214   0.84035
 Alpha virt. eigenvalues --    0.84880   0.85283   0.86008   0.87062   0.87119
 Alpha virt. eigenvalues --    0.88438   0.88723   0.89962   0.91047   0.91177
 Alpha virt. eigenvalues --    0.91917   0.92579   0.93620   0.94591   0.94850
 Alpha virt. eigenvalues --    0.95959   0.96229   0.97001   0.97505   0.98534
 Alpha virt. eigenvalues --    0.99290   1.00131   1.00524   1.01310   1.02523
 Alpha virt. eigenvalues --    1.03998   1.05285   1.06151   1.06215   1.07414
 Alpha virt. eigenvalues --    1.08577   1.09387   1.10856   1.11181   1.12962
 Alpha virt. eigenvalues --    1.13372   1.14531   1.17195   1.17677   1.18493
 Alpha virt. eigenvalues --    1.19160   1.21985   1.22200   1.23380   1.23886
 Alpha virt. eigenvalues --    1.24875   1.25130   1.25795   1.26389   1.27219
 Alpha virt. eigenvalues --    1.28903   1.30094   1.31011   1.31522   1.31938
 Alpha virt. eigenvalues --    1.33245   1.33969   1.34696   1.36690   1.37221
 Alpha virt. eigenvalues --    1.37811   1.38468   1.40715   1.42194   1.43329
 Alpha virt. eigenvalues --    1.43508   1.44750   1.46027   1.47412   1.48965
 Alpha virt. eigenvalues --    1.50023   1.53780   1.55163   1.55537   1.56386
 Alpha virt. eigenvalues --    1.57806   1.58710   1.59433   1.60342   1.60942
 Alpha virt. eigenvalues --    1.61819   1.63806   1.64508   1.65577   1.67016
 Alpha virt. eigenvalues --    1.67061   1.69013   1.70345   1.71125   1.72061
 Alpha virt. eigenvalues --    1.73540   1.74734   1.75967   1.76265   1.77716
 Alpha virt. eigenvalues --    1.79317   1.80374   1.81117   1.82034   1.83007
 Alpha virt. eigenvalues --    1.85331   1.87545   1.88416   1.89441   1.89803
 Alpha virt. eigenvalues --    1.91269   1.92991   1.94428   1.95128   1.96155
 Alpha virt. eigenvalues --    1.97775   2.00808   2.02292   2.02950   2.05675
 Alpha virt. eigenvalues --    2.05967   2.07068   2.07980   2.08804   2.09328
 Alpha virt. eigenvalues --    2.10646   2.11539   2.13527   2.14349   2.15930
 Alpha virt. eigenvalues --    2.17493   2.18717   2.20116   2.21830   2.22524
 Alpha virt. eigenvalues --    2.24675   2.25610   2.28564   2.29364   2.29920
 Alpha virt. eigenvalues --    2.31507   2.33736   2.33781   2.35227   2.37031
 Alpha virt. eigenvalues --    2.38792   2.41742   2.43247   2.43967   2.47033
 Alpha virt. eigenvalues --    2.47924   2.49355   2.49714   2.51210   2.51975
 Alpha virt. eigenvalues --    2.55795   2.57526   2.61117   2.62839   2.65826
 Alpha virt. eigenvalues --    2.74901   2.81674   2.84753   2.85906   2.88153
 Alpha virt. eigenvalues --    2.91866   2.93570   2.96836   3.00342   3.03898
 Alpha virt. eigenvalues --    3.10600   3.18964   3.25191   3.26143   3.34084
 Alpha virt. eigenvalues --    3.44650   3.53085   3.57498   3.64564   3.75916
 Alpha virt. eigenvalues --    3.78036   3.80676   3.87929   3.88752   4.24099
 Alpha virt. eigenvalues --    4.24585   4.48436
          Condensed to atoms (all electrons):
               1          2          3          4          5          6
     1  C    7.376573  -1.735300  -0.202735   0.114234  -0.190348  -0.515676
     2  C   -1.735300   9.563625  -1.709677   0.518162   0.208402  -0.227132
     3  C   -0.202735  -1.709677  11.458660  -1.432013  -0.096072   0.134858
     4  C    0.114234   0.518162  -1.432013   6.490871   0.021721   0.385195
     5  H   -0.190348   0.208402  -0.096072   0.021721   1.659870  -0.013704
     6  S   -0.515676  -0.227132   0.134858   0.385195  -0.013704  16.357207
     7  H    0.039227   0.017747   0.090500   0.176003  -0.065985  -0.172881
     8  C    0.584322  -0.498006  -2.270344   0.343245   0.032101  -0.736499
     9  S   -0.006629   0.163768  -0.551138   0.004073  -0.001621   0.063356
    10  C    0.015868   0.040621  -0.462193   0.035037   0.002306  -0.025158
    11  C   -0.033613  -0.028599   0.502826  -0.011354  -0.002166   0.104553
    12  C   -0.115035  -0.084398   0.158289  -0.180899  -0.009682   0.250840
    13  H   -0.003980   0.049740   0.029132   0.005127  -0.000161   0.027288
    14  S    0.001322  -0.005557  -0.059396  -0.002285   0.000090   0.001834
    15  C   -0.001871  -0.002363   0.033641   0.000555  -0.000106   0.002655
    16  C    0.004637   0.029472  -0.367534  -0.001151   0.000091  -0.012188
    17  H   -0.000078   0.000376  -0.000483   0.000028  -0.000004   0.000096
    18  H    0.000372  -0.000520  -0.011825  -0.000143   0.000029   0.000365
    19  O    0.105602  -0.702858   0.346326  -0.111446  -0.080679   0.004561
    20  H   -0.118806   0.006047  -0.071105  -0.017817  -0.012434   0.018716
               7          8          9         10         11         12
     1  C    0.039227   0.584322  -0.006629   0.015868  -0.033613  -0.115035
     2  C    0.017747  -0.498006   0.163768   0.040621  -0.028599  -0.084398
     3  C    0.090500  -2.270344  -0.551138  -0.462193   0.502826   0.158289
     4  C    0.176003   0.343245   0.004073   0.035037  -0.011354  -0.180899
     5  H   -0.065985   0.032101  -0.001621   0.002306  -0.002166  -0.009682
     6  S   -0.172881  -0.736499   0.063356  -0.025158   0.104553   0.250840
     7  H    1.253613  -0.016557   0.000428  -0.000222   0.000550   0.005803
     8  C   -0.016557  13.639323   0.197060   0.482273  -1.153704  -4.185108
     9  S    0.000428   0.197060  16.465419   0.210488  -0.432633  -0.353340
    10  C   -0.000222   0.482273   0.210488  11.269685  -0.581368  -2.097781
    11  C    0.000550  -1.153704  -0.432633  -0.581368  12.090756  -2.686440
    12  C    0.005803  -4.185108  -0.353340  -2.097781  -2.686440  15.755435
    13  H    0.000417  -0.015104   0.035267  -0.064134   0.746536  -1.003378
    14  S   -0.000155  -0.253690   0.089288  -0.097156  -0.232539  -0.001305
    15  C    0.000055   0.077379  -0.093435  -0.038697  -0.971507  -0.220170
    16  C   -0.000049  -0.834566  -0.205183  -2.560507  -1.084233   0.711774
    17  H    0.000003   0.005482   0.006703   0.066405  -0.036894   0.028938
    18  H   -0.000015   0.134269   0.011203   0.611461   0.038260  -0.074585
    19  O   -0.000719  -0.120424   0.017699  -0.002413   0.011170   0.085987
    20  H    0.000892   0.035050  -0.003084   0.002244   0.002922  -0.011306
              13         14         15         16         17         18
     1  C   -0.003980   0.001322  -0.001871   0.004637  -0.000078   0.000372
     2  C    0.049740  -0.005557  -0.002363   0.029472   0.000376  -0.000520
     3  C    0.029132  -0.059396   0.033641  -0.367534  -0.000483  -0.011825
     4  C    0.005127  -0.002285   0.000555  -0.001151   0.000028  -0.000143
     5  H   -0.000161   0.000090  -0.000106   0.000091  -0.000004   0.000029
     6  S    0.027288   0.001834   0.002655  -0.012188   0.000096   0.000365
     7  H    0.000417  -0.000155   0.000055  -0.000049   0.000003  -0.000015
     8  C   -0.015104  -0.253690   0.077379  -0.834566   0.005482   0.134269
     9  S    0.035267   0.089288  -0.093435  -0.205183   0.006703   0.011203
    10  C   -0.064134  -0.097156  -0.038697  -2.560507   0.066405   0.611461
    11  C    0.746536  -0.232539  -0.971507  -1.084233  -0.036894   0.038260
    12  C   -1.003378  -0.001305  -0.220170   0.711774   0.028938  -0.074585
    13  H    1.691385  -0.039558   0.020334  -0.049894   0.001614  -0.002167
    14  S   -0.039558  15.939389   0.182190  -0.004765  -0.159765  -0.007400
    15  C    0.020334   0.182190   6.923683   0.100773   0.186828  -0.113620
    16  C   -0.049894  -0.004765   0.100773  10.212247   0.054139  -0.634892
    17  H    0.001614  -0.159765   0.186828   0.054139   1.293135  -0.068803
    18  H   -0.002167  -0.007400  -0.113620  -0.634892  -0.068803   1.445390
    19  O    0.002983  -0.000781  -0.000203  -0.004574  -0.000066   0.000164
    20  H    0.001346  -0.000064   0.000211   0.000684   0.000015  -0.000014
              19         20
     1  C    0.105602  -0.118806
     2  C   -0.702858   0.006047
     3  C    0.346326  -0.071105
     4  C   -0.111446  -0.017817
     5  H   -0.080679  -0.012434
     6  S    0.004561   0.018716
     7  H   -0.000719   0.000892
     8  C   -0.120424   0.035050
     9  S    0.017699  -0.003084
    10  C   -0.002413   0.002244
    11  C    0.011170   0.002922
    12  C    0.085987  -0.011306
    13  H    0.002983   0.001346
    14  S   -0.000781  -0.000064
    15  C   -0.000203   0.000211
    16  C   -0.004574   0.000684
    17  H   -0.000066   0.000015
    18  H    0.000164  -0.000014
    19  O    9.013614   0.374486
    20  H    0.374486   0.631092
 Mulliken charges:
               1
     1  C    0.681914
     2  C    0.396449
     3  C    0.480283
     4  C   -0.337143
     5  H   -0.451649
     6  S    0.351716
     7  H   -0.328654
     8  C    0.553497
     9  S    0.382310
    10  C   -0.806757
    11  C   -0.242522
    12  C    0.026362
    13  H   -0.432793
    14  S    0.650303
    15  C   -0.086330
    16  C    0.645719
    17  H   -0.377671
    18  H   -0.327531
    19  O   -0.938429
    20  H    0.160925
 Sum of Mulliken charges =  -0.00000
 Mulliken charges with hydrogens summed into heavy atoms:
               1
     1  C    0.230265
     2  C    0.396449
     3  C    0.480283
     4  C   -0.665797
     6  S    0.351716
     8  C    0.553497
     9  S    0.382310
    10  C   -0.806757
    11  C   -0.242522
    12  C   -0.406431
    14  S    0.650303
    15  C   -0.464001
    16  C    0.318188
    19  O   -0.777504
 Electronic spatial extent (au):  <R**2>=           4301.5415
 Charge=              0.0000 electrons
 Dipole moment (field-independent basis, Debye):
    X=             -2.1599    Y=              1.1953    Z=              0.1084  Tot=              2.4709
 Quadrupole moment (field-independent basis, Debye-Ang):
   XX=            -76.9880   YY=           -102.7517   ZZ=           -102.9937
   XY=             -6.9851   XZ=              4.3317   YZ=              0.0029
 Traceless Quadrupole moment (field-independent basis, Debye-Ang):
   XX=             17.2565   YY=             -8.5072   ZZ=             -8.7492
   XY=             -6.9851   XZ=              4.3317   YZ=              0.0029
 Octapole moment (field-independent basis, Debye-Ang**2):
  XXX=            -47.8817  YYY=             28.8653  ZZZ=              3.4003  XYY=            -42.3322
  XXY=             21.9538  XXZ=             17.6280  XZZ=             11.5840  YZZ=              3.7767
  YYZ=              1.6636  XYZ=             -7.6706
 Hexadecapole moment (field-independent basis, Debye-Ang**3):
 XXXX=          -3982.6767 YYYY=           -525.3039 ZZZZ=           -596.6222 XXXY=            -80.1996
 XXXZ=             78.4577 YYYX=            -96.6509 YYYZ=             16.4146 ZZZX=             17.8257
 ZZZY=             -7.4691 XXYY=           -823.9641 XXZZ=           -931.9610 YYZZ=           -213.2913
 XXYZ=             14.9187 YYXZ=             -7.5032 ZZXY=            -13.3361
 N-N= 1.126305723443D+03 E-N=-6.160087229094D+03  KE= 1.649560856406D+03
 Unable to Open any file for archive entry.
 1\1\GINC-CX3-3-18\FOpt\RHF\Aug-CC-pVDZ\C10H6O1S3\NS5018\25-Oct-2021\0\
 \# opt=modredundant hf/aug-cc-pvdz\\pBTTT_90.pdb\\0,1\C,-4.1232200581,
 -1.1803922943,-0.2285044022\C,-2.7425156952,-1.0250523839,-0.600766562
 1\C,-2.0413071072,-2.1817746183,-0.5814424367\C,-4.4282867242,-2.45996
 01077,0.0693949777\H,-4.8310476914,-0.3653986396,-0.1940093431\S,-3.07
 15062758,-3.5074406243,-0.0920983899\H,-5.3859562038,-2.8472376634,0.3
 734710004\C,-0.616697778,-2.3803799955,-0.8982551176\S,0.6022180679,-2
 .2597999923,0.3640156041\C,1.860320234,-2.6046307006,-0.7805139686\C,1
 .348121221,-2.7945115591,-2.0308238195\C,-0.0777568147,-2.6692225614,-
 2.1027150223\H,-0.6665653292,-2.7833013872,-2.9980757332\S,2.606526882
 ,-3.1384003335,-3.1788286954\C,3.8098278475,-3.0143165331,-1.922291113
 7\C,3.2886538186,-2.7308182135,-0.7106133216\H,4.8484930142,-3.1625532
 611,-2.1647197238\H,3.8771746206,-2.616153249,0.1849635469\O,-2.186477
 3454,0.1548028576,-0.9445130216\H,-2.8079986828,0.85754126,-0.85767445
 78\\Version=ES64L-G16RevC.01\State=1-A\HF=-1649.6414407\RMSD=6.739e-09
 \RMSF=2.155e-05\Dipole=-0.768962,0.5837303,0.1140106\Quadrupole=12.289
 4343,-4.7254954,-7.5639389,-6.6200747,-0.7102144,1.0886946\PG=C01 [X(C
 10H6O1S3)]\\@
 The archive entry for this job was punched.


 ART, GLORY, FREEDOM FAIL, BUT NATURE STILL IS FAIR.

                                           -- BYRON
 Job cpu time:       0 days  5 hours 56 minutes  5.2 seconds.
 Elapsed time:       0 days  0 hours 44 minutes 55.7 seconds.
 File lengths (MBytes):  RWF=     95 Int=      0 D2E=      0 Chk=     12 Scr=      1
 Normal termination of Gaussian 16 at Mon Oct 25 23:42:44 2021.
