 Entering Gaussian System, Link 0=g16
 Input=pBTTT_5.gjf
 Output=pBTTT_5.log
 Initial command:
 /apps/gaussian/g16-c01-avx/g16/l1.exe "/tmp/pbs.4762170[180].pbs/Gau-306955.inp" -scrdir="/tmp/pbs.4762170[180].pbs/"
 Entering Link 1 = /apps/gaussian/g16-c01-avx/g16/l1.exe PID=    306956.
  
 Copyright (c) 1988-2019, Gaussian, Inc.  All Rights Reserved.
  
 This is part of the Gaussian(R) 16 program.  It is based on
 the Gaussian(R) 09 system (copyright 2009, Gaussian, Inc.),
 the Gaussian(R) 03 system (copyright 2003, Gaussian, Inc.),
 the Gaussian(R) 98 system (copyright 1998, Gaussian, Inc.),
 the Gaussian(R) 94 system (copyright 1995, Gaussian, Inc.),
 the Gaussian 92(TM) system (copyright 1992, Gaussian, Inc.),
 the Gaussian 90(TM) system (copyright 1990, Gaussian, Inc.),
 the Gaussian 88(TM) system (copyright 1988, Gaussian, Inc.),
 the Gaussian 86(TM) system (copyright 1986, Carnegie Mellon
 University), and the Gaussian 82(TM) system (copyright 1983,
 Carnegie Mellon University). Gaussian is a federally registered
 trademark of Gaussian, Inc.
  
 This software contains proprietary and confidential information,
 including trade secrets, belonging to Gaussian, Inc.
  
 This software is provided under written license and may be
 used, copied, transmitted, or stored only in accord with that
 written license.
  
 The following legend is applicable only to US Government
 contracts under FAR:
  
                    RESTRICTED RIGHTS LEGEND
  
 Use, reproduction and disclosure by the US Government is
 subject to restrictions as set forth in subparagraphs (a)
 and (c) of the Commercial Computer Software - Restricted
 Rights clause in FAR 52.227-19.
  
 Gaussian, Inc.
 340 Quinnipiac St., Bldg. 40, Wallingford CT 06492
  
  
 ---------------------------------------------------------------
 Warning -- This program may not be used in any manner that
 competes with the business of Gaussian, Inc. or will provide
 assistance to any competitor of Gaussian, Inc.  The licensee
 of this program is prohibited from giving any competitor of
 Gaussian, Inc. access to this program.  By using this program,
 the user acknowledges that Gaussian, Inc. is engaged in the
 business of creating and licensing software in the field of
 computational chemistry and represents and warrants to the
 licensee that it is not a competitor of Gaussian, Inc. and that
 it will not use this program in any manner prohibited above.
 ---------------------------------------------------------------
  

 Cite this work as:
 Gaussian 16, Revision C.01,
 M. J. Frisch, G. W. Trucks, H. B. Schlegel, G. E. Scuseria, 
 M. A. Robb, J. R. Cheeseman, G. Scalmani, V. Barone, 
 G. A. Petersson, H. Nakatsuji, X. Li, M. Caricato, A. V. Marenich, 
 J. Bloino, B. G. Janesko, R. Gomperts, B. Mennucci, H. P. Hratchian, 
 J. V. Ortiz, A. F. Izmaylov, J. L. Sonnenberg, D. Williams-Young, 
 F. Ding, F. Lipparini, F. Egidi, J. Goings, B. Peng, A. Petrone, 
 T. Henderson, D. Ranasinghe, V. G. Zakrzewski, J. Gao, N. Rega, 
 G. Zheng, W. Liang, M. Hada, M. Ehara, K. Toyota, R. Fukuda, 
 J. Hasegawa, M. Ishida, T. Nakajima, Y. Honda, O. Kitao, H. Nakai, 
 T. Vreven, K. Throssell, J. A. Montgomery, Jr., J. E. Peralta, 
 F. Ogliaro, M. J. Bearpark, J. J. Heyd, E. N. Brothers, K. N. Kudin, 
 V. N. Staroverov, T. A. Keith, R. Kobayashi, J. Normand, 
 K. Raghavachari, A. P. Rendell, J. C. Burant, S. S. Iyengar, 
 J. Tomasi, M. Cossi, J. M. Millam, M. Klene, C. Adamo, R. Cammi, 
 J. W. Ochterski, R. L. Martin, K. Morokuma, O. Farkas, 
 J. B. Foresman, and D. J. Fox, Gaussian, Inc., Wallingford CT, 2019.
 
 ******************************************
 Gaussian 16:  ES64L-G16RevC.01  3-Jul-2019
                25-Oct-2021 
 ******************************************
 %mem=100GB
 %nprocshared=8
 Will use up to    8 processors via shared memory.
 ---------------------------------
 # opt=modredundant hf/aug-cc-pvdz
 ---------------------------------
 1/18=120,19=15,38=1/1,3;
 2/9=110,12=2,17=6,18=5,40=1/2;
 3/5=16,7=10,11=9,25=1,30=1,71=1/1,2,3;
 4//1;
 5/5=2,38=5/2;
 6/7=2,8=2,9=2,10=2,28=1/1;
 7//1,2,3,16;
 1/18=20,19=15/3(2);
 2/9=110/2;
 99//99;
 2/9=110/2;
 3/5=16,7=10,11=9,25=1,30=1,71=1/1,2,3;
 4/5=5,16=3,69=1/1;
 5/5=2,38=5/2;
 7//1,2,3,16;
 1/18=20,19=15/3(-5);
 2/9=110/2;
 6/7=2,8=2,9=2,10=2,19=2,28=1/1;
 99/9=1/99;
 -----------
 pBTTT_5.pdb
 -----------
 Symbolic Z-matrix:
 Charge =  0 Multiplicity = 1
 C                    -4.25     -1.36     -0.21 
 C                    -2.93     -0.95     -0.61 
 C                    -1.97     -2.05     -0.62 
 C                    -4.33     -2.76      0.1 
 H                    -5.1      -0.7      -0.14 
 S                    -2.8      -3.56     -0.11 
 H                    -5.23     -3.27      0.41 
 C                    -0.56     -2.13     -0.97 
 S                     0.395    -0.677    -1.396 
 C                     1.84     -1.596    -1.643 
 C                     1.648    -3.001    -1.386 
 C                     0.306    -3.311    -0.99 
 H                     0.016    -4.275    -0.602 
 S                     3.113    -3.802    -0.923 
 C                     4.028    -2.3      -1.072 
 C                     3.192    -1.184    -1.452 
 H                     5.049    -2.208    -0.731 
 H                     3.501    -0.15     -1.329 
 O                    -2.4       0.49     -0.72 
 H                    -2.92      1.52     -0.76 
 
 Add virtual bond connecting atoms H20        and O19        Dist= 2.18D+00.
 The following ModRedundant input section has been read:
 D       2       3       8       9 F                                           
 

 GradGradGradGradGradGradGradGradGradGradGradGradGradGradGradGradGradGrad
 Berny optimization.
 Initialization pass.
                           ----------------------------
                           !    Initial Parameters    !
                           ! (Angstroms and Degrees)  !
 --------------------------                            --------------------------
 ! Name  Definition              Value          Derivative Info.                !
 --------------------------------------------------------------------------------
 ! R1    R(1,2)                  1.4389         estimate D2E/DX2                !
 ! R2    R(1,4)                  1.4361         estimate D2E/DX2                !
 ! R3    R(1,5)                  1.0784         estimate D2E/DX2                !
 ! R4    R(2,3)                  1.46           estimate D2E/DX2                !
 ! R5    R(2,19)                 1.5384         estimate D2E/DX2                !
 ! R6    R(3,6)                  1.797          estimate D2E/DX2                !
 ! R7    R(3,8)                  1.455          estimate D2E/DX2                !
 ! R8    R(4,6)                  1.7393         estimate D2E/DX2                !
 ! R9    R(4,7)                  1.0799         estimate D2E/DX2                !
 ! R10   R(8,9)                  1.7902         estimate D2E/DX2                !
 ! R11   R(8,12)                 1.4646         estimate D2E/DX2                !
 ! R12   R(9,10)                 1.7302         estimate D2E/DX2                !
 ! R13   R(10,11)                1.4412         estimate D2E/DX2                !
 ! R14   R(10,16)                1.4262         estimate D2E/DX2                !
 ! R15   R(11,12)                1.4331         estimate D2E/DX2                !
 ! R16   R(11,14)                1.7327         estimate D2E/DX2                !
 ! R17   R(12,13)                1.0789         estimate D2E/DX2                !
 ! R18   R(14,15)                1.7651         estimate D2E/DX2                !
 ! R19   R(15,16)                1.4453         estimate D2E/DX2                !
 ! R20   R(15,17)                1.0804         estimate D2E/DX2                !
 ! R21   R(16,18)                1.0862         estimate D2E/DX2                !
 ! R22   R(19,20)                1.1545         estimate D2E/DX2                !
 ! A1    A(2,1,4)              112.8843         estimate D2E/DX2                !
 ! A2    A(2,1,5)              124.5209         estimate D2E/DX2                !
 ! A3    A(4,1,5)              122.5942         estimate D2E/DX2                !
 ! A4    A(1,2,3)              112.9799         estimate D2E/DX2                !
 ! A5    A(1,2,19)             127.059          estimate D2E/DX2                !
 ! A6    A(3,2,19)             118.5686         estimate D2E/DX2                !
 ! A7    A(2,3,6)              109.1138         estimate D2E/DX2                !
 ! A8    A(2,3,8)              132.8639         estimate D2E/DX2                !
 ! A9    A(6,3,8)              118.0132         estimate D2E/DX2                !
 ! A10   A(1,4,6)              111.9209         estimate D2E/DX2                !
 ! A11   A(1,4,7)              124.6643         estimate D2E/DX2                !
 ! A12   A(6,4,7)              123.4062         estimate D2E/DX2                !
 ! A13   A(3,6,4)               93.0997         estimate D2E/DX2                !
 ! A14   A(3,8,9)              121.9777         estimate D2E/DX2                !
 ! A15   A(3,8,12)             128.3611         estimate D2E/DX2                !
 ! A16   A(9,8,12)             109.6212         estimate D2E/DX2                !
 ! A17   A(8,9,10)              92.7738         estimate D2E/DX2                !
 ! A18   A(9,10,11)            112.402          estimate D2E/DX2                !
 ! A19   A(9,10,16)            128.2535         estimate D2E/DX2                !
 ! A20   A(11,10,16)           112.5839         estimate D2E/DX2                !
 ! A21   A(10,11,12)           112.6382         estimate D2E/DX2                !
 ! A22   A(10,11,14)           112.6871         estimate D2E/DX2                !
 ! A23   A(12,11,14)           128.1635         estimate D2E/DX2                !
 ! A24   A(8,12,11)            112.5215         estimate D2E/DX2                !
 ! A25   A(8,12,13)            123.8248         estimate D2E/DX2                !
 ! A26   A(11,12,13)           122.9811         estimate D2E/DX2                !
 ! A27   A(11,14,15)            91.2813         estimate D2E/DX2                !
 ! A28   A(14,15,16)           112.2985         estimate D2E/DX2                !
 ! A29   A(14,15,17)           122.3936         estimate D2E/DX2                !
 ! A30   A(16,15,17)           124.3256         estimate D2E/DX2                !
 ! A31   A(10,16,15)           111.1302         estimate D2E/DX2                !
 ! A32   A(10,16,18)           124.045          estimate D2E/DX2                !
 ! A33   A(15,16,18)           122.7354         estimate D2E/DX2                !
 ! A34   A(2,19,20)            133.0318         estimate D2E/DX2                !
 ! D1    D(4,1,2,3)              0.3915         estimate D2E/DX2                !
 ! D2    D(4,1,2,19)          -165.8104         estimate D2E/DX2                !
 ! D3    D(5,1,2,3)           -179.8811         estimate D2E/DX2                !
 ! D4    D(5,1,2,19)            13.9169         estimate D2E/DX2                !
 ! D5    D(2,1,4,6)             -0.3845         estimate D2E/DX2                !
 ! D6    D(2,1,4,7)           -179.3471         estimate D2E/DX2                !
 ! D7    D(5,1,4,6)            179.8822         estimate D2E/DX2                !
 ! D8    D(5,1,4,7)              0.9196         estimate D2E/DX2                !
 ! D9    D(1,2,3,6)             -0.2224         estimate D2E/DX2                !
 ! D10   D(1,2,3,8)            178.6265         estimate D2E/DX2                !
 ! D11   D(19,2,3,6)           167.2616         estimate D2E/DX2                !
 ! D12   D(19,2,3,8)           -13.8895         estimate D2E/DX2                !
 ! D13   D(1,2,19,20)          -16.0519         estimate D2E/DX2                !
 ! D14   D(3,2,19,20)          178.4264         estimate D2E/DX2                !
 ! D15   D(2,3,6,4)              0.0033         estimate D2E/DX2                !
 ! D16   D(8,3,6,4)           -179.041          estimate D2E/DX2                !
 ! D17   D(2,3,8,9)              5.0133         Frozen                          !
 ! D18   D(2,3,8,12)          -177.5343         estimate D2E/DX2                !
 ! D19   D(6,3,8,9)           -176.2187         estimate D2E/DX2                !
 ! D20   D(6,3,8,12)             1.2337         estimate D2E/DX2                !
 ! D21   D(1,4,6,3)              0.2153         estimate D2E/DX2                !
 ! D22   D(7,4,6,3)            179.1932         estimate D2E/DX2                !
 ! D23   D(3,8,9,10)           179.7845         estimate D2E/DX2                !
 ! D24   D(12,8,9,10)            1.905          estimate D2E/DX2                !
 ! D25   D(3,8,12,11)         -179.8498         estimate D2E/DX2                !
 ! D26   D(3,8,12,13)           -9.0206         estimate D2E/DX2                !
 ! D27   D(9,8,12,11)           -2.1439         estimate D2E/DX2                !
 ! D28   D(9,8,12,13)          168.6853         estimate D2E/DX2                !
 ! D29   D(8,9,10,11)           -1.2179         estimate D2E/DX2                !
 ! D30   D(8,9,10,16)         -149.8637         estimate D2E/DX2                !
 ! D31   D(9,10,11,12)           0.174          estimate D2E/DX2                !
 ! D32   D(9,10,11,14)        -153.9812         estimate D2E/DX2                !
 ! D33   D(16,10,11,12)        153.9081         estimate D2E/DX2                !
 ! D34   D(16,10,11,14)         -0.2471         estimate D2E/DX2                !
 ! D35   D(9,10,16,15)         149.7148         estimate D2E/DX2                !
 ! D36   D(9,10,16,18)         -14.1863         estimate D2E/DX2                !
 ! D37   D(11,10,16,15)          1.115          estimate D2E/DX2                !
 ! D38   D(11,10,16,18)       -162.7861         estimate D2E/DX2                !
 ! D39   D(10,11,12,8)           1.3061         estimate D2E/DX2                !
 ! D40   D(10,11,12,13)       -169.6125         estimate D2E/DX2                !
 ! D41   D(14,11,12,8)         150.539          estimate D2E/DX2                !
 ! D42   D(14,11,12,13)        -20.3795         estimate D2E/DX2                !
 ! D43   D(10,11,14,15)         -0.5276         estimate D2E/DX2                !
 ! D44   D(12,11,14,15)       -149.7484         estimate D2E/DX2                !
 ! D45   D(11,14,15,16)          1.1678         estimate D2E/DX2                !
 ! D46   D(11,14,15,17)        170.275          estimate D2E/DX2                !
 ! D47   D(14,15,16,10)         -1.5073         estimate D2E/DX2                !
 ! D48   D(14,15,16,18)        162.6409         estimate D2E/DX2                !
 ! D49   D(17,15,16,10)       -170.3669         estimate D2E/DX2                !
 ! D50   D(17,15,16,18)         -6.2186         estimate D2E/DX2                !
 --------------------------------------------------------------------------------
 Trust Radius=3.00D-01 FncErr=1.00D-07 GrdErr=1.00D-07 EigMax=2.50D+02 EigMin=1.00D-04
 Number of steps in this run=    116 maximum allowed number of steps=    120.
 GradGradGradGradGradGradGradGradGradGradGradGradGradGradGradGradGradGrad

                          Input orientation:                          
 ---------------------------------------------------------------------
 Center     Atomic      Atomic             Coordinates (Angstroms)
 Number     Number       Type             X           Y           Z
 ---------------------------------------------------------------------
      1          6           0       -4.250000   -1.360000   -0.210000
      2          6           0       -2.930000   -0.950000   -0.610000
      3          6           0       -1.970000   -2.050000   -0.620000
      4          6           0       -4.330000   -2.760000    0.100000
      5          1           0       -5.100000   -0.700000   -0.140000
      6         16           0       -2.800000   -3.560000   -0.110000
      7          1           0       -5.230000   -3.270000    0.410000
      8          6           0       -0.560000   -2.130000   -0.970000
      9         16           0        0.395000   -0.677000   -1.396000
     10          6           0        1.840000   -1.596000   -1.643000
     11          6           0        1.648000   -3.001000   -1.386000
     12          6           0        0.306000   -3.311000   -0.990000
     13          1           0        0.016000   -4.275000   -0.602000
     14         16           0        3.113000   -3.802000   -0.923000
     15          6           0        4.028000   -2.300000   -1.072000
     16          6           0        3.192000   -1.184000   -1.452000
     17          1           0        5.049000   -2.208000   -0.731000
     18          1           0        3.501000   -0.150000   -1.329000
     19          8           0       -2.400000    0.490000   -0.720000
     20          1           0       -2.920000    1.520000   -0.760000
 ---------------------------------------------------------------------
                    Distance matrix (angstroms):
                    1          2          3          4          5
     1  C    0.000000
     2  C    1.438923   0.000000
     3  C    2.417147   1.460034   0.000000
     4  C    1.436141   2.395871   2.567509   0.000000
     5  H    1.078425   2.234346   3.442354   2.212261   0.000000
     6  S    2.636759   2.660639   1.796970   1.739253   3.670218
     7  H    2.234480   3.422397   3.630000   1.079907   2.631406
     8  C    3.845335   2.671872   1.454991   3.969219   4.831708
     9  S    4.842428   3.427528   2.842627   5.376107   5.636762
    10  C    6.260774   4.923140   3.970988   6.516275   7.157194
    11  C    6.233960   5.076107   3.818518   6.164638   7.237584
    12  C    5.017164   4.023732   2.628155   4.794184   6.063387
    13  H    5.181664   4.442365   2.982473   4.655722   6.258396
    14  S    7.790090   6.689523   5.384998   7.584889   8.814129
    15  C    8.375675   7.102796   6.020200   8.452298   9.313915
    16  C    7.546980   6.184060   5.299851   7.840470   8.409094
    17  H    9.352109   8.078468   7.021656   9.431909  10.277429
    18  H    7.924283   6.520331   5.834768   8.377273   8.700197
    19  O    2.665539   1.538376   2.578081   3.867790   3.007075
    20  H    3.219596   2.474571   3.696891   4.587603   3.172570
                    6          7          8          9         10
     6  S    0.000000
     7  H    2.501879   0.000000
     8  C    2.793224   5.001290   0.000000
     9  S    4.491493   6.451814   1.790170   0.000000
    10  C    5.266591   7.549966   2.549134   1.730201   0.000000
    11  C    4.661047   7.113709   2.409764   2.640281   1.441159
    12  C    3.237844   5.710427   1.464622   2.666592   2.391817
    13  H    2.946718   5.436422   2.251272   3.704009   3.404071
    14  S    5.973533   8.465551   4.035929   4.168558   2.646765
    15  C    7.009610   9.425910   4.592281   3.992217   2.368333
    16  C    6.584102   8.874037   3.899326   2.843131   1.426229
    17  H    7.988764  10.396517   5.614631   4.944280   3.391750
    18  H    7.267507   9.433392   4.532218   3.151104   2.224507
    19  O    4.115167   4.839773   3.211308   3.103368   4.814657
    20  H    5.122821   5.445099   4.351574   4.027472   5.757321
                   11         12         13         14         15
    11  C    0.000000
    12  C    1.433136   0.000000
    13  H    2.213855   1.078861   0.000000
    14  S    1.732684   2.850407   3.149314   0.000000
    15  C    2.500879   3.857736   4.496406   1.765058   0.000000
    16  C    2.385326   3.614771   4.512622   2.672079   1.445252
    17  H    3.553122   4.876447   5.442446   2.515114   1.080364
    18  H    3.400744   4.507202   5.448796   3.694927   2.228515
    19  O    5.386738   4.673643   5.343801   6.989681   7.016209
    20  H    6.457394   5.813651   6.498237   8.046573   7.935014
                   16         17         18         19         20
    16  C    0.000000
    17  H    2.239836   0.000000
    18  H    1.086170   2.643723   0.000000
    19  O    5.882904   7.922558   5.966765   0.000000
    20  H    6.719154   8.797942   6.658972   1.154513   0.000000
 Stoichiometry    C10H6OS3
 Framework group  C1[X(C10H6OS3)]
 Deg. of freedom    54
 Full point group                 C1      NOp   1
 Largest Abelian subgroup         C1      NOp   1
 Largest concise Abelian subgroup C1      NOp   1
                         Standard orientation:                         
 ---------------------------------------------------------------------
 Center     Atomic      Atomic             Coordinates (Angstroms)
 Number     Number       Type             X           Y           Z
 ---------------------------------------------------------------------
      1          6           0       -4.102260    0.304356    0.104006
      2          6           0       -2.790293    0.885550   -0.003037
      3          6           0       -1.727070   -0.113534   -0.058595
      4          6           0       -4.075831   -1.131048    0.141621
      5          1           0       -5.018895    0.870080    0.156328
      6         16           0       -2.455307   -1.753637    0.035384
      7          1           0       -4.951111   -1.759916    0.209512
      8          6           0       -0.281494   -0.014233   -0.190695
      9         16           0        0.564079    1.563648   -0.193620
     10          6           0        2.118742    0.825184   -0.370499
     11          6           0        2.042872   -0.613612   -0.402895
     12          6           0        0.699193   -1.097941   -0.285285
     13          1           0        0.461680   -2.138344   -0.126889
     14         16           0        3.505220   -1.372203    0.134016
     15          6           0        4.267403    0.196996    0.402570
     16          6           0        3.379193    1.296708    0.101791
     17          1           0        5.214961    0.300757    0.911052
     18          1           0        3.556383    2.308384    0.455175
     19          8           0       -2.405998    2.356552    0.231631
     20          1           0       -3.021637    3.331140    0.295407
 ---------------------------------------------------------------------
 Rotational constants (GHZ):           1.1596534           0.2813703           0.2287559
 Standard basis: Aug-CC-pVDZ (5D, 7F)
 There are   416 symmetry adapted cartesian basis functions of A   symmetry.
 There are   388 symmetry adapted basis functions of A   symmetry.
   388 basis functions,   782 primitive gaussians,   416 cartesian basis functions
    61 alpha electrons       61 beta electrons
       nuclear repulsion energy      1105.1972919531 Hartrees.
 NAtoms=   20 NActive=   20 NUniq=   20 SFac= 1.00D+00 NAtFMM=   60 NAOKFM=F Big=F
 Integral buffers will be    131072 words long.
 Raffenetti 1 integral format.
 Two-electron integral symmetry is turned on.
 One-electron integrals computed using PRISM.
 NBasis=   388 RedAO= T EigKep=  5.00D-06  NBF=   388
 NBsUse=   388 1.00D-06 EigRej= -1.00D+00 NBFU=   388
 ExpMin= 2.97D-02 ExpMax= 1.11D+05 ExpMxC= 1.07D+03 IAcc=3 IRadAn=         5 AccDes= 0.00D+00
 Harris functional with IExCor=  205 and IRadAn=       5 diagonalized for initial guess.
 HarFok:  IExCor=  205 AccDes= 0.00D+00 IRadAn=         5 IDoV= 1 UseB2=F ITyADJ=14
 ICtDFT=  3500011 ScaDFX=  1.000000  1.000000  1.000000  1.000000
 FoFCou: FMM=F IPFlag=           0 FMFlag=      100000 FMFlg1=           0
         NFxFlg=           0 DoJE=T BraDBF=F KetDBF=T FulRan=T
         wScrn=  0.000000 ICntrl=       500 IOpCl=  0 I1Cent=   200000004 NGrid=           0
         NMat0=    1 NMatS0=      1 NMatT0=    0 NMatD0=    1 NMtDS0=    0 NMtDT0=    0
 Petite list used in FoFCou.
 Requested convergence on RMS density matrix=1.00D-08 within 128 cycles.
 Requested convergence on MAX density matrix=1.00D-06.
 Requested convergence on             energy=1.00D-06.
 No special actions if energy rises.
 SCF Done:  E(RHF) =  -1649.50867078     A.U. after   18 cycles
            NFock= 18  Conv=0.64D-08     -V/T= 2.0013

 **********************************************************************

            Population analysis using the SCF Density.

 **********************************************************************

 Orbital symmetries:
       Occupied  (A) (A) (A) (A) (A) (A) (A) (A) (A) (A) (A) (A)
                 (A) (A) (A) (A) (A) (A) (A) (A) (A) (A) (A) (A)
                 (A) (A) (A) (A) (A) (A) (A) (A) (A) (A) (A) (A)
                 (A) (A) (A) (A) (A) (A) (A) (A) (A) (A) (A) (A)
                 (A) (A) (A) (A) (A) (A) (A) (A) (A) (A) (A) (A)
                 (A)
       Virtual   (A) (A) (A) (A) (A) (A) (A) (A) (A) (A) (A) (A)
                 (A) (A) (A) (A) (A) (A) (A) (A) (A) (A) (A) (A)
                 (A) (A) (A) (A) (A) (A) (A) (A) (A) (A) (A) (A)
                 (A) (A) (A) (A) (A) (A) (A) (A) (A) (A) (A) (A)
                 (A) (A) (A) (A) (A) (A) (A) (A) (A) (A) (A) (A)
                 (A) (A) (A) (A) (A) (A) (A) (A) (A) (A) (A) (A)
                 (A) (A) (A) (A) (A) (A) (A) (A) (A) (A) (A) (A)
                 (A) (A) (A) (A) (A) (A) (A) (A) (A) (A) (A) (A)
                 (A) (A) (A) (A) (A) (A) (A) (A) (A) (A) (A) (A)
                 (A) (A) (A) (A) (A) (A) (A) (A) (A) (A) (A) (A)
                 (A) (A) (A) (A) (A) (A) (A) (A) (A) (A) (A) (A)
                 (A) (A) (A) (A) (A) (A) (A) (A) (A) (A) (A) (A)
                 (A) (A) (A) (A) (A) (A) (A) (A) (A) (A) (A) (A)
                 (A) (A) (A) (A) (A) (A) (A) (A) (A) (A) (A) (A)
                 (A) (A) (A) (A) (A) (A) (A) (A) (A) (A) (A) (A)
                 (A) (A) (A) (A) (A) (A) (A) (A) (A) (A) (A) (A)
                 (A) (A) (A) (A) (A) (A) (A) (A) (A) (A) (A) (A)
                 (A) (A) (A) (A) (A) (A) (A) (A) (A) (A) (A) (A)
                 (A) (A) (A) (A) (A) (A) (A) (A) (A) (A) (A) (A)
                 (A) (A) (A) (A) (A) (A) (A) (A) (A) (A) (A) (A)
                 (A) (A) (A) (A) (A) (A) (A) (A) (A) (A) (A) (A)
                 (A) (A) (A) (A) (A) (A) (A) (A) (A) (A) (A) (A)
                 (A) (A) (A) (A) (A) (A) (A) (A) (A) (A) (A) (A)
                 (A) (A) (A) (A) (A) (A) (A) (A) (A) (A) (A) (A)
                 (A) (A) (A) (A) (A) (A) (A) (A) (A) (A) (A) (A)
                 (A) (A) (A) (A) (A) (A) (A) (A) (A) (A) (A) (A)
                 (A) (A) (A) (A) (A) (A) (A) (A) (A) (A) (A) (A)
                 (A) (A) (A)
 The electronic state is 1-A.
 Alpha  occ. eigenvalues --  -92.00759 -91.99612 -91.99195 -20.60719 -11.35183
 Alpha  occ. eigenvalues --  -11.31011 -11.30844 -11.29972 -11.28905 -11.28223
 Alpha  occ. eigenvalues --  -11.27917 -11.27541 -11.27076 -11.26837  -9.00744
 Alpha  occ. eigenvalues --   -8.99672  -8.99210  -6.68908  -6.68810  -6.68632
 Alpha  occ. eigenvalues --   -6.67839  -6.67750  -6.67560  -6.67366  -6.67269
 Alpha  occ. eigenvalues --   -6.67078  -1.31137  -1.19364  -1.16175  -1.10188
 Alpha  occ. eigenvalues --   -1.02865  -1.01100  -0.98646  -0.93922  -0.92661
 Alpha  occ. eigenvalues --   -0.82747  -0.78208  -0.76751  -0.71390  -0.70776
 Alpha  occ. eigenvalues --   -0.68584  -0.65450  -0.62222  -0.60440  -0.57612
 Alpha  occ. eigenvalues --   -0.56646  -0.55108  -0.54401  -0.53647  -0.52164
 Alpha  occ. eigenvalues --   -0.51048  -0.49951  -0.49766  -0.47947  -0.45527
 Alpha  occ. eigenvalues --   -0.45400  -0.39260  -0.35251  -0.34516  -0.31395
 Alpha  occ. eigenvalues --   -0.25245
 Alpha virt. eigenvalues --    0.02668   0.03522   0.03693   0.03939   0.04946
 Alpha virt. eigenvalues --    0.05147   0.05980   0.08415   0.08876   0.09476
 Alpha virt. eigenvalues --    0.10055   0.10266   0.10833   0.11058   0.11221
 Alpha virt. eigenvalues --    0.11826   0.12340   0.12465   0.12891   0.13546
 Alpha virt. eigenvalues --    0.13794   0.14163   0.14472   0.14704   0.15302
 Alpha virt. eigenvalues --    0.15466   0.15883   0.16085   0.16465   0.17050
 Alpha virt. eigenvalues --    0.17348   0.17482   0.17992   0.18687   0.19426
 Alpha virt. eigenvalues --    0.19590   0.19734   0.19973   0.20643   0.20796
 Alpha virt. eigenvalues --    0.21195   0.21926   0.22252   0.23102   0.23203
 Alpha virt. eigenvalues --    0.23591   0.24310   0.24619   0.24906   0.26104
 Alpha virt. eigenvalues --    0.26747   0.26887   0.27371   0.27564   0.28358
 Alpha virt. eigenvalues --    0.28453   0.29284   0.29421   0.30359   0.30813
 Alpha virt. eigenvalues --    0.31249   0.31401   0.31929   0.32827   0.33025
 Alpha virt. eigenvalues --    0.33356   0.33644   0.34724   0.35060   0.35870
 Alpha virt. eigenvalues --    0.35993   0.36738   0.37693   0.38162   0.38565
 Alpha virt. eigenvalues --    0.39703   0.40002   0.40284   0.41021   0.41317
 Alpha virt. eigenvalues --    0.41954   0.42344   0.42824   0.43399   0.44233
 Alpha virt. eigenvalues --    0.44829   0.45189   0.45809   0.46568   0.47059
 Alpha virt. eigenvalues --    0.48162   0.49312   0.49392   0.49985   0.50745
 Alpha virt. eigenvalues --    0.51077   0.51811   0.52521   0.53502   0.53965
 Alpha virt. eigenvalues --    0.54314   0.55572   0.55908   0.56833   0.57588
 Alpha virt. eigenvalues --    0.58589   0.59972   0.60440   0.60974   0.61272
 Alpha virt. eigenvalues --    0.61924   0.62639   0.63140   0.64043   0.64450
 Alpha virt. eigenvalues --    0.64678   0.65477   0.65831   0.66564   0.67394
 Alpha virt. eigenvalues --    0.67710   0.68328   0.68357   0.68706   0.69509
 Alpha virt. eigenvalues --    0.69585   0.70762   0.71149   0.72323   0.73112
 Alpha virt. eigenvalues --    0.73838   0.74302   0.74905   0.75012   0.75948
 Alpha virt. eigenvalues --    0.76801   0.77701   0.78033   0.78583   0.79836
 Alpha virt. eigenvalues --    0.80457   0.81102   0.81634   0.82467   0.83100
 Alpha virt. eigenvalues --    0.84021   0.84390   0.84987   0.85904   0.86310
 Alpha virt. eigenvalues --    0.88459   0.88840   0.88997   0.89565   0.90331
 Alpha virt. eigenvalues --    0.91328   0.91872   0.92512   0.93081   0.94569
 Alpha virt. eigenvalues --    0.94928   0.95452   0.95977   0.96807   0.97991
 Alpha virt. eigenvalues --    0.99169   0.99380   1.00496   1.01065   1.01583
 Alpha virt. eigenvalues --    1.02545   1.02767   1.03794   1.04497   1.05935
 Alpha virt. eigenvalues --    1.07279   1.08087   1.08945   1.10918   1.11450
 Alpha virt. eigenvalues --    1.14060   1.14894   1.15204   1.15468   1.17367
 Alpha virt. eigenvalues --    1.19552   1.19962   1.21223   1.21553   1.22268
 Alpha virt. eigenvalues --    1.22752   1.23870   1.25410   1.25766   1.27004
 Alpha virt. eigenvalues --    1.27424   1.28282   1.28343   1.29429   1.30251
 Alpha virt. eigenvalues --    1.31959   1.32562   1.33931   1.34773   1.36080
 Alpha virt. eigenvalues --    1.36770   1.37404   1.38287   1.40240   1.40801
 Alpha virt. eigenvalues --    1.42143   1.43889   1.46185   1.47180   1.47913
 Alpha virt. eigenvalues --    1.48855   1.50899   1.53248   1.54677   1.56031
 Alpha virt. eigenvalues --    1.56487   1.57123   1.59003   1.59446   1.60300
 Alpha virt. eigenvalues --    1.60890   1.61499   1.62856   1.64268   1.66063
 Alpha virt. eigenvalues --    1.66848   1.66998   1.68495   1.69633   1.70578
 Alpha virt. eigenvalues --    1.71832   1.72750   1.74884   1.75465   1.77131
 Alpha virt. eigenvalues --    1.77585   1.78478   1.78987   1.79836   1.81163
 Alpha virt. eigenvalues --    1.81709   1.83353   1.83657   1.85365   1.85945
 Alpha virt. eigenvalues --    1.87980   1.89361   1.91600   1.92870   1.93315
 Alpha virt. eigenvalues --    1.95065   1.96396   1.97673   1.99350   2.01013
 Alpha virt. eigenvalues --    2.01178   2.03177   2.04819   2.06051   2.07895
 Alpha virt. eigenvalues --    2.08952   2.09510   2.10471   2.11052   2.12055
 Alpha virt. eigenvalues --    2.13004   2.15189   2.16135   2.16736   2.18191
 Alpha virt. eigenvalues --    2.18957   2.19606   2.21197   2.24730   2.25289
 Alpha virt. eigenvalues --    2.26131   2.27127   2.29735   2.30011   2.33167
 Alpha virt. eigenvalues --    2.35100   2.35425   2.36698   2.39280   2.39843
 Alpha virt. eigenvalues --    2.40177   2.42706   2.43991   2.48416   2.48750
 Alpha virt. eigenvalues --    2.51107   2.52580   2.55217   2.56476   2.64632
 Alpha virt. eigenvalues --    2.68015   2.70283   2.73672   2.76398   2.81736
 Alpha virt. eigenvalues --    2.83145   2.85310   2.88314   2.95734   2.97613
 Alpha virt. eigenvalues --    3.00195   3.06137   3.13338   3.14963   3.24996
 Alpha virt. eigenvalues --    3.28967   3.32240   3.42785   3.59304   3.73968
 Alpha virt. eigenvalues --    3.78167   3.78732   3.84106   3.89465   4.02074
 Alpha virt. eigenvalues --    4.10760   4.23676
          Condensed to atoms (all electrons):
               1          2          3          4          5          6
     1  C    6.383784  -0.496650  -0.225762   0.553810  -0.102923  -0.443788
     2  C   -0.496650   9.221301  -1.109984  -0.015840   0.103391  -0.484296
     3  C   -0.225762  -1.109984  10.303983  -1.295980   0.071334   0.177251
     4  C    0.553810  -0.015840  -1.295980   6.611223  -0.066190   0.004528
     5  H   -0.102923   0.103391   0.071334  -0.066190   1.437536  -0.017203
     6  S   -0.443788  -0.484296   0.177251   0.004528  -0.017203  16.333573
     7  H    0.037112   0.015251   0.035493   0.187351  -0.055933  -0.111696
     8  C   -0.137693  -0.232480  -2.879564   0.617981  -0.021622  -0.029868
     9  S   -0.046725   0.233529  -0.410368   0.085766   0.015119   0.080285
    10  C   -0.043021  -0.013133   0.080513   0.039123   0.002660   0.028006
    11  C    0.009717  -0.001971   0.267946  -0.113216  -0.003290  -0.247054
    12  C   -0.098482  -0.608815   0.097336  -0.377819  -0.007776   0.093984
    13  H   -0.005441   0.021720   0.045211   0.004574  -0.000296  -0.003046
    14  S   -0.000741  -0.004254   0.005039  -0.000393  -0.000029  -0.006958
    15  C   -0.000597  -0.006056   0.020687  -0.001556  -0.000023  -0.006828
    16  C   -0.001984   0.020378  -0.120407   0.004694  -0.000021   0.017928
    17  H   -0.000062  -0.000186   0.001038  -0.000083  -0.000004  -0.000361
    18  H   -0.000151   0.001629  -0.000391   0.000715   0.000048   0.001241
    19  O   -0.027675  -0.594656   0.264949  -0.040896  -0.013668   0.026434
    20  H   -0.026699  -0.017611  -0.002223  -0.002786   0.002792   0.002999
               7          8          9         10         11         12
     1  C    0.037112  -0.137693  -0.046725  -0.043021   0.009717  -0.098482
     2  C    0.015251  -0.232480   0.233529  -0.013133  -0.001971  -0.608815
     3  C    0.035493  -2.879564  -0.410368   0.080513   0.267946   0.097336
     4  C    0.187351   0.617981   0.085766   0.039123  -0.113216  -0.377819
     5  H   -0.055933  -0.021622   0.015119   0.002660  -0.003290  -0.007776
     6  S   -0.111696  -0.029868   0.080285   0.028006  -0.247054   0.093984
     7  H    1.256331  -0.000592  -0.001723   0.000125   0.000751   0.006655
     8  C   -0.000592  11.280636   0.307322  -0.618585  -0.736168  -2.116615
     9  S   -0.001723   0.307322  16.470845   0.031035  -0.220640  -0.881694
    10  C    0.000125  -0.618585   0.031035   7.625797   0.177585  -0.140194
    11  C    0.000751  -0.736168  -0.220640   0.177585   9.691126  -2.339528
    12  C    0.006655  -2.116615  -0.881694  -0.140194  -2.339528  12.847735
    13  H    0.002821   0.531652   0.038504  -0.059007   0.049242  -0.784581
    14  S   -0.000033  -0.162064   0.001202   0.033347   0.040938   0.010355
    15  C   -0.000088   0.031693  -0.081771   0.114801  -0.341486  -0.121541
    16  C    0.000233  -0.014741  -0.042550  -0.986663   0.230083   0.064317
    17  H   -0.000004  -0.006674   0.000875  -0.005942  -0.018650   0.036374
    18  H    0.000025   0.027524  -0.006345   0.197191  -0.035623  -0.008751
    19  O   -0.001833   0.016685  -0.090880  -0.011626  -0.005866   0.048515
    20  H    0.000163  -0.007486   0.022719   0.003747   0.000070  -0.003739
              13         14         15         16         17         18
     1  C   -0.005441  -0.000741  -0.000597  -0.001984  -0.000062  -0.000151
     2  C    0.021720  -0.004254  -0.006056   0.020378  -0.000186   0.001629
     3  C    0.045211   0.005039   0.020687  -0.120407   0.001038  -0.000391
     4  C    0.004574  -0.000393  -0.001556   0.004694  -0.000083   0.000715
     5  H   -0.000296  -0.000029  -0.000023  -0.000021  -0.000004   0.000048
     6  S   -0.003046  -0.006958  -0.006828   0.017928  -0.000361   0.001241
     7  H    0.002821  -0.000033  -0.000088   0.000233  -0.000004   0.000025
     8  C    0.531652  -0.162064   0.031693  -0.014741  -0.006674   0.027524
     9  S    0.038504   0.001202  -0.081771  -0.042550   0.000875  -0.006345
    10  C   -0.059007   0.033347   0.114801  -0.986663  -0.005942   0.197191
    11  C    0.049242   0.040938  -0.341486   0.230083  -0.018650  -0.035623
    12  C   -0.784581   0.010355  -0.121541   0.064317   0.036374  -0.008751
    13  H    1.716154  -0.071134   0.001115   0.000912   0.001617   0.001031
    14  S   -0.071134  15.740131   0.193865  -0.278453  -0.125495   0.010476
    15  C    0.001115   0.193865   5.803624   0.233444   0.236303  -0.061538
    16  C    0.000912  -0.278453   0.233444   6.617338   0.037616  -0.108157
    17  H    0.001617  -0.125495   0.236303   0.037616   1.253368  -0.059530
    18  H    0.001031   0.010476  -0.061538  -0.108157  -0.059530   1.371083
    19  O    0.001886   0.000487  -0.000189  -0.000556   0.000021  -0.000094
    20  H    0.000127  -0.000024   0.000027   0.000522   0.000003  -0.000003
              19         20
     1  C   -0.027675  -0.026699
     2  C   -0.594656  -0.017611
     3  C    0.264949  -0.002223
     4  C   -0.040896  -0.002786
     5  H   -0.013668   0.002792
     6  S    0.026434   0.002999
     7  H   -0.001833   0.000163
     8  C    0.016685  -0.007486
     9  S   -0.090880   0.022719
    10  C   -0.011626   0.003747
    11  C   -0.005866   0.000070
    12  C    0.048515  -0.003739
    13  H    0.001886   0.000127
    14  S    0.000487  -0.000024
    15  C   -0.000189   0.000027
    16  C   -0.000556   0.000522
    17  H    0.000021   0.000003
    18  H   -0.000094  -0.000003
    19  O    9.381504   0.274079
    20  H    0.274079   0.341786
 Mulliken charges:
               1
     1  C    0.673970
     2  C   -0.031267
     3  C    0.673899
     4  C   -0.195004
     5  H   -0.343899
     6  S    0.584867
     7  H   -0.370410
     8  C    0.150655
     9  S    0.495492
    10  C   -0.455760
    11  C   -0.403965
    12  C    0.284263
    13  H   -0.493062
    14  S    0.613739
    15  C   -0.013888
    16  C    0.326065
    17  H   -0.350225
    18  H   -0.330383
    19  O   -1.226622
    20  H    0.411535
 Sum of Mulliken charges =  -0.00000
 Mulliken charges with hydrogens summed into heavy atoms:
               1
     1  C    0.330071
     2  C   -0.031267
     3  C    0.673899
     4  C   -0.565414
     6  S    0.584867
     8  C    0.150655
     9  S    0.495492
    10  C   -0.455760
    11  C   -0.403965
    12  C   -0.208799
    14  S    0.613739
    15  C   -0.364113
    16  C   -0.004318
    19  O   -0.815086
 Electronic spatial extent (au):  <R**2>=           4398.8419
 Charge=             -0.0000 electrons
 Dipole moment (field-independent basis, Debye):
    X=             -2.4850    Y=              0.9455    Z=              1.2642  Tot=              2.9440
 Quadrupole moment (field-independent basis, Debye-Ang):
   XX=            -80.1085   YY=            -91.5684   ZZ=           -111.8384
   XY=             -1.5571   XZ=              3.6147   YZ=              1.2815
 Traceless Quadrupole moment (field-independent basis, Debye-Ang):
   XX=             14.3966   YY=              2.9367   ZZ=            -17.3333
   XY=             -1.5571   XZ=              3.6147   YZ=              1.2815
 Octapole moment (field-independent basis, Debye-Ang**2):
  XXX=            -77.6647  YYY=             42.5750  ZZZ=              4.3325  XYY=            -38.9785
  XXY=             33.8104  XXZ=             34.9817  XZZ=              2.2852  YZZ=              3.5489
  YYZ=              8.4402  XYZ=              1.9213
 Hexadecapole moment (field-independent basis, Debye-Ang**3):
 XXXX=          -4138.8531 YYYY=           -978.4313 ZZZZ=           -178.3474 XXXY=            -25.3370
 XXXZ=            109.7944 YYYX=           -117.6396 YYYZ=             22.8418 ZZZX=              7.4635
 ZZZY=              2.2339 XXYY=           -822.5278 XXZZ=           -906.4333 YYZZ=           -240.6711
 XXYZ=             15.0294 YYXZ=             -5.8599 ZZXY=            -12.0592
 N-N= 1.105197291953D+03 E-N=-6.115664801642D+03  KE= 1.647295713811D+03
 Calling FoFJK, ICntrl=      2127 FMM=F ISym2X=0 I1Cent= 0 IOpClX= 0 NMat=1 NMatS=1 NMatT=0.
 ***** Axes restored to original set *****
 -------------------------------------------------------------------
 Center     Atomic                   Forces (Hartrees/Bohr)
 Number     Number              X              Y              Z
 -------------------------------------------------------------------
      1        6           0.011175903   -0.058297479    0.010030536
      2        6           0.051836547    0.017999826    0.013826778
      3        6          -0.054265841    0.033632531    0.001346782
      4        6           0.014741073    0.070961721   -0.020601278
      5        1           0.001533417    0.000544301    0.000292285
      6       16          -0.006091082    0.034305248   -0.008991374
      7        1           0.004675735   -0.001745048   -0.000336048
      8        6           0.059299053   -0.041666359   -0.004595519
      9       16          -0.014498681   -0.017015103   -0.005368659
     10        6           0.002425418   -0.050497104    0.024758022
     11        6          -0.017944367    0.053212424    0.009310827
     12        6          -0.036517236    0.064729952   -0.001810829
     13        1          -0.004327610    0.000165988   -0.005060248
     14       16           0.012283230    0.017362884   -0.011669170
     15        6          -0.051580710    0.056602103   -0.014532018
     16        6           0.041337673   -0.059823605    0.029266068
     17        1          -0.000292772   -0.005592416   -0.006644212
     18        1           0.002758599   -0.006178181   -0.009714342
     19        8          -0.048086003    0.019810326   -0.004050327
     20        1           0.031537654   -0.128512012    0.004542726
 -------------------------------------------------------------------
 Cartesian Forces:  Max     0.128512012 RMS     0.033902257

 GradGradGradGradGradGradGradGradGradGradGradGradGradGradGradGradGradGrad
 Berny optimization.
 FormGI is forming the generalized inverse of G from B-inverse, IUseBI=4.
 Internal  Forces:  Max     0.129014291 RMS     0.025386754
 Search for a local minimum.
 Step number   1 out of a maximum of  116
 All quantities printed in internal units (Hartrees-Bohrs-Radians)
 Mixed Optimization -- RFO/linear search
 Second derivative matrix not updated -- first step.
 ITU=  0
     Eigenvalues ---    0.00230   0.00994   0.01055   0.01221   0.01272
     Eigenvalues ---    0.01296   0.01362   0.01419   0.01458   0.01488
     Eigenvalues ---    0.01500   0.01592   0.01592   0.01766   0.02198
     Eigenvalues ---    0.02653   0.15082   0.15687   0.15738   0.15997
     Eigenvalues ---    0.16000   0.16000   0.17976   0.22442   0.22526
     Eigenvalues ---    0.23318   0.23975   0.24118   0.24633   0.24978
     Eigenvalues ---    0.24995   0.26145   0.26560   0.28307   0.28394
     Eigenvalues ---    0.28663   0.30910   0.31286   0.31557   0.34800
     Eigenvalues ---    0.35259   0.35872   0.35950   0.36006   0.36132
     Eigenvalues ---    0.36185   0.36296   0.37598   0.38248   0.38435
     Eigenvalues ---    0.39456   0.39631   0.406021000.000001000.00000
     Eigenvalues --- 1000.000001000.000001000.000001000.000001000.00000
     Eigenvalues --- 1000.000001000.000001000.000001000.000001000.00000
     Eigenvalues --- 1000.000001000.000001000.000001000.000001000.00000
     Eigenvalues --- 1000.000001000.000001000.000001000.000001000.00000
     Eigenvalues --- 1000.000001000.000001000.000001000.000001000.00000
     Eigenvalues --- 1000.000001000.000001000.000001000.000001000.00000
     Eigenvalues --- 1000.000001000.000001000.000001000.000001000.00000
     Eigenvalues --- 1000.000001000.000001000.000001000.000001000.00000
     Eigenvalues --- 1000.000001000.000001000.000001000.000001000.00000
     Eigenvalues --- 1000.000001000.000001000.000001000.000001000.00000
     Eigenvalues --- 1000.00000
 RFO step:  Lambda=-1.51082542D-01 EMin= 2.30000000D-03
 Linear search not attempted -- first point.
 Maximum step size (   0.300) exceeded in Quadratic search.
    -- Step size scaled by   0.526
 Iteration  1 RMS(Cart)=  0.05911920 RMS(Int)=  0.00129413
 Iteration  2 RMS(Cart)=  0.00157969 RMS(Int)=  0.00009564
 Iteration  3 RMS(Cart)=  0.00000787 RMS(Int)=  0.00009547
 Iteration  4 RMS(Cart)=  0.00000000 RMS(Int)=  0.00009547
 Iteration  1 RMS(Cart)=  0.00000014 RMS(Int)=  0.00000007
 Variable       Old X    -DE/DX   Delta X   Delta X   Delta X     New X
                                 (Linear)    (Quad)   (Total)
    R1        2.71917  -0.02231   0.00000  -0.02264  -0.02253   2.69664
    R2        2.71391  -0.07756   0.00000  -0.07430  -0.07428   2.63964
    R3        2.03793  -0.00086   0.00000  -0.00088  -0.00088   2.03705
    R4        2.75906  -0.08910   0.00000  -0.09044  -0.09038   2.66868
    R5        2.90711  -0.10749   0.00000  -0.12906  -0.12906   2.77805
    R6        3.39578  -0.03144   0.00000  -0.03861  -0.03868   3.35710
    R7        2.74954  -0.00841   0.00000  -0.00838  -0.00838   2.74115
    R8        3.28671  -0.01690   0.00000  -0.01799  -0.01808   3.26863
    R9        2.04073  -0.00317   0.00000  -0.00326  -0.00326   2.03747
   R10        3.38293  -0.02011   0.00000  -0.02367  -0.02375   3.35918
   R11        2.76773  -0.08357   0.00000  -0.08539  -0.08541   2.68232
   R12        3.26961  -0.00419   0.00000  -0.00395  -0.00397   3.26564
   R13        2.72339  -0.05472   0.00000  -0.05394  -0.05379   2.66961
   R14        2.69518   0.00195   0.00000   0.00076   0.00085   2.69603
   R15        2.70824  -0.01213   0.00000  -0.01264  -0.01258   2.69566
   R16        3.27430  -0.00254   0.00000  -0.00191  -0.00194   3.27236
   R17        2.03875  -0.00080   0.00000  -0.00083  -0.00083   2.03793
   R18        3.33548  -0.01782   0.00000  -0.02025  -0.02035   3.31512
   R19        2.73113  -0.08041   0.00000  -0.07872  -0.07873   2.65240
   R20        2.04159  -0.00285   0.00000  -0.00293  -0.00293   2.03866
   R21        2.05256  -0.00620   0.00000  -0.00647  -0.00647   2.04610
   R22        2.18171  -0.12901   0.00000  -0.15617  -0.15617   2.02554
    A1        1.97020  -0.00371   0.00000  -0.00799  -0.00785   1.96235
    A2        2.17330   0.00062   0.00000   0.00191   0.00184   2.17514
    A3        2.13967   0.00309   0.00000   0.00609   0.00602   2.14569
    A4        1.97187   0.01888   0.00000   0.02296   0.02310   1.99497
    A5        2.21760  -0.00751   0.00000  -0.00807  -0.00819   2.20941
    A6        2.06941  -0.01041   0.00000  -0.01198  -0.01209   2.05732
    A7        1.90440  -0.00696   0.00000  -0.00875  -0.00874   1.89565
    A8        2.31891  -0.00851   0.00000  -0.01137  -0.01137   2.30754
    A9        2.05972   0.01546   0.00000   0.02006   0.02005   2.07977
   A10        1.95339  -0.00228   0.00000  -0.00290  -0.00293   1.95045
   A11        2.17580   0.00507   0.00000   0.00808   0.00810   2.18390
   A12        2.15384  -0.00279   0.00000  -0.00520  -0.00519   2.14866
   A13        1.62490  -0.00593   0.00000  -0.00331  -0.00357   1.62133
   A14        2.12891  -0.00187   0.00000  -0.00241  -0.00242   2.12649
   A15        2.24032  -0.00625   0.00000  -0.00816  -0.00818   2.23214
   A16        1.91325   0.00821   0.00000   0.01078   0.01080   1.92405
   A17        1.61921  -0.00881   0.00000  -0.00909  -0.00909   1.61012
   A18        1.96178  -0.01023   0.00000  -0.01164  -0.01181   1.94997
   A19        2.23845   0.00819   0.00000   0.01586   0.01560   2.25405
   A20        1.96496   0.00637   0.00000   0.00791   0.00801   1.97298
   A21        1.96591   0.00839   0.00000   0.00967   0.00970   1.97561
   A22        1.96676  -0.01382   0.00000  -0.01611  -0.01624   1.95052
   A23        2.23688   0.00961   0.00000   0.01794   0.01773   2.25460
   A24        1.96387   0.00247   0.00000   0.00034   0.00047   1.96434
   A25        2.16115  -0.00380   0.00000  -0.00396  -0.00407   2.15708
   A26        2.14642   0.00202   0.00000   0.00578   0.00566   2.15208
   A27        1.59316   0.00006   0.00000   0.00180   0.00175   1.59491
   A28        1.95998   0.00047   0.00000  -0.00017  -0.00021   1.95976
   A29        2.13617  -0.00370   0.00000  -0.00498  -0.00509   2.13108
   A30        2.16989   0.00453   0.00000   0.00910   0.00903   2.17892
   A31        1.93959   0.00693   0.00000   0.00657   0.00669   1.94628
   A32        2.16499  -0.00038   0.00000   0.00352   0.00332   2.16831
   A33        2.14214  -0.00427   0.00000  -0.00333  -0.00355   2.13858
   A34        2.32184  -0.06481   0.00000  -0.10949  -0.10949   2.21235
    D1        0.00683  -0.00085   0.00000  -0.00278  -0.00277   0.00406
    D2       -2.89394  -0.00463   0.00000  -0.01593  -0.01595  -2.90989
    D3       -3.13952   0.00039   0.00000   0.00137   0.00136  -3.13816
    D4        0.24290  -0.00338   0.00000  -0.01178  -0.01182   0.23108
    D5       -0.00671   0.00018   0.00000   0.00000  -0.00005  -0.00676
    D6       -3.13020   0.00047   0.00000   0.00149   0.00147  -3.12872
    D7        3.13954  -0.00103   0.00000  -0.00405  -0.00409   3.13545
    D8        0.01605  -0.00074   0.00000  -0.00256  -0.00256   0.01349
    D9       -0.00388   0.00126   0.00000   0.00433   0.00431   0.00043
   D10        3.11762   0.00085   0.00000   0.00075   0.00078   3.11840
   D11        2.91927   0.00467   0.00000   0.01630   0.01630   2.93557
   D12       -0.24242   0.00426   0.00000   0.01272   0.01276  -0.22965
   D13       -0.28016   0.00225   0.00000   0.00388   0.00380  -0.27636
   D14        3.11413  -0.00525   0.00000  -0.01414  -0.01406   3.10007
   D15        0.00006  -0.00099   0.00000  -0.00370  -0.00367  -0.00361
   D16       -3.12486  -0.00039   0.00000  -0.00038  -0.00031  -3.12516
   D17        0.08750  -0.00153   0.00000   0.00000  -0.00000   0.08750
   D18       -3.09856   0.00136   0.00000   0.00692   0.00693  -3.09163
   D19       -3.07560  -0.00219   0.00000  -0.00413  -0.00414  -3.07974
   D20        0.02153   0.00070   0.00000   0.00279   0.00279   0.02432
   D21        0.00376   0.00054   0.00000   0.00225   0.00224   0.00600
   D22        3.12751   0.00035   0.00000   0.00094   0.00091   3.12842
   D23        3.13783   0.00127   0.00000   0.00343   0.00346   3.14129
   D24        0.03325  -0.00084   0.00000  -0.00194  -0.00198   0.03127
   D25       -3.13897  -0.00214   0.00000  -0.00525  -0.00522   3.13899
   D26       -0.15744   0.00273   0.00000   0.00995   0.00996  -0.14748
   D27       -0.03742   0.00030   0.00000   0.00076   0.00084  -0.03658
   D28        2.94411   0.00516   0.00000   0.01596   0.01602   2.96013
   D29       -0.02126   0.00160   0.00000   0.00317   0.00315  -0.01810
   D30       -2.61561  -0.00865   0.00000  -0.02376  -0.02380  -2.63941
   D31        0.00304  -0.00124   0.00000  -0.00280  -0.00276   0.00027
   D32       -2.68748  -0.01170   0.00000  -0.02910  -0.02878  -2.71626
   D33        2.68620   0.00895   0.00000   0.02356   0.02336   2.70956
   D34       -0.00431  -0.00151   0.00000  -0.00274  -0.00266  -0.00697
   D35        2.61302   0.00727   0.00000   0.02402   0.02422   2.63724
   D36       -0.24760  -0.00070   0.00000  -0.00088  -0.00079  -0.24839
   D37        0.01946   0.00119   0.00000   0.00197   0.00193   0.02140
   D38       -2.84115  -0.00679   0.00000  -0.02292  -0.02308  -2.86423
   D39        0.02280   0.00067   0.00000   0.00129   0.00125   0.02405
   D40       -2.96030  -0.00353   0.00000  -0.01274  -0.01285  -2.97315
   D41        2.62740   0.00559   0.00000   0.02122   0.02146   2.64886
   D42       -0.35569   0.00139   0.00000   0.00719   0.00735  -0.34834
   D43       -0.00921   0.00146   0.00000   0.00246   0.00241  -0.00680
   D44       -2.61360  -0.00899   0.00000  -0.02389  -0.02386  -2.63747
   D45        0.02038  -0.00065   0.00000  -0.00120  -0.00121   0.01917
   D46        2.97186   0.00703   0.00000   0.02154   0.02144   2.99330
   D47       -0.02631  -0.00003   0.00000  -0.00005  -0.00000  -0.02631
   D48        2.83862   0.00852   0.00000   0.02572   0.02577   2.86439
   D49       -2.97346  -0.00682   0.00000  -0.02148  -0.02154  -2.99500
   D50       -0.10854   0.00173   0.00000   0.00429   0.00423  -0.10430
         Item               Value     Threshold  Converged?
 Maximum Force            0.129014     0.000450     NO 
 RMS     Force            0.025506     0.000300     NO 
 Maximum Displacement     0.430737     0.001800     NO 
 RMS     Displacement     0.059178     0.001200     NO 
 Predicted change in Energy=-6.590039D-02
 GradGradGradGradGradGradGradGradGradGradGradGradGradGradGradGradGradGrad

                          Input orientation:                          
 ---------------------------------------------------------------------
 Center     Atomic      Atomic             Coordinates (Angstroms)
 Number     Number       Type             X           Y           Z
 ---------------------------------------------------------------------
      1          6           0       -4.211576   -1.350691   -0.219515
      2          6           0       -2.887223   -0.981325   -0.601597
      3          6           0       -1.964190   -2.050115   -0.606197
      4          6           0       -4.320298   -2.710758    0.079727
      5          1           0       -5.045103   -0.669530   -0.162505
      6         16           0       -2.811231   -3.532942   -0.116596
      7          1           0       -5.228087   -3.209462    0.379214
      8          6           0       -0.556028   -2.120275   -0.947175
      9         16           0        0.383202   -0.667633   -1.356507
     10          6           0        1.825866   -1.586614   -1.602537
     11          6           0        1.617348   -2.962458   -1.359052
     12          6           0        0.278913   -3.267900   -0.971569
     13          1           0       -0.024738   -4.234637   -0.602500
     14         16           0        3.089838   -3.769929   -0.936669
     15          6           0        4.001687   -2.279377   -1.092589
     16          6           0        3.186027   -1.189795   -1.435471
     17          1           0        5.034744   -2.205029   -0.790764
     18          1           0        3.512580   -0.162673   -1.331893
     19          8           0       -2.357228    0.385080   -0.716406
     20          1           0       -2.926504    1.292064   -0.763399
 ---------------------------------------------------------------------
                    Distance matrix (angstroms):
                    1          2          3          4          5
     1  C    0.000000
     2  C    1.426999   0.000000
     3  C    2.385258   1.412205   0.000000
     4  C    1.396835   2.347092   2.541296   0.000000
     5  H    1.077960   2.224065   3.405129   2.179593   0.000000
     6  S    2.594952   2.598413   1.776502   1.729686   3.632000
     7  H    2.201545   3.377310   3.601130   1.078183   2.603497
     8  C    3.805887   2.617460   1.450555   3.946255   4.782485
     9  S    4.782395   3.371049   2.825681   5.325415   5.558070
    10  C    6.198316   4.856075   3.946145   6.470630   7.079898
    11  C    6.154079   4.978934   3.771813   6.114661   7.146852
    12  C    4.940219   3.922973   2.578373   4.750619   5.979236
    13  H    5.098375   4.333342   2.921237   4.608631   6.173139
    14  S    7.725132   6.604078   5.348848   7.554140   8.740085
    15  C    8.311582   7.027311   5.990061   8.415216   9.235858
    16  C    7.498597   6.133773   5.287021   7.807309   8.345216
    17  H    9.303260   8.018155   7.003082   9.409056  10.215468
    18  H    7.893754   6.493150   5.838158   8.356996   8.652070
    19  O    2.588128   1.470082   2.469170   3.751225   2.940014
    20  H    2.988540   2.279478   3.481512   4.321586   2.949134
                    6          7          8          9         10
     6  S    0.000000
     7  H    2.488305   0.000000
     8  C    2.787728   4.977326   0.000000
     9  S    4.466741   6.400015   1.777604   0.000000
    10  C    5.243938   7.504614   2.527393   1.728102   0.000000
    11  C    4.634809   7.067005   2.366956   2.605637   1.412697
    12  C    3.217175   5.670545   1.419424   2.630673   2.370212
    13  H    2.914278   5.393476   2.207170   3.668577   3.381839
    14  S    5.962491   8.439997   4.001726   4.138404   2.609189
    15  C    6.995701   9.392550   4.562809   3.969988   2.339693
    16  C    6.572433   8.841349   3.886799   2.852142   1.426679
    17  H    7.986062  10.378027   5.593602   4.931581   3.367241
    18  H    7.268166   9.413292   4.531422   3.169952   2.223929
    19  O    3.989585   4.728948   3.094249   3.004645   4.708618
    20  H    4.869530   5.183299   4.158964   3.891830   5.619249
                   11         12         13         14         15
    11  C    0.000000
    12  C    1.426480   0.000000
    13  H    2.210714   1.078424   0.000000
    14  S    1.731660   2.855617   3.166735   0.000000
    15  C    2.494529   3.853682   4.502813   1.754287   0.000000
    16  C    2.368318   3.603475   4.502657   2.629667   1.403588
    17  H    3.546160   4.876506   5.454642   2.500572   1.078811
    18  H    3.381041   4.497651   5.442934   3.653383   2.185619
    19  O    5.236054   4.512051   5.176415   6.854425   6.904828
    20  H    6.253187   5.577751   6.244242   7.864488   7.801499
                   16         17         18         19         20
    16  C    0.000000
    17  H    2.205471   0.000000
    18  H    1.082749   2.604039   0.000000
    19  O    5.807320   7.832972   5.927352   0.000000
    20  H    6.631315   8.695509   6.625801   1.071869   0.000000
 Stoichiometry    C10H6OS3
 Framework group  C1[X(C10H6OS3)]
 Deg. of freedom    54
 Full point group                 C1      NOp   1
 Largest Abelian subgroup         C1      NOp   1
 Largest concise Abelian subgroup C1      NOp   1
                         Standard orientation:                         
 ---------------------------------------------------------------------
 Center     Atomic      Atomic             Coordinates (Angstroms)
 Number     Number       Type             X           Y           Z
 ---------------------------------------------------------------------
      1          6           0       -4.056773    0.338667    0.097331
      2          6           0       -2.735321    0.867949   -0.002435
      3          6           0       -1.718972   -0.111407   -0.049565
      4          6           0       -4.070437   -1.057637    0.133313
      5          1           0       -4.953706    0.934948    0.141593
      6         16           0       -2.474438   -1.717070    0.034566
      7          1           0       -4.957062   -1.667992    0.195288
      8          6           0       -0.276957   -0.014321   -0.173156
      9         16           0        0.561052    1.553355   -0.170126
     10          6           0        2.108265    0.803648   -0.344506
     11          6           0        2.005701   -0.604845   -0.381086
     12          6           0        0.663251   -1.073543   -0.267089
     13          1           0        0.408581   -2.111773   -0.124899
     14         16           0        3.477279   -1.368754    0.118462
     15          6           0        4.248935    0.186466    0.370181
     16          6           0        3.385103    1.259232    0.099950
     17          1           0        5.216746    0.277226    0.838090
     18          1           0        3.589913    2.269463    0.431359
     19          8           0       -2.333222    2.266249    0.207836
     20          1           0       -2.977734    3.122363    0.231812
 ---------------------------------------------------------------------
 Rotational constants (GHZ):           1.2157025           0.2852708           0.2330995
 Standard basis: Aug-CC-pVDZ (5D, 7F)
 There are   416 symmetry adapted cartesian basis functions of A   symmetry.
 There are   388 symmetry adapted basis functions of A   symmetry.
   388 basis functions,   782 primitive gaussians,   416 cartesian basis functions
    61 alpha electrons       61 beta electrons
       nuclear repulsion energy      1119.0450971090 Hartrees.
 NAtoms=   20 NActive=   20 NUniq=   20 SFac= 1.00D+00 NAtFMM=   60 NAOKFM=F Big=F
 Integral buffers will be    131072 words long.
 Raffenetti 1 integral format.
 Two-electron integral symmetry is turned on.
 One-electron integrals computed using PRISM.
 NBasis=   388 RedAO= T EigKep=  4.21D-06  NBF=   388
 NBsUse=   388 1.00D-06 EigRej= -1.00D+00 NBFU=   388
 Initial guess from the checkpoint file:  "/tmp/pbs.4762170[180].pbs/Gau-306956.chk"
 B after Tr=     0.000000   -0.000000    0.000000
         Rot=    0.999995   -0.000667   -0.000283    0.003024 Ang=  -0.36 deg.
 ExpMin= 2.97D-02 ExpMax= 1.11D+05 ExpMxC= 1.07D+03 IAcc=3 IRadAn=         5 AccDes= 0.00D+00
 Harris functional with IExCor=  205 and IRadAn=       5 diagonalized for initial guess.
 HarFok:  IExCor=  205 AccDes= 0.00D+00 IRadAn=         5 IDoV= 1 UseB2=F ITyADJ=14
 ICtDFT=  3500011 ScaDFX=  1.000000  1.000000  1.000000  1.000000
 FoFCou: FMM=F IPFlag=           0 FMFlag=      100000 FMFlg1=           0
         NFxFlg=           0 DoJE=T BraDBF=F KetDBF=T FulRan=T
         wScrn=  0.000000 ICntrl=       500 IOpCl=  0 I1Cent=   200000004 NGrid=           0
         NMat0=    1 NMatS0=      1 NMatT0=    0 NMatD0=    1 NMtDS0=    0 NMtDT0=    0
 Petite list used in FoFCou.
 Requested convergence on RMS density matrix=1.00D-08 within 128 cycles.
 Requested convergence on MAX density matrix=1.00D-06.
 Requested convergence on             energy=1.00D-06.
 No special actions if energy rises.
 SCF Done:  E(RHF) =  -1649.57716592     A.U. after   16 cycles
            NFock= 16  Conv=0.68D-08     -V/T= 2.0008
 Calling FoFJK, ICntrl=      2127 FMM=F ISym2X=0 I1Cent= 0 IOpClX= 0 NMat=1 NMatS=1 NMatT=0.
 ***** Axes restored to original set *****
 -------------------------------------------------------------------
 Center     Atomic                   Forces (Hartrees/Bohr)
 Number     Number              X              Y              Z
 -------------------------------------------------------------------
      1        6          -0.000641602   -0.037875340    0.007320988
      2        6           0.047944951    0.033072006    0.010671562
      3        6          -0.042922236    0.017912174   -0.000222722
      4        6           0.008690074    0.045411867   -0.013600417
      5        1           0.001126996    0.001269802    0.000347143
      6       16          -0.002439631    0.016819526   -0.005757843
      7        1           0.003512921   -0.002574907    0.000157877
      8        6           0.043774612   -0.027043611   -0.003470255
      9       16          -0.011513888   -0.008016508   -0.006633739
     10        6          -0.000902095   -0.035524380    0.019418644
     11        6          -0.005840573    0.038798055    0.008856791
     12        6          -0.028888657    0.041188355    0.000498894
     13        1          -0.003172721   -0.000568038   -0.005050535
     14       16           0.010536168    0.005784627   -0.009171119
     15        6          -0.034217710    0.038623410   -0.007568615
     16        6           0.029624149   -0.036893014    0.020277771
     17        1           0.000277741   -0.005064934   -0.005586721
     18        1           0.001839157   -0.003239324   -0.009349914
     19        8          -0.049957359    0.017622061   -0.005587751
     20        1           0.033169704   -0.099701829    0.004449962
 -------------------------------------------------------------------
 Cartesian Forces:  Max     0.099701829 RMS     0.025233836

 GradGradGradGradGradGradGradGradGradGradGradGradGradGradGradGradGradGrad
 Berny optimization.
 Using GEDIIS/GDIIS optimizer.
 FormGI is forming the generalized inverse of G from B-inverse, IUseBI=4.
 Internal  Forces:  Max     0.102176453 RMS     0.017815909
 Search for a local minimum.
 Step number   2 out of a maximum of  116
 All quantities printed in internal units (Hartrees-Bohrs-Radians)
 Mixed Optimization -- RFO/linear search
 Update second derivatives using D2CorX and points    1    2
 DE= -6.85D-02 DEPred=-6.59D-02 R= 1.04D+00
 TightC=F SS=  1.41D+00  RLast= 3.12D-01 DXNew= 5.0454D-01 9.3651D-01
 Trust test= 1.04D+00 RLast= 3.12D-01 DXMaxT set to 5.05D-01
 ITU=  1  0
 Use linear search instead of GDIIS.
     Eigenvalues ---    0.00230   0.00996   0.01052   0.01218   0.01271
     Eigenvalues ---    0.01293   0.01348   0.01402   0.01460   0.01482
     Eigenvalues ---    0.01499   0.01589   0.01592   0.01739   0.02128
     Eigenvalues ---    0.02524   0.15047   0.15281   0.15748   0.15824
     Eigenvalues ---    0.15999   0.16027   0.18255   0.20817   0.22475
     Eigenvalues ---    0.22534   0.23401   0.24098   0.24379   0.24957
     Eigenvalues ---    0.25016   0.25483   0.26304   0.26736   0.28452
     Eigenvalues ---    0.28587   0.30898   0.31284   0.31527   0.34849
     Eigenvalues ---    0.35262   0.35950   0.36004   0.36096   0.36133
     Eigenvalues ---    0.36183   0.36393   0.37484   0.38141   0.39200
     Eigenvalues ---    0.39474   0.40472   0.454481000.000001000.00000
     Eigenvalues --- 1000.000001000.000001000.000001000.000001000.00000
     Eigenvalues --- 1000.000001000.000001000.000001000.000001000.00000
     Eigenvalues --- 1000.000001000.000001000.000001000.000001000.00000
     Eigenvalues --- 1000.000001000.000001000.000001000.000001000.00000
     Eigenvalues --- 1000.000001000.000001000.000001000.000001000.00000
     Eigenvalues --- 1000.000001000.000001000.000001000.000001000.00000
     Eigenvalues --- 1000.000001000.000001000.000001000.000001000.00000
     Eigenvalues --- 1000.000001000.000001000.000001000.000001000.00000
     Eigenvalues --- 1000.000001000.000001000.000001000.000001000.00000
     Eigenvalues --- 1000.000001000.000001000.000001000.000001000.00000
     Eigenvalues --- 1000.00000
 RFO step:  Lambda=-1.53355496D-02 EMin= 2.30028850D-03
 Quartic linear search produced a step of  1.55651.
 Iteration  1 RMS(Cart)=  0.10045424 RMS(Int)=  0.02514575
 Iteration  2 RMS(Cart)=  0.02632634 RMS(Int)=  0.00407682
 Iteration  3 RMS(Cart)=  0.00377672 RMS(Int)=  0.00112229
 Iteration  4 RMS(Cart)=  0.00000469 RMS(Int)=  0.00112228
 Iteration  5 RMS(Cart)=  0.00000000 RMS(Int)=  0.00112228
 Iteration  1 RMS(Cart)=  0.00002735 RMS(Int)=  0.00001403
 Iteration  2 RMS(Cart)=  0.00001491 RMS(Int)=  0.00001567
 Iteration  3 RMS(Cart)=  0.00000813 RMS(Int)=  0.00001770
 Iteration  4 RMS(Cart)=  0.00000443 RMS(Int)=  0.00001903
 Iteration  5 RMS(Cart)=  0.00000241 RMS(Int)=  0.00001981
 Iteration  6 RMS(Cart)=  0.00000132 RMS(Int)=  0.00002026
 Iteration  7 RMS(Cart)=  0.00000072 RMS(Int)=  0.00002050
 Variable       Old X    -DE/DX   Delta X   Delta X   Delta X     New X
                                 (Linear)    (Quad)   (Total)
    R1        2.69664  -0.00666  -0.03507   0.04911   0.01444   2.71108
    R2        2.63964  -0.04645  -0.11561   0.02521  -0.09047   2.54917
    R3        2.03705  -0.00005  -0.00137   0.00344   0.00207   2.03912
    R4        2.66868  -0.05361  -0.14068   0.03210  -0.10818   2.56050
    R5        2.77805  -0.08225  -0.20088  -0.08205  -0.28293   2.49512
    R6        3.35710  -0.01753  -0.06020   0.03358  -0.02676   3.33035
    R7        2.74115   0.00056  -0.01305   0.03925   0.02620   2.76735
    R8        3.26863  -0.00899  -0.02814   0.01690  -0.01171   3.25692
    R9        2.03747  -0.00172  -0.00507   0.00245  -0.00263   2.03484
   R10        3.35918  -0.01165  -0.03696   0.01965  -0.01834   3.34085
   R11        2.68232  -0.05409  -0.13294   0.00748  -0.12601   2.55631
   R12        3.26564   0.00052  -0.00617   0.02309   0.01709   3.28273
   R13        2.66961  -0.03534  -0.08372  -0.00205  -0.08393   2.58568
   R14        2.69603   0.00443   0.00133   0.01816   0.02008   2.71611
   R15        2.69566  -0.00268  -0.01958   0.03109   0.01211   2.70777
   R16        3.27236   0.00138  -0.00301   0.02125   0.01828   3.29065
   R17        2.03793  -0.00033  -0.00128   0.00137   0.00008   2.03801
   R18        3.31512  -0.01002  -0.03168   0.01875  -0.01381   3.30131
   R19        2.65240  -0.05053  -0.12255   0.01451  -0.10843   2.54396
   R20        2.03866  -0.00165  -0.00457   0.00155  -0.00301   2.03564
   R21        2.04610  -0.00341  -0.01006   0.00464  -0.00543   2.04067
   R22        2.02554  -0.10218  -0.24309  -0.12790  -0.37098   1.65455
    A1        1.96235  -0.00198  -0.01222   0.00823  -0.00335   1.95900
    A2        2.17514  -0.00056   0.00287  -0.01367  -0.01115   2.16399
    A3        2.14569   0.00254   0.00937   0.00544   0.01448   2.16017
    A4        1.99497   0.00853   0.03596  -0.03638  -0.00129   1.99369
    A5        2.20941  -0.00748  -0.01274  -0.01833  -0.03399   2.17543
    A6        2.05732  -0.00011  -0.01882   0.07294   0.05188   2.10920
    A7        1.89565  -0.00136  -0.01361   0.02988   0.01694   1.91259
    A8        2.30754  -0.00678  -0.01770  -0.00779  -0.02582   2.28172
    A9        2.07977   0.00814   0.03121  -0.02196   0.00888   2.08865
   A10        1.95045  -0.00029  -0.00457   0.01278   0.00810   1.95855
   A11        2.18390   0.00420   0.01260   0.01134   0.02400   2.20789
   A12        2.14866  -0.00392  -0.00807  -0.02415  -0.03216   2.11650
   A13        1.62133  -0.00491  -0.00556  -0.01453  -0.02065   1.60068
   A14        2.12649   0.00002  -0.00377   0.01225   0.00846   2.13494
   A15        2.23214  -0.00568  -0.01273  -0.01350  -0.02626   2.20588
   A16        1.92405   0.00574   0.01681   0.00151   0.01821   1.94226
   A17        1.61012  -0.00602  -0.01415  -0.00622  -0.01983   1.59028
   A18        1.94997  -0.00596  -0.01839   0.01198  -0.00741   1.94256
   A19        2.25405   0.00610   0.02428   0.01700   0.03771   2.29176
   A20        1.97298   0.00359   0.01248  -0.00650   0.00586   1.97883
   A21        1.97561   0.00414   0.01510  -0.01047   0.00398   1.97959
   A22        1.95052  -0.00751  -0.02528   0.02145  -0.00530   1.94522
   A23        2.25460   0.00703   0.02759   0.01717   0.04099   2.29559
   A24        1.96434   0.00214   0.00073   0.00389   0.00561   1.96996
   A25        2.15708  -0.00236  -0.00633   0.00708  -0.00037   2.15671
   A26        2.15208   0.00080   0.00881  -0.00727   0.00034   2.15242
   A27        1.59491  -0.00159   0.00273  -0.02171  -0.01807   1.57684
   A28        1.95976   0.00177  -0.00033   0.01868   0.01763   1.97740
   A29        2.13108  -0.00425  -0.00792  -0.01904  -0.02849   2.10259
   A30        2.17892   0.00355   0.01405   0.00806   0.02076   2.19968
   A31        1.94628   0.00375   0.01041  -0.01120   0.00009   1.94636
   A32        2.16831  -0.00041   0.00516  -0.00313   0.00007   2.16838
   A33        2.13858  -0.00151  -0.00553   0.02200   0.01465   2.15323
   A34        2.21235  -0.05034  -0.17042  -0.05369  -0.22411   1.98825
    D1        0.00406  -0.00033  -0.00432   0.02506   0.02068   0.02474
    D2       -2.90989  -0.00551  -0.02483  -0.07938  -0.10141  -3.01130
    D3       -3.13816   0.00084   0.00211   0.02736   0.02875  -3.10941
    D4        0.23108  -0.00434  -0.01839  -0.07708  -0.09334   0.13774
    D5       -0.00676  -0.00016  -0.00008  -0.01063  -0.01020  -0.01696
    D6       -3.12872   0.00029   0.00230  -0.00859  -0.00637  -3.13509
    D7        3.13545  -0.00131  -0.00636  -0.01288  -0.01824   3.11721
    D8        0.01349  -0.00085  -0.00399  -0.01083  -0.01441  -0.00092
    D9        0.00043   0.00069   0.00671  -0.02712  -0.02073  -0.02030
   D10        3.11840   0.00063   0.00121  -0.02067  -0.02017   3.09822
   D11        2.93557   0.00423   0.02537   0.05638   0.08459   3.02016
   D12       -0.22965   0.00417   0.01987   0.06283   0.08515  -0.14451
   D13       -0.27636   0.00181   0.00591   0.04508   0.05109  -0.22527
   D14        3.10007  -0.00448  -0.02188  -0.04962  -0.07160   3.02847
   D15       -0.00361  -0.00064  -0.00571   0.01765   0.01262   0.00901
   D16       -3.12516  -0.00037  -0.00048   0.01208   0.01270  -3.11246
   D17        0.08750  -0.00172  -0.00000   0.00000   0.00000   0.08750
   D18       -3.09163   0.00107   0.01079   0.00944   0.02052  -3.07110
   D19       -3.07974  -0.00191  -0.00644   0.00757   0.00063  -3.07911
   D20        0.02432   0.00088   0.00435   0.01701   0.02114   0.04547
   D21        0.00600   0.00049   0.00349  -0.00425  -0.00111   0.00489
   D22        3.12842   0.00015   0.00142  -0.00579  -0.00401   3.12442
   D23        3.14129   0.00116   0.00539  -0.00590  -0.00019   3.14111
   D24        0.03127  -0.00098  -0.00309  -0.01349  -0.01705   0.01421
   D25        3.13899  -0.00173  -0.00813   0.01112   0.00318  -3.14102
   D26       -0.14748   0.00275   0.01550   0.03796   0.05366  -0.09381
   D27       -0.03658   0.00073   0.00130   0.01991   0.02173  -0.01485
   D28        2.96013   0.00520   0.02493   0.04675   0.07222   3.03235
   D29       -0.01810   0.00127   0.00491   0.00347   0.00830  -0.00980
   D30       -2.63941  -0.00761  -0.03704  -0.04556  -0.08353  -2.72294
   D31        0.00027  -0.00077  -0.00430   0.00756   0.00312   0.00339
   D32       -2.71626  -0.00973  -0.04480  -0.05141  -0.09345  -2.80971
   D33        2.70956   0.00796   0.03636   0.05471   0.08851   2.79807
   D34       -0.00697  -0.00100  -0.00414  -0.00426  -0.00806  -0.01503
   D35        2.63724   0.00724   0.03770   0.03771   0.07669   2.71393
   D36       -0.24839  -0.00022  -0.00123   0.00246   0.00230  -0.24609
   D37        0.02140   0.00052   0.00301  -0.01632  -0.01374   0.00766
   D38       -2.86423  -0.00694  -0.03592  -0.05156  -0.08813  -2.95236
   D39        0.02405   0.00008   0.00195  -0.01802  -0.01639   0.00766
   D40       -2.97315  -0.00408  -0.02000  -0.04614  -0.06667  -3.03981
   D41        2.64886   0.00638   0.03340   0.05293   0.08769   2.73655
   D42       -0.34834   0.00222   0.01144   0.02481   0.03742  -0.31092
   D43       -0.00680   0.00119   0.00376   0.01761   0.02083   0.01404
   D44       -2.63747  -0.00770  -0.03714  -0.04505  -0.08356  -2.72102
   D45        0.01917  -0.00081  -0.00188  -0.02697  -0.02910  -0.00992
   D46        2.99330   0.00626   0.03337   0.02178   0.05356   3.04686
   D47       -0.02631   0.00042  -0.00001   0.02912   0.02964   0.00333
   D48        2.86439   0.00790   0.04011   0.05949   0.10080   2.96519
   D49       -2.99500  -0.00598  -0.03353  -0.01818  -0.05286  -3.04786
   D50       -0.10430   0.00149   0.00659   0.01219   0.01831  -0.08599
         Item               Value     Threshold  Converged?
 Maximum Force            0.102176     0.000450     NO 
 RMS     Force            0.017899     0.000300     NO 
 Maximum Displacement     0.818661     0.001800     NO 
 RMS     Displacement     0.112137     0.001200     NO 
 Predicted change in Energy=-7.596586D-02
 GradGradGradGradGradGradGradGradGradGradGradGradGradGradGradGradGradGrad

                          Input orientation:                          
 ---------------------------------------------------------------------
 Center     Atomic      Atomic             Coordinates (Angstroms)
 Number     Number       Type             X           Y           Z
 ---------------------------------------------------------------------
      1          6           0       -4.181592   -1.328914   -0.229150
      2          6           0       -2.832815   -0.968418   -0.559360
      3          6           0       -1.963674   -2.007893   -0.560003
      4          6           0       -4.305776   -2.643472    0.046914
      5          1           0       -5.004942   -0.631701   -0.210336
      6         16           0       -2.810480   -3.486200   -0.109023
      7          1           0       -5.212360   -3.158762    0.315367
      8          6           0       -0.537111   -2.060499   -0.886601
      9         16           0        0.401861   -0.609217   -1.257522
     10          6           0        1.838515   -1.557325   -1.491614
     11          6           0        1.595757   -2.887541   -1.282331
     12          6           0        0.235625   -3.169924   -0.930945
     13          1           0       -0.110695   -4.149804   -0.642864
     14         16           0        3.070439   -3.765345   -0.987338
     15          6           0        3.991355   -2.287900   -1.132282
     16          6           0        3.230116   -1.209996   -1.398580
     17          1           0        5.050211   -2.282594   -0.934315
     18          1           0        3.602596   -0.196930   -1.365527
     19          8           0       -2.407792    0.269588   -0.732703
     20          1           0       -3.051239    0.858847   -0.805789
 ---------------------------------------------------------------------
                    Distance matrix (angstroms):
                    1          2          3          4          5
     1  C    0.000000
     2  C    1.434641   0.000000
     3  C    2.342997   1.354959   0.000000
     4  C    1.348962   2.311490   2.501549   0.000000
     5  H    1.079057   2.225608   3.356409   2.145282   0.000000
     6  S    2.558957   2.557836   1.762343   1.723490   3.601957
     7  H    2.169637   3.350371   3.555942   1.076793   2.589483
     8  C    3.774878   2.563198   1.464417   3.926085   4.739231
     9  S    4.752215   3.328601   2.835240   5.291653   5.507324
    10  C    6.155297   4.799712   3.940502   6.426437   7.023629
    11  C    6.075876   4.880366   3.736990   6.054301   7.057423
    12  C    4.836698   3.794737   2.514922   4.675220   5.867316
    13  H    4.969988   4.187855   2.833404   4.510381   6.042995
    14  S    7.687848   6.546325   5.349164   7.532385   8.696852
    15  C    8.278427   6.974135   5.989013   8.388045   9.193820
    16  C    7.504341   6.125503   5.321214   7.806022   8.340416
    17  H    9.307682   8.000609   7.029236   9.414219  10.215463
    18  H    7.947725   6.531433   5.908623   8.397792   8.695586
    19  O    2.440315   1.320360   2.326797   3.563153   2.798281
    20  H    2.529132   1.856700   3.075940   3.816701   2.528488
                    6          7          8          9         10
     6  S    0.000000
     7  H    2.460965   0.000000
     8  C    2.793824   4.950642   0.000000
     9  S    4.462646   6.363460   1.767900   0.000000
    10  C    5.219700   7.452826   2.502563   1.737148   0.000000
    11  C    4.598909   6.998332   2.321579   2.572307   1.368285
    12  C    3.170858   5.588735   1.352742   2.586795   2.341811
    13  H    2.830935   5.284634   2.146260   3.629913   3.352721
    14  S    5.952694   8.406529   3.991374   4.141914   2.578232
    15  C    6.981972   9.357480   4.540823   3.964609   2.301646
    16  C    6.582770   8.832367   3.895829   2.894799   1.437305
    17  H    7.995012  10.375438   5.591937   4.950940   3.339399
    18  H    7.316122   9.449936   4.565023   3.228986   2.231267
    19  O    3.828456   4.551662   2.992063   2.990298   4.684515
    20  H    4.407140   4.697724   3.853564   3.779309   5.497085
                   11         12         13         14         15
    11  C    0.000000
    12  C    1.432889   0.000000
    13  H    2.216800   1.078468   0.000000
    14  S    1.741335   2.897219   3.222745   0.000000
    15  C    2.474059   3.863160   4.531338   1.746979   0.000000
[...]
      2          6           0       -2.676230    0.853716   -0.043131
      3          6           0       -1.735312   -0.122184   -0.002048
      4          6           0       -4.083757   -0.978350    0.021250
      5          1           0       -4.895171    1.008732   -0.059451
      6         16           0       -2.514314   -1.690469    0.058484
      7          1           0       -4.963554   -1.598253    0.041255
      8          6           0       -0.276126   -0.012485   -0.006110
      9         16           0        0.537528    1.550276    0.060029
     10          6           0        2.089526    0.772704    0.034335
     11          6           0        1.963238   -0.583199   -0.022449
     12          6           0        0.609260   -1.040919   -0.046239
     13          1           0        0.320034   -2.078020   -0.092120
     14         16           0        3.518569   -1.357578   -0.054082
     15          6           0        4.312167    0.195874    0.010809
     16          6           0        3.448754    1.232103    0.052982
     17          1           0        5.387842    0.243714    0.014016
     18          1           0        3.752881    2.265350    0.095886
     19          8           0       -2.359764    2.165172   -0.091756
     20          1           0       -3.134202    2.701358   -0.110773
 ---------------------------------------------------------------------
 Rotational constants (GHZ):           1.3019421           0.2829632           0.2325741

 **********************************************************************

            Population analysis using the SCF Density.

 **********************************************************************

 Orbital symmetries:
       Occupied  (A) (A) (A) (A) (A) (A) (A) (A) (A) (A) (A) (A)
                 (A) (A) (A) (A) (A) (A) (A) (A) (A) (A) (A) (A)
                 (A) (A) (A) (A) (A) (A) (A) (A) (A) (A) (A) (A)
                 (A) (A) (A) (A) (A) (A) (A) (A) (A) (A) (A) (A)
                 (A) (A) (A) (A) (A) (A) (A) (A) (A) (A) (A) (A)
                 (A)
       Virtual   (A) (A) (A) (A) (A) (A) (A) (A) (A) (A) (A) (A)
                 (A) (A) (A) (A) (A) (A) (A) (A) (A) (A) (A) (A)
                 (A) (A) (A) (A) (A) (A) (A) (A) (A) (A) (A) (A)
                 (A) (A) (A) (A) (A) (A) (A) (A) (A) (A) (A) (A)
                 (A) (A) (A) (A) (A) (A) (A) (A) (A) (A) (A) (A)
                 (A) (A) (A) (A) (A) (A) (A) (A) (A) (A) (A) (A)
                 (A) (A) (A) (A) (A) (A) (A) (A) (A) (A) (A) (A)
                 (A) (A) (A) (A) (A) (A) (A) (A) (A) (A) (A) (A)
                 (A) (A) (A) (A) (A) (A) (A) (A) (A) (A) (A) (A)
                 (A) (A) (A) (A) (A) (A) (A) (A) (A) (A) (A) (A)
                 (A) (A) (A) (A) (A) (A) (A) (A) (A) (A) (A) (A)
                 (A) (A) (A) (A) (A) (A) (A) (A) (A) (A) (A) (A)
                 (A) (A) (A) (A) (A) (A) (A) (A) (A) (A) (A) (A)
                 (A) (A) (A) (A) (A) (A) (A) (A) (A) (A) (A) (A)
                 (A) (A) (A) (A) (A) (A) (A) (A) (A) (A) (A) (A)
                 (A) (A) (A) (A) (A) (A) (A) (A) (A) (A) (A) (A)
                 (A) (A) (A) (A) (A) (A) (A) (A) (A) (A) (A) (A)
                 (A) (A) (A) (A) (A) (A) (A) (A) (A) (A) (A) (A)
                 (A) (A) (A) (A) (A) (A) (A) (A) (A) (A) (A) (A)
                 (A) (A) (A) (A) (A) (A) (A) (A) (A) (A) (A) (A)
                 (A) (A) (A) (A) (A) (A) (A) (A) (A) (A) (A) (A)
                 (A) (A) (A) (A) (A) (A) (A) (A) (A) (A) (A) (A)
                 (A) (A) (A) (A) (A) (A) (A) (A) (A) (A) (A) (A)
                 (A) (A) (A) (A) (A) (A) (A) (A) (A) (A) (A) (A)
                 (A) (A) (A) (A) (A) (A) (A) (A) (A) (A) (A) (A)
                 (A) (A) (A) (A) (A) (A) (A) (A) (A) (A) (A) (A)
                 (A) (A) (A) (A) (A) (A) (A) (A) (A) (A) (A) (A)
                 (A) (A) (A)
 The electronic state is 1-A.
 Alpha  occ. eigenvalues --  -91.99174 -91.98441 -91.98339 -20.61471 -11.32027
 Alpha  occ. eigenvalues --  -11.28925 -11.28660 -11.27557 -11.27141 -11.26637
 Alpha  occ. eigenvalues --  -11.26319 -11.25813 -11.25255 -11.24914  -8.99401
 Alpha  occ. eigenvalues --   -8.98624  -8.98482  -6.67575  -6.67483  -6.67279
 Alpha  occ. eigenvalues --   -6.66791  -6.66714  -6.66640  -6.66559  -6.66508
 Alpha  occ. eigenvalues --   -6.66347  -1.43548  -1.21182  -1.18684  -1.12519
 Alpha  occ. eigenvalues --   -1.03176  -1.01928  -0.98971  -0.95625  -0.94045
 Alpha  occ. eigenvalues --   -0.82877  -0.81711  -0.77108  -0.75394  -0.71170
 Alpha  occ. eigenvalues --   -0.70239  -0.67350  -0.66280  -0.62093  -0.61661
 Alpha  occ. eigenvalues --   -0.58808  -0.56348  -0.56145  -0.53996  -0.52721
 Alpha  occ. eigenvalues --   -0.52311  -0.51634  -0.49628  -0.47796  -0.46821
 Alpha  occ. eigenvalues --   -0.45310  -0.38951  -0.35982  -0.34224  -0.31650
 Alpha  occ. eigenvalues --   -0.27152
 Alpha virt. eigenvalues --    0.02691   0.03696   0.03897   0.05007   0.05142
 Alpha virt. eigenvalues --    0.06282   0.06713   0.08556   0.09438   0.09755
 Alpha virt. eigenvalues --    0.10382   0.10706   0.10820   0.11113   0.11677
 Alpha virt. eigenvalues --    0.12557   0.12683   0.13059   0.13205   0.13542
 Alpha virt. eigenvalues --    0.13865   0.14380   0.14552   0.15177   0.15356
 Alpha virt. eigenvalues --    0.15471   0.15654   0.16951   0.16971   0.17203
 Alpha virt. eigenvalues --    0.17505   0.18433   0.18737   0.19201   0.19611
 Alpha virt. eigenvalues --    0.19820   0.20119   0.20705   0.21197   0.22227
 Alpha virt. eigenvalues --    0.22519   0.22747   0.22811   0.23471   0.23812
 Alpha virt. eigenvalues --    0.23914   0.24384   0.25135   0.25876   0.26217
 Alpha virt. eigenvalues --    0.26608   0.27295   0.27928   0.28046   0.28199
 Alpha virt. eigenvalues --    0.28809   0.29206   0.29836   0.31366   0.31909
 Alpha virt. eigenvalues --    0.32088   0.32172   0.32281   0.33075   0.33820
 Alpha virt. eigenvalues --    0.34368   0.34783   0.35876   0.36165   0.36822
 Alpha virt. eigenvalues --    0.36885   0.37650   0.38351   0.39303   0.40011
 Alpha virt. eigenvalues --    0.40399   0.40771   0.41931   0.42129   0.42569
 Alpha virt. eigenvalues --    0.43199   0.43573   0.44623   0.44882   0.45401
 Alpha virt. eigenvalues --    0.45969   0.46935   0.47366   0.47870   0.48523
 Alpha virt. eigenvalues --    0.49076   0.50422   0.51060   0.51301   0.51764
 Alpha virt. eigenvalues --    0.52285   0.54064   0.54514   0.54815   0.55867
 Alpha virt. eigenvalues --    0.56485   0.56696   0.59145   0.59549   0.59937
 Alpha virt. eigenvalues --    0.59996   0.62291   0.62785   0.62993   0.63381
 Alpha virt. eigenvalues --    0.63621   0.64509   0.65185   0.66643   0.66723
 Alpha virt. eigenvalues --    0.66946   0.67186   0.67759   0.68155   0.69003
 Alpha virt. eigenvalues --    0.69317   0.69528   0.69751   0.70802   0.71177
 Alpha virt. eigenvalues --    0.71549   0.72472   0.72639   0.73674   0.74098
 Alpha virt. eigenvalues --    0.74807   0.75515   0.76336   0.76816   0.77354
 Alpha virt. eigenvalues --    0.78400   0.78905   0.79081   0.80072   0.80745
 Alpha virt. eigenvalues --    0.81918   0.82614   0.83243   0.83428   0.84551
 Alpha virt. eigenvalues --    0.84912   0.85716   0.86519   0.86808   0.87250
 Alpha virt. eigenvalues --    0.89221   0.90072   0.90769   0.91012   0.91595
 Alpha virt. eigenvalues --    0.92266   0.93270   0.94066   0.94872   0.95825
 Alpha virt. eigenvalues --    0.96171   0.96763   0.97211   0.98170   0.98718
 Alpha virt. eigenvalues --    0.99374   1.01203   1.01980   1.02645   1.03473
 Alpha virt. eigenvalues --    1.04519   1.04803   1.06244   1.07748   1.09020
 Alpha virt. eigenvalues --    1.09903   1.10845   1.10899   1.11626   1.12467
 Alpha virt. eigenvalues --    1.13737   1.15003   1.16762   1.17625   1.20262
 Alpha virt. eigenvalues --    1.20737   1.21107   1.22196   1.22990   1.24672
 Alpha virt. eigenvalues --    1.25037   1.26549   1.26696   1.28091   1.28896
 Alpha virt. eigenvalues --    1.29435   1.30434   1.31187   1.32439   1.33770
 Alpha virt. eigenvalues --    1.34435   1.35144   1.35839   1.36617   1.37942
 Alpha virt. eigenvalues --    1.38141   1.40077   1.41168   1.41573   1.44694
 Alpha virt. eigenvalues --    1.45908   1.47207   1.48962   1.49288   1.51166
 Alpha virt. eigenvalues --    1.52517   1.54770   1.55184   1.55631   1.57863
 Alpha virt. eigenvalues --    1.58436   1.59856   1.60292   1.62266   1.63235
 Alpha virt. eigenvalues --    1.63857   1.64725   1.66300   1.66723   1.69203
 Alpha virt. eigenvalues --    1.69682   1.70670   1.72886   1.73129   1.74110
 Alpha virt. eigenvalues --    1.75082   1.76210   1.77394   1.78717   1.79350
 Alpha virt. eigenvalues --    1.80975   1.81397   1.82028   1.83324   1.83851
 Alpha virt. eigenvalues --    1.84917   1.86816   1.87651   1.89913   1.90484
 Alpha virt. eigenvalues --    1.91619   1.93847   1.94160   1.95153   1.96500
 Alpha virt. eigenvalues --    1.98583   2.00827   2.01380   2.02787   2.03093
 Alpha virt. eigenvalues --    2.03928   2.06547   2.09206   2.10763   2.10877
 Alpha virt. eigenvalues --    2.11200   2.12098   2.14285   2.16764   2.17428
 Alpha virt. eigenvalues --    2.18125   2.20165   2.21840   2.22031   2.22815
 Alpha virt. eigenvalues --    2.25934   2.27385   2.27685   2.29042   2.32965
 Alpha virt. eigenvalues --    2.34875   2.36525   2.36729   2.37449   2.37794
 Alpha virt. eigenvalues --    2.41412   2.42397   2.42751   2.45747   2.45848
 Alpha virt. eigenvalues --    2.48257   2.49279   2.51223   2.53469   2.55088
 Alpha virt. eigenvalues --    2.58143   2.61901   2.63163   2.65324   2.70038
 Alpha virt. eigenvalues --    2.77013   2.81552   2.83965   2.85972   2.88455
 Alpha virt. eigenvalues --    2.92370   2.98902   3.01213   3.04518   3.06177
 Alpha virt. eigenvalues --    3.17214   3.22686   3.27385   3.31366   3.35174
 Alpha virt. eigenvalues --    3.40991   3.54679   3.59867   3.74847   3.75171
 Alpha virt. eigenvalues --    3.75784   3.83484   3.89191   3.93535   4.13928
 Alpha virt. eigenvalues --    4.27942   4.48346
          Condensed to atoms (all electrons):
               1          2          3          4          5          6
     1  C    8.310304  -1.890657   0.219922  -0.040127  -0.333439  -0.578042
     2  C   -1.890657  12.863320  -3.500320   0.525291   0.220995  -0.491381
     3  C    0.219922  -3.500320  14.578340  -2.069292   0.120055  -0.301811
     4  C   -0.040127   0.525291  -2.069292   7.353383  -0.006627   0.198577
     5  H   -0.333439   0.220995   0.120055  -0.006627   1.667195  -0.041483
     6  S   -0.578042  -0.491381  -0.301811   0.198577  -0.041483  16.646893
     7  H    0.078633   0.075861  -0.019736   0.111128  -0.059681  -0.112506
     8  C   -0.246810  -0.435685  -4.044393   0.787233  -0.061124   0.102039
     9  S   -0.163223   0.308086  -0.790323   0.168009   0.016801   0.092316
    10  C   -0.109288   0.059531  -0.066285   0.067024   0.001015   0.049775
    11  C    0.003086   0.003988   0.346570  -0.055890  -0.002284  -0.134112
    12  C    0.104116  -1.044309   0.447935  -0.660554  -0.001012  -0.046411
    13  H   -0.012935   0.051701   0.036506   0.011402  -0.001119  -0.009973
    14  S    0.000298  -0.013302  -0.050009   0.001774   0.000053   0.022044
    15  C   -0.001701  -0.013954   0.030063   0.001699   0.000064   0.009887
    16  C   -0.005838   0.032077  -0.300763   0.002520  -0.000389   0.007138
    17  H    0.000021   0.000096  -0.000929   0.000007   0.000005   0.000159
    18  H   -0.000936   0.002803  -0.004798   0.000636  -0.000015   0.000757
    19  O    0.058809  -0.709919   0.305030  -0.059022  -0.042831   0.017941
    20  H   -0.137596  -0.021998  -0.014861  -0.013864  -0.009464   0.009695
               7          8          9         10         11         12
     1  C    0.078633  -0.246810  -0.163223  -0.109288   0.003086   0.104116
     2  C    0.075861  -0.435685   0.308086   0.059531   0.003988  -1.044309
     3  C   -0.019736  -4.044393  -0.790323  -0.066285   0.346570   0.447935
     4  C    0.111128   0.787233   0.168009   0.067024  -0.055890  -0.660554
     5  H   -0.059681  -0.061124   0.016801   0.001015  -0.002284  -0.001012
     6  S   -0.112506   0.102039   0.092316   0.049775  -0.134112  -0.046411
     7  H    1.297730   0.013265   0.000542   0.000245   0.002553  -0.003902
     8  C    0.013265  15.733823   0.322284  -1.090278  -0.484609  -5.294816
     9  S    0.000542   0.322284  17.211636   0.414568  -0.640517  -1.217061
    10  C    0.000245  -1.090278   0.414568  11.490527  -1.418184  -0.538588
    11  C    0.002553  -0.484609  -0.640517  -1.418184  13.957038  -3.598271
    12  C   -0.003902  -5.294816  -1.217061  -0.538588  -3.598271  19.725030
    13  H    0.004654   0.971464   0.043899  -0.148570   0.459225  -1.683131
    14  S   -0.000080  -0.426782   0.155479   0.204068  -0.704851   0.198462
    15  C    0.000023  -0.016773  -0.128416  -0.190893  -1.171414   0.139677
    16  C    0.000069   0.039524  -0.244949  -2.849956  -0.416989  -0.847393
    17  H   -0.000001  -0.000357   0.022468   0.119760  -0.119441   0.024485
    18  H    0.000020   0.048531   0.046682   0.560449   0.034536  -0.032062
    19  O   -0.002021   0.043404  -0.114921   0.006114  -0.005321   0.008576
    20  H    0.001280   0.018385   0.040383   0.008659  -0.000120  -0.012326
              13         14         15         16         17         18
     1  C   -0.012935   0.000298  -0.001701  -0.005838   0.000021  -0.000936
     2  C    0.051701  -0.013302  -0.013954   0.032077   0.000096   0.002803
     3  C    0.036506  -0.050009   0.030063  -0.300763  -0.000929  -0.004798
     4  C    0.011402   0.001774   0.001699   0.002520   0.000007   0.000636
     5  H   -0.001119   0.000053   0.000064  -0.000389   0.000005  -0.000015
     6  S   -0.009973   0.022044   0.009887   0.007138   0.000159   0.000757
     7  H    0.004654  -0.000080   0.000023   0.000069  -0.000001   0.000020
     8  C    0.971464  -0.426782  -0.016773   0.039524  -0.000357   0.048531
     9  S    0.043899   0.155479  -0.128416  -0.244949   0.022468   0.046682
    10  C   -0.148570   0.204068  -0.190893  -2.849956   0.119760   0.560449
    11  C    0.459225  -0.704851  -1.171414  -0.416989  -0.119441   0.034536
    12  C   -1.683131   0.198462   0.139677  -0.847393   0.024485  -0.032062
    13  H    1.867800  -0.064196   0.014677  -0.026807   0.002848   0.001588
    14  S   -0.064196  16.203011   0.247244  -0.131626  -0.133317   0.000490
    15  C    0.014677   0.247244   7.054090   0.119455   0.186729  -0.096763
    16  C   -0.026807  -0.131626   0.119455  10.846574   0.035561  -0.575320
    17  H    0.002848  -0.133317   0.186729   0.035561   1.319845  -0.070848
    18  H    0.001588   0.000490  -0.096763  -0.575320  -0.070848   1.416757
    19  O    0.001386   0.000515  -0.000653   0.001825   0.000015   0.000138
    20  H    0.000319   0.000002  -0.000008   0.000717  -0.000003   0.000099
              19         20
     1  C    0.058809  -0.137596
     2  C   -0.709919  -0.021998
     3  C    0.305030  -0.014861
     4  C   -0.059022  -0.013864
     5  H   -0.042831  -0.009464
     6  S    0.017941   0.009695
     7  H   -0.002021   0.001280
     8  C    0.043404   0.018385
     9  S   -0.114921   0.040383
    10  C    0.006114   0.008659
    11  C   -0.005321  -0.000120
    12  C    0.008576  -0.012326
    13  H    0.001386   0.000319
    14  S    0.000515   0.000002
    15  C   -0.000653  -0.000008
    16  C    0.001825   0.000717
    17  H    0.000015  -0.000003
    18  H    0.000138   0.000099
    19  O    9.063610   0.367924
    20  H    0.367924   0.571352
 Mulliken charges:
               1
     1  C    0.745403
     2  C   -0.022222
     3  C    1.079102
     4  C   -0.323306
     5  H   -0.466715
     6  S    0.558500
     7  H   -0.388075
     8  C    0.021675
     9  S    0.456259
    10  C   -0.569692
    11  C   -0.054991
    12  C    0.331556
    13  H   -0.520737
    14  S    0.490725
    15  C   -0.183034
    16  C    0.314570
    17  H   -0.387102
    18  H   -0.332745
    19  O   -0.940597
    20  H    0.191427
 Sum of Mulliken charges =  -0.00000
 Mulliken charges with hydrogens summed into heavy atoms:
               1
     1  C    0.278688
     2  C   -0.022222
     3  C    1.079102
     4  C   -0.711381
     6  S    0.558500
     8  C    0.021675
     9  S    0.456259
    10  C   -0.569692
    11  C   -0.054991
    12  C   -0.189182
    14  S    0.490725
    15  C   -0.570136
    16  C   -0.018174
    19  O   -0.749170
 Electronic spatial extent (au):  <R**2>=           4308.6888
 Charge=             -0.0000 electrons
 Dipole moment (field-independent basis, Debye):
    X=             -2.7322    Y=              1.1995    Z=             -0.0437  Tot=              2.9842
 Quadrupole moment (field-independent basis, Debye-Ang):
   XX=            -75.6554   YY=            -95.9498   ZZ=           -110.7453
   XY=             -1.0554   XZ=              0.4712   YZ=              0.0335
 Traceless Quadrupole moment (field-independent basis, Debye-Ang):
   XX=             18.4615   YY=             -1.8330   ZZ=            -16.6285
   XY=             -1.0554   XZ=              0.4712   YZ=              0.0335
 Octapole moment (field-independent basis, Debye-Ang**2):
  XXX=            -62.9085  YYY=             23.7335  ZZZ=             -0.5168  XYY=            -26.4960
  XXY=             41.5757  XXZ=             -0.4151  XZZ=             -5.0260  YZZ=              4.1962
  YYZ=             -0.4506  XYZ=              2.2392
 Hexadecapole moment (field-independent basis, Debye-Ang**3):
 XXXX=          -3952.8489 YYYY=          -1000.9952 ZZZZ=           -140.3147 XXXY=            -13.5827
 XXXZ=              7.9620 YYYX=            -50.8508 YYYZ=             -1.3394 ZZZX=              0.8479
 ZZZY=             -1.2934 XXYY=           -834.3315 XXZZ=           -914.3743 YYZZ=           -218.5508
 XXYZ=             -4.6392 YYXZ=              3.5588 ZZXY=            -14.0516
 N-N= 1.130696926526D+03 E-N=-6.168783755605D+03  KE= 1.649586889668D+03
 Unable to Open any file for archive entry.
 1\1\GINC-CX3-6-3\FOpt\RHF\Aug-CC-pVDZ\C10H6O1S3\NS5018\25-Oct-2021\0\\
 # opt=modredundant hf/aug-cc-pvdz\\pBTTT_5.pdb\\0,1\C,-4.2007968246,-1
 .3297300471,-0.3075693601\C,-2.8307809338,-0.9811591638,-0.5654416998\
 C,-1.9730028874,-2.030268197,-0.5108372459\C,-4.3538791842,-2.64456901
 68,-0.0604809654\H,-5.0103158243,-0.6151255545,-0.3131635433\S,-2.8558
 413149,-3.4947735577,-0.1289398072\H,-5.2676533213,-3.1685079836,0.161
 3908576\C,-0.5252614395,-2.0639998527,-0.7210307425\S,0.4094067014,-0.
 5920195092,-0.9823688316\C,1.8761263563,-1.5132226747,-1.1010942324\C,
 1.6371978956,-2.8464862205,-0.949544431\C,0.2620227177,-3.1700148738,-
 0.7314753335\H,-0.1111400644,-4.1714377269,-0.5927757065\S,3.106608442
 ,-3.7656244045,-1.0749825731\C,4.0205807486,-2.3010472431,-1.333613847
 3\C,3.2558783141,-1.1892064473,-1.3251337703\H,5.0861162039,-2.3577127
 801,-1.4778310646\H,3.643017119,-0.1934152687,-1.4681595255\O,-2.42273
 25102,0.2762458833,-0.8390487073\H,-3.147550194,0.8780746387,-0.831899
 4704\\Version=ES64L-G16RevC.01\State=1-A\HF=-1649.6426417\RMSD=6.036e-
 09\RMSF=3.723e-05\Dipole=-1.0260595,0.5677848,0.0572536\Quadrupole=13.
 0798704,-1.2550287,-11.8248417,-2.3599757,-3.0354678,-1.1217479\PG=C01
  [X(C10H6O1S3)]\\@
 The archive entry for this job was punched.


 ALL OUR THINKING ABOUT NATURE MUST NECESSARILY MOVE IN CIRCLES OR SPIRALS;
 FOR WE CAN ONLY UNDERSTAND NATURE IF WE THINK ABOUT HER, AND WE CAN ONLY
 THINK BECAUSE OUR BRAIN IS BUILT IN ACCORDANCE WITH NATURE'S LAWS.

                                             -- TIMOTHY FERRIS, "GALAXIES"
 Job cpu time:       0 days  4 hours 50 minutes  9.8 seconds.
 Elapsed time:       0 days  0 hours 36 minutes 37.5 seconds.
 File lengths (MBytes):  RWF=     95 Int=      0 D2E=      0 Chk=     12 Scr=      1
 Normal termination of Gaussian 16 at Mon Oct 25 23:15:23 2021.
