 Entering Gaussian System, Link 0=g16
 Input=pBTTT_-85.gjf
 Output=pBTTT_-85.log
 Initial command:
 /apps/gaussian/g16-c01-avx/g16/l1.exe "/tmp/pbs.4762170[90].pbs/Gau-4157712.inp" -scrdir="/tmp/pbs.4762170[90].pbs/"
 Entering Link 1 = /apps/gaussian/g16-c01-avx/g16/l1.exe PID=   4157713.
  
 Copyright (c) 1988-2019, Gaussian, Inc.  All Rights Reserved.
  
 This is part of the Gaussian(R) 16 program.  It is based on
 the Gaussian(R) 09 system (copyright 2009, Gaussian, Inc.),
 the Gaussian(R) 03 system (copyright 2003, Gaussian, Inc.),
 the Gaussian(R) 98 system (copyright 1998, Gaussian, Inc.),
 the Gaussian(R) 94 system (copyright 1995, Gaussian, Inc.),
 the Gaussian 92(TM) system (copyright 1992, Gaussian, Inc.),
 the Gaussian 90(TM) system (copyright 1990, Gaussian, Inc.),
 the Gaussian 88(TM) system (copyright 1988, Gaussian, Inc.),
 the Gaussian 86(TM) system (copyright 1986, Carnegie Mellon
 University), and the Gaussian 82(TM) system (copyright 1983,
 Carnegie Mellon University). Gaussian is a federally registered
 trademark of Gaussian, Inc.
  
 This software contains proprietary and confidential information,
 including trade secrets, belonging to Gaussian, Inc.
  
 This software is provided under written license and may be
 used, copied, transmitted, or stored only in accord with that
 written license.
  
 The following legend is applicable only to US Government
 contracts under FAR:
  
                    RESTRICTED RIGHTS LEGEND
  
 Use, reproduction and disclosure by the US Government is
 subject to restrictions as set forth in subparagraphs (a)
 and (c) of the Commercial Computer Software - Restricted
 Rights clause in FAR 52.227-19.
  
 Gaussian, Inc.
 340 Quinnipiac St., Bldg. 40, Wallingford CT 06492
  
  
 ---------------------------------------------------------------
 Warning -- This program may not be used in any manner that
 competes with the business of Gaussian, Inc. or will provide
 assistance to any competitor of Gaussian, Inc.  The licensee
 of this program is prohibited from giving any competitor of
 Gaussian, Inc. access to this program.  By using this program,
 the user acknowledges that Gaussian, Inc. is engaged in the
 business of creating and licensing software in the field of
 computational chemistry and represents and warrants to the
 licensee that it is not a competitor of Gaussian, Inc. and that
 it will not use this program in any manner prohibited above.
 ---------------------------------------------------------------
  

 Cite this work as:
 Gaussian 16, Revision C.01,
 M. J. Frisch, G. W. Trucks, H. B. Schlegel, G. E. Scuseria, 
 M. A. Robb, J. R. Cheeseman, G. Scalmani, V. Barone, 
 G. A. Petersson, H. Nakatsuji, X. Li, M. Caricato, A. V. Marenich, 
 J. Bloino, B. G. Janesko, R. Gomperts, B. Mennucci, H. P. Hratchian, 
 J. V. Ortiz, A. F. Izmaylov, J. L. Sonnenberg, D. Williams-Young, 
 F. Ding, F. Lipparini, F. Egidi, J. Goings, B. Peng, A. Petrone, 
 T. Henderson, D. Ranasinghe, V. G. Zakrzewski, J. Gao, N. Rega, 
 G. Zheng, W. Liang, M. Hada, M. Ehara, K. Toyota, R. Fukuda, 
 J. Hasegawa, M. Ishida, T. Nakajima, Y. Honda, O. Kitao, H. Nakai, 
 T. Vreven, K. Throssell, J. A. Montgomery, Jr., J. E. Peralta, 
 F. Ogliaro, M. J. Bearpark, J. J. Heyd, E. N. Brothers, K. N. Kudin, 
 V. N. Staroverov, T. A. Keith, R. Kobayashi, J. Normand, 
 K. Raghavachari, A. P. Rendell, J. C. Burant, S. S. Iyengar, 
 J. Tomasi, M. Cossi, J. M. Millam, M. Klene, C. Adamo, R. Cammi, 
 J. W. Ochterski, R. L. Martin, K. Morokuma, O. Farkas, 
 J. B. Foresman, and D. J. Fox, Gaussian, Inc., Wallingford CT, 2019.
 
 ******************************************
 Gaussian 16:  ES64L-G16RevC.01  3-Jul-2019
                25-Oct-2021 
 ******************************************
 %mem=100GB
 %nprocshared=8
 Will use up to    8 processors via shared memory.
 ---------------------------------
 # opt=modredundant hf/aug-cc-pvdz
 ---------------------------------
 1/18=120,19=15,38=1/1,3;
 2/9=110,12=2,17=6,18=5,40=1/2;
 3/5=16,7=10,11=9,25=1,30=1,71=1/1,2,3;
 4//1;
 5/5=2,38=5/2;
 6/7=2,8=2,9=2,10=2,28=1/1;
 7//1,2,3,16;
 1/18=20,19=15/3(2);
 2/9=110/2;
 99//99;
 2/9=110/2;
 3/5=16,7=10,11=9,25=1,30=1,71=1/1,2,3;
 4/5=5,16=3,69=1/1;
 5/5=2,38=5/2;
 7//1,2,3,16;
 1/18=20,19=15/3(-5);
 2/9=110/2;
 6/7=2,8=2,9=2,10=2,19=2,28=1/1;
 99/9=1/99;
 -------------
 pBTTT_-85.pdb
 -------------
 Symbolic Z-matrix:
 Charge =  0 Multiplicity = 1
 C                    -4.25     -1.36     -0.21 
 C                    -2.93     -0.95     -0.61 
 C                    -1.97     -2.05     -0.62 
 C                    -4.33     -2.76      0.1 
 H                    -5.1      -0.7      -0.14 
 S                    -2.8      -3.56     -0.11 
 H                    -5.23     -3.27      0.41 
 C                    -0.56     -2.13     -0.97 
 S                    -0.014    -2.366    -2.658 
 C                     1.657    -2.34     -2.211 
 C                     1.843    -2.128    -0.798 
 C                     0.604    -1.991    -0.092 
 H                     0.545    -1.667     0.935 
 S                     3.372    -1.402    -0.427 
 C                     3.816    -1.372    -2.135 
 C                     2.771    -1.898    -2.983 
 H                     4.688    -0.845    -2.498 
 H                     2.736    -1.716    -4.054 
 O                    -2.4       0.49     -0.72 
 H                    -2.92      1.52     -0.76 
 
 Add virtual bond connecting atoms H20        and O19        Dist= 2.18D+00.
 The following ModRedundant input section has been read:
 D       2       3       8       9 F                                           
 

 GradGradGradGradGradGradGradGradGradGradGradGradGradGradGradGradGradGrad
 Berny optimization.
 Initialization pass.
                           ----------------------------
                           !    Initial Parameters    !
                           ! (Angstroms and Degrees)  !
 --------------------------                            --------------------------
 ! Name  Definition              Value          Derivative Info.                !
 --------------------------------------------------------------------------------
 ! R1    R(1,2)                  1.4389         estimate D2E/DX2                !
 ! R2    R(1,4)                  1.4361         estimate D2E/DX2                !
 ! R3    R(1,5)                  1.0784         estimate D2E/DX2                !
 ! R4    R(2,3)                  1.46           estimate D2E/DX2                !
 ! R5    R(2,19)                 1.5384         estimate D2E/DX2                !
 ! R6    R(3,6)                  1.797          estimate D2E/DX2                !
 ! R7    R(3,8)                  1.455          estimate D2E/DX2                !
 ! R8    R(4,6)                  1.7393         estimate D2E/DX2                !
 ! R9    R(4,7)                  1.0799         estimate D2E/DX2                !
 ! R10   R(8,9)                  1.7897         estimate D2E/DX2                !
 ! R11   R(8,12)                 1.4646         estimate D2E/DX2                !
 ! R12   R(9,10)                 1.7299         estimate D2E/DX2                !
 ! R13   R(10,11)                1.4409         estimate D2E/DX2                !
 ! R14   R(10,16)                1.4256         estimate D2E/DX2                !
 ! R15   R(11,12)                1.4326         estimate D2E/DX2                !
 ! R16   R(11,14)                1.7328         estimate D2E/DX2                !
 ! R17   R(12,13)                1.0785         estimate D2E/DX2                !
 ! R18   R(14,15)                1.765          estimate D2E/DX2                !
 ! R19   R(15,16)                1.4449         estimate D2E/DX2                !
 ! R20   R(15,17)                1.0816         estimate D2E/DX2                !
 ! R21   R(16,18)                1.0869         estimate D2E/DX2                !
 ! R22   R(19,20)                1.1545         estimate D2E/DX2                !
 ! A1    A(2,1,4)              112.8843         estimate D2E/DX2                !
 ! A2    A(2,1,5)              124.5209         estimate D2E/DX2                !
 ! A3    A(4,1,5)              122.5942         estimate D2E/DX2                !
 ! A4    A(1,2,3)              112.9799         estimate D2E/DX2                !
 ! A5    A(1,2,19)             127.059          estimate D2E/DX2                !
 ! A6    A(3,2,19)             118.5686         estimate D2E/DX2                !
 ! A7    A(2,3,6)              109.1138         estimate D2E/DX2                !
 ! A8    A(2,3,8)              132.8639         estimate D2E/DX2                !
 ! A9    A(6,3,8)              118.0132         estimate D2E/DX2                !
 ! A10   A(1,4,6)              111.9209         estimate D2E/DX2                !
 ! A11   A(1,4,7)              124.6643         estimate D2E/DX2                !
 ! A12   A(6,4,7)              123.4062         estimate D2E/DX2                !
 ! A13   A(3,6,4)               93.0997         estimate D2E/DX2                !
 ! A14   A(3,8,9)              121.9897         estimate D2E/DX2                !
 ! A15   A(3,8,12)             128.3709         estimate D2E/DX2                !
 ! A16   A(9,8,12)             109.6003         estimate D2E/DX2                !
 ! A17   A(8,9,10)              92.8083         estimate D2E/DX2                !
 ! A18   A(9,10,11)            112.3518         estimate D2E/DX2                !
 ! A19   A(9,10,16)            128.2819         estimate D2E/DX2                !
 ! A20   A(11,10,16)           112.6164         estimate D2E/DX2                !
 ! A21   A(10,11,12)           112.6876         estimate D2E/DX2                !
 ! A22   A(10,11,14)           112.6758         estimate D2E/DX2                !
 ! A23   A(12,11,14)           128.1388         estimate D2E/DX2                !
 ! A24   A(8,12,11)            112.51           estimate D2E/DX2                !
 ! A25   A(8,12,13)            123.7711         estimate D2E/DX2                !
 ! A26   A(11,12,13)           123.0463         estimate D2E/DX2                !
 ! A27   A(11,14,15)            91.255          estimate D2E/DX2                !
 ! A28   A(14,15,16)           112.3216         estimate D2E/DX2                !
 ! A29   A(14,15,17)           122.4019         estimate D2E/DX2                !
 ! A30   A(16,15,17)           124.2962         estimate D2E/DX2                !
 ! A31   A(10,16,15)           111.1123         estimate D2E/DX2                !
 ! A32   A(10,16,18)           124.0798         estimate D2E/DX2                !
 ! A33   A(15,16,18)           122.7259         estimate D2E/DX2                !
 ! A34   A(2,19,20)            133.0318         estimate D2E/DX2                !
 ! D1    D(4,1,2,3)              0.3915         estimate D2E/DX2                !
 ! D2    D(4,1,2,19)          -165.8104         estimate D2E/DX2                !
 ! D3    D(5,1,2,3)           -179.8811         estimate D2E/DX2                !
 ! D4    D(5,1,2,19)            13.9169         estimate D2E/DX2                !
 ! D5    D(2,1,4,6)             -0.3845         estimate D2E/DX2                !
 ! D6    D(2,1,4,7)           -179.3471         estimate D2E/DX2                !
 ! D7    D(5,1,4,6)            179.8822         estimate D2E/DX2                !
 ! D8    D(5,1,4,7)              0.9196         estimate D2E/DX2                !
 ! D9    D(1,2,3,6)             -0.2224         estimate D2E/DX2                !
 ! D10   D(1,2,3,8)            178.6265         estimate D2E/DX2                !
 ! D11   D(19,2,3,6)           167.2616         estimate D2E/DX2                !
 ! D12   D(19,2,3,8)           -13.8895         estimate D2E/DX2                !
 ! D13   D(1,2,19,20)          -16.0519         estimate D2E/DX2                !
 ! D14   D(3,2,19,20)          178.4264         estimate D2E/DX2                !
 ! D15   D(2,3,6,4)              0.0033         estimate D2E/DX2                !
 ! D16   D(8,3,6,4)           -179.041          estimate D2E/DX2                !
 ! D17   D(2,3,8,9)            -85.0185         Frozen                          !
 ! D18   D(2,3,8,12)            92.4617         estimate D2E/DX2                !
 ! D19   D(6,3,8,9)             93.7494         estimate D2E/DX2                !
 ! D20   D(6,3,8,12)           -88.7703         estimate D2E/DX2                !
 ! D21   D(1,4,6,3)              0.2153         estimate D2E/DX2                !
 ! D22   D(7,4,6,3)            179.1932         estimate D2E/DX2                !
 ! D23   D(3,8,9,10)           179.77           estimate D2E/DX2                !
 ! D24   D(12,8,9,10)            1.8668         estimate D2E/DX2                !
 ! D25   D(3,8,12,11)         -179.8589         estimate D2E/DX2                !
 ! D26   D(3,8,12,13)           -9.0231         estimate D2E/DX2                !
 ! D27   D(9,8,12,11)           -2.1273         estimate D2E/DX2                !
 ! D28   D(9,8,12,13)          168.7084         estimate D2E/DX2                !
 ! D29   D(8,9,10,11)           -1.1665         estimate D2E/DX2                !
 ! D30   D(8,9,10,16)         -149.8407         estimate D2E/DX2                !
 ! D31   D(9,10,11,12)           0.1222         estimate D2E/DX2                !
 ! D32   D(9,10,11,14)        -154.05           estimate D2E/DX2                !
 ! D33   D(16,10,11,12)        153.8838         estimate D2E/DX2                !
 ! D34   D(16,10,11,14)         -0.2884         estimate D2E/DX2                !
 ! D35   D(9,10,16,15)         149.745          estimate D2E/DX2                !
 ! D36   D(9,10,16,18)         -14.1814         estimate D2E/DX2                !
 ! D37   D(11,10,16,15)          1.1375         estimate D2E/DX2                !
 ! D38   D(11,10,16,18)       -162.7889         estimate D2E/DX2                !
 ! D39   D(10,11,12,8)           1.3279         estimate D2E/DX2                !
 ! D40   D(10,11,12,13)       -169.5847         estimate D2E/DX2                !
 ! D41   D(14,11,12,8)         150.5906         estimate D2E/DX2                !
 ! D42   D(14,11,12,13)        -20.322          estimate D2E/DX2                !
 ! D43   D(10,11,14,15)         -0.4905         estimate D2E/DX2                !
 ! D44   D(12,11,14,15)       -149.7561         estimate D2E/DX2                !
 ! D45   D(11,14,15,16)          1.1437         estimate D2E/DX2                !
 ! D46   D(11,14,15,17)        170.2588         estimate D2E/DX2                !
 ! D47   D(14,15,16,10)         -1.5022         estimate D2E/DX2                !
 ! D48   D(14,15,16,18)        162.6793         estimate D2E/DX2                !
 ! D49   D(17,15,16,10)       -170.3748         estimate D2E/DX2                !
 ! D50   D(17,15,16,18)         -6.1933         estimate D2E/DX2                !
 --------------------------------------------------------------------------------
 Trust Radius=3.00D-01 FncErr=1.00D-07 GrdErr=1.00D-07 EigMax=2.50D+02 EigMin=1.00D-04
 Number of steps in this run=    116 maximum allowed number of steps=    120.
 GradGradGradGradGradGradGradGradGradGradGradGradGradGradGradGradGradGrad

                          Input orientation:                          
 ---------------------------------------------------------------------
 Center     Atomic      Atomic             Coordinates (Angstroms)
 Number     Number       Type             X           Y           Z
 ---------------------------------------------------------------------
      1          6           0       -4.250000   -1.360000   -0.210000
      2          6           0       -2.930000   -0.950000   -0.610000
      3          6           0       -1.970000   -2.050000   -0.620000
      4          6           0       -4.330000   -2.760000    0.100000
      5          1           0       -5.100000   -0.700000   -0.140000
      6         16           0       -2.800000   -3.560000   -0.110000
      7          1           0       -5.230000   -3.270000    0.410000
      8          6           0       -0.560000   -2.130000   -0.970000
      9         16           0       -0.014000   -2.366000   -2.658000
     10          6           0        1.657000   -2.340000   -2.211000
     11          6           0        1.843000   -2.128000   -0.798000
     12          6           0        0.604000   -1.991000   -0.092000
     13          1           0        0.545000   -1.667000    0.935000
     14         16           0        3.372000   -1.402000   -0.427000
     15          6           0        3.816000   -1.372000   -2.135000
     16          6           0        2.771000   -1.898000   -2.983000
     17          1           0        4.688000   -0.845000   -2.498000
     18          1           0        2.736000   -1.716000   -4.054000
     19          8           0       -2.400000    0.490000   -0.720000
     20          1           0       -2.920000    1.520000   -0.760000
 ---------------------------------------------------------------------
                    Distance matrix (angstroms):
                    1          2          3          4          5
     1  C    0.000000
     2  C    1.438923   0.000000
     3  C    2.417147   1.460034   0.000000
     4  C    1.436141   2.395871   2.567509   0.000000
     5  H    1.078425   2.234346   3.442354   2.212261   0.000000
     6  S    2.636759   2.660639   1.796970   1.739253   3.670218
     7  H    2.234480   3.422397   3.630000   1.079907   2.631406
     8  C    3.845335   2.671872   1.454991   3.969219   4.831708
     9  S    4.994841   3.834373   2.842400   5.137086   5.914666
    10  C    6.313244   5.053303   3.971210   6.431274   7.255046
    11  C    6.169296   4.919813   3.817949   6.269909   7.118806
    12  C    4.896264   3.720371   2.628258   4.997257   5.848470
    13  H    4.939362   3.869979   2.981600   5.065323   5.827241
    14  S    7.625204   6.320838   5.384619   7.838539   8.505878
    15  C    8.292534   6.929085   6.019361   8.560320   9.161150
    16  C    7.567920   6.247498   5.299430   7.789232   8.454022
    17  H    9.240563   7.849171   7.021956   9.578160  10.069068
    18  H    7.981683   6.674687   5.835268   8.262809   8.817854
    19  O    2.665539   1.538376   2.578081   3.867790   3.007075
    20  H    3.219596   2.474571   3.696891   4.587603   3.172570
                    6          7          8          9         10
     6  S    0.000000
     7  H    2.501879   0.000000
     8  C    2.793224   5.001290   0.000000
     9  S    3.959765   6.118537   1.789736   0.000000
    10  C    5.076165   7.427335   2.549367   1.729950   0.000000
    11  C    4.907282   7.265725   2.409149   2.639070   1.440871
    12  C    3.748240   5.993613   1.464616   2.665878   2.391813
    13  H    3.983026   6.016299   2.250426   3.702800   3.403937
    14  S    6.546070   8.842194   4.035524   4.167932   2.646455
    15  C    7.256681   9.586947   4.591423   3.991299   2.367294
    16  C    6.484783   8.798343   3.898917   2.842688   1.425603
    17  H    8.315282  10.616205   5.614937   4.944476   3.391807
    18  H    7.042923   9.262795   4.532777   3.151796   2.224919
    19  O    4.115167   4.839773   3.211308   4.195900   5.166356
    20  H    5.122821   5.445099   4.351574   5.210397   6.160676
                   11         12         13         14         15
    11  C    0.000000
    12  C    1.432594   0.000000
    13  H    2.213733   1.078511   0.000000
    14  S    1.732789   2.849732   3.149158   0.000000
    15  C    2.500367   3.856677   4.495705   1.765021   0.000000
    16  C    2.385018   3.614197   4.512113   2.672144   1.444924
    17  H    3.553887   4.876598   5.442942   2.516177   1.081611
    18  H    3.401283   4.507604   5.449129   3.695703   2.228743
    19  O    4.986287   3.946360   4.008079   6.081241   6.641380
    20  H    5.999626   5.019155   5.003621   6.945375   7.458417
                   16         17         18         19         20
    16  C    0.000000
    17  H    2.240295   0.000000
    18  H    1.086918   2.643876   0.000000
    19  O    6.128862   7.428543   6.508494   0.000000
    20  H    7.000852   8.154479   7.301539   1.154513   0.000000
 Stoichiometry    C10H6OS3
 Framework group  C1[X(C10H6OS3)]
 Deg. of freedom    54
 Full point group                 C1      NOp   1
 Largest Abelian subgroup         C1      NOp   1
 Largest concise Abelian subgroup C1      NOp   1
                         Standard orientation:                         
 ---------------------------------------------------------------------
 Center     Atomic      Atomic             Coordinates (Angstroms)
 Number     Number       Type             X           Y           Z
 ---------------------------------------------------------------------
      1          6           0        4.000092    0.790210    0.169004
      2          6           0        2.603304    1.081656    0.354864
      3          6           0        1.731962   -0.011579   -0.066208
      4          6           0        4.228802   -0.509117   -0.398392
      5          1           0        4.803646    1.464686    0.418771
      6         16           0        2.741071   -1.362274   -0.687837
      7          1           0        5.203133   -0.924894   -0.608174
      8          6           0        0.288005   -0.189514   -0.048146
      9         16           0       -0.575087   -0.791554    1.399533
     10          6           0       -2.118045   -0.699642    0.622644
     11          6           0       -2.024710   -0.192864   -0.722931
     12          6           0       -0.678741    0.114077   -1.105660
     13          1           0       -0.431781    0.651758   -2.007378
     14         16           0       -3.488097    0.568848   -1.252887
     15          6           0       -4.272205    0.224080    0.290359
     16          6           0       -3.391465   -0.453103    1.214223
     17          1           0       -5.231054    0.645585    0.560220
     18          1           0       -3.587121   -0.504421    2.282153
     19          8           0        1.973261    2.455036    0.643784
     20          1           0        2.408896    3.461463    1.004653
 ---------------------------------------------------------------------
 Rotational constants (GHZ):           1.1735706           0.2547963           0.2493587
 Standard basis: Aug-CC-pVDZ (5D, 7F)
 There are   416 symmetry adapted cartesian basis functions of A   symmetry.
 There are   388 symmetry adapted basis functions of A   symmetry.
   388 basis functions,   782 primitive gaussians,   416 cartesian basis functions
    61 alpha electrons       61 beta electrons
       nuclear repulsion energy      1100.3413025406 Hartrees.
 NAtoms=   20 NActive=   20 NUniq=   20 SFac= 1.00D+00 NAtFMM=   60 NAOKFM=F Big=F
 Integral buffers will be    131072 words long.
 Raffenetti 1 integral format.
 Two-electron integral symmetry is turned on.
 One-electron integrals computed using PRISM.
 NBasis=   388 RedAO= T EigKep=  6.10D-06  NBF=   388
 NBsUse=   388 1.00D-06 EigRej= -1.00D+00 NBFU=   388
 ExpMin= 2.97D-02 ExpMax= 1.11D+05 ExpMxC= 1.07D+03 IAcc=3 IRadAn=         5 AccDes= 0.00D+00
 Harris functional with IExCor=  205 and IRadAn=       5 diagonalized for initial guess.
 HarFok:  IExCor=  205 AccDes= 0.00D+00 IRadAn=         5 IDoV= 1 UseB2=F ITyADJ=14
 ICtDFT=  3500011 ScaDFX=  1.000000  1.000000  1.000000  1.000000
 FoFCou: FMM=F IPFlag=           0 FMFlag=      100000 FMFlg1=           0
         NFxFlg=           0 DoJE=T BraDBF=F KetDBF=T FulRan=T
         wScrn=  0.000000 ICntrl=       500 IOpCl=  0 I1Cent=   200000004 NGrid=           0
         NMat0=    1 NMatS0=      1 NMatT0=    0 NMatD0=    1 NMtDS0=    0 NMtDT0=    0
 Petite list used in FoFCou.
 Requested convergence on RMS density matrix=1.00D-08 within 128 cycles.
 Requested convergence on MAX density matrix=1.00D-06.
 Requested convergence on             energy=1.00D-06.
 No special actions if energy rises.
 SCF Done:  E(RHF) =  -1649.50418833     A.U. after   18 cycles
            NFock= 18  Conv=0.41D-08     -V/T= 2.0014

 **********************************************************************

            Population analysis using the SCF Density.

 **********************************************************************

 Orbital symmetries:
       Occupied  (A) (A) (A) (A) (A) (A) (A) (A) (A) (A) (A) (A)
                 (A) (A) (A) (A) (A) (A) (A) (A) (A) (A) (A) (A)
                 (A) (A) (A) (A) (A) (A) (A) (A) (A) (A) (A) (A)
                 (A) (A) (A) (A) (A) (A) (A) (A) (A) (A) (A) (A)
                 (A) (A) (A) (A) (A) (A) (A) (A) (A) (A) (A) (A)
                 (A)
       Virtual   (A) (A) (A) (A) (A) (A) (A) (A) (A) (A) (A) (A)
                 (A) (A) (A) (A) (A) (A) (A) (A) (A) (A) (A) (A)
                 (A) (A) (A) (A) (A) (A) (A) (A) (A) (A) (A) (A)
                 (A) (A) (A) (A) (A) (A) (A) (A) (A) (A) (A) (A)
                 (A) (A) (A) (A) (A) (A) (A) (A) (A) (A) (A) (A)
                 (A) (A) (A) (A) (A) (A) (A) (A) (A) (A) (A) (A)
                 (A) (A) (A) (A) (A) (A) (A) (A) (A) (A) (A) (A)
                 (A) (A) (A) (A) (A) (A) (A) (A) (A) (A) (A) (A)
                 (A) (A) (A) (A) (A) (A) (A) (A) (A) (A) (A) (A)
                 (A) (A) (A) (A) (A) (A) (A) (A) (A) (A) (A) (A)
                 (A) (A) (A) (A) (A) (A) (A) (A) (A) (A) (A) (A)
                 (A) (A) (A) (A) (A) (A) (A) (A) (A) (A) (A) (A)
                 (A) (A) (A) (A) (A) (A) (A) (A) (A) (A) (A) (A)
                 (A) (A) (A) (A) (A) (A) (A) (A) (A) (A) (A) (A)
                 (A) (A) (A) (A) (A) (A) (A) (A) (A) (A) (A) (A)
                 (A) (A) (A) (A) (A) (A) (A) (A) (A) (A) (A) (A)
                 (A) (A) (A) (A) (A) (A) (A) (A) (A) (A) (A) (A)
                 (A) (A) (A) (A) (A) (A) (A) (A) (A) (A) (A) (A)
                 (A) (A) (A) (A) (A) (A) (A) (A) (A) (A) (A) (A)
                 (A) (A) (A) (A) (A) (A) (A) (A) (A) (A) (A) (A)
                 (A) (A) (A) (A) (A) (A) (A) (A) (A) (A) (A) (A)
                 (A) (A) (A) (A) (A) (A) (A) (A) (A) (A) (A) (A)
                 (A) (A) (A) (A) (A) (A) (A) (A) (A) (A) (A) (A)
                 (A) (A) (A) (A) (A) (A) (A) (A) (A) (A) (A) (A)
                 (A) (A) (A) (A) (A) (A) (A) (A) (A) (A) (A) (A)
                 (A) (A) (A) (A) (A) (A) (A) (A) (A) (A) (A) (A)
                 (A) (A) (A) (A) (A) (A) (A) (A) (A) (A) (A) (A)
                 (A) (A) (A)
 The electronic state is 1-A.
 Alpha  occ. eigenvalues --  -92.00499 -91.99793 -91.99341 -20.60301 -11.35277
 Alpha  occ. eigenvalues --  -11.30149 -11.30067 -11.29895 -11.29216 -11.28371
 Alpha  occ. eigenvalues --  -11.28137 -11.27415 -11.27148 -11.26983  -9.00431
 Alpha  occ. eigenvalues --   -8.99852  -8.99371  -6.68582  -6.68481  -6.68316
 Alpha  occ. eigenvalues --   -6.68017  -6.67929  -6.67739  -6.67533  -6.67436
 Alpha  occ. eigenvalues --   -6.67250  -1.30603  -1.19435  -1.15816  -1.10123
 Alpha  occ. eigenvalues --   -1.02909  -1.00911  -0.98247  -0.94046  -0.92577
 Alpha  occ. eigenvalues --   -0.82547  -0.77512  -0.76985  -0.71652  -0.70693
 Alpha  occ. eigenvalues --   -0.68228  -0.65562  -0.61935  -0.60325  -0.57300
 Alpha  occ. eigenvalues --   -0.56472  -0.55090  -0.54146  -0.53350  -0.52751
 Alpha  occ. eigenvalues --   -0.50451  -0.50128  -0.48679  -0.48411  -0.46228
 Alpha  occ. eigenvalues --   -0.44650  -0.38419  -0.34837  -0.31757  -0.31535
 Alpha  occ. eigenvalues --   -0.28169
 Alpha virt. eigenvalues --    0.02731   0.03598   0.03915   0.04930   0.05080
 Alpha virt. eigenvalues --    0.05862   0.06290   0.07582   0.07971   0.08536
 Alpha virt. eigenvalues --    0.08982   0.09830   0.10226   0.10795   0.11380
 Alpha virt. eigenvalues --    0.11716   0.12250   0.12439   0.12893   0.13211
 Alpha virt. eigenvalues --    0.13655   0.13978   0.14318   0.14518   0.14756
 Alpha virt. eigenvalues --    0.14909   0.15559   0.16088   0.16422   0.16529
 Alpha virt. eigenvalues --    0.17274   0.17623   0.17941   0.18337   0.18706
 Alpha virt. eigenvalues --    0.19075   0.19352   0.19873   0.20173   0.20502
 Alpha virt. eigenvalues --    0.20994   0.21793   0.22148   0.22343   0.23236
 Alpha virt. eigenvalues --    0.23600   0.23831   0.24195   0.25109   0.25602
 Alpha virt. eigenvalues --    0.25825   0.26051   0.26594   0.27618   0.28365
 Alpha virt. eigenvalues --    0.28970   0.29457   0.30143   0.30338   0.31165
 Alpha virt. eigenvalues --    0.31263   0.31665   0.31904   0.32328   0.32766
 Alpha virt. eigenvalues --    0.33064   0.33994   0.34299   0.34862   0.35796
 Alpha virt. eigenvalues --    0.36147   0.36528   0.37021   0.37859   0.38862
 Alpha virt. eigenvalues --    0.39290   0.39861   0.40292   0.40801   0.41117
 Alpha virt. eigenvalues --    0.41929   0.42440   0.43520   0.44195   0.44507
 Alpha virt. eigenvalues --    0.45221   0.45334   0.46206   0.46916   0.47521
 Alpha virt. eigenvalues --    0.48238   0.49048   0.49652   0.50056   0.51262
 Alpha virt. eigenvalues --    0.51390   0.52195   0.52684   0.53388   0.54357
 Alpha virt. eigenvalues --    0.54835   0.55704   0.56188   0.56645   0.57279
 Alpha virt. eigenvalues --    0.58060   0.58916   0.59114   0.59457   0.60567
 Alpha virt. eigenvalues --    0.61549   0.62319   0.62977   0.63524   0.64756
 Alpha virt. eigenvalues --    0.65101   0.65319   0.65620   0.66277   0.67000
 Alpha virt. eigenvalues --    0.67466   0.68093   0.68592   0.68956   0.69841
 Alpha virt. eigenvalues --    0.70616   0.71091   0.71563   0.71718   0.72357
 Alpha virt. eigenvalues --    0.73029   0.73374   0.74707   0.74911   0.75677
 Alpha virt. eigenvalues --    0.76308   0.76565   0.76956   0.78050   0.78278
 Alpha virt. eigenvalues --    0.78869   0.79339   0.79757   0.82279   0.83311
 Alpha virt. eigenvalues --    0.83425   0.83774   0.84064   0.85666   0.86957
 Alpha virt. eigenvalues --    0.88050   0.88345   0.88838   0.89491   0.90634
 Alpha virt. eigenvalues --    0.90778   0.91594   0.92295   0.93161   0.94075
 Alpha virt. eigenvalues --    0.94574   0.95106   0.95391   0.96199   0.96856
 Alpha virt. eigenvalues --    0.97982   0.98682   1.00105   1.00678   1.01102
 Alpha virt. eigenvalues --    1.01339   1.03084   1.03369   1.04022   1.05858
 Alpha virt. eigenvalues --    1.06165   1.07991   1.09032   1.10359   1.11849
 Alpha virt. eigenvalues --    1.12412   1.13393   1.14267   1.16783   1.17889
 Alpha virt. eigenvalues --    1.18362   1.19963   1.20192   1.20892   1.21539
 Alpha virt. eigenvalues --    1.22936   1.23764   1.24003   1.24747   1.26292
 Alpha virt. eigenvalues --    1.27022   1.27465   1.29110   1.29696   1.29910
 Alpha virt. eigenvalues --    1.30202   1.31577   1.31943   1.33491   1.34956
 Alpha virt. eigenvalues --    1.35741   1.37433   1.38278   1.39042   1.40142
 Alpha virt. eigenvalues --    1.40425   1.41969   1.42641   1.45364   1.46488
 Alpha virt. eigenvalues --    1.47165   1.48879   1.50735   1.52201   1.54011
 Alpha virt. eigenvalues --    1.54782   1.56572   1.57589   1.58423   1.59394
 Alpha virt. eigenvalues --    1.60009   1.61303   1.61429   1.62392   1.63555
 Alpha virt. eigenvalues --    1.64039   1.66229   1.67111   1.68077   1.70575
 Alpha virt. eigenvalues --    1.70863   1.71816   1.72907   1.73774   1.75864
 Alpha virt. eigenvalues --    1.76539   1.77724   1.78504   1.79243   1.79774
 Alpha virt. eigenvalues --    1.81379   1.81859   1.83172   1.85071   1.87290
 Alpha virt. eigenvalues --    1.87761   1.88492   1.92225   1.92853   1.93476
 Alpha virt. eigenvalues --    1.94481   1.96161   1.97659   1.98698   1.99743
 Alpha virt. eigenvalues --    2.02296   2.03731   2.04044   2.05332   2.07094
 Alpha virt. eigenvalues --    2.08121   2.09640   2.10047   2.10551   2.12021
 Alpha virt. eigenvalues --    2.13595   2.14400   2.16064   2.16541   2.18277
 Alpha virt. eigenvalues --    2.18728   2.19957   2.19981   2.22236   2.24124
 Alpha virt. eigenvalues --    2.24675   2.25865   2.26709   2.29186   2.30222
 Alpha virt. eigenvalues --    2.33016   2.33637   2.35948   2.37696   2.38895
 Alpha virt. eigenvalues --    2.39514   2.43125   2.43319   2.45182   2.48710
 Alpha virt. eigenvalues --    2.50194   2.52502   2.53008   2.55722   2.60082
 Alpha virt. eigenvalues --    2.67961   2.71385   2.74914   2.75568   2.79675
 Alpha virt. eigenvalues --    2.81170   2.83935   2.87058   2.89375   2.94100
 Alpha virt. eigenvalues --    2.97399   3.02297   3.08711   3.15439   3.22018
 Alpha virt. eigenvalues --    3.25064   3.29618   3.38571   3.46035   3.74537
 Alpha virt. eigenvalues --    3.78835   3.79544   3.81401   3.86740   4.05572
 Alpha virt. eigenvalues --    4.15977   4.22604
          Condensed to atoms (all electrons):
               1          2          3          4          5          6
     1  C    5.780960  -0.060887  -0.693392   0.536241   0.015090  -0.382399
     2  C   -0.060887   7.962400  -0.995190  -0.011108   0.099008  -0.339044
     3  C   -0.693392  -0.995190   9.850038  -0.938375  -0.052176   0.433209
     4  C    0.536241  -0.011108  -0.938375   5.946732  -0.066251   0.198697
     5  H    0.015090   0.099008  -0.052176  -0.066251   1.423731  -0.000171
     6  S   -0.382399  -0.339044   0.433209   0.198697  -0.000171  15.931648
     7  H   -0.013024   0.009808   0.096899   0.238471  -0.064894  -0.173621
     8  C    0.228706  -0.249711  -2.229939   0.375212   0.008369  -0.459360
     9  S   -0.002756   0.071279  -0.309366   0.003334  -0.002153   0.093104
    10  C    0.016122   0.032027  -0.092643   0.027439   0.001455  -0.053736
    11  C    0.011576   0.073221   0.221672  -0.022113   0.000699   0.002451
    12  C   -0.114098  -0.155228   0.150493  -0.081516  -0.003515   0.211562
    13  H    0.004932   0.019805  -0.008212  -0.000907   0.000377   0.014629
    14  S   -0.002770  -0.005451   0.024610   0.000285  -0.000039   0.004454
    15  C    0.001031   0.006184   0.037988  -0.000340   0.000083  -0.003283
    16  C   -0.003532  -0.010965  -0.180086   0.002050  -0.000407   0.008621
    17  H    0.000037   0.000370   0.001966   0.000012   0.000005  -0.000163
    18  H   -0.000340  -0.002117  -0.008400   0.000180  -0.000008   0.001034
    19  O    0.013509  -0.574796   0.320162  -0.060016  -0.032974   0.028341
    20  H    0.009978   0.009596  -0.045942  -0.003121   0.006548   0.002808
               7          8          9         10         11         12
     1  C   -0.013024   0.228706  -0.002756   0.016122   0.011576  -0.114098
     2  C    0.009808  -0.249711   0.071279   0.032027   0.073221  -0.155228
     3  C    0.096899  -2.229939  -0.309366  -0.092643   0.221672   0.150493
     4  C    0.238471   0.375212   0.003334   0.027439  -0.022113  -0.081516
     5  H   -0.064894   0.008369  -0.002153   0.001455   0.000699  -0.003515
     6  S   -0.173621  -0.459360   0.093104  -0.053736   0.002451   0.211562
     7  H    1.216030  -0.003815   0.001814   0.000173  -0.001078   0.004196
     8  C   -0.003815   9.960903   0.211879   0.147223  -0.401037  -1.576110
     9  S    0.001814   0.211879  15.985071   0.088226  -0.220901  -0.277667
    10  C    0.000173   0.147223   0.088226   7.301240   0.294039  -0.430507
    11  C   -0.001078  -0.401037  -0.220901   0.294039   8.046926  -1.580082
    12  C    0.004196  -1.576110  -0.277667  -0.430507  -1.580082   9.877129
    13  H   -0.000091   0.091065   0.051298  -0.051724   0.267688  -0.487199
    14  S   -0.000007  -0.149942  -0.006238  -0.037088   0.073625  -0.030048
    15  C   -0.000008   0.099338  -0.045867   0.091300  -0.263374  -0.283925
    16  C    0.000144  -0.315804  -0.060736  -1.055869   0.016424   0.588417
    17  H    0.000001  -0.002709  -0.004322  -0.013622   0.002586   0.027357
    18  H    0.000000   0.060480  -0.037971   0.221716  -0.026206  -0.017674
    19  O   -0.000997  -0.116166   0.019213   0.000233  -0.008712   0.062042
    20  H   -0.000152  -0.003431  -0.000029  -0.000724   0.000266   0.002088
              13         14         15         16         17         18
     1  C    0.004932  -0.002770   0.001031  -0.003532   0.000037  -0.000340
     2  C    0.019805  -0.005451   0.006184  -0.010965   0.000370  -0.002117
     3  C   -0.008212   0.024610   0.037988  -0.180086   0.001966  -0.008400
     4  C   -0.000907   0.000285  -0.000340   0.002050   0.000012   0.000180
     5  H    0.000377  -0.000039   0.000083  -0.000407   0.000005  -0.000008
     6  S    0.014629   0.004454  -0.003283   0.008621  -0.000163   0.001034
     7  H   -0.000091  -0.000007  -0.000008   0.000144   0.000001   0.000000
     8  C    0.091065  -0.149942   0.099338  -0.315804  -0.002709   0.060480
     9  S    0.051298  -0.006238  -0.045867  -0.060736  -0.004322  -0.037971
    10  C   -0.051724  -0.037088   0.091300  -1.055869  -0.013622   0.221716
    11  C    0.267688   0.073625  -0.263374   0.016424   0.002586  -0.026206
    12  C   -0.487199  -0.030048  -0.283925   0.588417   0.027357  -0.017674
    13  H    1.583324  -0.057083   0.003132  -0.012134   0.001539  -0.000570
    14  S   -0.057083  15.668213   0.202847  -0.236362  -0.128955   0.005211
    15  C    0.003132   0.202847   5.818816   0.204483   0.244766  -0.049575
    16  C   -0.012134  -0.236362   0.204483   6.691402   0.028942  -0.155472
    17  H    0.001539  -0.128955   0.244766   0.028942   1.233965  -0.057572
    18  H   -0.000570   0.005211  -0.049575  -0.155472  -0.057572   1.386699
    19  O    0.004530  -0.001542  -0.000902   0.001785  -0.000091   0.000326
    20  H   -0.000085   0.000169   0.000034   0.000268   0.000001   0.000013
              19         20
     1  C    0.013509   0.009978
     2  C   -0.574796   0.009596
     3  C    0.320162  -0.045942
     4  C   -0.060016  -0.003121
     5  H   -0.032974   0.006548
     6  S    0.028341   0.002808
     7  H   -0.000997  -0.000152
     8  C   -0.116166  -0.003431
     9  S    0.019213  -0.000029
    10  C    0.000233  -0.000724
    11  C   -0.008712   0.000266
    12  C    0.062042   0.002088
    13  H    0.004530  -0.000085
    14  S   -0.001542   0.000169
    15  C   -0.000902   0.000034
    16  C    0.001785   0.000268
    17  H   -0.000091   0.000001
    18  H    0.000326   0.000013
    19  O    9.297129   0.268633
    20  H    0.268633   0.352571
 Mulliken charges:
               1
     1  C    0.655015
     2  C    0.120798
     3  C    0.416684
     4  C   -0.144904
     5  H   -0.332775
     6  S    0.481219
     7  H   -0.309848
     8  C    0.324849
     9  S    0.442789
    10  C   -0.485282
    11  C   -0.487669
    12  C    0.114284
    13  H   -0.424313
    14  S    0.676113
    15  C   -0.062726
    16  C    0.488832
    17  H   -0.334115
    18  H   -0.319754
    19  O   -1.219709
    20  H    0.400512
 Sum of Mulliken charges =  -0.00000
 Mulliken charges with hydrogens summed into heavy atoms:
               1
     1  C    0.322240
     2  C    0.120798
     3  C    0.416684
     4  C   -0.454752
     6  S    0.481219
     8  C    0.324849
     9  S    0.442789
    10  C   -0.485282
    11  C   -0.487669
    12  C   -0.310029
    14  S    0.676113
    15  C   -0.396840
    16  C    0.169078
    19  O   -0.819197
 Electronic spatial extent (au):  <R**2>=           4395.9724
 Charge=             -0.0000 electrons
 Dipole moment (field-independent basis, Debye):
    X=              1.9101    Y=              2.1650    Z=              0.7130  Tot=              2.9739
 Quadrupole moment (field-independent basis, Debye-Ang):
   XX=            -81.1165   YY=            -99.6687   ZZ=           -102.7386
   XY=              2.1415   XZ=             -3.6036   YZ=              2.3861
 Traceless Quadrupole moment (field-independent basis, Debye-Ang):
   XX=             13.3915   YY=             -5.1608   ZZ=             -8.2307
   XY=              2.1415   XZ=             -3.6036   YZ=              2.3861
 Octapole moment (field-independent basis, Debye-Ang**2):
  XXX=             60.6897  YYY=             55.5441  ZZZ=              6.7982  XYY=             41.2718
  XXY=             38.0030  XXZ=             24.4353  XZZ=            -10.0688  YZZ=              8.0662
  YYZ=             12.8401  XYZ=             19.1661
 Hexadecapole moment (field-independent basis, Debye-Ang**3):
 XXXX=          -4150.8683 YYYY=           -533.9757 ZZZZ=           -612.9789 XXXY=            -76.8925
 XXXZ=           -101.9508 YYYX=            124.4091 YYYZ=             75.5568 ZZZX=            -17.4666
 ZZZY=             -6.4534 XXYY=           -849.5502 XXZZ=           -930.5310 YYZZ=           -211.6952
 XXYZ=             57.0072 YYXZ=             40.2822 ZZXY=             12.2513
 N-N= 1.100341302541D+03 E-N=-6.106038032590D+03  KE= 1.647267256660D+03
 Calling FoFJK, ICntrl=      2127 FMM=F ISym2X=0 I1Cent= 0 IOpClX= 0 NMat=1 NMatS=1 NMatT=0.
 ***** Axes restored to original set *****
 -------------------------------------------------------------------
 Center     Atomic                   Forces (Hartrees/Bohr)
 Number     Number              X              Y              Z
 -------------------------------------------------------------------
      1        6           0.009915330   -0.056372752    0.009501022
      2        6           0.056225292    0.017128073    0.013075898
      3        6          -0.067777369    0.036717004    0.007504459
      4        6           0.018522025    0.066758593   -0.021160549
      5        1           0.001485598    0.000654664    0.000497193
      6       16          -0.008344259    0.036072977   -0.007846693
      7        1           0.004008592   -0.001387996   -0.000301201
      8        6           0.087905614    0.015257911    0.035060361
      9       16          -0.006653364   -0.007617915    0.021774914
     10        6           0.010887896    0.025479983    0.047576449
     11        6          -0.031269497    0.004385455   -0.046074332
     12        6          -0.059081580   -0.009457491   -0.055610689
     13        1          -0.005219831   -0.005846852    0.001077300
     14       16           0.008500446   -0.008987036   -0.021784471
     15        6          -0.062433524   -0.023440008   -0.039446585
     16        6           0.052901650    0.036294920    0.045349451
     17        1           0.001759691   -0.006926049    0.005311517
     18        1           0.006062211   -0.009145410    0.005204175
     19        8          -0.048283347    0.019160436   -0.004283839
     20        1           0.030888426   -0.128728509    0.004575621
 -------------------------------------------------------------------
 Cartesian Forces:  Max     0.128728509 RMS     0.035505068

 GradGradGradGradGradGradGradGradGradGradGradGradGradGradGradGradGradGrad
 Berny optimization.
 FormGI is forming the generalized inverse of G from B-inverse, IUseBI=4.
 Internal  Forces:  Max     0.128916163 RMS     0.025744400
 Search for a local minimum.
 Step number   1 out of a maximum of  116
 All quantities printed in internal units (Hartrees-Bohrs-Radians)
 Mixed Optimization -- RFO/linear search
 Second derivative matrix not updated -- first step.
 ITU=  0
     Eigenvalues ---    0.00230   0.00994   0.01058   0.01222   0.01273
     Eigenvalues ---    0.01298   0.01362   0.01422   0.01458   0.01492
     Eigenvalues ---    0.01500   0.01592   0.01597   0.01772   0.02202
     Eigenvalues ---    0.02656   0.15085   0.15687   0.15738   0.15997
     Eigenvalues ---    0.16000   0.16000   0.17986   0.22442   0.22526
     Eigenvalues ---    0.23317   0.23978   0.24118   0.24633   0.24978
     Eigenvalues ---    0.24995   0.26145   0.26591   0.28307   0.28398
     Eigenvalues ---    0.28663   0.30910   0.31278   0.31579   0.34814
     Eigenvalues ---    0.35171   0.35800   0.35872   0.36006   0.36175
     Eigenvalues ---    0.36185   0.36315   0.37598   0.38290   0.38435
     Eigenvalues ---    0.39456   0.39701   0.406851000.000001000.00000
     Eigenvalues --- 1000.000001000.000001000.000001000.000001000.00000
     Eigenvalues --- 1000.000001000.000001000.000001000.000001000.00000
     Eigenvalues --- 1000.000001000.000001000.000001000.000001000.00000
     Eigenvalues --- 1000.000001000.000001000.000001000.000001000.00000
     Eigenvalues --- 1000.000001000.000001000.000001000.000001000.00000
     Eigenvalues --- 1000.000001000.000001000.000001000.000001000.00000
     Eigenvalues --- 1000.000001000.000001000.000001000.000001000.00000
     Eigenvalues --- 1000.000001000.000001000.000001000.000001000.00000
     Eigenvalues --- 1000.000001000.000001000.000001000.000001000.00000
     Eigenvalues --- 1000.000001000.000001000.000001000.000001000.00000
     Eigenvalues --- 1000.00000
 RFO step:  Lambda=-1.54159440D-01 EMin= 2.30000000D-03
 Linear search not attempted -- first point.
 Maximum step size (   0.300) exceeded in Quadratic search.
    -- Step size scaled by   0.522
 Iteration  1 RMS(Cart)=  0.05547481 RMS(Int)=  0.00139127
 Iteration  2 RMS(Cart)=  0.00169012 RMS(Int)=  0.00009215
 Iteration  3 RMS(Cart)=  0.00000887 RMS(Int)=  0.00009193
 Iteration  4 RMS(Cart)=  0.00000000 RMS(Int)=  0.00009193
 Iteration  1 RMS(Cart)=  0.00000112 RMS(Int)=  0.00000048
 Iteration  2 RMS(Cart)=  0.00000061 RMS(Int)=  0.00000053
 Variable       Old X    -DE/DX   Delta X   Delta X   Delta X     New X
                                 (Linear)    (Quad)   (Total)
    R1        2.71917  -0.02144   0.00000  -0.02149  -0.02139   2.69778
    R2        2.71391  -0.07563   0.00000  -0.07149  -0.07147   2.64245
    R3        2.03793  -0.00074   0.00000  -0.00075  -0.00075   2.03718
    R4        2.75906  -0.09202   0.00000  -0.09224  -0.09218   2.66688
    R5        2.90711  -0.10858   0.00000  -0.12855  -0.12855   2.77856
    R6        3.39578  -0.03148   0.00000  -0.03820  -0.03826   3.35752
    R7        2.74954   0.00308   0.00000   0.00303   0.00303   2.75257
    R8        3.28671  -0.02034   0.00000  -0.02155  -0.02163   3.26508
    R9        2.04073  -0.00277   0.00000  -0.00281  -0.00281   2.03792
   R10        3.38211  -0.02015   0.00000  -0.02355  -0.02363   3.35848
   R11        2.76772  -0.09093   0.00000  -0.09186  -0.09187   2.67585
   R12        3.26913  -0.00585   0.00000  -0.00561  -0.00562   3.26351
   R13        2.72285  -0.05470   0.00000  -0.05298  -0.05283   2.67002
   R14        2.69400   0.00308   0.00000   0.00183   0.00192   2.69592
   R15        2.70721  -0.00849   0.00000  -0.00903  -0.00897   2.69825
   R16        3.27450  -0.00282   0.00000  -0.00220  -0.00222   3.27227
   R17        2.03809  -0.00045   0.00000  -0.00045  -0.00045   2.03764
   R18        3.33541  -0.01832   0.00000  -0.02064  -0.02074   3.31467
   R19        2.73051  -0.08052   0.00000  -0.07779  -0.07780   2.65271
   R20        2.04395  -0.00374   0.00000  -0.00381  -0.00381   2.04014
   R21        2.05398  -0.00685   0.00000  -0.00707  -0.00707   2.04691
   R22        2.18171  -0.12892   0.00000  -0.15388  -0.15388   2.02783
    A1        1.97020  -0.00412   0.00000  -0.00828  -0.00815   1.96205
    A2        2.17330   0.00083   0.00000   0.00210   0.00203   2.17533
    A3        2.13967   0.00330   0.00000   0.00620   0.00613   2.14580
    A4        1.97187   0.01827   0.00000   0.02186   0.02199   1.99387
    A5        2.21760  -0.00844   0.00000  -0.00917  -0.00929   2.20831
    A6        2.06941  -0.00879   0.00000  -0.00960  -0.00971   2.05970
    A7        1.90440  -0.00604   0.00000  -0.00759  -0.00758   1.89682
    A8        2.31891  -0.00851   0.00000  -0.01111  -0.01112   2.30779
    A9        2.05972   0.01454   0.00000   0.01865   0.01865   2.07836
   A10        1.95339  -0.00232   0.00000  -0.00278  -0.00282   1.95057
   A11        2.17580   0.00443   0.00000   0.00682   0.00684   2.18264
   A12        2.15384  -0.00211   0.00000  -0.00406  -0.00404   2.14980
   A13        1.62490  -0.00578   0.00000  -0.00320  -0.00344   1.62146
   A14        2.12912  -0.00368   0.00000  -0.00455  -0.00457   2.12455
   A15        2.24049  -0.00464   0.00000  -0.00580  -0.00582   2.23468
   A16        1.91289   0.00841   0.00000   0.01061   0.01062   1.92351
   A17        1.61981  -0.00768   0.00000  -0.00754  -0.00754   1.61227
   A18        1.96091  -0.01181   0.00000  -0.01339  -0.01358   1.94733
   A19        2.23894   0.00952   0.00000   0.01730   0.01707   2.25601
   A20        1.96553   0.00674   0.00000   0.00830   0.00838   1.97391
   A21        1.96677   0.00796   0.00000   0.00916   0.00920   1.97597
   A22        1.96656  -0.01416   0.00000  -0.01636  -0.01648   1.95008
   A23        2.23644   0.01021   0.00000   0.01799   0.01778   2.25422
   A24        1.96367   0.00315   0.00000   0.00126   0.00139   1.96506
   A25        2.16021  -0.00612   0.00000  -0.00771  -0.00782   2.15240
   A26        2.14756   0.00368   0.00000   0.00860   0.00849   2.15605
   A27        1.59270   0.00034   0.00000   0.00208   0.00204   1.59474
   A28        1.96038   0.00090   0.00000   0.00042   0.00038   1.96076
   A29        2.13632  -0.00390   0.00000  -0.00517  -0.00527   2.13105
   A30        2.16938   0.00427   0.00000   0.00858   0.00850   2.17788
   A31        1.93928   0.00619   0.00000   0.00558   0.00569   1.94497
   A32        2.16560  -0.00009   0.00000   0.00366   0.00347   2.16907
   A33        2.14197  -0.00391   0.00000  -0.00285  -0.00305   2.13892
   A34        2.32184  -0.06629   0.00000  -0.11012  -0.11012   2.21172
    D1        0.00683  -0.00080   0.00000  -0.00222  -0.00220   0.00463
    D2       -2.89394  -0.00517   0.00000  -0.01659  -0.01660  -2.91054
    D3       -3.13952   0.00051   0.00000   0.00179   0.00178  -3.13774
    D4        0.24290  -0.00386   0.00000  -0.01259  -0.01262   0.23028
    D5       -0.00671   0.00027   0.00000   0.00045   0.00041  -0.00630
    D6       -3.13020   0.00048   0.00000   0.00134   0.00132  -3.12887
    D7        3.13954  -0.00100   0.00000  -0.00345  -0.00348   3.13605
    D8        0.01605  -0.00079   0.00000  -0.00256  -0.00257   0.01348
    D9       -0.00388   0.00108   0.00000   0.00304   0.00302  -0.00086
   D10        3.11762   0.00042   0.00000   0.00018   0.00019   3.11781
   D11        2.91927   0.00468   0.00000   0.01566   0.01568   2.93494
   D12       -0.24242   0.00402   0.00000   0.01280   0.01285  -0.22957
   D13       -0.28016   0.00241   0.00000   0.00441   0.00433  -0.27582
   D14        3.11413  -0.00542   0.00000  -0.01444  -0.01436   3.09976
   D15        0.00006  -0.00080   0.00000  -0.00240  -0.00237  -0.00231
   D16       -3.12486   0.00001   0.00000   0.00031   0.00037  -3.12449
   D17       -1.48385  -0.00044   0.00000   0.00000   0.00000  -1.48385
   D18        1.61376   0.00253   0.00000   0.00848   0.00849   1.62225
   D19        1.63624  -0.00135   0.00000  -0.00333  -0.00334   1.63289
   D20       -1.54933   0.00161   0.00000   0.00515   0.00514  -1.54419
   D21        0.00376   0.00037   0.00000   0.00123   0.00122   0.00497
   D22        3.12751   0.00024   0.00000   0.00048   0.00045   3.12796
   D23        3.13758   0.00127   0.00000   0.00398   0.00399   3.14157
   D24        0.03258  -0.00095   0.00000  -0.00278  -0.00282   0.02976
   D25       -3.13913  -0.00222   0.00000  -0.00615  -0.00612   3.13793
   D26       -0.15748   0.00302   0.00000   0.00934   0.00932  -0.14817
   D27       -0.03713   0.00024   0.00000   0.00122   0.00130  -0.03583
   D28        2.94452   0.00548   0.00000   0.01672   0.01674   2.96126
   D29       -0.02036   0.00194   0.00000   0.00426   0.00423  -0.01613
   D30       -2.61521  -0.00852   0.00000  -0.02277  -0.02280  -2.63802
   D31        0.00213  -0.00164   0.00000  -0.00379  -0.00375  -0.00161
   D32       -2.68868  -0.01198   0.00000  -0.02880  -0.02848  -2.71716
   D33        2.68578   0.00915   0.00000   0.02312   0.02292   2.70869
   D34       -0.00503  -0.00119   0.00000  -0.00189  -0.00182  -0.00685
   D35        2.61354   0.00675   0.00000   0.02279   0.02302   2.63656
   D36       -0.24751  -0.00092   0.00000  -0.00080  -0.00068  -0.24819
   D37        0.01985   0.00095   0.00000   0.00116   0.00112   0.02097
   D38       -2.84120  -0.00673   0.00000  -0.02243  -0.02258  -2.86379
   D39        0.02318   0.00099   0.00000   0.00165   0.00161   0.02479
   D40       -2.95981  -0.00317   0.00000  -0.01200  -0.01214  -2.97195
   D41        2.62830   0.00541   0.00000   0.01991   0.02014   2.64844
   D42       -0.35469   0.00125   0.00000   0.00627   0.00639  -0.34829
   D43       -0.00856   0.00122   0.00000   0.00195   0.00191  -0.00665
   D44       -2.61374  -0.00869   0.00000  -0.02266  -0.02262  -2.63636
   D45        0.01996  -0.00055   0.00000  -0.00115  -0.00116   0.01880
   D46        2.97158   0.00699   0.00000   0.02089   0.02079   2.99237
   D47       -0.02622   0.00004   0.00000   0.00039   0.00043  -0.02578
   D48        2.83929   0.00829   0.00000   0.02480   0.02485   2.86414
   D49       -2.97360  -0.00660   0.00000  -0.02036  -0.02042  -2.99402
   D50       -0.10809   0.00164   0.00000   0.00405   0.00400  -0.10410
         Item               Value     Threshold  Converged?
 Maximum Force            0.128916     0.000450     NO 
 RMS     Force            0.025867     0.000300     NO 
 Maximum Displacement     0.413583     0.001800     NO 
 RMS     Displacement     0.055453     0.001200     NO 
 Predicted change in Energy=-6.694720D-02
 GradGradGradGradGradGradGradGradGradGradGradGradGradGradGradGradGradGrad

                          Input orientation:                          
 ---------------------------------------------------------------------
 Center     Atomic      Atomic             Coordinates (Angstroms)
 Number     Number       Type             X           Y           Z
 ---------------------------------------------------------------------
      1          6           0       -4.211383   -1.347820   -0.203444
      2          6           0       -2.891882   -0.972759   -0.598789
      3          6           0       -1.966141   -2.037874   -0.611759
      4          6           0       -4.310887   -2.709615    0.098086
      5          1           0       -5.047465   -0.670384   -0.138677
      6         16           0       -2.801508   -3.523989   -0.111397
      7          1           0       -5.214203   -3.211279    0.406860
      8          6           0       -0.555411   -2.104463   -0.968244
      9         16           0       -0.025912   -2.327238   -2.650076
     10          6           0        1.642351   -2.295179   -2.204758
     11          6           0        1.805435   -2.098681   -0.815112
     12          6           0        0.567207   -1.972346   -0.115409
     13          1           0        0.494551   -1.669031    0.916770
     14         16           0        3.347740   -1.405306   -0.442276
     15          6           0        3.794345   -1.381829   -2.138352
     16          6           0        2.772063   -1.871859   -2.966202
     17          1           0        4.687594   -0.887611   -2.489607
     18          1           0        2.758798   -1.705615   -4.036462
     19          8           0       -2.370637    0.396739   -0.720046
     20          1           0       -2.946655    1.301141   -0.762104
 ---------------------------------------------------------------------
                    Distance matrix (angstroms):
                    1          2          3          4          5
     1  C    0.000000
     2  C    1.427603   0.000000
     3  C    2.384115   1.411253   0.000000
     4  C    1.398323   2.348591   2.540266   0.000000
     5  H    1.078030   2.224786   3.404173   2.181070   0.000000
     6  S    2.594597   2.598941   1.776722   1.727806   3.631547
     7  H    2.202407   3.378680   3.600607   1.078419   2.604143
     8  C    3.810978   2.622279   1.456597   3.950553   4.787830
     9  S    4.946052   3.775735   2.828950   5.104863   5.853912
    10  C    6.258510   4.988707   3.952856   6.396553   7.187649
    11  C    6.094262   4.835213   3.777544   6.214223   7.032769
    12  C    4.820031   3.632922   2.582345   4.938111   5.763695
    13  H    4.848078   3.774869   2.920179   4.984505   5.729328
    14  S    7.563113   6.256554   5.354082   7.787669   8.432778
    15  C    8.236304   6.873370   5.995338   8.512312   9.092989
    16  C    7.528343   6.204296   5.293537   7.762723   8.401396
    17  H    9.199463   7.812227   7.008681   9.538790  10.017257
    18  H    7.962629   6.654687   5.845001   8.251240   8.786477
    19  O    2.588186   1.470348   2.470361   3.752778   2.939753
    20  H    2.988082   2.280416   3.483251   4.322872   2.947707
                    6          7          8          9         10
     6  S    0.000000
     7  H    2.487463   0.000000
     8  C    2.791809   4.981997   0.000000
     9  S    3.947283   6.086440   1.777233   0.000000
    10  C    5.063598   7.394060   2.528932   1.726973   0.000000
    11  C    4.873464   7.211547   2.365814   2.602530   1.412913
    12  C    3.708888   5.935689   1.415999   2.627218   2.371822
    13  H    3.919439   5.935352   2.201204   3.664220   3.384294
    14  S    6.512416   8.791441   4.000007   4.135924   2.608941
    15  C    7.225142   9.538287   4.561987   3.968629   2.338738
    16  C    6.476430   8.772230   3.888190   2.852361   1.426620
    17  H    8.288126  10.575184   5.593244   4.931066   3.366881
    18  H    7.044830   9.250885   4.533986   3.172238   2.224675
    19  O    3.991017   4.730071   3.100429   4.079560   5.055183
    20  H    4.870973   5.183646   4.166375   5.025964   6.006143
                   11         12         13         14         15
    11  C    0.000000
    12  C    1.427850   0.000000
    13  H    2.214144   1.078273   0.000000
    14  S    1.731612   2.856526   3.171316   0.000000
    15  C    2.494113   3.854274   4.506096   1.754048   0.000000
    16  C    2.369178   3.605345   4.506182   2.630453   1.403754
    17  H    3.546472   4.877608   5.458538   2.500956   1.079595
    18  H    3.382380   4.499875   5.446344   3.654479   2.186325
    19  O    4.865772   3.822182   3.893055   6.002030   6.571294
    20  H    5.843283   4.845736   4.845868   6.859049   7.384678
                   16         17         18         19         20
    16  C    0.000000
    17  H    2.205708   0.000000
    18  H    1.083175   2.604255   0.000000
    19  O    6.053025   7.389149   6.459847   0.000000
    20  H    6.901428   8.127525   7.232856   1.073084   0.000000
 Stoichiometry    C10H6OS3
 Framework group  C1[X(C10H6OS3)]
 Deg. of freedom    54
 Full point group                 C1      NOp   1
 Largest Abelian subgroup         C1      NOp   1
 Largest concise Abelian subgroup C1      NOp   1
                         Standard orientation:                         
 ---------------------------------------------------------------------
 Center     Atomic      Atomic             Coordinates (Angstroms)
 Number     Number       Type             X           Y           Z
 ---------------------------------------------------------------------
      1          6           0        3.959857    0.783768    0.208562
      2          6           0        2.566018    1.031964    0.392038
      3          6           0        1.727134   -0.004157   -0.070953
      4          6           0        4.205827   -0.448326   -0.405236
      5          1           0        4.746531    1.459343    0.503335
      6         16           0        2.740560   -1.298623   -0.744797
      7          1           0        5.183465   -0.844206   -0.629938
      8          6           0        0.280298   -0.171984   -0.057779
      9         16           0       -0.570647   -0.836906    1.353720
     10          6           0       -2.109193   -0.698250    0.581654
     11          6           0       -1.993220   -0.140667   -0.711395
     12          6           0       -0.647538    0.174848   -1.069649
     13          1           0       -0.382190    0.741932   -1.947532
     14         16           0       -3.465762    0.617069   -1.217298
     15          6           0       -4.254352    0.186285    0.289099
     16          6           0       -3.396589   -0.499589    1.163368
     17          1           0       -5.230483    0.563764    0.554057
     18          1           0       -3.615732   -0.623570    2.216874
     19          8           0        1.945140    2.316709    0.746812
     20          1           0        2.441403    3.181064    1.144457
 ---------------------------------------------------------------------
 Rotational constants (GHZ):           1.2311801           0.2580108           0.2538025
 Standard basis: Aug-CC-pVDZ (5D, 7F)
 There are   416 symmetry adapted cartesian basis functions of A   symmetry.
 There are   388 symmetry adapted basis functions of A   symmetry.
   388 basis functions,   782 primitive gaussians,   416 cartesian basis functions
    61 alpha electrons       61 beta electrons
       nuclear repulsion energy      1113.6046650296 Hartrees.
 NAtoms=   20 NActive=   20 NUniq=   20 SFac= 1.00D+00 NAtFMM=   60 NAOKFM=F Big=F
 Integral buffers will be    131072 words long.
 Raffenetti 1 integral format.
 Two-electron integral symmetry is turned on.
 One-electron integrals computed using PRISM.
 NBasis=   388 RedAO= T EigKep=  5.17D-06  NBF=   388
 NBsUse=   388 1.00D-06 EigRej= -1.00D+00 NBFU=   388
 Initial guess from the checkpoint file:  "/tmp/pbs.4762170[90].pbs/Gau-4157713.chk"
 B after Tr=     0.000000   -0.000000   -0.000000
         Rot=    0.999687   -0.025006    0.000980   -0.000600 Ang=  -2.87 deg.
 ExpMin= 2.97D-02 ExpMax= 1.11D+05 ExpMxC= 1.07D+03 IAcc=3 IRadAn=         5 AccDes= 0.00D+00
 Harris functional with IExCor=  205 and IRadAn=       5 diagonalized for initial guess.
 HarFok:  IExCor=  205 AccDes= 0.00D+00 IRadAn=         5 IDoV= 1 UseB2=F ITyADJ=14
 ICtDFT=  3500011 ScaDFX=  1.000000  1.000000  1.000000  1.000000
 FoFCou: FMM=F IPFlag=           0 FMFlag=      100000 FMFlg1=           0
         NFxFlg=           0 DoJE=T BraDBF=F KetDBF=T FulRan=T
         wScrn=  0.000000 ICntrl=       500 IOpCl=  0 I1Cent=   200000004 NGrid=           0
         NMat0=    1 NMatS0=      1 NMatT0=    0 NMatD0=    1 NMtDS0=    0 NMtDT0=    0
 Petite list used in FoFCou.
 Requested convergence on RMS density matrix=1.00D-08 within 128 cycles.
 Requested convergence on MAX density matrix=1.00D-06.
 Requested convergence on             energy=1.00D-06.
 No special actions if energy rises.
 SCF Done:  E(RHF) =  -1649.57378594     A.U. after   15 cycles
            NFock= 15  Conv=0.67D-08     -V/T= 2.0008
 Calling FoFJK, ICntrl=      2127 FMM=F ISym2X=0 I1Cent= 0 IOpClX= 0 NMat=1 NMatS=1 NMatT=0.
 ***** Axes restored to original set *****
 -------------------------------------------------------------------
 Center     Atomic                   Forces (Hartrees/Bohr)
 Number     Number              X              Y              Z
 -------------------------------------------------------------------
      1        6          -0.000909863   -0.037218798    0.007049118
      2        6           0.051013708    0.033437316    0.009096003
      3        6          -0.050721684    0.018691833    0.004468455
      4        6           0.010538631    0.043314514   -0.014211987
      5        1           0.001124002    0.001349002    0.000508525
      6       16          -0.003346924    0.017778576   -0.005042704
      7        1           0.003131896   -0.002218915    0.000126466
      8        6           0.061645701    0.011548096    0.023451807
      9       16          -0.008576154   -0.008425046    0.011634833
     10        6           0.005129830    0.019747313    0.034404082
     11        6          -0.016751205    0.006579616   -0.035490143
     12        6          -0.042944667   -0.005955085   -0.033323181
     13        1          -0.003330150   -0.005670472    0.001263627
     14       16           0.009833022   -0.006870817   -0.009910146
     15        6          -0.042317275   -0.013776043   -0.027148518
     16        6           0.036133075    0.025467003    0.027301576
     17        1           0.002283722   -0.005636512    0.004608196
     18        1           0.004293982   -0.008920678    0.002482661
     19        8          -0.049759979    0.017094091   -0.005554085
     20        1           0.033530331   -0.100314994    0.004285415
 -------------------------------------------------------------------
 Cartesian Forces:  Max     0.100314994 RMS     0.026315154

 GradGradGradGradGradGradGradGradGradGradGradGradGradGradGradGradGradGrad
 Berny optimization.
 Using GEDIIS/GDIIS optimizer.
 FormGI is forming the generalized inverse of G from B-inverse, IUseBI=4.
 Internal  Forces:  Max     0.102712776 RMS     0.018190879
 Search for a local minimum.
 Step number   2 out of a maximum of  116
 All quantities printed in internal units (Hartrees-Bohrs-Radians)
 Mixed Optimization -- RFO/linear search
 Update second derivatives using D2CorX and points    1    2
 DE= -6.96D-02 DEPred=-6.69D-02 R= 1.04D+00
 TightC=F SS=  1.41D+00  RLast= 3.12D-01 DXNew= 5.0454D-01 9.3486D-01
 Trust test= 1.04D+00 RLast= 3.12D-01 DXMaxT set to 5.05D-01
 ITU=  1  0
 Use linear search instead of GDIIS.
     Eigenvalues ---    0.00230   0.00995   0.01055   0.01219   0.01272
     Eigenvalues ---    0.01295   0.01347   0.01405   0.01459   0.01487
     Eigenvalues ---    0.01499   0.01592   0.01594   0.01746   0.02134
     Eigenvalues ---    0.02529   0.15040   0.15280   0.15751   0.15826
     Eigenvalues ---    0.15999   0.16028   0.18242   0.20822   0.22475
     Eigenvalues ---    0.22538   0.23373   0.24125   0.24325   0.24981
     Eigenvalues ---    0.25018   0.25617   0.26312   0.26694   0.28450
     Eigenvalues ---    0.28602   0.30921   0.31277   0.31546   0.34885
     Eigenvalues ---    0.35176   0.35801   0.36004   0.36090   0.36175
     Eigenvalues ---    0.36184   0.36480   0.37543   0.38141   0.39214
     Eigenvalues ---    0.39537   0.40565   0.449731000.000001000.00000
     Eigenvalues --- 1000.000001000.000001000.000001000.000001000.00000
     Eigenvalues --- 1000.000001000.000001000.000001000.000001000.00000
     Eigenvalues --- 1000.000001000.000001000.000001000.000001000.00000
     Eigenvalues --- 1000.000001000.000001000.000001000.000001000.00000
     Eigenvalues --- 1000.000001000.000001000.000001000.000001000.00000
     Eigenvalues --- 1000.000001000.000001000.000001000.000001000.00000
     Eigenvalues --- 1000.000001000.000001000.000001000.000001000.00000
     Eigenvalues --- 1000.000001000.000001000.000001000.000001000.00000
     Eigenvalues --- 1000.000001000.000001000.000001000.000001000.00000
     Eigenvalues --- 1000.000001000.000001000.000001000.000001000.00000
     Eigenvalues --- 1000.00000
 RFO step:  Lambda=-1.51274136D-02 EMin= 2.30031247D-03
 Quartic linear search produced a step of  1.58827.
 Iteration  1 RMS(Cart)=  0.09140387 RMS(Int)=  0.02422412
 Iteration  2 RMS(Cart)=  0.02625892 RMS(Int)=  0.00304970
 Iteration  3 RMS(Cart)=  0.00276895 RMS(Int)=  0.00106268
 Iteration  4 RMS(Cart)=  0.00000588 RMS(Int)=  0.00106266
 Iteration  5 RMS(Cart)=  0.00000000 RMS(Int)=  0.00106266
 Iteration  1 RMS(Cart)=  0.00004050 RMS(Int)=  0.00001786
 Iteration  2 RMS(Cart)=  0.00002216 RMS(Int)=  0.00001995
 Iteration  3 RMS(Cart)=  0.00001212 RMS(Int)=  0.00002254
 Iteration  4 RMS(Cart)=  0.00000663 RMS(Int)=  0.00002425
 Iteration  5 RMS(Cart)=  0.00000363 RMS(Int)=  0.00002526
 Iteration  6 RMS(Cart)=  0.00000198 RMS(Int)=  0.00002583
 Iteration  7 RMS(Cart)=  0.00000109 RMS(Int)=  0.00002615
 Iteration  8 RMS(Cart)=  0.00000059 RMS(Int)=  0.00002632
 Variable       Old X    -DE/DX   Delta X   Delta X   Delta X     New X
                                 (Linear)    (Quad)   (Total)
    R1        2.69778  -0.00644  -0.03398   0.04856   0.01491   2.71269
    R2        2.64245  -0.04542  -0.11351   0.02754  -0.08612   2.55633
    R3        2.03718   0.00001  -0.00119   0.00338   0.00219   2.03938
    R4        2.66688  -0.05665  -0.14641   0.02935  -0.11666   2.55022
    R5        2.77856  -0.08316  -0.20418  -0.07815  -0.28233   2.49623
    R6        3.35752  -0.01802  -0.06077   0.03171  -0.02910   3.32842
    R7        2.75257   0.00504   0.00482   0.01963   0.02445   2.77702
    R8        3.26508  -0.01066  -0.03436   0.02315  -0.01164   3.25344
    R9        2.03792  -0.00155  -0.00447   0.00197  -0.00249   2.03542
   R10        3.35848  -0.01258  -0.03753   0.01314  -0.02533   3.33315
   R11        2.67585  -0.05909  -0.14592   0.01108  -0.13543   2.54042
   R12        3.26351  -0.00008  -0.00893   0.02726   0.01856   3.28207
   R13        2.67002  -0.03509  -0.08391   0.00167  -0.08045   2.58957
   R14        2.69592   0.00491   0.00305   0.01671   0.02036   2.71629
   R15        2.69825  -0.00062  -0.01424   0.03000   0.01626   2.71450
   R16        3.27227   0.00112  -0.00353   0.02112   0.01762   3.28989
   R17        2.03764  -0.00016  -0.00072   0.00092   0.00020   2.03784
   R18        3.31467  -0.01053  -0.03294   0.01872  -0.01510   3.29957
   R19        2.65271  -0.05088  -0.12357   0.01653  -0.10741   2.54530
   R20        2.04014  -0.00219  -0.00605   0.00205  -0.00400   2.03614
   R21        2.04691  -0.00387  -0.01123   0.00486  -0.00637   2.04054
   R22        2.02783  -0.10271  -0.24440  -0.12702  -0.37142   1.65641
    A1        1.96205  -0.00227  -0.01295   0.00867  -0.00380   1.95825
    A2        2.17533  -0.00042   0.00323  -0.01400  -0.01104   2.16429
    A3        2.14580   0.00269   0.00974   0.00533   0.01481   2.16061
    A4        1.99387   0.00774   0.03493  -0.04245  -0.00829   1.98557
    A5        2.20831  -0.00701  -0.01475  -0.00750  -0.02488   2.18343
    A6        2.05970   0.00026  -0.01542   0.06661   0.04914   2.10884
    A7        1.89682   0.00028  -0.01204   0.04038   0.02909   1.92591
    A8        2.30779  -0.00940  -0.01766  -0.03257  -0.05060   2.25719
    A9        2.07836   0.00912   0.02961  -0.00763   0.02159   2.09996
   A10        1.95057  -0.00011  -0.00447   0.01560   0.01095   1.96152
   A11        2.18264   0.00361   0.01087   0.00942   0.02037   2.20302
   A12        2.14980  -0.00351  -0.00642  -0.02509  -0.03141   2.11840
   A13        1.62146  -0.00563  -0.00546  -0.02227  -0.02809   1.59336
   A14        2.12455  -0.00389  -0.00726  -0.01342  -0.02072   2.10383
   A15        2.23468  -0.00313  -0.00924   0.00038  -0.00890   2.22578
   A16        1.92351   0.00708   0.01687   0.01337   0.03004   1.95355
   A17        1.61227  -0.00605  -0.01198  -0.01376  -0.02505   1.58722
   A18        1.94733  -0.00672  -0.02157   0.01642  -0.00638   1.94095
   A19        2.25601   0.00692   0.02711   0.01577   0.03935   2.29536
   A20        1.97391   0.00363   0.01331  -0.00872   0.00430   1.97821
   A21        1.97597   0.00386   0.01462  -0.01077   0.00303   1.97900
   A22        1.95008  -0.00771  -0.02617   0.02302  -0.00447   1.94561
   A23        2.25422   0.00740   0.02823   0.01678   0.04126   2.29548
   A24        1.96506   0.00187   0.00220  -0.00411  -0.00099   1.96406
   A25        2.15240  -0.00365  -0.01241   0.01104  -0.00225   2.15015
   A26        2.15605   0.00236   0.01349  -0.00472   0.00784   2.16390
   A27        1.59474  -0.00144   0.00324  -0.02250  -0.01838   1.57637
   A28        1.96076   0.00210   0.00060   0.01897   0.01888   1.97964
   A29        2.13105  -0.00440  -0.00837  -0.01907  -0.02901   2.10204
   A30        2.17788   0.00338   0.01351   0.00799   0.02012   2.19800
   A31        1.94497   0.00343   0.00904  -0.01008  -0.00012   1.94484
   A32        2.16907  -0.00034   0.00551  -0.00424  -0.00072   2.16835
   A33        2.13892  -0.00131  -0.00485   0.02251   0.01584   2.15476
   A34        2.21172  -0.05183  -0.17490  -0.05413  -0.22903   1.98269
    D1        0.00463  -0.00037  -0.00350   0.01793   0.01431   0.01894
    D2       -2.91054  -0.00582  -0.02636  -0.07737  -0.10144  -3.01198
    D3       -3.13774   0.00084   0.00283   0.02153   0.02368  -3.11406
    D4        0.23028  -0.00461  -0.02004  -0.07377  -0.09207   0.13821
    D5       -0.00630  -0.00006   0.00065  -0.01146  -0.01040  -0.01670
    D6       -3.12887   0.00031   0.00210  -0.00738  -0.00533  -3.13421
    D7        3.13605  -0.00124  -0.00553  -0.01497  -0.01974   3.11631
    D8        0.01348  -0.00087  -0.00408  -0.01089  -0.01467  -0.00119
    D9       -0.00086   0.00065   0.00480  -0.01581  -0.01126  -0.01212
   D10        3.11781   0.00035   0.00031  -0.00561  -0.00588   3.11194
   D11        2.93494   0.00448   0.02490   0.06199   0.08910   3.02404
   D12       -0.22957   0.00417   0.02041   0.07219   0.09448  -0.13509
   D13       -0.27582   0.00189   0.00688   0.04353   0.05076  -0.22506
   D14        3.09976  -0.00454  -0.02281  -0.04208  -0.06524   3.03452
   D15       -0.00231  -0.00056  -0.00377   0.00782   0.00464   0.00232
   D16       -3.12449  -0.00004   0.00059  -0.00033   0.00093  -3.12356
   D17       -1.48385  -0.00067   0.00000   0.00000   0.00000  -1.48385
   D18        1.62225   0.00220   0.01348   0.01324   0.02684   1.64909
   D19        1.63289  -0.00112  -0.00531   0.01150   0.00580   1.63870
   D20       -1.54419   0.00174   0.00817   0.02474   0.03264  -1.51155
   D21        0.00497   0.00039   0.00193   0.00198   0.00355   0.00853
   D22        3.12796   0.00012   0.00072  -0.00158  -0.00060   3.12736
   D23        3.14157   0.00109   0.00633  -0.01367  -0.00742   3.13414
   D24        0.02976  -0.00117  -0.00448  -0.02464  -0.02981  -0.00005
   D25        3.13793  -0.00163  -0.00972   0.02163   0.01186  -3.13340
   D26       -0.14817   0.00297   0.01480   0.03747   0.05208  -0.09609
   D27       -0.03583   0.00081   0.00207   0.03321   0.03599   0.00016
   D28        2.96126   0.00541   0.02659   0.04904   0.07621   3.03747
   D29       -0.01613   0.00157   0.00671   0.00975   0.01605  -0.00008
   D30       -2.63802  -0.00747  -0.03622  -0.04128  -0.07880  -2.71681
   D31       -0.00161  -0.00105  -0.00595   0.00787   0.00180   0.00018
   D32       -2.71716  -0.00991  -0.04524  -0.05255  -0.09497  -2.81213
   D33        2.70869   0.00810   0.03640   0.05655   0.09025   2.79894
   D34       -0.00685  -0.00075  -0.00289  -0.00387  -0.00652  -0.01338
   D35        2.63656   0.00703   0.03656   0.04172   0.07961   2.71617
   D36       -0.24819  -0.00026  -0.00109   0.00426   0.00429  -0.24390
   D37        0.02097   0.00031   0.00178  -0.01598  -0.01457   0.00640
   D38       -2.86379  -0.00699  -0.03587  -0.05344  -0.08988  -2.95367
   D39        0.02479   0.00021   0.00256  -0.02730  -0.02501  -0.00023
   D40       -2.97195  -0.00382  -0.01928  -0.04469  -0.06462  -3.03657
   D41        2.64844   0.00615   0.03199   0.04601   0.07933   2.72777
   D42       -0.34829   0.00212   0.01015   0.02861   0.03972  -0.30857
   D43       -0.00665   0.00101   0.00304   0.01686   0.01943   0.01278
   D44       -2.63636  -0.00750  -0.03593  -0.04767  -0.08486  -2.72122
   D45        0.01880  -0.00075  -0.00185  -0.02604  -0.02818  -0.00938
   D46        2.99237   0.00627   0.03302   0.02374   0.05515   3.04752
   D47       -0.02578   0.00049   0.00069   0.02819   0.02938   0.00359
   D48        2.86414   0.00779   0.03948   0.06042   0.10119   2.96533
   D49       -2.99402  -0.00586  -0.03244  -0.02013  -0.05378  -3.04780
   D50       -0.10410   0.00144   0.00635   0.01209   0.01803  -0.08607
         Item               Value     Threshold  Converged?
 Maximum Force            0.102713     0.000450     NO 
 RMS     Force            0.018277     0.000300     NO 
 Maximum Displacement     0.823877     0.001800     NO 
 RMS     Displacement     0.105922     0.001200     NO 
 Predicted change in Energy=-7.867956D-02
 GradGradGradGradGradGradGradGradGradGradGradGradGradGradGradGradGradGrad

                          Input orientation:                          
 ---------------------------------------------------------------------
 Center     Atomic      Atomic             Coordinates (Angstroms)
 Number     Number       Type             X           Y           Z
 ---------------------------------------------------------------------
      1          6           0       -4.157640   -1.307672   -0.180006
      2          6           0       -2.819052   -0.961537   -0.566027
      3          6           0       -1.970347   -2.010587   -0.586029
      4          6           0       -4.282412   -2.623475    0.108148
      5          1           0       -4.973497   -0.602837   -0.132702
      6         16           0       -2.805789   -3.483524   -0.101513
      7          1           0       -5.184974   -3.125187    0.414429
      8          6           0       -0.549418   -2.051990   -0.958555
      9         16           0       -0.070236   -2.231591   -2.646516
     10          6           0        1.608733   -2.174116   -2.205808
     11          6           0        1.761128   -2.026812   -0.851958
     12          6           0        0.514314   -1.957567   -0.141987
     13          1           0        0.432162   -1.749710    0.912977
     14         16           0        3.352365   -1.446733   -0.449064
     15          6           0        3.773110   -1.395265   -2.142889
     16          6           0        2.778026   -1.801999   -2.954402
     17          1           0        4.719958   -0.988916   -2.458035
     18          1           0        2.801509   -1.688870   -4.028007
     19          8           0       -2.380079    0.268224   -0.765749
     20          1           0       -3.019861    0.865165   -0.817308
 ---------------------------------------------------------------------
                    Distance matrix (angstroms):
                    1          2          3          4          5
     1  C    0.000000
     2  C    1.435492   0.000000
     3  C    2.333065   1.349520   0.000000
     4  C    1.352752   2.314729   2.490614   0.000000
     5  H    1.079191   2.226672   3.347563   2.149089   0.000000
     6  S    2.562810   2.564443   1.761325   1.721644   3.605314
     7  H    2.170744   3.352650   3.546418   1.077099   2.589657
     8  C    3.765556   2.548412   1.469533   3.924244   4.728060
     9  S    4.862527   3.673889   2.811560   5.048185   5.745787
    10  C    6.172978   4.874885   3.931951   6.345227   7.077601
    11  C    6.000041   4.711116   3.740974   6.148348   6.920998
    12  C    4.717092   3.504741   2.524584   4.849183   5.652561
    13  H    4.738807   3.657740   2.843787   4.861936   5.624048
    14  S    7.516109   6.191565   5.354246   7.745000   8.374499
    15  C    8.170519   6.791997   5.982452   8.453822   9.009547
    16  C    7.486327   6.143125   5.310343   7.739755   8.335831
    17  H    9.170756   7.772845   7.021994   9.502618   9.975936
    18  H    7.961293   6.641162   5.892480   8.256101   8.763766
    19  O    2.446684   1.320946   2.322317   3.569942   2.808080
    20  H    2.534149   1.854806   3.070002   3.823756   2.537796
                    6          7          8          9         10
     6  S    0.000000
     7  H    2.460716   0.000000
     8  C    2.806247   4.952294   0.000000
     9  S    3.940511   6.027309   1.763827   0.000000
    10  C    5.062668   7.343340   2.495630   1.736797   0.000000
    11  C    4.852000   7.145523   2.313141   2.572210   1.370341
    12  C    3.654212   5.844213   1.344331   2.586398   2.346062
    13  H    3.810463   5.804542   2.134831   3.626928   3.360247
    14  S    6.495550   8.743511   3.981184   4.142342   2.579824
    15  C    7.197913   9.475219   4.529701   3.965399   2.301108
    16  C    6.491956   8.746955   3.888159   2.896884   1.437397
    17  H    8.271223  10.531970   5.580761   4.952346   3.338868
    18  H    7.076718   9.251063   4.558740   3.232644   2.231275
    19  O    3.833804   4.558014   2.961737   3.888668   4.893814
    20  H    4.412401   4.704019   3.825288   4.651471   5.708681
                   11         12         13         14         15
    11  C    0.000000
    12  C    1.436453   0.000000
    13  H    2.226641   1.078380   0.000000
[...]
 Number     Number       Type             X           Y           Z
 ---------------------------------------------------------------------
      1          6           0        3.977377    0.372193   -0.541028
      2          6           0        2.590651    0.713307   -0.712519
      3          6           0        1.744387   -0.096366   -0.035422
      4          6           0        4.142235   -0.692939    0.269891
      5          1           0        4.789613    0.906780   -1.011048
      6         16           0        2.642031   -1.311023    0.845622
      7          1           0        5.071650   -1.153263    0.559483
      8          6           0        0.273797   -0.031479    0.014320
      9         16           0       -0.532521    1.029238    1.162041
     10          6           0       -2.086951    0.507951    0.593161
     11          6           0       -1.960716   -0.417098   -0.401867
     12          6           0       -0.603442   -0.732773   -0.736561
     13          1           0       -0.298475   -1.435640   -1.494474
     14         16           0       -3.516206   -0.938857   -0.974629
     15          6           0       -4.308712    0.121433    0.161153
     16          6           0       -3.447275    0.825696    0.924103
     17          1           0       -5.384475    0.157458    0.192903
     18          1           0       -3.751975    1.530825    1.680091
     19          8           0        2.158548    1.736251   -1.478148
     20          1           0        2.884311    2.214550   -1.841700
 ---------------------------------------------------------------------
 Rotational constants (GHZ):           1.3118028           0.2578837           0.2532803

 **********************************************************************

            Population analysis using the SCF Density.

 **********************************************************************

 Orbital symmetries:
       Occupied  (A) (A) (A) (A) (A) (A) (A) (A) (A) (A) (A) (A)
                 (A) (A) (A) (A) (A) (A) (A) (A) (A) (A) (A) (A)
                 (A) (A) (A) (A) (A) (A) (A) (A) (A) (A) (A) (A)
                 (A) (A) (A) (A) (A) (A) (A) (A) (A) (A) (A) (A)
                 (A) (A) (A) (A) (A) (A) (A) (A) (A) (A) (A) (A)
                 (A)
       Virtual   (A) (A) (A) (A) (A) (A) (A) (A) (A) (A) (A) (A)
                 (A) (A) (A) (A) (A) (A) (A) (A) (A) (A) (A) (A)
                 (A) (A) (A) (A) (A) (A) (A) (A) (A) (A) (A) (A)
                 (A) (A) (A) (A) (A) (A) (A) (A) (A) (A) (A) (A)
                 (A) (A) (A) (A) (A) (A) (A) (A) (A) (A) (A) (A)
                 (A) (A) (A) (A) (A) (A) (A) (A) (A) (A) (A) (A)
                 (A) (A) (A) (A) (A) (A) (A) (A) (A) (A) (A) (A)
                 (A) (A) (A) (A) (A) (A) (A) (A) (A) (A) (A) (A)
                 (A) (A) (A) (A) (A) (A) (A) (A) (A) (A) (A) (A)
                 (A) (A) (A) (A) (A) (A) (A) (A) (A) (A) (A) (A)
                 (A) (A) (A) (A) (A) (A) (A) (A) (A) (A) (A) (A)
                 (A) (A) (A) (A) (A) (A) (A) (A) (A) (A) (A) (A)
                 (A) (A) (A) (A) (A) (A) (A) (A) (A) (A) (A) (A)
                 (A) (A) (A) (A) (A) (A) (A) (A) (A) (A) (A) (A)
                 (A) (A) (A) (A) (A) (A) (A) (A) (A) (A) (A) (A)
                 (A) (A) (A) (A) (A) (A) (A) (A) (A) (A) (A) (A)
                 (A) (A) (A) (A) (A) (A) (A) (A) (A) (A) (A) (A)
                 (A) (A) (A) (A) (A) (A) (A) (A) (A) (A) (A) (A)
                 (A) (A) (A) (A) (A) (A) (A) (A) (A) (A) (A) (A)
                 (A) (A) (A) (A) (A) (A) (A) (A) (A) (A) (A) (A)
                 (A) (A) (A) (A) (A) (A) (A) (A) (A) (A) (A) (A)
                 (A) (A) (A) (A) (A) (A) (A) (A) (A) (A) (A) (A)
                 (A) (A) (A) (A) (A) (A) (A) (A) (A) (A) (A) (A)
                 (A) (A) (A) (A) (A) (A) (A) (A) (A) (A) (A) (A)
                 (A) (A) (A) (A) (A) (A) (A) (A) (A) (A) (A) (A)
                 (A) (A) (A) (A) (A) (A) (A) (A) (A) (A) (A) (A)
                 (A) (A) (A) (A) (A) (A) (A) (A) (A) (A) (A) (A)
                 (A) (A) (A)
 The electronic state is 1-A.
 Alpha  occ. eigenvalues --  -91.98957 -91.98656 -91.98391 -20.60918 -11.31768
 Alpha  occ. eigenvalues --  -11.28370 -11.28364 -11.27442 -11.26861 -11.26822
 Alpha  occ. eigenvalues --  -11.26694 -11.25456 -11.25429 -11.25370  -8.99142
 Alpha  occ. eigenvalues --   -8.98840  -8.98555  -6.67308  -6.67216  -6.67018
 Alpha  occ. eigenvalues --   -6.67007  -6.66929  -6.66723  -6.66718  -6.66637
 Alpha  occ. eigenvalues --   -6.66429  -1.42959  -1.21270  -1.18378  -1.12581
 Alpha  occ. eigenvalues --   -1.02810  -1.01994  -0.98583  -0.95677  -0.94213
 Alpha  occ. eigenvalues --   -0.82519  -0.81117  -0.77040  -0.75003  -0.72066
 Alpha  occ. eigenvalues --   -0.69736  -0.66809  -0.66457  -0.62038  -0.60979
 Alpha  occ. eigenvalues --   -0.58420  -0.56379  -0.56045  -0.53663  -0.53330
 Alpha  occ. eigenvalues --   -0.52658  -0.50648  -0.49281  -0.48604  -0.45891
 Alpha  occ. eigenvalues --   -0.45792  -0.38344  -0.34888  -0.32330  -0.31734
 Alpha  occ. eigenvalues --   -0.30189
 Alpha virt. eigenvalues --    0.02775   0.03701   0.03991   0.04905   0.05096
 Alpha virt. eigenvalues --    0.06234   0.07987   0.08451   0.08822   0.09001
 Alpha virt. eigenvalues --    0.09676   0.10289   0.10405   0.10832   0.11469
 Alpha virt. eigenvalues --    0.12397   0.12547   0.12694   0.12990   0.13555
 Alpha virt. eigenvalues --    0.13970   0.14137   0.14450   0.14537   0.15057
 Alpha virt. eigenvalues --    0.15322   0.15921   0.16096   0.16295   0.16885
 Alpha virt. eigenvalues --    0.16995   0.17999   0.18510   0.18939   0.19225
 Alpha virt. eigenvalues --    0.19492   0.19896   0.20648   0.20844   0.21413
 Alpha virt. eigenvalues --    0.21823   0.22294   0.23008   0.23058   0.23450
 Alpha virt. eigenvalues --    0.23988   0.24386   0.24711   0.25095   0.25899
 Alpha virt. eigenvalues --    0.26131   0.27198   0.27418   0.27697   0.28366
 Alpha virt. eigenvalues --    0.29130   0.29668   0.30733   0.31356   0.31712
 Alpha virt. eigenvalues --    0.31923   0.32170   0.32826   0.33086   0.33390
 Alpha virt. eigenvalues --    0.33675   0.34714   0.35173   0.35736   0.36155
 Alpha virt. eigenvalues --    0.36351   0.37034   0.37337   0.38884   0.39768
 Alpha virt. eigenvalues --    0.40067   0.40610   0.40916   0.42207   0.42610
 Alpha virt. eigenvalues --    0.43318   0.43663   0.44850   0.45177   0.45753
 Alpha virt. eigenvalues --    0.46086   0.46717   0.47156   0.48185   0.48700
 Alpha virt. eigenvalues --    0.49424   0.49562   0.50790   0.51555   0.52327
 Alpha virt. eigenvalues --    0.53387   0.53679   0.54234   0.54716   0.55110
 Alpha virt. eigenvalues --    0.55781   0.57215   0.58108   0.58944   0.59266
 Alpha virt. eigenvalues --    0.60394   0.60440   0.61533   0.61782   0.62131
 Alpha virt. eigenvalues --    0.62699   0.63626   0.64405   0.65609   0.66020
 Alpha virt. eigenvalues --    0.66595   0.67252   0.67713   0.67884   0.68539
 Alpha virt. eigenvalues --    0.69459   0.69583   0.70165   0.71006   0.71115
 Alpha virt. eigenvalues --    0.71987   0.72350   0.73050   0.73791   0.74644
 Alpha virt. eigenvalues --    0.74798   0.75372   0.76054   0.76619   0.76849
 Alpha virt. eigenvalues --    0.77811   0.78326   0.78680   0.79145   0.80074
 Alpha virt. eigenvalues --    0.80592   0.81692   0.82084   0.83325   0.84187
 Alpha virt. eigenvalues --    0.84757   0.85137   0.86174   0.86884   0.87145
 Alpha virt. eigenvalues --    0.88457   0.88575   0.89870   0.90913   0.91027
 Alpha virt. eigenvalues --    0.91834   0.92342   0.93784   0.94440   0.94922
 Alpha virt. eigenvalues --    0.95849   0.96234   0.96898   0.97409   0.98829
 Alpha virt. eigenvalues --    0.99353   1.00164   1.00445   1.00856   1.02481
 Alpha virt. eigenvalues --    1.03942   1.05194   1.06058   1.06271   1.07502
 Alpha virt. eigenvalues --    1.08729   1.09223   1.10898   1.11337   1.12812
 Alpha virt. eigenvalues --    1.13624   1.14577   1.17038   1.17509   1.18498
 Alpha virt. eigenvalues --    1.19101   1.22121   1.22262   1.23484   1.23866
 Alpha virt. eigenvalues --    1.25004   1.25104   1.25771   1.26267   1.27585
 Alpha virt. eigenvalues --    1.28872   1.30207   1.31075   1.31396   1.32121
 Alpha virt. eigenvalues --    1.32895   1.34057   1.34822   1.36466   1.37188
 Alpha virt. eigenvalues --    1.37998   1.38807   1.40673   1.42236   1.43201
 Alpha virt. eigenvalues --    1.43794   1.44741   1.45953   1.47298   1.48880
 Alpha virt. eigenvalues --    1.49891   1.53484   1.55135   1.55646   1.56495
 Alpha virt. eigenvalues --    1.57751   1.59043   1.59367   1.60533   1.60891
 Alpha virt. eigenvalues --    1.61683   1.63900   1.64631   1.65589   1.66979
 Alpha virt. eigenvalues --    1.67415   1.68907   1.70309   1.70771   1.71933
 Alpha virt. eigenvalues --    1.73604   1.74572   1.76016   1.76606   1.77755
 Alpha virt. eigenvalues --    1.78543   1.80549   1.81281   1.81921   1.83089
 Alpha virt. eigenvalues --    1.85301   1.88153   1.88376   1.89827   1.90058
 Alpha virt. eigenvalues --    1.91007   1.92399   1.94495   1.94995   1.96400
 Alpha virt. eigenvalues --    1.97785   2.00645   2.02724   2.03520   2.05321
 Alpha virt. eigenvalues --    2.05805   2.06935   2.07952   2.08905   2.09293
 Alpha virt. eigenvalues --    2.10494   2.11723   2.13558   2.14255   2.15877
 Alpha virt. eigenvalues --    2.17084   2.19024   2.20405   2.21846   2.22785
 Alpha virt. eigenvalues --    2.24981   2.25524   2.28362   2.28709   2.29841
 Alpha virt. eigenvalues --    2.31649   2.33783   2.34145   2.35326   2.36850
 Alpha virt. eigenvalues --    2.38570   2.41605   2.43475   2.44030   2.47374
 Alpha virt. eigenvalues --    2.48181   2.49146   2.49539   2.51270   2.51996
 Alpha virt. eigenvalues --    2.55807   2.57506   2.61103   2.62625   2.65736
 Alpha virt. eigenvalues --    2.74965   2.81715   2.84660   2.85861   2.88204
 Alpha virt. eigenvalues --    2.91708   2.93691   2.96655   3.00345   3.03992
 Alpha virt. eigenvalues --    3.10603   3.19242   3.25214   3.26014   3.34023
 Alpha virt. eigenvalues --    3.44404   3.52922   3.57023   3.65034   3.75935
 Alpha virt. eigenvalues --    3.78003   3.80640   3.87998   3.89032   4.24056
 Alpha virt. eigenvalues --    4.25344   4.48463
          Condensed to atoms (all electrons):
               1          2          3          4          5          6
     1  C    7.399832  -1.771214  -0.194536   0.118503  -0.185965  -0.509706
     2  C   -1.771214   9.695797  -1.759189   0.510753   0.205856  -0.239312
     3  C   -0.194536  -1.759189  11.223469  -1.362956  -0.085912   0.141609
     4  C    0.118503   0.510753  -1.362956   6.453538   0.014456   0.382136
     5  H   -0.185965   0.205856  -0.085912   0.014456   1.660094  -0.014461
     6  S   -0.509706  -0.239312   0.141609   0.382136  -0.014461  16.353134
     7  H    0.036886   0.017117   0.086929   0.180277  -0.066121  -0.171525
     8  C    0.587845  -0.470506  -2.070409   0.297276   0.027654  -0.747690
     9  S   -0.006722   0.196023  -0.542122   0.003087  -0.000912   0.027992
    10  C    0.014199   0.034626  -0.431687   0.030014   0.002012  -0.021264
    11  C   -0.032098   0.014794   0.447441  -0.007654  -0.001602   0.101163
    12  C   -0.116627  -0.236031   0.219196  -0.175517  -0.009957   0.305605
    13  H   -0.006901   0.072664   0.005090   0.006504  -0.000353   0.026169
    14  S    0.001587  -0.008868  -0.056681  -0.002503   0.000106   0.001339
    15  C   -0.002003   0.000199   0.032141   0.000520  -0.000114   0.001669
    16  C    0.004805   0.024227  -0.361257  -0.001482   0.000093  -0.010260
    17  H   -0.000079   0.000439  -0.000603   0.000021  -0.000004   0.000065
    18  H    0.000449  -0.000584  -0.011224  -0.000176   0.000035   0.000261
    19  O    0.117011  -0.728997   0.345347  -0.111441  -0.080023   0.003883
    20  H   -0.116264   0.009269  -0.075852  -0.016419  -0.012927   0.018950
               7          8          9         10         11         12
     1  C    0.036886   0.587845  -0.006722   0.014199  -0.032098  -0.116627
     2  C    0.017117  -0.470506   0.196023   0.034626   0.014794  -0.236031
     3  C    0.086929  -2.070409  -0.542122  -0.431687   0.447441   0.219196
     4  C    0.180277   0.297276   0.003087   0.030014  -0.007654  -0.175517
     5  H   -0.066121   0.027654  -0.000912   0.002012  -0.001602  -0.009957
     6  S   -0.171525  -0.747690   0.027992  -0.021264   0.101163   0.305605
     7  H    1.253193  -0.013897   0.000084  -0.000276   0.000555   0.005614
     8  C   -0.013897  13.528018   0.207859   0.390037  -1.114226  -4.296963
     9  S    0.000084   0.207859  16.486112   0.202289  -0.443197  -0.380832
    10  C   -0.000276   0.390037   0.202289  11.220684  -0.591090  -2.017128
    11  C    0.000555  -1.114226  -0.443197  -0.591090  12.134113  -2.744528
    12  C    0.005614  -4.296963  -0.380832  -2.017128  -2.744528  15.979623
    13  H    0.000586   0.028166   0.034669  -0.071522   0.753217  -1.041925
    14  S   -0.000163  -0.253602   0.091249  -0.069004  -0.234618  -0.017437
    15  C    0.000050   0.073213  -0.093125  -0.047548  -0.974322  -0.210027
    16  C   -0.000078  -0.785003  -0.202191  -2.518455  -1.076565   0.660184
    17  H    0.000003   0.006430   0.006938   0.071114  -0.039462   0.027018
    18  H   -0.000017   0.130248   0.010875   0.599502   0.045299  -0.072387
    19  O   -0.000913  -0.108288   0.016265   0.002797  -0.002120   0.102547
    20  H    0.000945   0.035473  -0.003190   0.002150   0.003581  -0.013044
              13         14         15         16         17         18
     1  C   -0.006901   0.001587  -0.002003   0.004805  -0.000079   0.000449
     2  C    0.072664  -0.008868   0.000199   0.024227   0.000439  -0.000584
     3  C    0.005090  -0.056681   0.032141  -0.361257  -0.000603  -0.011224
     4  C    0.006504  -0.002503   0.000520  -0.001482   0.000021  -0.000176
     5  H   -0.000353   0.000106  -0.000114   0.000093  -0.000004   0.000035
     6  S    0.026169   0.001339   0.001669  -0.010260   0.000065   0.000261
     7  H    0.000586  -0.000163   0.000050  -0.000078   0.000003  -0.000017
     8  C    0.028166  -0.253602   0.073213  -0.785003   0.006430   0.130248
     9  S    0.034669   0.091249  -0.093125  -0.202191   0.006938   0.010875
    10  C   -0.071522  -0.069004  -0.047548  -2.518455   0.071114   0.599502
    11  C    0.753217  -0.234618  -0.974322  -1.076565  -0.039462   0.045299
    12  C   -1.041925  -0.017437  -0.210027   0.660184   0.027018  -0.072387
    13  H    1.696916  -0.038747   0.020741  -0.049466   0.001601  -0.002093
    14  S   -0.038747  15.935756   0.184036  -0.014352  -0.159573  -0.007288
    15  C    0.020741   0.184036   6.926386   0.102317   0.189226  -0.116807
    16  C   -0.049466  -0.014352   0.102317  10.170091   0.050089  -0.624424
    17  H    0.001601  -0.159573   0.189226   0.050089   1.293290  -0.068856
    18  H   -0.002093  -0.007288  -0.116807  -0.624424  -0.068856   1.443510
    19  O    0.000280  -0.000088  -0.000245  -0.004393  -0.000059   0.000182
    20  H    0.001446  -0.000201   0.000256   0.000739   0.000015  -0.000021
              19         20
     1  C    0.117011  -0.116264
     2  C   -0.728997   0.009269
     3  C    0.345347  -0.075852
     4  C   -0.111441  -0.016419
     5  H   -0.080023  -0.012927
     6  S    0.003883   0.018950
     7  H   -0.000913   0.000945
     8  C   -0.108288   0.035473
     9  S    0.016265  -0.003190
    10  C    0.002797   0.002150
    11  C   -0.002120   0.003581
    12  C    0.102547  -0.013044
    13  H    0.000280   0.001446
    14  S   -0.000088  -0.000201
    15  C   -0.000245   0.000256
    16  C   -0.004393   0.000739
    17  H   -0.000059   0.000015
    18  H    0.000182  -0.000021
    19  O    9.021052   0.372054
    20  H    0.372054   0.629859
 Mulliken charges:
               1
     1  C    0.660997
     2  C    0.432936
     3  C    0.451206
     4  C   -0.318936
     5  H   -0.451956
     6  S    0.350245
     7  H   -0.329248
     8  C    0.548365
     9  S    0.388849
    10  C   -0.801450
    11  C   -0.238682
    12  C    0.032614
    13  H   -0.437043
    14  S    0.649053
    15  C   -0.086563
    16  C    0.635380
    17  H   -0.377612
    18  H   -0.326484
    19  O   -0.944851
    20  H    0.163180
 Sum of Mulliken charges =  -0.00000
 Mulliken charges with hydrogens summed into heavy atoms:
               1
     1  C    0.209041
     2  C    0.432936
     3  C    0.451206
     4  C   -0.648184
     6  S    0.350245
     8  C    0.548365
     9  S    0.388849
    10  C   -0.801450
    11  C   -0.238682
    12  C   -0.404429
    14  S    0.649053
    15  C   -0.464175
    16  C    0.308896
    19  O   -0.781670
 Electronic spatial extent (au):  <R**2>=           4301.7528
 Charge=              0.0000 electrons
 Dipole moment (field-independent basis, Debye):
    X=              2.1774    Y=              0.8898    Z=             -0.7728  Tot=              2.4759
 Quadrupole moment (field-independent basis, Debye-Ang):
   XX=            -76.8678   YY=           -102.2635   ZZ=           -103.5692
   XY=              1.3578   XZ=             -7.7380   YZ=              0.0281
 Traceless Quadrupole moment (field-independent basis, Debye-Ang):
   XX=             17.3657   YY=             -8.0300   ZZ=             -9.3357
   XY=              1.3578   XZ=             -7.7380   YZ=              0.0281
 Octapole moment (field-independent basis, Debye-Ang**2):
  XXX=             48.6376  YYY=             16.5197  ZZZ=            -11.7780  XYY=             20.7683
  XXY=             29.0828  XXZ=             -4.6706  XZZ=             10.0549  YZZ=              9.3010
  YYZ=             -7.7386  XYZ=            -27.3907
 Hexadecapole moment (field-independent basis, Debye-Ang**3):
 XXXX=          -3979.9990 YYYY=           -638.2405 ZZZZ=           -568.1258 XXXY=             -4.3718
 XXXZ=           -109.4123 YYYX=             44.9334 YYYZ=            -28.2501 ZZZX=            -44.5784
 ZZZY=            -13.7493 XXYY=           -865.6088 XXZZ=           -888.9893 YYZZ=           -172.6294
 XXYZ=            -55.1307 YYXZ=            -39.1552 ZZXY=             21.1791
 N-N= 1.126363387304D+03 E-N=-6.160201781456D+03  KE= 1.649561018904D+03
 Unable to Open any file for archive entry.
 1\1\GINC-CX3-5-20\FOpt\RHF\Aug-CC-pVDZ\C10H6O1S3\NS5018\25-Oct-2021\0\
 \# opt=modredundant hf/aug-cc-pvdz\\pBTTT_-85.pdb\\0,1\C,-4.1924100447
 ,-1.3878030918,-0.1273974012\C,-2.8829326825,-0.9577144909,-0.53857741
 02\C,-1.976277674,-1.9599432268,-0.5994586266\C,-4.2402155917,-2.71462
 84799,0.1103489263\H,-5.0363175472,-0.7225423184,-0.0193324834\S,-2.71
 96183548,-3.4781214942,-0.1522726573\H,-5.0930333507,-3.2883733252,0.4
 314288956\C,-0.5566213066,-1.8753218422,-0.982517511\S,-0.0852529357,-
 1.9453818882,-2.675277454\C,1.5895812616,-1.8058732848,-2.2427426061\C
 ,1.7416163919,-1.7190341959,-0.8895703575\C,0.5089184337,-1.7613615436
 ,-0.1598257349\H,0.4203722561,-1.704896434,0.9127559735\S,3.4179779442
 ,-1.576963382,-0.4542928224\C,3.8771741845,-1.6393344507,-2.1358187176
 \C,2.8252656347,-1.7592397193,-2.972038944\H,4.9182849593,-1.581865815
 1,-2.4048110501\H,2.9133313589,-1.8127710566,-4.04486104\O,-2.57089319
 98,0.321213602,-0.8323310797\H,-3.3309497372,0.8749564377,-0.774407899
 5\\Version=ES64L-G16RevC.01\State=1-A\HF=-1649.6414632\RMSD=6.114e-09\
 RMSF=7.262e-05\Dipole=-0.8703592,0.4160107,0.1352652\Quadrupole=11.240
 8717,-6.9635034,-4.2773683,-3.9030572,-6.8949974,0.161411\PG=C01 [X(C1
 0H6O1S3)]\\@
 The archive entry for this job was punched.


 A warm smile is the universal language of kindness.
                             -- William Arthur Ward
 Job cpu time:       0 days  5 hours 14 minutes 22.4 seconds.
 Elapsed time:       0 days  0 hours 39 minutes 46.7 seconds.
 File lengths (MBytes):  RWF=     95 Int=      0 D2E=      0 Chk=     12 Scr=      1
 Normal termination of Gaussian 16 at Mon Oct 25 22:53:08 2021.
