 Entering Gaussian System, Link 0=g16
 Input=pBTTT_30.gjf
 Output=pBTTT_30.log
 Initial command:
 /apps/gaussian/g16-c01-avx/g16/l1.exe "/tmp/pbs.4762170[205].pbs/Gau-2604697.inp" -scrdir="/tmp/pbs.4762170[205].pbs/"
 Entering Link 1 = /apps/gaussian/g16-c01-avx/g16/l1.exe PID=   2604698.
  
 Copyright (c) 1988-2019, Gaussian, Inc.  All Rights Reserved.
  
 This is part of the Gaussian(R) 16 program.  It is based on
 the Gaussian(R) 09 system (copyright 2009, Gaussian, Inc.),
 the Gaussian(R) 03 system (copyright 2003, Gaussian, Inc.),
 the Gaussian(R) 98 system (copyright 1998, Gaussian, Inc.),
 the Gaussian(R) 94 system (copyright 1995, Gaussian, Inc.),
 the Gaussian 92(TM) system (copyright 1992, Gaussian, Inc.),
 the Gaussian 90(TM) system (copyright 1990, Gaussian, Inc.),
 the Gaussian 88(TM) system (copyright 1988, Gaussian, Inc.),
 the Gaussian 86(TM) system (copyright 1986, Carnegie Mellon
 University), and the Gaussian 82(TM) system (copyright 1983,
 Carnegie Mellon University). Gaussian is a federally registered
 trademark of Gaussian, Inc.
  
 This software contains proprietary and confidential information,
 including trade secrets, belonging to Gaussian, Inc.
  
 This software is provided under written license and may be
 used, copied, transmitted, or stored only in accord with that
 written license.
  
 The following legend is applicable only to US Government
 contracts under FAR:
  
                    RESTRICTED RIGHTS LEGEND
  
 Use, reproduction and disclosure by the US Government is
 subject to restrictions as set forth in subparagraphs (a)
 and (c) of the Commercial Computer Software - Restricted
 Rights clause in FAR 52.227-19.
  
 Gaussian, Inc.
 340 Quinnipiac St., Bldg. 40, Wallingford CT 06492
  
  
 ---------------------------------------------------------------
 Warning -- This program may not be used in any manner that
 competes with the business of Gaussian, Inc. or will provide
 assistance to any competitor of Gaussian, Inc.  The licensee
 of this program is prohibited from giving any competitor of
 Gaussian, Inc. access to this program.  By using this program,
 the user acknowledges that Gaussian, Inc. is engaged in the
 business of creating and licensing software in the field of
 computational chemistry and represents and warrants to the
 licensee that it is not a competitor of Gaussian, Inc. and that
 it will not use this program in any manner prohibited above.
 ---------------------------------------------------------------
  

 Cite this work as:
 Gaussian 16, Revision C.01,
 M. J. Frisch, G. W. Trucks, H. B. Schlegel, G. E. Scuseria, 
 M. A. Robb, J. R. Cheeseman, G. Scalmani, V. Barone, 
 G. A. Petersson, H. Nakatsuji, X. Li, M. Caricato, A. V. Marenich, 
 J. Bloino, B. G. Janesko, R. Gomperts, B. Mennucci, H. P. Hratchian, 
 J. V. Ortiz, A. F. Izmaylov, J. L. Sonnenberg, D. Williams-Young, 
 F. Ding, F. Lipparini, F. Egidi, J. Goings, B. Peng, A. Petrone, 
 T. Henderson, D. Ranasinghe, V. G. Zakrzewski, J. Gao, N. Rega, 
 G. Zheng, W. Liang, M. Hada, M. Ehara, K. Toyota, R. Fukuda, 
 J. Hasegawa, M. Ishida, T. Nakajima, Y. Honda, O. Kitao, H. Nakai, 
 T. Vreven, K. Throssell, J. A. Montgomery, Jr., J. E. Peralta, 
 F. Ogliaro, M. J. Bearpark, J. J. Heyd, E. N. Brothers, K. N. Kudin, 
 V. N. Staroverov, T. A. Keith, R. Kobayashi, J. Normand, 
 K. Raghavachari, A. P. Rendell, J. C. Burant, S. S. Iyengar, 
 J. Tomasi, M. Cossi, J. M. Millam, M. Klene, C. Adamo, R. Cammi, 
 J. W. Ochterski, R. L. Martin, K. Morokuma, O. Farkas, 
 J. B. Foresman, and D. J. Fox, Gaussian, Inc., Wallingford CT, 2019.
 
 ******************************************
 Gaussian 16:  ES64L-G16RevC.01  3-Jul-2019
                25-Oct-2021 
 ******************************************
 %mem=100GB
 %nprocshared=8
 Will use up to    8 processors via shared memory.
 ---------------------------------
 # opt=modredundant hf/aug-cc-pvdz
 ---------------------------------
 1/18=120,19=15,38=1/1,3;
 2/9=110,12=2,17=6,18=5,40=1/2;
 3/5=16,7=10,11=9,25=1,30=1,71=1/1,2,3;
 4//1;
 5/5=2,38=5/2;
 6/7=2,8=2,9=2,10=2,28=1/1;
 7//1,2,3,16;
 1/18=20,19=15/3(2);
 2/9=110/2;
 99//99;
 2/9=110/2;
 3/5=16,7=10,11=9,25=1,30=1,71=1/1,2,3;
 4/5=5,16=3,69=1/1;
 5/5=2,38=5/2;
 7//1,2,3,16;
 1/18=20,19=15/3(-5);
 2/9=110/2;
 6/7=2,8=2,9=2,10=2,19=2,28=1/1;
 99/9=1/99;
 ------------
 pBTTT_30.pdb
 ------------
 Symbolic Z-matrix:
 Charge =  0 Multiplicity = 1
 C                    -4.25     -1.36     -0.21 
 C                    -2.93     -0.95     -0.61 
 C                    -1.97     -2.05     -0.62 
 C                    -4.33     -2.76      0.1 
 H                    -5.1      -0.7      -0.14 
 S                    -2.8      -3.56     -0.11 
 H                    -5.23     -3.27      0.41 
 C                    -0.56     -2.13     -0.97 
 S                     0.549    -0.741    -0.761 
 C                     1.908    -1.627    -1.361 
 C                     1.57     -2.985    -1.704 
 C                     0.188    -3.285    -1.472 
 H                    -0.211    -4.286    -1.514 
 S                     2.928    -4.056    -1.609 
 C                     3.99     -2.731    -1.127 
 C                     3.283    -1.475    -1.016 
 H                     4.999    -2.896    -0.776 
 H                     3.686    -0.621    -0.478 
 O                    -2.4       0.49     -0.72 
 H                    -2.92      1.52     -0.76 
 
 Add virtual bond connecting atoms H20        and O19        Dist= 2.18D+00.
 The following ModRedundant input section has been read:
 D       2       3       8       9 F                                           
 

 GradGradGradGradGradGradGradGradGradGradGradGradGradGradGradGradGradGrad
 Berny optimization.
 Initialization pass.
                           ----------------------------
                           !    Initial Parameters    !
                           ! (Angstroms and Degrees)  !
 --------------------------                            --------------------------
 ! Name  Definition              Value          Derivative Info.                !
 --------------------------------------------------------------------------------
 ! R1    R(1,2)                  1.4389         estimate D2E/DX2                !
 ! R2    R(1,4)                  1.4361         estimate D2E/DX2                !
 ! R3    R(1,5)                  1.0784         estimate D2E/DX2                !
 ! R4    R(2,3)                  1.46           estimate D2E/DX2                !
 ! R5    R(2,19)                 1.5384         estimate D2E/DX2                !
 ! R6    R(3,6)                  1.797          estimate D2E/DX2                !
 ! R7    R(3,8)                  1.455          estimate D2E/DX2                !
 ! R8    R(4,6)                  1.7393         estimate D2E/DX2                !
 ! R9    R(4,7)                  1.0799         estimate D2E/DX2                !
 ! R10   R(8,9)                  1.7897         estimate D2E/DX2                !
 ! R11   R(8,12)                 1.4648         estimate D2E/DX2                !
 ! R12   R(9,10)                 1.7297         estimate D2E/DX2                !
 ! R13   R(10,11)                1.4409         estimate D2E/DX2                !
 ! R14   R(10,16)                1.4257         estimate D2E/DX2                !
 ! R15   R(11,12)                1.4331         estimate D2E/DX2                !
 ! R16   R(11,14)                1.7321         estimate D2E/DX2                !
 ! R17   R(12,13)                1.0784         estimate D2E/DX2                !
 ! R18   R(14,15)                1.7652         estimate D2E/DX2                !
 ! R19   R(15,16)                1.4456         estimate D2E/DX2                !
 ! R20   R(15,17)                1.081          estimate D2E/DX2                !
 ! R21   R(16,18)                1.0868         estimate D2E/DX2                !
 ! R22   R(19,20)                1.1545         estimate D2E/DX2                !
 ! A1    A(2,1,4)              112.8843         estimate D2E/DX2                !
 ! A2    A(2,1,5)              124.5209         estimate D2E/DX2                !
 ! A3    A(4,1,5)              122.5942         estimate D2E/DX2                !
 ! A4    A(1,2,3)              112.9799         estimate D2E/DX2                !
 ! A5    A(1,2,19)             127.059          estimate D2E/DX2                !
 ! A6    A(3,2,19)             118.5686         estimate D2E/DX2                !
 ! A7    A(2,3,6)              109.1138         estimate D2E/DX2                !
 ! A8    A(2,3,8)              132.8639         estimate D2E/DX2                !
 ! A9    A(6,3,8)              118.0132         estimate D2E/DX2                !
 ! A10   A(1,4,6)              111.9209         estimate D2E/DX2                !
 ! A11   A(1,4,7)              124.6643         estimate D2E/DX2                !
 ! A12   A(6,4,7)              123.4062         estimate D2E/DX2                !
 ! A13   A(3,6,4)               93.0997         estimate D2E/DX2                !
 ! A14   A(3,8,9)              121.9881         estimate D2E/DX2                !
 ! A15   A(3,8,12)             128.365          estimate D2E/DX2                !
 ! A16   A(9,8,12)             109.6074         estimate D2E/DX2                !
 ! A17   A(8,9,10)              92.7974         estimate D2E/DX2                !
 ! A18   A(9,10,11)            112.3981         estimate D2E/DX2                !
 ! A19   A(9,10,16)            128.2557         estimate D2E/DX2                !
 ! A20   A(11,10,16)           112.6014         estimate D2E/DX2                !
 ! A21   A(10,11,12)           112.6427         estimate D2E/DX2                !
 ! A22   A(10,11,14)           112.6929         estimate D2E/DX2                !
 ! A23   A(12,11,14)           128.1516         estimate D2E/DX2                !
 ! A24   A(8,12,11)            112.5117         estimate D2E/DX2                !
 ! A25   A(8,12,13)            123.8024         estimate D2E/DX2                !
 ! A26   A(11,12,13)           123.0114         estimate D2E/DX2                !
 ! A27   A(11,14,15)            91.2915         estimate D2E/DX2                !
 ! A28   A(14,15,16)           112.2664         estimate D2E/DX2                !
 ! A29   A(14,15,17)           122.3896         estimate D2E/DX2                !
 ! A30   A(16,15,17)           124.3468         estimate D2E/DX2                !
 ! A31   A(10,16,15)           111.1284         estimate D2E/DX2                !
 ! A32   A(10,16,18)           124.1366         estimate D2E/DX2                !
 ! A33   A(15,16,18)           122.6419         estimate D2E/DX2                !
 ! A34   A(2,19,20)            133.0318         estimate D2E/DX2                !
 ! D1    D(4,1,2,3)              0.3915         estimate D2E/DX2                !
 ! D2    D(4,1,2,19)          -165.8104         estimate D2E/DX2                !
 ! D3    D(5,1,2,3)           -179.8811         estimate D2E/DX2                !
 ! D4    D(5,1,2,19)            13.9169         estimate D2E/DX2                !
 ! D5    D(2,1,4,6)             -0.3845         estimate D2E/DX2                !
 ! D6    D(2,1,4,7)           -179.3471         estimate D2E/DX2                !
 ! D7    D(5,1,4,6)            179.8822         estimate D2E/DX2                !
 ! D8    D(5,1,4,7)              0.9196         estimate D2E/DX2                !
 ! D9    D(1,2,3,6)             -0.2224         estimate D2E/DX2                !
 ! D10   D(1,2,3,8)            178.6265         estimate D2E/DX2                !
 ! D11   D(19,2,3,6)           167.2616         estimate D2E/DX2                !
 ! D12   D(19,2,3,8)           -13.8895         estimate D2E/DX2                !
 ! D13   D(1,2,19,20)          -16.0519         estimate D2E/DX2                !
 ! D14   D(3,2,19,20)          178.4264         estimate D2E/DX2                !
 ! D15   D(2,3,6,4)              0.0033         estimate D2E/DX2                !
 ! D16   D(8,3,6,4)           -179.041          estimate D2E/DX2                !
 ! D17   D(2,3,8,9)             29.9874         Frozen                          !
 ! D18   D(2,3,8,12)          -152.546          estimate D2E/DX2                !
 ! D19   D(6,3,8,9)           -151.2447         estimate D2E/DX2                !
 ! D20   D(6,3,8,12)            26.222          estimate D2E/DX2                !
 ! D21   D(1,4,6,3)              0.2153         estimate D2E/DX2                !
 ! D22   D(7,4,6,3)            179.1932         estimate D2E/DX2                !
 ! D23   D(3,8,9,10)           179.7804         estimate D2E/DX2                !
 ! D24   D(12,8,9,10)            1.8888         estimate D2E/DX2                !
 ! D25   D(3,8,12,11)         -179.8595         estimate D2E/DX2                !
 ! D26   D(3,8,12,13)           -9.041          estimate D2E/DX2                !
 ! D27   D(9,8,12,11)           -2.1403         estimate D2E/DX2                !
 ! D28   D(9,8,12,13)          168.6782         estimate D2E/DX2                !
 ! D29   D(8,9,10,11)           -1.1928         estimate D2E/DX2                !
 ! D30   D(8,9,10,16)         -149.8772         estimate D2E/DX2                !
 ! D31   D(9,10,11,12)           0.1457         estimate D2E/DX2                !
 ! D32   D(9,10,11,14)        -154.0029         estimate D2E/DX2                !
 ! D33   D(16,10,11,12)        153.9084         estimate D2E/DX2                !
 ! D34   D(16,10,11,14)         -0.2402         estimate D2E/DX2                !
 ! D35   D(9,10,16,15)         149.7544         estimate D2E/DX2                !
 ! D36   D(9,10,16,18)         -14.1152         estimate D2E/DX2                !
 ! D37   D(11,10,16,15)          1.1212         estimate D2E/DX2                !
 ! D38   D(11,10,16,18)       -162.7483         estimate D2E/DX2                !
 ! D39   D(10,11,12,8)           1.3215         estimate D2E/DX2                !
 ! D40   D(10,11,12,13)       -169.5809         estimate D2E/DX2                !
 ! D41   D(14,11,12,8)         150.5534         estimate D2E/DX2                !
 ! D42   D(14,11,12,13)        -20.349          estimate D2E/DX2                !
 ! D43   D(10,11,14,15)         -0.5415         estimate D2E/DX2                !
 ! D44   D(12,11,14,15)       -149.7609         estimate D2E/DX2                !
 ! D45   D(11,14,15,16)          1.1846         estimate D2E/DX2                !
 ! D46   D(11,14,15,17)        170.2132         estimate D2E/DX2                !
 ! D47   D(14,15,16,10)         -1.5231         estimate D2E/DX2                !
 ! D48   D(14,15,16,18)        162.6287         estimate D2E/DX2                !
 ! D49   D(17,15,16,10)       -170.2988         estimate D2E/DX2                !
 ! D50   D(17,15,16,18)         -6.147          estimate D2E/DX2                !
 --------------------------------------------------------------------------------
 Trust Radius=3.00D-01 FncErr=1.00D-07 GrdErr=1.00D-07 EigMax=2.50D+02 EigMin=1.00D-04
 Number of steps in this run=    116 maximum allowed number of steps=    120.
 GradGradGradGradGradGradGradGradGradGradGradGradGradGradGradGradGradGrad

                          Input orientation:                          
 ---------------------------------------------------------------------
 Center     Atomic      Atomic             Coordinates (Angstroms)
 Number     Number       Type             X           Y           Z
 ---------------------------------------------------------------------
      1          6           0       -4.250000   -1.360000   -0.210000
      2          6           0       -2.930000   -0.950000   -0.610000
      3          6           0       -1.970000   -2.050000   -0.620000
      4          6           0       -4.330000   -2.760000    0.100000
      5          1           0       -5.100000   -0.700000   -0.140000
      6         16           0       -2.800000   -3.560000   -0.110000
      7          1           0       -5.230000   -3.270000    0.410000
      8          6           0       -0.560000   -2.130000   -0.970000
      9         16           0        0.549000   -0.741000   -0.761000
     10          6           0        1.908000   -1.627000   -1.361000
     11          6           0        1.570000   -2.985000   -1.704000
     12          6           0        0.188000   -3.285000   -1.472000
     13          1           0       -0.211000   -4.286000   -1.514000
     14         16           0        2.928000   -4.056000   -1.609000
     15          6           0        3.990000   -2.731000   -1.127000
     16          6           0        3.283000   -1.475000   -1.016000
     17          1           0        4.999000   -2.896000   -0.776000
     18          1           0        3.686000   -0.621000   -0.478000
     19          8           0       -2.400000    0.490000   -0.720000
     20          1           0       -2.920000    1.520000   -0.760000
 ---------------------------------------------------------------------
                    Distance matrix (angstroms):
                    1          2          3          4          5
     1  C    0.000000
     2  C    1.438923   0.000000
     3  C    2.417147   1.460034   0.000000
     4  C    1.436141   2.395871   2.567509   0.000000
     5  H    1.078425   2.234346   3.442354   2.212261   0.000000
     6  S    2.636759   2.660639   1.796970   1.739253   3.670218
     7  H    2.234480   3.422397   3.630000   1.079907   2.631406
     8  C    3.845335   2.671872   1.454991   3.969219   4.831708
     9  S    4.870027   3.488542   2.842309   5.349983   5.683179
    10  C    6.270331   4.942527   3.970755   6.506217   7.173718
    11  C    6.224553   5.058464   3.818492   6.173738   7.221926
    12  C    4.999411   3.989636   2.628325   4.812394   6.034848
    13  H    5.155135   4.397621   2.982116   4.679726   6.216880
    14  S    7.794184   6.705326   5.384474   7.568280   8.824369
    15  C    8.403459   7.164192   6.020167   8.410040   9.366282
    16  C    7.576869   6.248346   5.299193   7.800926   8.464200
    17  H    9.392745   8.165997   7.021895   9.371025  10.354550
    18  H    7.974838   6.625490   5.835456   8.316590   8.792854
    19  O    2.665539   1.538376   2.578081   3.867790   3.007075
    20  H    3.219596   2.474571   3.696891   4.587603   3.172570
                    6          7          8          9         10
     6  S    0.000000
     7  H    2.501879   0.000000
     8  C    2.793224   5.001290   0.000000
     9  S    4.425648   6.415912   1.789660   0.000000
    10  C    5.240873   7.535711   2.548904   1.729704   0.000000
    11  C    4.687042   7.126726   2.409706   2.639550   1.440853
    12  C    3.295271   5.735580   1.464764   2.666042   2.391586
    13  H    3.033350   5.470319   2.250794   3.702922   3.403506
    14  S    5.941633   8.440801   4.035337   4.167490   2.646119
    15  C    6.915608   9.362761   4.592205   3.991809   2.368184
    16  C    6.493916   8.816273   3.898691   2.842277   1.425747
    17  H    7.855498  10.304315   5.614880   4.944365   3.392177
    18  H    7.130311   9.343490   4.532953   3.152024   2.225536
    19  O    4.115167   4.839773   3.211308   3.195879   4.842668
    20  H    5.122821   5.445099   4.351574   4.140783   5.794342
                   11         12         13         14         15
    11  C    0.000000
    12  C    1.433090   0.000000
    13  H    2.213744   1.078409   0.000000
    14  S    1.732117   2.849703   3.148848   0.000000
    15  C    2.500769   3.857609   4.496242   1.765161   0.000000
    16  C    2.384914   3.614286   4.511958   2.671935   1.445582
    17  H    3.553470   4.876624   5.442503   2.515657   1.080975
    18  H    3.401327   4.507875   5.449049   3.694990   2.228389
    19  O    5.367009   4.638305   5.313411   7.060030   7.167467
    20  H    6.430106   5.766683   6.451111   8.124757   8.121194
                   16         17         18         19         20
    16  C    0.000000
    17  H    2.240870   0.000000
    18  H    1.086816   2.643558   0.000000
    19  O    6.020409   8.137158   6.191307   0.000000
    20  H    6.892951   9.067076   6.950010   1.154513   0.000000
 Stoichiometry    C10H6OS3
 Framework group  C1[X(C10H6OS3)]
 Deg. of freedom    54
 Full point group                 C1      NOp   1
 Largest Abelian subgroup         C1      NOp   1
 Largest concise Abelian subgroup C1      NOp   1
                         Standard orientation:                         
 ---------------------------------------------------------------------
 Center     Atomic      Atomic             Coordinates (Angstroms)
 Number     Number       Type             X           Y           Z
 ---------------------------------------------------------------------
      1          6           0       -4.119411    0.216227   -0.052074
      2          6           0       -2.828773    0.825473   -0.235306
      3          6           0       -1.725191   -0.115560   -0.067187
      4          6           0       -4.036986   -1.182095    0.264789
      5          1           0       -5.059184    0.738647   -0.135161
      6         16           0       -2.390160   -1.738305    0.324748
      7          1           0       -4.888280   -1.825554    0.430492
      8          6           0       -0.281004    0.022696   -0.177682
      9         16           0        0.554689    1.562517    0.187628
     10          6           0        2.112698    0.898432   -0.163766
     11          6           0        2.045853   -0.492379   -0.534216
     12          6           0        0.706064   -1.000990   -0.528818
     13          1           0        0.475743   -2.050669   -0.618777
     14         16           0        3.515421   -1.345046   -0.197230
     15          6           0        4.269647    0.122177    0.430618
     16          6           0        3.372204    1.255066    0.401221
     17          1           0        5.219495    0.109782    0.946509
     18          1           0        3.546266    2.156080    0.983496
     19          8           0       -2.511991    2.330179   -0.281216
     20          1           0       -3.167927    3.269369   -0.424636
 ---------------------------------------------------------------------
 Rotational constants (GHZ):           1.1613427           0.2794335           0.2299196
 Standard basis: Aug-CC-pVDZ (5D, 7F)
 There are   416 symmetry adapted cartesian basis functions of A   symmetry.
 There are   388 symmetry adapted basis functions of A   symmetry.
   388 basis functions,   782 primitive gaussians,   416 cartesian basis functions
    61 alpha electrons       61 beta electrons
       nuclear repulsion energy      1104.4157318266 Hartrees.
 NAtoms=   20 NActive=   20 NUniq=   20 SFac= 1.00D+00 NAtFMM=   60 NAOKFM=F Big=F
 Integral buffers will be    131072 words long.
 Raffenetti 1 integral format.
 Two-electron integral symmetry is turned on.
 One-electron integrals computed using PRISM.
 NBasis=   388 RedAO= T EigKep=  5.90D-06  NBF=   388
 NBsUse=   388 1.00D-06 EigRej= -1.00D+00 NBFU=   388
 ExpMin= 2.97D-02 ExpMax= 1.11D+05 ExpMxC= 1.07D+03 IAcc=3 IRadAn=         5 AccDes= 0.00D+00
 Harris functional with IExCor=  205 and IRadAn=       5 diagonalized for initial guess.
 HarFok:  IExCor=  205 AccDes= 0.00D+00 IRadAn=         5 IDoV= 1 UseB2=F ITyADJ=14
 ICtDFT=  3500011 ScaDFX=  1.000000  1.000000  1.000000  1.000000
 FoFCou: FMM=F IPFlag=           0 FMFlag=      100000 FMFlg1=           0
         NFxFlg=           0 DoJE=T BraDBF=F KetDBF=T FulRan=T
         wScrn=  0.000000 ICntrl=       500 IOpCl=  0 I1Cent=   200000004 NGrid=           0
         NMat0=    1 NMatS0=      1 NMatT0=    0 NMatD0=    1 NMtDS0=    0 NMtDT0=    0
 Petite list used in FoFCou.
 Requested convergence on RMS density matrix=1.00D-08 within 128 cycles.
 Requested convergence on MAX density matrix=1.00D-06.
 Requested convergence on             energy=1.00D-06.
 No special actions if energy rises.
 SCF Done:  E(RHF) =  -1649.50738718     A.U. after   18 cycles
            NFock= 18  Conv=0.57D-08     -V/T= 2.0013

 **********************************************************************

            Population analysis using the SCF Density.

 **********************************************************************

 Orbital symmetries:
       Occupied  (A) (A) (A) (A) (A) (A) (A) (A) (A) (A) (A) (A)
                 (A) (A) (A) (A) (A) (A) (A) (A) (A) (A) (A) (A)
                 (A) (A) (A) (A) (A) (A) (A) (A) (A) (A) (A) (A)
                 (A) (A) (A) (A) (A) (A) (A) (A) (A) (A) (A) (A)
                 (A) (A) (A) (A) (A) (A) (A) (A) (A) (A) (A) (A)
                 (A)
       Virtual   (A) (A) (A) (A) (A) (A) (A) (A) (A) (A) (A) (A)
                 (A) (A) (A) (A) (A) (A) (A) (A) (A) (A) (A) (A)
                 (A) (A) (A) (A) (A) (A) (A) (A) (A) (A) (A) (A)
                 (A) (A) (A) (A) (A) (A) (A) (A) (A) (A) (A) (A)
                 (A) (A) (A) (A) (A) (A) (A) (A) (A) (A) (A) (A)
                 (A) (A) (A) (A) (A) (A) (A) (A) (A) (A) (A) (A)
                 (A) (A) (A) (A) (A) (A) (A) (A) (A) (A) (A) (A)
                 (A) (A) (A) (A) (A) (A) (A) (A) (A) (A) (A) (A)
                 (A) (A) (A) (A) (A) (A) (A) (A) (A) (A) (A) (A)
                 (A) (A) (A) (A) (A) (A) (A) (A) (A) (A) (A) (A)
                 (A) (A) (A) (A) (A) (A) (A) (A) (A) (A) (A) (A)
                 (A) (A) (A) (A) (A) (A) (A) (A) (A) (A) (A) (A)
                 (A) (A) (A) (A) (A) (A) (A) (A) (A) (A) (A) (A)
                 (A) (A) (A) (A) (A) (A) (A) (A) (A) (A) (A) (A)
                 (A) (A) (A) (A) (A) (A) (A) (A) (A) (A) (A) (A)
                 (A) (A) (A) (A) (A) (A) (A) (A) (A) (A) (A) (A)
                 (A) (A) (A) (A) (A) (A) (A) (A) (A) (A) (A) (A)
                 (A) (A) (A) (A) (A) (A) (A) (A) (A) (A) (A) (A)
                 (A) (A) (A) (A) (A) (A) (A) (A) (A) (A) (A) (A)
                 (A) (A) (A) (A) (A) (A) (A) (A) (A) (A) (A) (A)
                 (A) (A) (A) (A) (A) (A) (A) (A) (A) (A) (A) (A)
                 (A) (A) (A) (A) (A) (A) (A) (A) (A) (A) (A) (A)
                 (A) (A) (A) (A) (A) (A) (A) (A) (A) (A) (A) (A)
                 (A) (A) (A) (A) (A) (A) (A) (A) (A) (A) (A) (A)
                 (A) (A) (A) (A) (A) (A) (A) (A) (A) (A) (A) (A)
                 (A) (A) (A) (A) (A) (A) (A) (A) (A) (A) (A) (A)
                 (A) (A) (A) (A) (A) (A) (A) (A) (A) (A) (A) (A)
                 (A) (A) (A)
 The electronic state is 1-A.
 Alpha  occ. eigenvalues --  -92.00746 -91.99681 -91.99219 -20.60494 -11.35070
 Alpha  occ. eigenvalues --  -11.30837 -11.30715 -11.29855 -11.29029 -11.28209
 Alpha  occ. eigenvalues --  -11.28066 -11.27439 -11.27168 -11.26909  -9.00714
 Alpha  occ. eigenvalues --   -8.99740  -8.99241  -6.68875  -6.68778  -6.68602
 Alpha  occ. eigenvalues --   -6.67907  -6.67818  -6.67628  -6.67399  -6.67302
 Alpha  occ. eigenvalues --   -6.67113  -1.30907  -1.19418  -1.16075  -1.10196
 Alpha  occ. eigenvalues --   -1.02910  -1.01059  -0.98529  -0.93963  -0.92655
 Alpha  occ. eigenvalues --   -0.82709  -0.78071  -0.76784  -0.71346  -0.70832
 Alpha  occ. eigenvalues --   -0.68475  -0.65479  -0.62066  -0.60409  -0.57437
 Alpha  occ. eigenvalues --   -0.56785  -0.55003  -0.54455  -0.53618  -0.52208
 Alpha  occ. eigenvalues --   -0.50976  -0.49899  -0.49499  -0.48119  -0.45725
 Alpha  occ. eigenvalues --   -0.45120  -0.39083  -0.35159  -0.34194  -0.31407
 Alpha  occ. eigenvalues --   -0.25658
 Alpha virt. eigenvalues --    0.02742   0.03590   0.03849   0.04239   0.05015
 Alpha virt. eigenvalues --    0.05194   0.05912   0.08419   0.08533   0.09347
 Alpha virt. eigenvalues --    0.09691   0.10254   0.10579   0.10884   0.11064
 Alpha virt. eigenvalues --    0.11835   0.12113   0.12532   0.13085   0.13456
 Alpha virt. eigenvalues --    0.13695   0.13986   0.14582   0.14761   0.14895
 Alpha virt. eigenvalues --    0.15552   0.15620   0.15937   0.16539   0.16889
 Alpha virt. eigenvalues --    0.17149   0.17764   0.17871   0.18286   0.19196
 Alpha virt. eigenvalues --    0.19408   0.19808   0.20186   0.20600   0.21020
 Alpha virt. eigenvalues --    0.21130   0.21828   0.22450   0.22738   0.23401
 Alpha virt. eigenvalues --    0.23848   0.24164   0.24670   0.25151   0.25967
 Alpha virt. eigenvalues --    0.26165   0.26550   0.27482   0.27698   0.28179
 Alpha virt. eigenvalues --    0.28878   0.29122   0.29751   0.30504   0.30966
 Alpha virt. eigenvalues --    0.31247   0.31524   0.32188   0.32634   0.33093
 Alpha virt. eigenvalues --    0.33512   0.33730   0.34215   0.34429   0.35428
 Alpha virt. eigenvalues --    0.35927   0.36468   0.36887   0.37681   0.38172
 Alpha virt. eigenvalues --    0.39105   0.39397   0.40159   0.40701   0.40948
 Alpha virt. eigenvalues --    0.41907   0.42643   0.42862   0.43469   0.44171
 Alpha virt. eigenvalues --    0.44662   0.46092   0.46825   0.46939   0.47676
 Alpha virt. eigenvalues --    0.48158   0.48612   0.49590   0.49829   0.50857
 Alpha virt. eigenvalues --    0.51514   0.51810   0.52921   0.53132   0.54127
 Alpha virt. eigenvalues --    0.54725   0.55366   0.56369   0.56900   0.57690
 Alpha virt. eigenvalues --    0.58588   0.58730   0.60233   0.60563   0.60731
 Alpha virt. eigenvalues --    0.61630   0.62363   0.62956   0.63329   0.64220
 Alpha virt. eigenvalues --    0.64942   0.65507   0.65712   0.66610   0.66988
 Alpha virt. eigenvalues --    0.67730   0.68087   0.68401   0.69239   0.69459
 Alpha virt. eigenvalues --    0.69873   0.70659   0.71332   0.72117   0.73177
 Alpha virt. eigenvalues --    0.73696   0.74177   0.74353   0.74807   0.76352
 Alpha virt. eigenvalues --    0.76630   0.76859   0.77480   0.77773   0.78922
 Alpha virt. eigenvalues --    0.80041   0.80442   0.81485   0.82680   0.83601
 Alpha virt. eigenvalues --    0.83926   0.84504   0.85121   0.85880   0.86615
 Alpha virt. eigenvalues --    0.87281   0.89183   0.89283   0.89917   0.90380
 Alpha virt. eigenvalues --    0.90685   0.91148   0.92631   0.93970   0.94102
 Alpha virt. eigenvalues --    0.95303   0.96014   0.96164   0.96702   0.98031
 Alpha virt. eigenvalues --    0.98868   0.99768   0.99982   1.00618   1.00990
 Alpha virt. eigenvalues --    1.02295   1.02597   1.03444   1.04860   1.06043
 Alpha virt. eigenvalues --    1.07095   1.08052   1.08855   1.10828   1.12018
 Alpha virt. eigenvalues --    1.13223   1.14608   1.15714   1.16759   1.18252
 Alpha virt. eigenvalues --    1.19411   1.19930   1.20393   1.21274   1.22042
 Alpha virt. eigenvalues --    1.22896   1.23338   1.24251   1.25480   1.26347
 Alpha virt. eigenvalues --    1.27050   1.27258   1.28545   1.29321   1.30608
 Alpha virt. eigenvalues --    1.31016   1.32351   1.33488   1.34153   1.35975
 Alpha virt. eigenvalues --    1.37131   1.38002   1.38184   1.39559   1.40906
 Alpha virt. eigenvalues --    1.42887   1.43572   1.44195   1.46156   1.47159
 Alpha virt. eigenvalues --    1.48068   1.49413   1.52631   1.53950   1.54448
 Alpha virt. eigenvalues --    1.56723   1.57406   1.57962   1.58240   1.59188
 Alpha virt. eigenvalues --    1.60679   1.62194   1.63240   1.63855   1.64544
 Alpha virt. eigenvalues --    1.66164   1.66514   1.68005   1.68684   1.69823
 Alpha virt. eigenvalues --    1.71078   1.72271   1.73832   1.74765   1.75651
 Alpha virt. eigenvalues --    1.78578   1.78872   1.79616   1.80199   1.80977
 Alpha virt. eigenvalues --    1.81540   1.82980   1.83790   1.84413   1.86387
 Alpha virt. eigenvalues --    1.88113   1.89253   1.90921   1.92248   1.93212
 Alpha virt. eigenvalues --    1.95074   1.97438   1.97794   1.98894   2.00724
 Alpha virt. eigenvalues --    2.01451   2.03072   2.05110   2.05573   2.08177
 Alpha virt. eigenvalues --    2.08419   2.08915   2.10533   2.11146   2.12504
 Alpha virt. eigenvalues --    2.13813   2.14696   2.16021   2.16687   2.18031
 Alpha virt. eigenvalues --    2.18580   2.19720   2.20126   2.23252   2.24229
 Alpha virt. eigenvalues --    2.25501   2.26643   2.29062   2.30692   2.32517
 Alpha virt. eigenvalues --    2.34158   2.35114   2.36462   2.38280   2.39671
 Alpha virt. eigenvalues --    2.39865   2.42926   2.44185   2.47959   2.48519
 Alpha virt. eigenvalues --    2.49686   2.50776   2.53871   2.56056   2.58149
 Alpha virt. eigenvalues --    2.68137   2.69317   2.73795   2.75849   2.81480
 Alpha virt. eigenvalues --    2.82518   2.84773   2.87632   2.92259   2.96630
 Alpha virt. eigenvalues --    2.98033   3.04173   3.11514   3.14220   3.24465
 Alpha virt. eigenvalues --    3.27223   3.29659   3.40082   3.48123   3.74404
 Alpha virt. eigenvalues --    3.78381   3.79199   3.84500   3.87257   4.02876
 Alpha virt. eigenvalues --    4.09925   4.23706
          Condensed to atoms (all electrons):
               1          2          3          4          5          6
     1  C    6.402753  -0.657460  -0.382220   0.598992   0.017553  -0.392287
     2  C   -0.657460   9.084522  -1.022323  -0.129900   0.031991  -0.320687
     3  C   -0.382220  -1.022323   9.243557  -0.968555   0.018020   0.171292
     4  C    0.598992  -0.129900  -0.968555   6.194868  -0.069502   0.126468
     5  H    0.017553   0.031991   0.018020  -0.069502   1.431873  -0.000644
     6  S   -0.392287  -0.320687   0.171292   0.126468  -0.000644  16.091754
     7  H   -0.002935   0.029970   0.029746   0.222727  -0.059879  -0.120961
     8  C    0.025553  -0.279573  -2.031510   0.471588  -0.003964  -0.120438
     9  S    0.059910   0.181667  -0.348313   0.018004   0.004281   0.009250
    10  C   -0.014470  -0.014484   0.140470   0.024139   0.001772  -0.003304
    11  C   -0.016609   0.053135   0.282876  -0.069253  -0.002834  -0.183923
    12  C   -0.224014  -0.405122   0.132715  -0.200228  -0.006166   0.200473
    13  H   -0.010614   0.016398  -0.022108   0.009591  -0.000539   0.004282
    14  S   -0.000431  -0.002114   0.008751  -0.000933  -0.000012  -0.011659
    15  C   -0.001024  -0.005116   0.029767  -0.001703  -0.000083  -0.011771
    16  C    0.000331   0.012875  -0.148737   0.004490   0.000122   0.022441
    17  H   -0.000082  -0.000479   0.001796  -0.000074  -0.000006  -0.000393
    18  H    0.000450   0.002568  -0.002868   0.000447   0.000056   0.000796
    19  O    0.034033  -0.667792   0.284479  -0.048998  -0.023086   0.022355
    20  H   -0.015713  -0.008917  -0.015480  -0.003710   0.004272   0.002768
               7          8          9         10         11         12
     1  C   -0.002935   0.025553   0.059910  -0.014470  -0.016609  -0.224014
     2  C    0.029970  -0.279573   0.181667  -0.014484   0.053135  -0.405122
     3  C    0.029746  -2.031510  -0.348313   0.140470   0.282876   0.132715
     4  C    0.222727   0.471588   0.018004   0.024139  -0.069253  -0.200228
     5  H   -0.059879  -0.003964   0.004281   0.001772  -0.002834  -0.006166
     6  S   -0.120961  -0.120438   0.009250  -0.003304  -0.183923   0.200473
     7  H    1.235797   0.004841  -0.000945  -0.000038   0.001250   0.005351
     8  C    0.004841  10.130668   0.259835  -0.556383  -0.493937  -2.011196
     9  S   -0.000945   0.259835  16.193526  -0.061389  -0.142042  -0.585300
    10  C   -0.000038  -0.556383  -0.061389   7.792959   0.039505  -0.021472
    11  C    0.001250  -0.493937  -0.142042   0.039505   9.378873  -2.429460
    12  C    0.005351  -2.011196  -0.585300  -0.021472  -2.429460  12.086756
    13  H    0.002344   0.410903   0.036394  -0.051090   0.130065  -0.643042
    14  S    0.000033  -0.114231  -0.004173   0.032222   0.083258  -0.072458
    15  C   -0.000050   0.066108  -0.093396   0.179378  -0.279812  -0.261661
    16  C    0.000183   0.000956   0.040008  -1.318099   0.252670   0.141291
    17  H   -0.000002  -0.007243  -0.006510  -0.027313   0.005849   0.038669
    18  H    0.000018   0.032887  -0.016496   0.195276  -0.021058  -0.014075
    19  O   -0.002081  -0.004893  -0.069113   0.004026  -0.000209   0.031658
    20  H    0.000080  -0.007420   0.015745   0.001259  -0.000665  -0.000432
              13         14         15         16         17         18
     1  C   -0.010614  -0.000431  -0.001024   0.000331  -0.000082   0.000450
     2  C    0.016398  -0.002114  -0.005116   0.012875  -0.000479   0.002568
     3  C   -0.022108   0.008751   0.029767  -0.148737   0.001796  -0.002868
     4  C    0.009591  -0.000933  -0.001703   0.004490  -0.000074   0.000447
     5  H   -0.000539  -0.000012  -0.000083   0.000122  -0.000006   0.000056
     6  S    0.004282  -0.011659  -0.011771   0.022441  -0.000393   0.000796
     7  H    0.002344   0.000033  -0.000050   0.000183  -0.000002   0.000018
     8  C    0.410903  -0.114231   0.066108   0.000956  -0.007243   0.032887
     9  S    0.036394  -0.004173  -0.093396   0.040008  -0.006510  -0.016496
    10  C   -0.051090   0.032222   0.179378  -1.318099  -0.027313   0.195276
    11  C    0.130065   0.083258  -0.279812   0.252670   0.005849  -0.021058
    12  C   -0.643042  -0.072458  -0.261661   0.141291   0.038669  -0.014075
    13  H    1.649009  -0.058783   0.003209  -0.004011   0.001918   0.000717
    14  S   -0.058783  15.699009   0.192628  -0.292106  -0.133846   0.011028
    15  C    0.003209   0.192628   5.817954   0.167686   0.247213  -0.065107
    16  C   -0.004011  -0.292106   0.167686   6.891829   0.040610  -0.109325
    17  H    0.001918  -0.133846   0.247213   0.040610   1.242412  -0.059640
    18  H    0.000717   0.011028  -0.065107  -0.109325  -0.059640   1.367381
    19  O    0.000743   0.000194   0.000555  -0.000643   0.000066  -0.000262
    20  H    0.000175  -0.000018  -0.000033   0.000399  -0.000002   0.000011
              19         20
     1  C    0.034033  -0.015713
     2  C   -0.667792  -0.008917
     3  C    0.284479  -0.015480
     4  C   -0.048998  -0.003710
     5  H   -0.023086   0.004272
     6  S    0.022355   0.002768
     7  H   -0.002081   0.000080
     8  C   -0.004893  -0.007420
     9  S   -0.069113   0.015745
    10  C    0.004026   0.001259
    11  C   -0.000209  -0.000665
    12  C    0.031658  -0.000432
    13  H    0.000743   0.000175
    14  S    0.000194  -0.000018
    15  C    0.000555  -0.000033
    16  C   -0.000643   0.000399
    17  H    0.000066  -0.000002
    18  H   -0.000262   0.000011
    19  O    9.379857   0.274398
    20  H    0.274398   0.341001
 Mulliken charges:
               1
     1  C    0.578282
     2  C    0.100840
     3  C    0.598642
     4  C   -0.178460
     5  H   -0.343225
     6  S    0.514188
     7  H   -0.345451
     8  C    0.227450
     9  S    0.509056
    10  C   -0.342964
    11  C   -0.587681
    12  C    0.237709
    13  H   -0.475562
    14  S    0.663641
    15  C    0.015258
    16  C    0.297032
    17  H   -0.342943
    18  H   -0.322805
    19  O   -1.215286
    20  H    0.412279
 Sum of Mulliken charges =  -0.00000
 Mulliken charges with hydrogens summed into heavy atoms:
               1
     1  C    0.235057
     2  C    0.100840
     3  C    0.598642
     4  C   -0.523911
     6  S    0.514188
     8  C    0.227450
     9  S    0.509056
    10  C   -0.342964
    11  C   -0.587681
    12  C   -0.237853
    14  S    0.663641
    15  C   -0.327684
    16  C   -0.025773
    19  O   -0.803006
 Electronic spatial extent (au):  <R**2>=           4400.3100
 Charge=             -0.0000 electrons
 Dipole moment (field-independent basis, Debye):
    X=             -2.3554    Y=              0.5597    Z=              1.0021  Tot=              2.6202
 Quadrupole moment (field-independent basis, Debye-Ang):
   XX=            -79.6756   YY=            -93.1554   ZZ=           -110.5369
   XY=             -2.5760   XZ=              5.8042   YZ=              0.4450
 Traceless Quadrupole moment (field-independent basis, Debye-Ang):
   XX=             14.7804   YY=              1.3006   ZZ=            -16.0809
   XY=             -2.5760   XZ=              5.8042   YZ=              0.4450
 Octapole moment (field-independent basis, Debye-Ang**2):
  XXX=            -78.1595  YYY=             36.8230  ZZZ=              3.2642  XYY=            -39.6078
  XXY=             28.3895  XXZ=             29.6543  XZZ=              2.8081  YZZ=              4.3730
  YYZ=              0.6292  XYZ=             15.8584
 Hexadecapole moment (field-independent basis, Debye-Ang**3):
 XXXX=          -4123.8343 YYYY=           -973.9187 ZZZZ=           -211.1648 XXXY=            -72.8490
 XXXZ=            147.1969 YYYX=           -124.6769 YYYZ=            -12.1280 ZZZX=             10.9003
 ZZZY=             -0.9681 XXYY=           -823.5400 XXZZ=           -898.7720 YYZZ=           -230.8803
 XXYZ=            -25.9835 YYXZ=             24.4052 ZZXY=             -7.4174
 N-N= 1.104415731827D+03 E-N=-6.114121891484D+03  KE= 1.647291301817D+03
 Calling FoFJK, ICntrl=      2127 FMM=F ISym2X=0 I1Cent= 0 IOpClX= 0 NMat=1 NMatS=1 NMatT=0.
 ***** Axes restored to original set *****
 -------------------------------------------------------------------
 Center     Atomic                   Forces (Hartrees/Bohr)
 Number     Number              X              Y              Z
 -------------------------------------------------------------------
      1        6           0.011282030   -0.058098605    0.010152544
      2        6           0.052858262    0.017927345    0.014580213
      3        6          -0.057950856    0.035375523    0.001225826
      4        6           0.014846553    0.069967697   -0.021574786
      5        1           0.001499954    0.000568529    0.000361614
      6       16          -0.005057914    0.035042598   -0.007597426
      7        1           0.004468513   -0.001784665   -0.000692582
      8        6           0.057220274   -0.042535393   -0.027148108
      9       16          -0.016237320   -0.012013125   -0.013528271
     10        6          -0.003898822   -0.056140659    0.003202178
     11        6          -0.012472657    0.046220588    0.030812528
     12        6          -0.030986023    0.064121104    0.026072023
     13        1          -0.004863454    0.002554835   -0.005461122
     14       16           0.014989815    0.019234517   -0.003407942
     15        6          -0.045375913    0.062480358    0.010033278
     16        6           0.035244275   -0.070128761    0.002127027
     17        1          -0.000917166   -0.002188396   -0.008521132
     18        1           0.002242163   -0.002223716   -0.011659638
     19        8          -0.048315845    0.020187804   -0.003559237
     20        1           0.031424129   -0.128567578    0.004583012
 -------------------------------------------------------------------
 Cartesian Forces:  Max     0.128567578 RMS     0.034267747

 GradGradGradGradGradGradGradGradGradGradGradGradGradGradGradGradGradGrad
 Berny optimization.
 FormGI is forming the generalized inverse of G from B-inverse, IUseBI=4.
 Internal  Forces:  Max     0.129014127 RMS     0.025407612
 Search for a local minimum.
 Step number   1 out of a maximum of  116
 All quantities printed in internal units (Hartrees-Bohrs-Radians)
 Mixed Optimization -- RFO/linear search
 Second derivative matrix not updated -- first step.
 ITU=  0
     Eigenvalues ---    0.00230   0.00994   0.01057   0.01221   0.01272
     Eigenvalues ---    0.01296   0.01362   0.01420   0.01458   0.01488
     Eigenvalues ---    0.01500   0.01592   0.01595   0.01768   0.02202
     Eigenvalues ---    0.02656   0.15081   0.15685   0.15734   0.15997
     Eigenvalues ---    0.16000   0.16000   0.17984   0.22443   0.22526
     Eigenvalues ---    0.23318   0.23977   0.24118   0.24633   0.24978
     Eigenvalues ---    0.24995   0.26145   0.26596   0.28307   0.28388
     Eigenvalues ---    0.28663   0.30910   0.31335   0.31600   0.34808
     Eigenvalues ---    0.35183   0.35872   0.35877   0.36006   0.36185
     Eigenvalues ---    0.36187   0.36294   0.37598   0.38231   0.38435
     Eigenvalues ---    0.39456   0.39639   0.406641000.000001000.00000
     Eigenvalues --- 1000.000001000.000001000.000001000.000001000.00000
     Eigenvalues --- 1000.000001000.000001000.000001000.000001000.00000
     Eigenvalues --- 1000.000001000.000001000.000001000.000001000.00000
     Eigenvalues --- 1000.000001000.000001000.000001000.000001000.00000
     Eigenvalues --- 1000.000001000.000001000.000001000.000001000.00000
     Eigenvalues --- 1000.000001000.000001000.000001000.000001000.00000
     Eigenvalues --- 1000.000001000.000001000.000001000.000001000.00000
     Eigenvalues --- 1000.000001000.000001000.000001000.000001000.00000
     Eigenvalues --- 1000.000001000.000001000.000001000.000001000.00000
     Eigenvalues --- 1000.000001000.000001000.000001000.000001000.00000
     Eigenvalues --- 1000.00000
 RFO step:  Lambda=-1.51292284D-01 EMin= 2.30000000D-03
 Linear search not attempted -- first point.
 Maximum step size (   0.300) exceeded in Quadratic search.
    -- Step size scaled by   0.525
 Iteration  1 RMS(Cart)=  0.05907821 RMS(Int)=  0.00131405
 Iteration  2 RMS(Cart)=  0.00158941 RMS(Int)=  0.00009729
 Iteration  3 RMS(Cart)=  0.00000808 RMS(Int)=  0.00009711
 Iteration  4 RMS(Cart)=  0.00000000 RMS(Int)=  0.00009711
 Iteration  1 RMS(Cart)=  0.00000108 RMS(Int)=  0.00000050
 Iteration  2 RMS(Cart)=  0.00000059 RMS(Int)=  0.00000056
 Variable       Old X    -DE/DX   Delta X   Delta X   Delta X     New X
                                 (Linear)    (Quad)   (Total)
    R1        2.71917  -0.02207   0.00000  -0.02238  -0.02228   2.69689
    R2        2.71391  -0.07718   0.00000  -0.07388  -0.07385   2.64006
    R3        2.03793  -0.00081   0.00000  -0.00083  -0.00083   2.03710
    R4        2.75906  -0.08936   0.00000  -0.09065  -0.09059   2.66847
    R5        2.90711  -0.10734   0.00000  -0.12878  -0.12878   2.77833
    R6        3.39578  -0.03203   0.00000  -0.03934  -0.03941   3.35637
    R7        2.74954  -0.00602   0.00000  -0.00600  -0.00600   2.74354
    R8        3.28671  -0.01747   0.00000  -0.01863  -0.01871   3.26800
    R9        2.04073  -0.00308   0.00000  -0.00316  -0.00316   2.03756
   R10        3.38197  -0.02063   0.00000  -0.02429  -0.02437   3.35760
   R11        2.76800  -0.08472   0.00000  -0.08653  -0.08655   2.68145
   R12        3.26867  -0.00445   0.00000  -0.00425  -0.00426   3.26441
   R13        2.72282  -0.05458   0.00000  -0.05372  -0.05356   2.66926
   R14        2.69427   0.00237   0.00000   0.00114   0.00124   2.69551
   R15        2.70815  -0.01117   0.00000  -0.01172  -0.01165   2.69650
   R16        3.27323  -0.00222   0.00000  -0.00155  -0.00157   3.27165
   R17        2.03790  -0.00036   0.00000  -0.00037  -0.00037   2.03753
   R18        3.33567  -0.01801   0.00000  -0.02046  -0.02057   3.31510
   R19        2.73175  -0.08056   0.00000  -0.07887  -0.07889   2.65287
   R20        2.04275  -0.00329   0.00000  -0.00339  -0.00339   2.03936
   R21        2.05378  -0.00669   0.00000  -0.00698  -0.00698   2.04680
   R22        2.18171  -0.12901   0.00000  -0.15605  -0.15605   2.02566
    A1        1.97020  -0.00351   0.00000  -0.00768  -0.00755   1.96265
    A2        2.17330   0.00055   0.00000   0.00180   0.00173   2.17503
    A3        2.13967   0.00297   0.00000   0.00590   0.00583   2.14550
    A4        1.97187   0.01831   0.00000   0.02220   0.02234   1.99421
    A5        2.21760  -0.00800   0.00000  -0.00870  -0.00882   2.20878
    A6        2.06941  -0.00932   0.00000  -0.01050  -0.01061   2.05880
    A7        1.90440  -0.00648   0.00000  -0.00814  -0.00813   1.89627
    A8        2.31891  -0.00616   0.00000  -0.00826  -0.00827   2.31065
    A9        2.05972   0.01263   0.00000   0.01634   0.01634   2.07605
   A10        1.95339  -0.00246   0.00000  -0.00313  -0.00317   1.95022
   A11        2.17580   0.00507   0.00000   0.00805   0.00807   2.18387
   A12        2.15384  -0.00261   0.00000  -0.00491  -0.00489   2.14895
   A13        1.62490  -0.00585   0.00000  -0.00323  -0.00348   1.62142
   A14        2.12909  -0.00129   0.00000  -0.00164  -0.00166   2.12744
   A15        2.24039  -0.00714   0.00000  -0.00933  -0.00935   2.23104
   A16        1.91301   0.00851   0.00000   0.01113   0.01115   1.92416
   A17        1.61962  -0.00858   0.00000  -0.00885  -0.00884   1.61078
   A18        1.96172  -0.01049   0.00000  -0.01190  -0.01210   1.94962
   A19        2.23848   0.00857   0.00000   0.01648   0.01621   2.25469
   A20        1.96527   0.00644   0.00000   0.00807   0.00816   1.97342
   A21        1.96599   0.00825   0.00000   0.00953   0.00956   1.97554
   A22        1.96686  -0.01396   0.00000  -0.01630  -0.01643   1.95043
   A23        2.23667   0.00997   0.00000   0.01847   0.01824   2.25491
   A24        1.96370   0.00238   0.00000   0.00024   0.00037   1.96407
   A25        2.16076  -0.00411   0.00000  -0.00451  -0.00461   2.15615
   A26        2.14695   0.00240   0.00000   0.00637   0.00625   2.15321
   A27        1.59334   0.00005   0.00000   0.00176   0.00172   1.59506
   A28        1.95942   0.00074   0.00000   0.00021   0.00017   1.95958
   A29        2.13610  -0.00376   0.00000  -0.00501  -0.00512   2.13098
   A30        2.17026   0.00434   0.00000   0.00884   0.00876   2.17902
   A31        1.93956   0.00674   0.00000   0.00628   0.00640   1.94596
   A32        2.16659  -0.00046   0.00000   0.00335   0.00314   2.16973
   A33        2.14051  -0.00400   0.00000  -0.00289  -0.00311   2.13739
   A34        2.32184  -0.06509   0.00000  -0.10986  -0.10986   2.21199
    D1        0.00683  -0.00068   0.00000  -0.00238  -0.00237   0.00446
    D2       -2.89394  -0.00475   0.00000  -0.01620  -0.01622  -2.91016
    D3       -3.13952   0.00073   0.00000   0.00232   0.00231  -3.13721
    D4        0.24290  -0.00334   0.00000  -0.01150  -0.01154   0.23136
    D5       -0.00671   0.00083   0.00000   0.00210   0.00207  -0.00464
    D6       -3.13020   0.00063   0.00000   0.00205   0.00203  -3.12816
    D7        3.13954  -0.00054   0.00000  -0.00248  -0.00251   3.13702
    D8        0.01605  -0.00074   0.00000  -0.00253  -0.00255   0.01350
    D9       -0.00388   0.00038   0.00000   0.00172   0.00170  -0.00218
   D10        3.11762   0.00024   0.00000  -0.00167  -0.00166   3.11596
   D11        2.91927   0.00384   0.00000   0.01402   0.01403   2.93330
   D12       -0.24242   0.00370   0.00000   0.01063   0.01067  -0.23175
   D13       -0.28016   0.00232   0.00000   0.00418   0.00411  -0.27605
   D14        3.11413  -0.00527   0.00000  -0.01425  -0.01417   3.09995
   D15        0.00006   0.00006   0.00000  -0.00048  -0.00046  -0.00040
   D16       -3.12486   0.00039   0.00000   0.00261   0.00265  -3.12220
   D17        0.52338  -0.00202   0.00000   0.00000  -0.00000   0.52338
   D18       -2.66243   0.00050   0.00000   0.00502   0.00505  -2.65738
   D19       -2.63972  -0.00237   0.00000  -0.00388  -0.00390  -2.64361
   D20        0.45766   0.00015   0.00000   0.00115   0.00115   0.45881
   D21        0.00376  -0.00045   0.00000  -0.00084  -0.00085   0.00291
   D22        3.12751  -0.00016   0.00000  -0.00063  -0.00066   3.12685
   D23        3.13776   0.00034   0.00000   0.00008   0.00010   3.13786
   D24        0.03297  -0.00144   0.00000  -0.00368  -0.00373   0.02923
   D25       -3.13914  -0.00115   0.00000  -0.00162  -0.00159  -3.14073
   D26       -0.15779   0.00362   0.00000   0.01319   0.01320  -0.14460
   D27       -0.03735   0.00097   0.00000   0.00270   0.00278  -0.03458
   D28        2.94399   0.00574   0.00000   0.01751   0.01756   2.96155
   D29       -0.02082   0.00201   0.00000   0.00433   0.00429  -0.01653
   D30       -2.61585  -0.00864   0.00000  -0.02371  -0.02376  -2.63961
   D31        0.00254  -0.00132   0.00000  -0.00302  -0.00298  -0.00044
   D32       -2.68786  -0.01204   0.00000  -0.02983  -0.02950  -2.71736
   D33        2.68621   0.00932   0.00000   0.02444   0.02422   2.71043
   D34       -0.00419  -0.00140   0.00000  -0.00237  -0.00229  -0.00649
   D35        2.61371   0.00744   0.00000   0.02452   0.02474   2.63845
   D36       -0.24636  -0.00055   0.00000  -0.00032  -0.00022  -0.24657
   D37        0.01957   0.00104   0.00000   0.00147   0.00143   0.02100
   D38       -2.84049  -0.00695   0.00000  -0.02337  -0.02353  -2.86402
   D39        0.02306   0.00028   0.00000   0.00015   0.00011   0.02317
   D40       -2.95975  -0.00376   0.00000  -0.01337  -0.01349  -2.97324
   D41        2.62765   0.00531   0.00000   0.02040   0.02064   2.64830
   D42       -0.35516   0.00127   0.00000   0.00688   0.00704  -0.34811
   D43       -0.00945   0.00143   0.00000   0.00235   0.00231  -0.00714
   D44       -2.61382  -0.00913   0.00000  -0.02434  -0.02431  -2.63813
   D45        0.02067  -0.00070   0.00000  -0.00138  -0.00138   0.01929
   D46        2.97078   0.00708   0.00000   0.02169   0.02159   2.99237
   D47       -0.02658   0.00009   0.00000   0.00036   0.00041  -0.02617
   D48        2.83841   0.00857   0.00000   0.02592   0.02597   2.86438
   D49       -2.97227  -0.00681   0.00000  -0.02142  -0.02148  -2.99375
   D50       -0.10728   0.00167   0.00000   0.00414   0.00408  -0.10320
         Item               Value     Threshold  Converged?
 Maximum Force            0.129014     0.000450     NO 
 RMS     Force            0.025527     0.000300     NO 
 Maximum Displacement     0.427527     0.001800     NO 
 RMS     Displacement     0.059125     0.001200     NO 
 Predicted change in Energy=-6.598632D-02
 GradGradGradGradGradGradGradGradGradGradGradGradGradGradGradGradGradGrad

                          Input orientation:                          
 ---------------------------------------------------------------------
 Center     Atomic      Atomic             Coordinates (Angstroms)
 Number     Number       Type             X           Y           Z
 ---------------------------------------------------------------------
      1          6           0       -4.212001   -1.349659   -0.222253
      2          6           0       -2.887281   -0.979688   -0.602977
      3          6           0       -1.964951   -2.048939   -0.607669
      4          6           0       -4.321086   -2.710118    0.076121
      5          1           0       -5.045798   -0.668724   -0.166013
      6         16           0       -2.811222   -3.531100   -0.116128
      7          1           0       -5.229335   -3.209049    0.374011
      8          6           0       -0.555927   -2.124641   -0.949272
      9         16           0        0.538857   -0.742609   -0.729450
     10          6           0        1.893969   -1.632386   -1.326158
     11          6           0        1.540214   -2.956703   -1.667079
     12          6           0        0.161422   -3.246042   -1.440524
     13          1           0       -0.253560   -4.239451   -1.499471
     14         16           0        2.905109   -4.020265   -1.610117
     15          6           0        3.965579   -2.703538   -1.142018
     16          6           0        3.277332   -1.487109   -1.010215
     17          1           0        4.986265   -2.871060   -0.834167
     18          1           0        3.699584   -0.633086   -0.494952
     19          8           0       -2.358375    0.387406   -0.716478
     20          1           0       -2.928795    1.293762   -0.763191
 ---------------------------------------------------------------------
                    Distance matrix (angstroms):
                    1          2          3          4          5
     1  C    0.000000
     2  C    1.427135   0.000000
     3  C    2.384696   1.412096   0.000000
     4  C    1.397060   2.347629   2.540885   0.000000
     5  H    1.077985   2.224147   3.404655   2.179708   0.000000
     6  S    2.594635   2.598560   1.776116   1.729352   3.631669
     7  H    2.201778   3.377835   3.600799   1.078233   2.603567
     8  C    3.807366   2.620315   1.451817   3.945965   4.784572
     9  S    4.816266   3.436659   2.826727   5.304629   5.613493
    10  C    6.211394   4.879484   3.947279   6.461796   7.101757
    11  C    6.144762   4.964234   3.772608   6.119999   7.131873
    12  C    4.920090   3.890043   2.578403   4.762384   5.948285
    13  H    5.064725   4.285586   2.919334   4.622350   6.123214
    14  S    7.727325   6.619004   5.348692   7.535103   8.748439
    15  C    8.339771   7.086884   5.990427   8.375723   9.289671
    16  C    7.531925   6.198853   5.287649   7.772505   8.405768
    17  H    9.343297   8.100831   7.003327   9.353144  10.292668
    18  H    7.948649   6.596863   5.839889   8.304898   8.751639
    19  O    2.587969   1.470228   2.470303   3.751680   2.939501
    20  H    2.987793   2.279466   3.482361   4.321340   2.947826
                    6          7          8          9         10
     6  S    0.000000
     7  H    2.488216   0.000000
     8  C    2.785429   4.976722   0.000000
     9  S    4.401691   6.369693   1.776763   0.000000
    10  C    5.216140   7.491188   2.527123   1.727452   0.000000
    11  C    4.655146   7.075063   2.366724   2.604626   1.412511
    12  C    3.266787   5.688072   1.418963   2.629688   2.370377
    13  H    2.992831   5.415718   2.206029   3.667255   3.382116
    14  S    5.928552   8.412134   4.001109   4.137360   2.608640
    15  C    6.903792   9.332756   4.562488   3.969620   2.339411
    16  C    6.484426   8.788887   3.886391   2.851728   1.426400
    17  H    7.858247  10.292347   5.593414   4.931602   3.367293
    18  H    7.136707   9.333610   4.532165   3.171305   2.224803
    19  O    3.990010   4.729277   3.100547   3.109832   4.746967
    20  H    4.869478   5.182762   4.165407   4.021512   5.669068
                   11         12         13         14         15
    11  C    0.000000
    12  C    1.426924   0.000000
    13  H    2.211597   1.078214   0.000000
    14  S    1.731284   2.855871   3.168197   0.000000
    15  C    2.494429   3.854222   4.504213   1.754276   0.000000
    16  C    2.368281   3.603874   4.503549   2.629698   1.403836
    17  H    3.546314   4.877232   5.456271   2.500796   1.079182
    18  H    3.381709   4.498915   5.444472   3.653460   2.185457
    19  O    5.223572   4.480576   5.143066   6.923179   7.051767
    20  H    6.233419   5.533358   6.189947   7.936662   7.978366
                   16         17         18         19         20
    16  C    0.000000
    17  H    2.206074   0.000000
    18  H    1.083120   2.603679   0.000000
    19  O    5.946535   8.035869   6.147304   0.000000
    20  H    6.805166   8.944214   6.907974   1.071935   0.000000
 Stoichiometry    C10H6OS3
 Framework group  C1[X(C10H6OS3)]
 Deg. of freedom    54
 Full point group                 C1      NOp   1
 Largest Abelian subgroup         C1      NOp   1
 Largest concise Abelian subgroup C1      NOp   1
                         Standard orientation:                         
 ---------------------------------------------------------------------
 Center     Atomic      Atomic             Coordinates (Angstroms)
 Number     Number       Type             X           Y           Z
 ---------------------------------------------------------------------
      1          6           0       -4.075196    0.251968   -0.063608
      2          6           0       -2.773601    0.812391   -0.232396
      3          6           0       -1.718029   -0.109289   -0.058369
      4          6           0       -4.033674   -1.109158    0.248463
      5          1           0       -4.996619    0.802712   -0.162168
      6         16           0       -2.409939   -1.699054    0.326984
      7          1           0       -4.896596   -1.735919    0.406960
      8          6           0       -0.276036    0.022821   -0.163133
      9         16           0        0.555150    1.551491    0.196292
     10          6           0        2.104805    0.869997   -0.147550
     11          6           0        2.008158   -0.492622   -0.506876
     12          6           0        0.667624   -0.981547   -0.501078
     13          1           0        0.416620   -2.025368   -0.600982
     14         16           0        3.484430   -1.343348   -0.199905
     15          6           0        4.250544    0.116135    0.400480
     16          6           0        3.380951    1.218115    0.386194
     17          1           0        5.219597    0.101414    0.875195
     18          1           0        3.583778    2.125991    0.940965
     19          8           0       -2.437129    2.242283   -0.293741
     20          1           0       -3.117286    3.054606   -0.456718
 ---------------------------------------------------------------------
 Rotational constants (GHZ):           1.2153634           0.2832797           0.2343276
 Standard basis: Aug-CC-pVDZ (5D, 7F)
 There are   416 symmetry adapted cartesian basis functions of A   symmetry.
 There are   388 symmetry adapted basis functions of A   symmetry.
   388 basis functions,   782 primitive gaussians,   416 cartesian basis functions
    61 alpha electrons       61 beta electrons
       nuclear repulsion energy      1118.0648500950 Hartrees.
 NAtoms=   20 NActive=   20 NUniq=   20 SFac= 1.00D+00 NAtFMM=   60 NAOKFM=F Big=F
 Integral buffers will be    131072 words long.
 Raffenetti 1 integral format.
 Two-electron integral symmetry is turned on.
 One-electron integrals computed using PRISM.
 NBasis=   388 RedAO= T EigKep=  5.10D-06  NBF=   388
 NBsUse=   388 1.00D-06 EigRej= -1.00D+00 NBFU=   388
 Initial guess from the checkpoint file:  "/tmp/pbs.4762170[205].pbs/Gau-2604698.chk"
 B after Tr=     0.000000   -0.000000    0.000000
         Rot=    0.999993    0.001860    0.000018    0.003194 Ang=   0.42 deg.
 ExpMin= 2.97D-02 ExpMax= 1.11D+05 ExpMxC= 1.07D+03 IAcc=3 IRadAn=         5 AccDes= 0.00D+00
 Harris functional with IExCor=  205 and IRadAn=       5 diagonalized for initial guess.
 HarFok:  IExCor=  205 AccDes= 0.00D+00 IRadAn=         5 IDoV= 1 UseB2=F ITyADJ=14
 ICtDFT=  3500011 ScaDFX=  1.000000  1.000000  1.000000  1.000000
 FoFCou: FMM=F IPFlag=           0 FMFlag=      100000 FMFlg1=           0
         NFxFlg=           0 DoJE=T BraDBF=F KetDBF=T FulRan=T
         wScrn=  0.000000 ICntrl=       500 IOpCl=  0 I1Cent=   200000004 NGrid=           0
         NMat0=    1 NMatS0=      1 NMatT0=    0 NMatD0=    1 NMtDS0=    0 NMtDT0=    0
 Petite list used in FoFCou.
 Requested convergence on RMS density matrix=1.00D-08 within 128 cycles.
 Requested convergence on MAX density matrix=1.00D-06.
 Requested convergence on             energy=1.00D-06.
 No special actions if energy rises.
 SCF Done:  E(RHF) =  -1649.57600820     A.U. after   16 cycles
            NFock= 16  Conv=0.58D-08     -V/T= 2.0008
 Calling FoFJK, ICntrl=      2127 FMM=F ISym2X=0 I1Cent= 0 IOpClX= 0 NMat=1 NMatS=1 NMatT=0.
 ***** Axes restored to original set *****
 -------------------------------------------------------------------
 Center     Atomic                   Forces (Hartrees/Bohr)
 Number     Number              X              Y              Z
 -------------------------------------------------------------------
      1        6          -0.000480642   -0.037820570    0.007275119
      2        6           0.048732622    0.033066308    0.011446649
      3        6          -0.045246729    0.019144785    0.000030986
      4        6           0.008686347    0.044672435   -0.014306445
      5        1           0.001106363    0.001293748    0.000388487
      6       16          -0.001753684    0.017283360   -0.004685875
      7        1           0.003375187   -0.002562318   -0.000083815
      8        6           0.042105367   -0.027334914   -0.019412415
      9       16          -0.012708068   -0.003472331   -0.010497798
     10        6          -0.005299240   -0.040133572    0.004568214
     11        6          -0.001993888    0.032091783    0.024431005
     12        6          -0.025179536    0.040577294    0.018469030
     13        1          -0.003561491    0.001944578   -0.005685540
     14       16           0.011840493    0.007894616   -0.005960757
     15        6          -0.030073060    0.041681186    0.008895096
     16        6           0.025745936   -0.044684653    0.003260208
     17        1          -0.000200182   -0.002263550   -0.007257065
     18        1           0.001675694    0.000489955   -0.010005125
     19        8          -0.049949786    0.017908035   -0.005340761
     20        1           0.033178297   -0.099776173    0.004470801
 -------------------------------------------------------------------
 Cartesian Forces:  Max     0.099776173 RMS     0.025484943

 GradGradGradGradGradGradGradGradGradGradGradGradGradGradGradGradGradGrad
 Berny optimization.
 Using GEDIIS/GDIIS optimizer.
 FormGI is forming the generalized inverse of G from B-inverse, IUseBI=4.
 Internal  Forces:  Max     0.102214457 RMS     0.017857866
 Search for a local minimum.
 Step number   2 out of a maximum of  116
 All quantities printed in internal units (Hartrees-Bohrs-Radians)
 Mixed Optimization -- RFO/linear search
 Update second derivatives using D2CorX and points    1    2
 DE= -6.86D-02 DEPred=-6.60D-02 R= 1.04D+00
 TightC=F SS=  1.41D+00  RLast= 3.12D-01 DXNew= 5.0454D-01 9.3689D-01
 Trust test= 1.04D+00 RLast= 3.12D-01 DXMaxT set to 5.05D-01
 ITU=  1  0
 Use linear search instead of GDIIS.
     Eigenvalues ---    0.00230   0.00996   0.01053   0.01219   0.01271
     Eigenvalues ---    0.01292   0.01347   0.01402   0.01459   0.01482
     Eigenvalues ---    0.01499   0.01592   0.01592   0.01741   0.02129
     Eigenvalues ---    0.02524   0.15035   0.15282   0.15746   0.15822
     Eigenvalues ---    0.15999   0.16027   0.18273   0.20851   0.22478
     Eigenvalues ---    0.22533   0.23398   0.24105   0.24372   0.24977
     Eigenvalues ---    0.25012   0.25453   0.26318   0.26748   0.28447
     Eigenvalues ---    0.28590   0.30900   0.31330   0.31569   0.34863
     Eigenvalues ---    0.35188   0.35877   0.36004   0.36092   0.36183
     Eigenvalues ---    0.36187   0.36388   0.37481   0.38127   0.39202
     Eigenvalues ---    0.39479   0.40535   0.453261000.000001000.00000
     Eigenvalues --- 1000.000001000.000001000.000001000.000001000.00000
     Eigenvalues --- 1000.000001000.000001000.000001000.000001000.00000
     Eigenvalues --- 1000.000001000.000001000.000001000.000001000.00000
     Eigenvalues --- 1000.000001000.000001000.000001000.000001000.00000
     Eigenvalues --- 1000.000001000.000001000.000001000.000001000.00000
     Eigenvalues --- 1000.000001000.000001000.000001000.000001000.00000
     Eigenvalues --- 1000.000001000.000001000.000001000.000001000.00000
     Eigenvalues --- 1000.000001000.000001000.000001000.000001000.00000
     Eigenvalues --- 1000.000001000.000001000.000001000.000001000.00000
     Eigenvalues --- 1000.000001000.000001000.000001000.000001000.00000
     Eigenvalues --- 1000.00000
 RFO step:  Lambda=-1.51955798D-02 EMin= 2.30032221D-03
 Quartic linear search produced a step of  1.56349.
 Iteration  1 RMS(Cart)=  0.09489971 RMS(Int)=  0.02458454
 Iteration  2 RMS(Cart)=  0.02603927 RMS(Int)=  0.00358490
 Iteration  3 RMS(Cart)=  0.00327550 RMS(Int)=  0.00115245
 Iteration  4 RMS(Cart)=  0.00000501 RMS(Int)=  0.00115244
 Iteration  5 RMS(Cart)=  0.00000000 RMS(Int)=  0.00115244
 Iteration  1 RMS(Cart)=  0.00002030 RMS(Int)=  0.00000990
 Iteration  2 RMS(Cart)=  0.00001108 RMS(Int)=  0.00001106
 Iteration  3 RMS(Cart)=  0.00000604 RMS(Int)=  0.00001249
 Iteration  4 RMS(Cart)=  0.00000330 RMS(Int)=  0.00001344
 Iteration  5 RMS(Cart)=  0.00000180 RMS(Int)=  0.00001399
 Iteration  6 RMS(Cart)=  0.00000098 RMS(Int)=  0.00001430
 Variable       Old X    -DE/DX   Delta X   Delta X   Delta X     New X
                                 (Linear)    (Quad)   (Total)
    R1        2.69689  -0.00656  -0.03483   0.04916   0.01472   2.71162
    R2        2.64006  -0.04613  -0.11547   0.02658  -0.08897   2.55109
    R3        2.03710  -0.00002  -0.00130   0.00348   0.00218   2.03927
    R4        2.66847  -0.05411  -0.14164   0.03099  -0.11022   2.55825
    R5        2.77833  -0.08209  -0.20135  -0.08016  -0.28151   2.49682
    R6        3.35637  -0.01788  -0.06161   0.03457  -0.02715   3.32923
    R7        2.74354   0.00174  -0.00938   0.03693   0.02756   2.77109
    R8        3.26800  -0.00934  -0.02925   0.01752  -0.01221   3.25579
    R9        2.03756  -0.00168  -0.00495   0.00238  -0.00257   2.03500
   R10        3.35760  -0.01228  -0.03810   0.01753  -0.02162   3.33598
   R11        2.68145  -0.05486  -0.13532   0.00849  -0.12743   2.55402
   R12        3.26441   0.00044  -0.00665   0.02385   0.01742   3.28183
   R13        2.66926  -0.03517  -0.08374  -0.00104  -0.08285   2.58641
   R14        2.69551   0.00464   0.00193   0.01786   0.02041   2.71591
   R15        2.69650  -0.00208  -0.01822   0.03122   0.01358   2.71007
   R16        3.27165   0.00157  -0.00246   0.02114   0.01872   3.29038
   R17        2.03753  -0.00011  -0.00058   0.00085   0.00028   2.03781
   R18        3.31510  -0.01017  -0.03216   0.01899  -0.01409   3.30101
   R19        2.65287  -0.05068  -0.12334   0.01516  -0.10858   2.54428
   R20        2.03936  -0.00191  -0.00530   0.00179  -0.00351   2.03585
   R21        2.04680  -0.00372  -0.01092   0.00487  -0.00605   2.04075
   R22        2.02566  -0.10221  -0.24398  -0.12668  -0.37066   1.65500
    A1        1.96265  -0.00181  -0.01181   0.00873  -0.00246   1.96020
    A2        2.17503  -0.00064   0.00271  -0.01407  -0.01169   2.16334
    A3        2.14550   0.00245   0.00912   0.00533   0.01413   2.15964
    A4        1.99421   0.00808   0.03493  -0.03745  -0.00346   1.99076
    A5        2.20878  -0.00760  -0.01378  -0.01605  -0.03284   2.17594
    A6        2.05880   0.00049  -0.01659   0.07200   0.05308   2.11188
    A7        1.89627  -0.00086  -0.01271   0.03151   0.01953   1.91579
    A8        2.31065  -0.00583  -0.01292  -0.01382  -0.02711   2.28353
    A9        2.07605   0.00669   0.02554  -0.01744   0.00770   2.08376
   A10        1.95022  -0.00045  -0.00496   0.01271   0.00760   1.95782
   A11        2.18387   0.00419   0.01261   0.01091   0.02359   2.20746
   A12        2.14895  -0.00374  -0.00765  -0.02371  -0.03128   2.11767
   A13        1.62142  -0.00497  -0.00544  -0.01560  -0.02158   1.59984
   A14        2.12744  -0.00030  -0.00259   0.00521   0.00269   2.13012
   A15        2.23104  -0.00579  -0.01462  -0.00882  -0.02337   2.20767
   A16        1.92416   0.00614   0.01743   0.00335   0.02065   1.94481
   A17        1.61078  -0.00594  -0.01382  -0.00691  -0.02012   1.59066
   A18        1.94962  -0.00615  -0.01891   0.01227  -0.00780   1.94182
   A19        2.25469   0.00641   0.02534   0.01778   0.03938   2.29407
   A20        1.97342   0.00362   0.01276  -0.00649   0.00599   1.97942
   A21        1.97554   0.00406   0.01494  -0.01052   0.00379   1.97933
   A22        1.95043  -0.00762  -0.02569   0.02142  -0.00567   1.94476
   A23        2.25491   0.00727   0.02853   0.01662   0.04130   2.29621
   A24        1.96407   0.00194   0.00057   0.00250   0.00404   1.96811
   A25        2.15615  -0.00249  -0.00721   0.00807  -0.00019   2.15595
   A26        2.15321   0.00112   0.00978  -0.00708   0.00156   2.15477
   A27        1.59506  -0.00159   0.00269  -0.02166  -0.01808   1.57698
   A28        1.95958   0.00196   0.00026   0.01872   0.01826   1.97785
   A29        2.13098  -0.00429  -0.00800  -0.01903  -0.02856   2.10242
   A30        2.17902   0.00342   0.01370   0.00791   0.02026   2.19928
   A31        1.94596   0.00364   0.01001  -0.01126  -0.00030   1.94566
   A32        2.16973  -0.00052   0.00490  -0.00369  -0.00077   2.16895
   A33        2.13739  -0.00131  -0.00487   0.02247   0.01579   2.15318
   A34        2.21199  -0.05067  -0.17176  -0.05406  -0.22582   1.98617
    D1        0.00446  -0.00017  -0.00371   0.02822   0.02441   0.02887
    D2       -2.91016  -0.00557  -0.02536  -0.07747  -0.09997  -3.01013
    D3       -3.13721   0.00110   0.00361   0.02652   0.02941  -3.10780
    D4        0.23136  -0.00430  -0.01804  -0.07917  -0.09498   0.13639
    D5       -0.00464   0.00032   0.00323  -0.01890  -0.01512  -0.01976
    D6       -3.12816   0.00038   0.00318  -0.01338  -0.01027  -3.13843
    D7        3.13702  -0.00092  -0.00393  -0.01724  -0.02010   3.11692
    D8        0.01350  -0.00086  -0.00398  -0.01172  -0.01525  -0.00175
    D9       -0.00218  -0.00001   0.00265  -0.02393  -0.02157  -0.02376
   D10        3.11596   0.00012  -0.00260  -0.01070  -0.01407   3.10188
   D11        2.93330   0.00365   0.02194   0.06127   0.08612   3.01941
   D12       -0.23175   0.00378   0.01668   0.07450   0.09361  -0.13814
   D13       -0.27605   0.00191   0.00642   0.04974   0.05635  -0.21970
   D14        3.09995  -0.00448  -0.02216  -0.04639  -0.06874   3.03121
   D15       -0.00040   0.00017  -0.00072   0.01104   0.01102   0.01062
   D16       -3.12220   0.00024   0.00415  -0.00006   0.00508  -3.11712
   D17        0.52338  -0.00192  -0.00000   0.00000   0.00001   0.52338
   D18       -2.65738   0.00028   0.00789  -0.00892  -0.00060  -2.65798
   D19       -2.64361  -0.00188  -0.00609   0.01484   0.00817  -2.63544
   D20        0.45881   0.00031   0.00180   0.00592   0.00756   0.46638
   D21        0.00291  -0.00026  -0.00133   0.00441   0.00272   0.00563
   D22        3.12685  -0.00022  -0.00103  -0.00057  -0.00120   3.12565
   D23        3.13786   0.00013   0.00015  -0.02324  -0.02312   3.11474
   D24        0.02923  -0.00149  -0.00584  -0.01546  -0.02174   0.00749
   D25       -3.14073  -0.00063  -0.00248   0.02814   0.02578  -3.11494
   D26       -0.14460   0.00374   0.02063   0.05325   0.07404  -0.07056
   D27       -0.03458   0.00127   0.00434   0.02014   0.02501  -0.00956
   D28        2.96155   0.00564   0.02746   0.04525   0.07327   3.03482
   D29       -0.01653   0.00162   0.00671   0.00673   0.01318  -0.00335
   D30       -2.63961  -0.00761  -0.03714  -0.04497  -0.08323  -2.72283
   D31       -0.00044  -0.00089  -0.00467   0.00382  -0.00091  -0.00135
   D32       -2.71736  -0.01003  -0.04612  -0.05381  -0.09700  -2.81435
   D33        2.71043   0.00824   0.03787   0.05339   0.08856   2.79899
   D34       -0.00649  -0.00090  -0.00358  -0.00424  -0.00753  -0.01401
   D35        2.63845   0.00743   0.03868   0.04022   0.08027   2.71872
   D36       -0.24657  -0.00004  -0.00034   0.00550   0.00633  -0.24024
   D37        0.02100   0.00038   0.00223  -0.01658  -0.01476   0.00623
   D38       -2.86402  -0.00709  -0.03679  -0.05130  -0.08871  -2.95273
   D39        0.02317  -0.00021   0.00017  -0.01582  -0.01594   0.00723
   D40       -2.97324  -0.00422  -0.02110  -0.04235  -0.06399  -3.03723
   D41        2.64830   0.00618   0.03228   0.05371   0.08737   2.73567
   D42       -0.34811   0.00216   0.01101   0.02717   0.03933  -0.30879
   D43       -0.00714   0.00115   0.00361   0.01779   0.02087   0.01373
   D44       -2.63813  -0.00782  -0.03800  -0.04348  -0.08278  -2.72091
   D45        0.01929  -0.00085  -0.00216  -0.02731  -0.02975  -0.01046
   D46        2.99237   0.00630   0.03375   0.02047   0.05264   3.04501
   D47       -0.02617   0.00053   0.00064   0.02951   0.03068   0.00451
   D48        2.86438   0.00795   0.04060   0.05913   0.10103   2.96541
   D49       -2.99375  -0.00597  -0.03358  -0.01679  -0.05155  -3.04530
   D50       -0.10320   0.00145   0.00638   0.01284   0.01881  -0.08440
         Item               Value     Threshold  Converged?
 Maximum Force            0.102214     0.000450     NO 
 RMS     Force            0.017941     0.000300     NO 
 Maximum Displacement     0.820896     0.001800     NO 
 RMS     Displacement     0.107937     0.001200     NO 
 Predicted change in Energy=-7.653188D-02
 GradGradGradGradGradGradGradGradGradGradGradGradGradGradGradGradGradGrad

                          Input orientation:                          
 ---------------------------------------------------------------------
 Center     Atomic      Atomic             Coordinates (Angstroms)
 Number     Number       Type             X           Y           Z
 ---------------------------------------------------------------------
      1          6           0       -4.174728   -1.319997   -0.231937
      2          6           0       -2.824967   -0.969508   -0.570041
      3          6           0       -1.967777   -2.017299   -0.576751
      4          6           0       -4.308222   -2.633815    0.048240
      5          1           0       -4.992328   -0.616067   -0.208441
      6         16           0       -2.821448   -3.488418   -0.117593
      7          1           0       -5.217331   -3.140208    0.325270
      8          6           0       -0.540901   -2.086767   -0.907692
      9         16           0        0.548299   -0.721895   -0.648589
     10          6           0        1.900946   -1.647845   -1.222164
     11          6           0        1.520793   -2.913675   -1.577701
     12          6           0        0.120747   -3.161761   -1.390641
     13          1           0       -0.335443   -4.128948   -1.529585
     14         16           0        2.886038   -3.992171   -1.646256
     15          6           0        3.949877   -2.693621   -1.163146
     16          6           0        3.311610   -1.522799   -0.977350
     17          1           0        4.991033   -2.885981   -0.964099
     18          1           0        3.776646   -0.657407   -0.528955
     19          8           0       -2.391113    0.265819   -0.747421
     20          1           0       -3.031730    0.859363   -0.813149
 ---------------------------------------------------------------------
                    Distance matrix (angstroms):
                    1          2          3          4          5
     1  C    0.000000
     2  C    1.434925   0.000000
     3  C    2.340034   1.353768   0.000000
     4  C    1.349977   2.313490   2.499678   0.000000
     5  H    1.079138   2.225562   3.353657   2.145971   0.000000
     6  S    2.558611   2.559224   1.761751   1.722889   3.601579
     7  H    2.170408   3.352152   3.554457   1.076874   2.589741
     8  C    3.774822   2.565002   1.466398   3.925020   4.739949
     9  S    4.778944   3.383254   2.830878   5.265625   5.559090
    10  C    6.164564   4.818678   3.939552   6.414034   7.043396
    11  C    6.065464   4.866292   3.738383   6.058005   7.040925
    12  C    4.815163   3.762524   2.516772   4.686669   5.832811
    13  H    4.930943   4.135277   2.833984   4.528568   5.980997
    14  S    7.680835   6.550596   5.348222   7.514907   8.691032
    15  C    8.292358   7.015900   5.984973   8.346690   9.229882
    16  C    7.526089   6.174918   5.317606   7.768399   8.388609
    17  H    9.327354   8.057171   7.023509   9.357594  10.266013
    18  H    7.984459   6.609114   5.903387   8.342927   8.774927
    19  O    2.441683   1.321258   2.328298   3.565986   2.799025
    20  H    2.528608   1.856507   3.076210   3.817553   2.527154
                    6          7          8          9         10
     6  S    0.000000
     7  H    2.461226   0.000000
     8  C    2.791017   4.949639   0.000000
     9  S    4.392129   6.327648   1.765324   0.000000
    10  C    5.187368   7.435829   2.500832   1.736671   0.000000
    11  C    4.617066   7.005350   2.320187   2.571555   1.368667
    12  C    3.222400   5.607128   1.351528   2.585805   2.342955
    13  H    2.929884   5.315159   2.144636   3.628383   3.354373
    14  S    5.930090   8.383158   3.989981   4.141868   2.578009
    15  C    6.897515   9.297984   4.538790   3.965250   2.301141
    16  C    6.497479   8.778135   3.894194   2.895759   1.437199
    17  H    7.881266  10.292608   5.589652   4.951838   3.338894
    18  H    7.191570   9.369398   4.563740   3.231206   2.231536
    19  O    3.830948   4.554030   2.997271   3.102497   4.723268
    20  H    4.408085   4.697809   3.859126   3.917150   5.548394
                   11         12         13         14         15
    11  C    0.000000
    12  C    1.434109   0.000000
    13  H    2.219193   1.078362   0.000000
    14  S    1.741192   2.898578   3.226494   0.000000
    15  C    2.474010   3.864343   4.534138   1.746820   0.000000
[...]
 ---------------------------------------------------------------------
      1          6           0       -4.025641    0.346533   -0.184035
      2          6           0       -2.675977    0.833073   -0.259901
      3          6           0       -1.736422   -0.111648   -0.009503
      4          6           0       -4.079216   -0.963853    0.126227
      5          1           0       -4.894310    0.963467   -0.360297
      6         16           0       -2.510385   -1.640500    0.347285
      7          1           0       -4.958710   -1.573384    0.244093
      8          6           0       -0.275705   -0.003162   -0.023179
      9         16           0        0.537528    1.507061    0.373419
     10          6           0        2.089389    0.747631    0.202483
     11          6           0        1.960982   -0.567031   -0.135089
     12          6           0        0.605601   -1.005062   -0.267510
     13          1           0        0.309197   -2.005707   -0.536385
     14         16           0        3.515308   -1.319725   -0.327781
     15          6           0        4.310816    0.185497    0.055757
     16          6           0        3.449361    1.192184    0.311450
     17          1           0        5.386583    0.229641    0.070429
     18          1           0        3.755062    2.193813    0.566662
     19          8           0       -2.360071    2.111328   -0.558875
     20          1           0       -3.135597    2.627209   -0.700464
 ---------------------------------------------------------------------
 Rotational constants (GHZ):           1.3011810           0.2799319           0.2351338

 **********************************************************************

            Population analysis using the SCF Density.

 **********************************************************************

 Orbital symmetries:
       Occupied  (A) (A) (A) (A) (A) (A) (A) (A) (A) (A) (A) (A)
                 (A) (A) (A) (A) (A) (A) (A) (A) (A) (A) (A) (A)
                 (A) (A) (A) (A) (A) (A) (A) (A) (A) (A) (A) (A)
                 (A) (A) (A) (A) (A) (A) (A) (A) (A) (A) (A) (A)
                 (A) (A) (A) (A) (A) (A) (A) (A) (A) (A) (A) (A)
                 (A)
       Virtual   (A) (A) (A) (A) (A) (A) (A) (A) (A) (A) (A) (A)
                 (A) (A) (A) (A) (A) (A) (A) (A) (A) (A) (A) (A)
                 (A) (A) (A) (A) (A) (A) (A) (A) (A) (A) (A) (A)
                 (A) (A) (A) (A) (A) (A) (A) (A) (A) (A) (A) (A)
                 (A) (A) (A) (A) (A) (A) (A) (A) (A) (A) (A) (A)
                 (A) (A) (A) (A) (A) (A) (A) (A) (A) (A) (A) (A)
                 (A) (A) (A) (A) (A) (A) (A) (A) (A) (A) (A) (A)
                 (A) (A) (A) (A) (A) (A) (A) (A) (A) (A) (A) (A)
                 (A) (A) (A) (A) (A) (A) (A) (A) (A) (A) (A) (A)
                 (A) (A) (A) (A) (A) (A) (A) (A) (A) (A) (A) (A)
                 (A) (A) (A) (A) (A) (A) (A) (A) (A) (A) (A) (A)
                 (A) (A) (A) (A) (A) (A) (A) (A) (A) (A) (A) (A)
                 (A) (A) (A) (A) (A) (A) (A) (A) (A) (A) (A) (A)
                 (A) (A) (A) (A) (A) (A) (A) (A) (A) (A) (A) (A)
                 (A) (A) (A) (A) (A) (A) (A) (A) (A) (A) (A) (A)
                 (A) (A) (A) (A) (A) (A) (A) (A) (A) (A) (A) (A)
                 (A) (A) (A) (A) (A) (A) (A) (A) (A) (A) (A) (A)
                 (A) (A) (A) (A) (A) (A) (A) (A) (A) (A) (A) (A)
                 (A) (A) (A) (A) (A) (A) (A) (A) (A) (A) (A) (A)
                 (A) (A) (A) (A) (A) (A) (A) (A) (A) (A) (A) (A)
                 (A) (A) (A) (A) (A) (A) (A) (A) (A) (A) (A) (A)
                 (A) (A) (A) (A) (A) (A) (A) (A) (A) (A) (A) (A)
                 (A) (A) (A) (A) (A) (A) (A) (A) (A) (A) (A) (A)
                 (A) (A) (A) (A) (A) (A) (A) (A) (A) (A) (A) (A)
                 (A) (A) (A) (A) (A) (A) (A) (A) (A) (A) (A) (A)
                 (A) (A) (A) (A) (A) (A) (A) (A) (A) (A) (A) (A)
                 (A) (A) (A) (A) (A) (A) (A) (A) (A) (A) (A) (A)
                 (A) (A) (A)
 The electronic state is 1-A.
 Alpha  occ. eigenvalues --  -91.99159 -91.98508 -91.98342 -20.61264 -11.31916
 Alpha  occ. eigenvalues --  -11.28811 -11.28539 -11.27376 -11.27229 -11.26686
 Alpha  occ. eigenvalues --  -11.26480 -11.25720 -11.25313 -11.25034  -8.99373
 Alpha  occ. eigenvalues --   -8.98691  -8.98500  -6.67544  -6.67452  -6.67249
 Alpha  occ. eigenvalues --   -6.66858  -6.66781  -6.66661  -6.66580  -6.66574
 Alpha  occ. eigenvalues --   -6.66369  -1.43314  -1.21228  -1.18622  -1.12557
 Alpha  occ. eigenvalues --   -1.03085  -1.01958  -0.98887  -0.95642  -0.94096
 Alpha  occ. eigenvalues --   -0.82796  -0.81532  -0.77086  -0.75298  -0.71354
 Alpha  occ. eigenvalues --   -0.70108  -0.67116  -0.66389  -0.62061  -0.61411
 Alpha  occ. eigenvalues --   -0.58767  -0.56358  -0.56109  -0.53930  -0.52760
 Alpha  occ. eigenvalues --   -0.52559  -0.51319  -0.49587  -0.48049  -0.46564
 Alpha  occ. eigenvalues --   -0.45499  -0.38749  -0.35798  -0.34033  -0.31662
 Alpha  occ. eigenvalues --   -0.27596
 Alpha virt. eigenvalues --    0.02736   0.03717   0.03933   0.05021   0.05136
 Alpha virt. eigenvalues --    0.06281   0.07011   0.08563   0.09015   0.09433
 Alpha virt. eigenvalues --    0.10364   0.10553   0.10652   0.11004   0.11492
 Alpha virt. eigenvalues --    0.12293   0.12770   0.13026   0.13112   0.13512
 Alpha virt. eigenvalues --    0.13834   0.14057   0.14515   0.14789   0.15265
 Alpha virt. eigenvalues --    0.15524   0.15688   0.16544   0.16713   0.17315
 Alpha virt. eigenvalues --    0.17852   0.18454   0.18807   0.18970   0.19394
 Alpha virt. eigenvalues --    0.19541   0.20238   0.20873   0.21655   0.21987
 Alpha virt. eigenvalues --    0.22344   0.22721   0.23079   0.23271   0.23438
 Alpha virt. eigenvalues --    0.24304   0.24410   0.25335   0.25955   0.26089
 Alpha virt. eigenvalues --    0.26385   0.26903   0.27351   0.27651   0.28094
 Alpha virt. eigenvalues --    0.28893   0.29779   0.30115   0.31415   0.31642
 Alpha virt. eigenvalues --    0.31930   0.32326   0.32555   0.32973   0.33480
 Alpha virt. eigenvalues --    0.33892   0.34234   0.34681   0.35327   0.35784
 Alpha virt. eigenvalues --    0.36432   0.37056   0.38163   0.38848   0.39261
 Alpha virt. eigenvalues --    0.40045   0.40641   0.41432   0.41520   0.42208
 Alpha virt. eigenvalues --    0.42632   0.43346   0.44985   0.45534   0.45926
 Alpha virt. eigenvalues --    0.46125   0.46767   0.47679   0.47914   0.48593
 Alpha virt. eigenvalues --    0.49317   0.49380   0.50282   0.51592   0.52162
 Alpha virt. eigenvalues --    0.52421   0.53808   0.54117   0.54480   0.55203
 Alpha virt. eigenvalues --    0.56409   0.56866   0.58438   0.58899   0.59659
 Alpha virt. eigenvalues --    0.61116   0.61394   0.62228   0.62790   0.62924
 Alpha virt. eigenvalues --    0.63183   0.63921   0.64979   0.65565   0.66227
 Alpha virt. eigenvalues --    0.66830   0.67118   0.67941   0.68215   0.68516
 Alpha virt. eigenvalues --    0.68980   0.69630   0.69680   0.70289   0.70871
 Alpha virt. eigenvalues --    0.71225   0.72164   0.72797   0.73073   0.73897
 Alpha virt. eigenvalues --    0.74350   0.74845   0.75119   0.76337   0.77140
 Alpha virt. eigenvalues --    0.77695   0.78294   0.78881   0.79421   0.80711
 Alpha virt. eigenvalues --    0.81171   0.82240   0.83375   0.84439   0.84902
 Alpha virt. eigenvalues --    0.85967   0.86002   0.86888   0.87727   0.87929
 Alpha virt. eigenvalues --    0.89590   0.89876   0.90403   0.91361   0.91568
 Alpha virt. eigenvalues --    0.92530   0.92776   0.93587   0.94846   0.95570
 Alpha virt. eigenvalues --    0.96405   0.96810   0.97492   0.98259   0.99074
 Alpha virt. eigenvalues --    0.99638   1.00602   1.01241   1.02199   1.03493
 Alpha virt. eigenvalues --    1.03919   1.05078   1.06533   1.07630   1.08950
 Alpha virt. eigenvalues --    1.09153   1.10523   1.12104   1.12638   1.13223
 Alpha virt. eigenvalues --    1.14195   1.15804   1.16653   1.18030   1.19088
 Alpha virt. eigenvalues --    1.20802   1.20851   1.22510   1.23350   1.23552
 Alpha virt. eigenvalues --    1.24677   1.25160   1.25789   1.28258   1.28673
 Alpha virt. eigenvalues --    1.28976   1.29536   1.30578   1.31124   1.32890
 Alpha virt. eigenvalues --    1.34216   1.35491   1.36032   1.36836   1.38242
 Alpha virt. eigenvalues --    1.38759   1.39068   1.40367   1.42589   1.43485
 Alpha virt. eigenvalues --    1.44484   1.45411   1.46519   1.48506   1.50833
 Alpha virt. eigenvalues --    1.51436   1.53319   1.55459   1.56324   1.56951
 Alpha virt. eigenvalues --    1.57788   1.59777   1.60152   1.61121   1.62587
 Alpha virt. eigenvalues --    1.63001   1.64391   1.64630   1.66966   1.68599
 Alpha virt. eigenvalues --    1.69081   1.69914   1.70529   1.71582   1.72729
 Alpha virt. eigenvalues --    1.73803   1.74366   1.75716   1.76213   1.77904
 Alpha virt. eigenvalues --    1.80643   1.80895   1.82053   1.84016   1.84367
 Alpha virt. eigenvalues --    1.85346   1.86751   1.87375   1.89400   1.90217
 Alpha virt. eigenvalues --    1.91222   1.93037   1.94841   1.95684   1.96524
 Alpha virt. eigenvalues --    1.97826   2.00419   2.01224   2.03300   2.03760
 Alpha virt. eigenvalues --    2.04225   2.08318   2.09389   2.10362   2.10680
 Alpha virt. eigenvalues --    2.11288   2.11929   2.14078   2.15766   2.15996
 Alpha virt. eigenvalues --    2.17440   2.20983   2.21579   2.22082   2.22655
 Alpha virt. eigenvalues --    2.25505   2.26267   2.27917   2.29590   2.30357
 Alpha virt. eigenvalues --    2.33103   2.33708   2.35169   2.36118   2.38356
 Alpha virt. eigenvalues --    2.39708   2.41384   2.43869   2.46284   2.46621
 Alpha virt. eigenvalues --    2.48900   2.49902   2.50862   2.51949   2.55287
 Alpha virt. eigenvalues --    2.57322   2.58156   2.60944   2.61797   2.64653
 Alpha virt. eigenvalues --    2.76128   2.81004   2.83707   2.85862   2.88134
 Alpha virt. eigenvalues --    2.92472   2.95857   2.99468   3.01461   3.04474
 Alpha virt. eigenvalues --    3.15687   3.18414   3.25311   3.28020   3.36004
 Alpha virt. eigenvalues --    3.41143   3.52811   3.57367   3.69067   3.76310
 Alpha virt. eigenvalues --    3.76817   3.80039   3.87209   3.90327   4.15756
 Alpha virt. eigenvalues --    4.25217   4.47378
          Condensed to atoms (all electrons):
               1          2          3          4          5          6
     1  C    8.231260  -2.365721   0.238145   0.082984  -0.221697  -0.360602
     2  C   -2.365721  12.271819  -3.246909   0.517495   0.186150  -0.419353
     3  C    0.238145  -3.246909  12.191098  -1.498684   0.064779  -0.053128
     4  C    0.082984   0.517495  -1.498684   6.661859  -0.033013   0.276745
     5  H   -0.221697   0.186150   0.064779  -0.033013   1.660770  -0.023699
     6  S   -0.360602  -0.419353  -0.053128   0.276745  -0.023699  16.280644
     7  H    0.045771   0.071905  -0.003092   0.150908  -0.063329  -0.133038
     8  C   -0.134936   0.070309  -2.475773   0.466489  -0.040380  -0.161411
     9  S   -0.082003   0.291214  -0.532389   0.065047   0.004791  -0.030915
    10  C   -0.072667   0.105448  -0.120320   0.035707  -0.000548   0.012037
    11  C    0.000462  -0.025625   0.198823  -0.034564   0.000324  -0.045117
    12  C    0.051231  -0.935845   0.329485  -0.324259  -0.000196   0.149511
    13  H   -0.016838   0.055632  -0.008625   0.015127  -0.001116  -0.002370
    14  S    0.000526  -0.009875  -0.043325   0.000141   0.000057   0.006599
    15  C   -0.001984  -0.005866   0.027127   0.000678  -0.000052   0.001639
    16  C   -0.004314   0.018551  -0.302330   0.000557  -0.000419   0.011076
    17  H   -0.000088   0.000101  -0.000103   0.000005  -0.000003   0.000060
    18  H   -0.000008   0.002475  -0.007376   0.000138   0.000012   0.000154
    19  O    0.140824  -0.816311   0.328177  -0.076919  -0.057915   0.022607
    20  H   -0.102876   0.000715  -0.052841  -0.009148  -0.010050   0.008953
               7          8          9         10         11         12
     1  C    0.045771  -0.134936  -0.082003  -0.072667   0.000462   0.051231
     2  C    0.071905   0.070309   0.291214   0.105448  -0.025625  -0.935845
     3  C   -0.003092  -2.475773  -0.532389  -0.120320   0.198823   0.329485
     4  C    0.150908   0.466489   0.065047   0.035707  -0.034564  -0.324259
     5  H   -0.063329  -0.040380   0.004791  -0.000548   0.000324  -0.000196
     6  S   -0.133038  -0.161411  -0.030915   0.012037  -0.045117   0.149511
     7  H    1.269380   0.016036  -0.000289   0.000320   0.001259   0.000044
     8  C    0.016036  13.086301   0.261070  -0.642156  -0.170653  -4.788868
     9  S   -0.000289   0.261070  16.698798   0.264508  -0.455948  -0.801865
    10  C    0.000320  -0.642156   0.264508  11.148604  -1.277469  -0.706267
    11  C    0.001259  -0.170653  -0.455948  -1.277469  13.519132  -3.951809
    12  C    0.000044  -4.788868  -0.801865  -0.706267  -3.951809  18.455327
    13  H    0.003363   0.708548   0.043363  -0.124826   0.576773  -1.478151
    14  S   -0.000102  -0.404339   0.138918   0.109244  -0.547718   0.179762
    15  C    0.000015   0.037399  -0.114836  -0.116808  -1.132796   0.043381
    16  C    0.000002  -0.043148  -0.235016  -2.625947  -0.460877  -0.483762
    17  H    0.000001  -0.002576   0.014626   0.105494  -0.103984   0.035055
    18  H    0.000003   0.065005   0.035320   0.486607   0.076706  -0.058316
    19  O   -0.002013   0.040749  -0.069982   0.005399  -0.006615   0.020945
    20  H    0.001052   0.013074   0.018061   0.005812  -0.002446  -0.005897
              13         14         15         16         17         18
     1  C   -0.016838   0.000526  -0.001984  -0.004314  -0.000088  -0.000008
     2  C    0.055632  -0.009875  -0.005866   0.018551   0.000101   0.002475
     3  C   -0.008625  -0.043325   0.027127  -0.302330  -0.000103  -0.007376
     4  C    0.015127   0.000141   0.000678   0.000557   0.000005   0.000138
     5  H   -0.001116   0.000057  -0.000052  -0.000419  -0.000003   0.000012
     6  S   -0.002370   0.006599   0.001639   0.011076   0.000060   0.000154
     7  H    0.003363  -0.000102   0.000015   0.000002   0.000001   0.000003
     8  C    0.708548  -0.404339   0.037399  -0.043148  -0.002576   0.065005
     9  S    0.043363   0.138918  -0.114836  -0.235016   0.014626   0.035320
    10  C   -0.124826   0.109244  -0.116808  -2.625947   0.105494   0.486607
    11  C    0.576773  -0.547718  -1.132796  -0.460877  -0.103984   0.076706
    12  C   -1.478151   0.179762   0.043381  -0.483762   0.035055  -0.058316
    13  H    1.811960  -0.057564   0.012839  -0.034439   0.002275   0.000789
    14  S   -0.057564  16.099291   0.210899  -0.085594  -0.142768  -0.001271
    15  C    0.012839   0.210899   6.989341   0.107284   0.207363  -0.119862
    16  C   -0.034439  -0.085594   0.107284  10.268305   0.031151  -0.504583
    17  H    0.002275  -0.142768   0.207363   0.031151   1.303507  -0.070196
    18  H    0.000789  -0.001271  -0.119862  -0.504583  -0.070196   1.417504
    19  O   -0.000047   0.000848   0.000052   0.002051   0.000025   0.000113
    20  H    0.000521  -0.000056   0.000091   0.001041   0.000005   0.000057
              19         20
     1  C    0.140824  -0.102876
     2  C   -0.816311   0.000715
     3  C    0.328177  -0.052841
     4  C   -0.076919  -0.009148
     5  H   -0.057915  -0.010050
     6  S    0.022607   0.008953
     7  H   -0.002013   0.001052
     8  C    0.040749   0.013074
     9  S   -0.069982   0.018061
    10  C    0.005399   0.005812
    11  C   -0.006615  -0.002446
    12  C    0.020945  -0.005897
    13  H   -0.000047   0.000521
    14  S    0.000848  -0.000056
    15  C    0.000052   0.000091
    16  C    0.002051   0.001041
    17  H    0.000025   0.000005
    18  H    0.000113   0.000057
    19  O    9.029391   0.364973
    20  H    0.364973   0.593400
 Mulliken charges:
               1
     1  C    0.572532
     2  C    0.233693
     3  C    0.967262
     4  C   -0.297293
     5  H   -0.464463
     6  S    0.459607
     7  H   -0.358197
     8  C    0.099259
     9  S    0.487526
    10  C   -0.592170
    11  C   -0.157858
    12  C    0.270493
    13  H   -0.507215
    14  S    0.546326
    15  C   -0.145903
    16  C    0.340412
    17  H   -0.379949
    18  H   -0.323271
    19  O   -0.926352
    20  H    0.175559
 Sum of Mulliken charges =  -0.00000
 Mulliken charges with hydrogens summed into heavy atoms:
               1
     1  C    0.108069
     2  C    0.233693
     3  C    0.967262
     4  C   -0.655490
     6  S    0.459607
     8  C    0.099259
     9  S    0.487526
    10  C   -0.592170
    11  C   -0.157858
    12  C   -0.236722
    14  S    0.546326
    15  C   -0.525852
    16  C    0.017142
    19  O   -0.750792
 Electronic spatial extent (au):  <R**2>=           4305.1370
 Charge=             -0.0000 electrons
 Dipole moment (field-independent basis, Debye):
    X=             -2.5848    Y=              1.0892    Z=             -0.2995  Tot=              2.8209
 Quadrupole moment (field-independent basis, Debye-Ang):
   XX=            -75.7692   YY=            -96.8908   ZZ=           -109.7732
   XY=             -0.8456   XZ=              2.9441   YZ=              0.0735
 Traceless Quadrupole moment (field-independent basis, Debye-Ang):
   XX=             18.3752   YY=             -2.7465   ZZ=            -15.6288
   XY=             -0.8456   XZ=              2.9441   YZ=              0.0735
 Octapole moment (field-independent basis, Debye-Ang**2):
  XXX=            -60.2183  YYY=             21.9295  ZZZ=             -3.3602  XYY=            -25.0967
  XXY=             39.7593  XXZ=             -3.3979  XZZ=             -6.1849  YZZ=              4.9063
  YYZ=             -2.9279  XYZ=             13.3206
 Hexadecapole moment (field-independent basis, Debye-Ang**3):
 XXXX=          -3950.1330 YYYY=           -964.0285 ZZZZ=           -197.1556 XXXY=            -11.4219
 XXXZ=             48.9254 YYYX=            -47.4518 YYYZ=             -9.2208 ZZZX=              7.0382
 ZZZY=             -7.7206 XXYY=           -838.4107 XXZZ=           -908.0038 YYZZ=           -208.8553
 XXYZ=            -28.5225 YYXZ=             21.5051 ZZXY=            -15.6020
 N-N= 1.129792418550D+03 E-N=-6.166992815383D+03  KE= 1.649580969059D+03
 Unable to Open any file for archive entry.
 1\1\GINC-CX3-5-11\FOpt\RHF\Aug-CC-pVDZ\C10H6O1S3\NS5018\25-Oct-2021\0\
 \# opt=modredundant hf/aug-cc-pvdz\\pBTTT_30.pdb\\0,1\C,-4.1825249643,
 -1.2837552194,-0.3092142362\C,-2.8007455444,-0.9834193692,-0.563287451
 4\C,-1.9855045478,-2.0655942617,-0.5159592764\C,-4.3845998111,-2.59480
 45164,-0.0713936039\H,-4.9663434776,-0.5408740088,-0.3134470505\S,-2.9
 181299567,-3.4967312705,-0.1341704447\H,-5.3185440871,-3.0847280768,0.
 1446012917\C,-0.5421733302,-2.1587609148,-0.7478305591\S,0.5344708564,
 -0.8116195894,-0.3936281078\C,1.9156842559,-1.7616143032,-0.8452764953
 \C,1.5465795621,-3.0148114426,-1.2351985428\C,0.1364408068,-3.24982812
 95,-1.1828647599\H,-0.3405996985,-4.1753502833,-1.4608606332\S,2.92807
 45203,-3.9567579744,-1.7082923206\C,3.9847562248,-2.6110674102,-1.3645
 367891\C,3.3279092053,-1.5189175432,-0.9210696838\H,5.0459779469,-2.71
 6953307,-1.5129813029\H,3.8122266406,-0.5926139728,-0.6579239861\O,-2.
 3451373893,0.2588464391,-0.8322048854\H,-3.0478172121,0.886355154,-0.8
 224611627\\Version=ES64L-G16RevC.01\State=1-A\HF=-1649.6423936\RMSD=5.
 532e-09\RMSF=1.541e-04\Dipole=-0.9484275,0.5726507,0.0652302\Quadrupol
 e=13.2293698,-1.5939497,-11.63542,-2.809769,-1.6714616,0.9705609\PG=C0
 1 [X(C10H6O1S3)]\\@
 The archive entry for this job was punched.


 If fifty million people say a stupid thing,
 it is still a stupid thing.
                   -- Anatole France
 Job cpu time:       0 days  5 hours 49 minutes 32.3 seconds.
 Elapsed time:       0 days  0 hours 44 minutes  1.8 seconds.
 File lengths (MBytes):  RWF=     95 Int=      0 D2E=      0 Chk=     12 Scr=      1
 Normal termination of Gaussian 16 at Mon Oct 25 23:28:28 2021.
