 Entering Gaussian System, Link 0=g16
 Input=NDI_-40.gjf
 Output=NDI_-40.log
 Initial command:
 /apps/gaussian/g16-c01-avx/g16/l1.exe "/tmp/pbs.4643763[135].pbs/Gau-2902999.inp" -scrdir="/tmp/pbs.4643763[135].pbs/"
 Entering Link 1 = /apps/gaussian/g16-c01-avx/g16/l1.exe PID=   2903000.
  
 Copyright (c) 1988-2019, Gaussian, Inc.  All Rights Reserved.
  
 This is part of the Gaussian(R) 16 program.  It is based on
 the Gaussian(R) 09 system (copyright 2009, Gaussian, Inc.),
 the Gaussian(R) 03 system (copyright 2003, Gaussian, Inc.),
 the Gaussian(R) 98 system (copyright 1998, Gaussian, Inc.),
 the Gaussian(R) 94 system (copyright 1995, Gaussian, Inc.),
 the Gaussian 92(TM) system (copyright 1992, Gaussian, Inc.),
 the Gaussian 90(TM) system (copyright 1990, Gaussian, Inc.),
 the Gaussian 88(TM) system (copyright 1988, Gaussian, Inc.),
 the Gaussian 86(TM) system (copyright 1986, Carnegie Mellon
 University), and the Gaussian 82(TM) system (copyright 1983,
 Carnegie Mellon University). Gaussian is a federally registered
 trademark of Gaussian, Inc.
  
 This software contains proprietary and confidential information,
 including trade secrets, belonging to Gaussian, Inc.
  
 This software is provided under written license and may be
 used, copied, transmitted, or stored only in accord with that
 written license.
  
 The following legend is applicable only to US Government
 contracts under FAR:
  
                    RESTRICTED RIGHTS LEGEND
  
 Use, reproduction and disclosure by the US Government is
 subject to restrictions as set forth in subparagraphs (a)
 and (c) of the Commercial Computer Software - Restricted
 Rights clause in FAR 52.227-19.
  
 Gaussian, Inc.
 340 Quinnipiac St., Bldg. 40, Wallingford CT 06492
  
  
 ---------------------------------------------------------------
 Warning -- This program may not be used in any manner that
 competes with the business of Gaussian, Inc. or will provide
 assistance to any competitor of Gaussian, Inc.  The licensee
 of this program is prohibited from giving any competitor of
 Gaussian, Inc. access to this program.  By using this program,
 the user acknowledges that Gaussian, Inc. is engaged in the
 business of creating and licensing software in the field of
 computational chemistry and represents and warrants to the
 licensee that it is not a competitor of Gaussian, Inc. and that
 it will not use this program in any manner prohibited above.
 ---------------------------------------------------------------
  

 Cite this work as:
 Gaussian 16, Revision C.01,
 M. J. Frisch, G. W. Trucks, H. B. Schlegel, G. E. Scuseria, 
 M. A. Robb, J. R. Cheeseman, G. Scalmani, V. Barone, 
 G. A. Petersson, H. Nakatsuji, X. Li, M. Caricato, A. V. Marenich, 
 J. Bloino, B. G. Janesko, R. Gomperts, B. Mennucci, H. P. Hratchian, 
 J. V. Ortiz, A. F. Izmaylov, J. L. Sonnenberg, D. Williams-Young, 
 F. Ding, F. Lipparini, F. Egidi, J. Goings, B. Peng, A. Petrone, 
 T. Henderson, D. Ranasinghe, V. G. Zakrzewski, J. Gao, N. Rega, 
 G. Zheng, W. Liang, M. Hada, M. Ehara, K. Toyota, R. Fukuda, 
 J. Hasegawa, M. Ishida, T. Nakajima, Y. Honda, O. Kitao, H. Nakai, 
 T. Vreven, K. Throssell, J. A. Montgomery, Jr., J. E. Peralta, 
 F. Ogliaro, M. J. Bearpark, J. J. Heyd, E. N. Brothers, K. N. Kudin, 
 V. N. Staroverov, T. A. Keith, R. Kobayashi, J. Normand, 
 K. Raghavachari, A. P. Rendell, J. C. Burant, S. S. Iyengar, 
 J. Tomasi, M. Cossi, J. M. Millam, M. Klene, C. Adamo, R. Cammi, 
 J. W. Ochterski, R. L. Martin, K. Morokuma, O. Farkas, 
 J. B. Foresman, and D. J. Fox, Gaussian, Inc., Wallingford CT, 2019.
 
 ******************************************
 Gaussian 16:  ES64L-G16RevC.01  3-Jul-2019
                 7-Oct-2021 
 ******************************************
 %mem=10GB
 %nprocshared=8
 Will use up to    8 processors via shared memory.
 -------------------------------------
 # opt=modredundant b3lyp/6-311+g(d,p)
 -------------------------------------
 1/18=120,19=15,26=3,38=1/1,3;
 2/9=110,12=2,17=6,18=5,40=1/2;
 3/5=4,6=6,7=111,11=2,25=1,30=1,71=1,74=-5/1,2,3;
 4//1;
 5/5=2,38=5/2;
 6/7=2,8=2,9=2,10=2,28=1/1;
 7//1,2,3,16;
 1/18=20,19=15,26=3/3(2);
 2/9=110/2;
 99//99;
 2/9=110/2;
 3/5=4,6=6,7=111,11=2,25=1,30=1,71=1,74=-5/1,2,3;
 4/5=5,16=3,69=1/1;
 5/5=2,38=5/2;
 7//1,2,3,16;
 1/18=20,19=15,26=3/3(-5);
 2/9=110/2;
 6/7=2,8=2,9=2,10=2,19=2,28=1/1;
 99/9=1/99;
 -----------
 NDI_-40.pdb
 -----------
 Symbolic Z-matrix:
 Charge = -2 Multiplicity = 1
 C                    -2.563    -2.994    -0.409 
 C                    -2.257    -1.551    -0.224 
 C                    -3.301    -0.607    -0.083 
 C                    -4.65     -1.024    -0.115 
 C                    -4.992    -2.459    -0.304 
 C                    -0.949    -1.137    -0.215 
 C                    -2.962     0.764     0.102 
 C                    -1.595     1.188     0.123 
 C                    -0.561     0.232    -0.072 
 C                    -1.328     2.616     0.446 
 C                    -3.777     3.115     0.508 
 C                    -4.035     1.679     0.268 
 C                    -5.356     1.252     0.23 
 C                    -5.672    -0.098     0.036 
 H                    -6.699    -0.442     0.008 
 H                    -6.133     1.997     0.361 
 H                    -0.19     -1.895    -0.369 
 N                    -2.432     3.476     0.608 
 N                    -3.916    -3.353    -0.438 
 O                    -1.695    -3.847    -0.532 
 O                    -6.149    -2.85     -0.34 
 O                    -4.676     3.938     0.629 
 O                    -0.212     3.097     0.596 
 C                    -2.111     4.875     0.912 
 H                    -1.54      4.931     1.84 
 H                    -1.5       5.299     0.111 
 H                    -3.05      5.414     1.003 
 C                    -4.206    -4.779    -0.625 
 H                    -3.759    -5.126    -1.559 
 H                    -3.775    -5.355     0.196 
 H                    -5.286    -4.897    -0.649 
 C                     0.876     0.482    -0.178 
 C                     1.574     1.49     -0.815 
 S                     1.997    -0.723     0.455 
 C                     2.97      1.308    -0.793 
 H                     1.088     2.336    -1.274 
 C                     3.393     0.152    -0.13 
 O                     3.902     2.133    -1.342 
 C                     4.741    -0.286     0.097 
 C                     3.448     3.37     -1.883 
 C                     5.16     -1.451     0.738 
 S                     6.151     0.63     -0.428 
 H                     4.344     3.909    -2.192 
 H                     2.802     3.209    -2.755 
 H                     2.905     3.956    -1.132 
 C                     6.574    -1.603     0.806 
 O                     4.229    -2.31      1.23 
 C                     7.229    -0.555     0.217 
 H                     7.078    -2.442     1.265 
 C                     4.686    -3.508     1.848 
 H                     8.298    -0.416     0.124 
 H                     5.299    -3.29      2.732 
 H                     3.792    -4.05      2.152 
 H                     5.264    -4.122     1.146 
 
 The following ModRedundant input section has been read:
 D       8       9      32      33 F                                           
 

 GradGradGradGradGradGradGradGradGradGradGradGradGradGradGradGradGradGrad
 Berny optimization.
 Initialization pass.
                           ----------------------------
                           !    Initial Parameters    !
                           ! (Angstroms and Degrees)  !
 --------------------------                            --------------------------
 ! Name  Definition              Value          Derivative Info.                !
 --------------------------------------------------------------------------------
 ! R1    R(1,2)                  1.4866         estimate D2E/DX2                !
 ! R2    R(1,19)                 1.4001         estimate D2E/DX2                !
 ! R3    R(1,20)                 1.2232         estimate D2E/DX2                !
 ! R4    R(2,3)                  1.4146         estimate D2E/DX2                !
 ! R5    R(2,6)                  1.372          estimate D2E/DX2                !
 ! R6    R(3,4)                  1.4123         estimate D2E/DX2                !
 ! R7    R(3,7)                  1.4244         estimate D2E/DX2                !
 ! R8    R(4,5)                  1.4872         estimate D2E/DX2                !
 ! R9    R(4,14)                 1.3874         estimate D2E/DX2                !
 ! R10   R(5,19)                 1.4053         estimate D2E/DX2                !
 ! R11   R(5,21)                 1.2218         estimate D2E/DX2                !
 ! R12   R(6,9)                  1.4301         estimate D2E/DX2                !
 ! R13   R(6,17)                 1.0837         estimate D2E/DX2                !
 ! R14   R(7,8)                  1.4314         estimate D2E/DX2                !
 ! R15   R(7,12)                 1.4199         estimate D2E/DX2                !
 ! R16   R(8,9)                  1.4217         estimate D2E/DX2                !
 ! R17   R(8,10)                 1.4882         estimate D2E/DX2                !
 ! R18   R(9,32)                 1.4624         estimate D2E/DX2                !
 ! R19   R(10,18)                1.4088         estimate D2E/DX2                !
 ! R20   R(10,23)                1.2245         estimate D2E/DX2                !
 ! R21   R(11,12)                1.4786         estimate D2E/DX2                !
 ! R22   R(11,18)                1.3962         estimate D2E/DX2                !
 ! R23   R(11,22)                1.2248         estimate D2E/DX2                !
 ! R24   R(12,13)                1.3888         estimate D2E/DX2                !
 ! R25   R(13,14)                1.4            estimate D2E/DX2                !
 ! R26   R(13,16)                1.0844         estimate D2E/DX2                !
 ! R27   R(14,15)                1.0834         estimate D2E/DX2                !
 ! R28   R(18,24)                1.4672         estimate D2E/DX2                !
 ! R29   R(19,28)                1.4672         estimate D2E/DX2                !
 ! R30   R(24,25)                1.091          estimate D2E/DX2                !
 ! R31   R(24,26)                1.093          estimate D2E/DX2                !
 ! R32   R(24,27)                1.0865         estimate D2E/DX2                !
 ! R33   R(28,29)                1.0921         estimate D2E/DX2                !
 ! R34   R(28,30)                1.0916         estimate D2E/DX2                !
 ! R35   R(28,31)                1.0867         estimate D2E/DX2                !
 ! R36   R(32,33)                1.3817         estimate D2E/DX2                !
 ! R37   R(32,34)                1.7633         estimate D2E/DX2                !
 ! R38   R(33,35)                1.408          estimate D2E/DX2                !
 ! R39   R(33,36)                1.0782         estimate D2E/DX2                !
 ! R40   R(34,37)                1.7483         estimate D2E/DX2                !
 ! R41   R(35,37)                1.3982         estimate D2E/DX2                !
 ! R42   R(35,38)                1.3604         estimate D2E/DX2                !
 ! R43   R(37,39)                1.4354         estimate D2E/DX2                !
 ! R44   R(38,40)                1.4244         estimate D2E/DX2                !
 ! R45   R(39,41)                1.3942         estimate D2E/DX2                !
 ! R46   R(39,42)                1.7615         estimate D2E/DX2                !
 ! R47   R(40,43)                1.0903         estimate D2E/DX2                !
 ! R48   R(40,44)                1.0971         estimate D2E/DX2                !
 ! R49   R(40,45)                1.0965         estimate D2E/DX2                !
 ! R50   R(41,46)                1.4238         estimate D2E/DX2                !
 ! R51   R(41,47)                1.3589         estimate D2E/DX2                !
 ! R52   R(42,48)                1.7269         estimate D2E/DX2                !
 ! R53   R(46,48)                1.369          estimate D2E/DX2                !
 ! R54   R(46,49)                1.081          estimate D2E/DX2                !
 ! R55   R(47,50)                1.4234         estimate D2E/DX2                !
 ! R56   R(48,51)                1.082          estimate D2E/DX2                !
 ! R57   R(50,52)                1.0976         estimate D2E/DX2                !
 ! R58   R(50,53)                1.0888         estimate D2E/DX2                !
 ! R59   R(50,54)                1.0972         estimate D2E/DX2                !
 ! A1    A(2,1,19)             116.767          estimate D2E/DX2                !
 ! A2    A(2,1,20)             122.9113         estimate D2E/DX2                !
 ! A3    A(19,1,20)            120.3217         estimate D2E/DX2                !
 ! A4    A(1,2,3)              120.5473         estimate D2E/DX2                !
 ! A5    A(1,2,6)              119.3369         estimate D2E/DX2                !
 ! A6    A(3,2,6)              120.1056         estimate D2E/DX2                !
 ! A7    A(2,3,4)              120.3743         estimate D2E/DX2                !
 ! A8    A(2,3,7)              118.662          estimate D2E/DX2                !
 ! A9    A(4,3,7)              120.9617         estimate D2E/DX2                !
 ! A10   A(3,4,5)              120.4909         estimate D2E/DX2                !
 ! A11   A(3,4,14)             120.2702         estimate D2E/DX2                !
 ! A12   A(5,4,14)             119.2382         estimate D2E/DX2                !
 ! A13   A(4,5,19)             116.7341         estimate D2E/DX2                !
 ! A14   A(4,5,21)             122.024          estimate D2E/DX2                !
 ! A15   A(19,5,21)            121.2418         estimate D2E/DX2                !
 ! A16   A(2,6,9)              123.2421         estimate D2E/DX2                !
 ! A17   A(2,6,17)             117.1119         estimate D2E/DX2                !
 ! A18   A(9,6,17)             119.589          estimate D2E/DX2                !
 ! A19   A(3,7,8)              120.9519         estimate D2E/DX2                !
 ! A20   A(3,7,12)             117.1037         estimate D2E/DX2                !
 ! A21   A(8,7,12)             121.944          estimate D2E/DX2                !
 ! A22   A(7,8,9)              119.5639         estimate D2E/DX2                !
 ! A23   A(7,8,10)             117.3064         estimate D2E/DX2                !
 ! A24   A(9,8,10)             122.9922         estimate D2E/DX2                !
 ! A25   A(6,9,8)              117.3944         estimate D2E/DX2                !
 ! A26   A(6,9,32)             115.0236         estimate D2E/DX2                !
 ! A27   A(8,9,32)             127.5648         estimate D2E/DX2                !
 ! A28   A(8,10,18)            118.042          estimate D2E/DX2                !
 ! A29   A(8,10,23)            124.5436         estimate D2E/DX2                !
 ! A30   A(18,10,23)           117.4097         estimate D2E/DX2                !
 ! A31   A(12,11,18)           115.5202         estimate D2E/DX2                !
 ! A32   A(12,11,22)           122.7205         estimate D2E/DX2                !
 ! A33   A(18,11,22)           121.7534         estimate D2E/DX2                !
 ! A34   A(7,12,11)            120.8614         estimate D2E/DX2                !
 ! A35   A(7,12,13)            121.162          estimate D2E/DX2                !
 ! A36   A(11,12,13)           117.9699         estimate D2E/DX2                !
 ! A37   A(12,13,14)           120.9948         estimate D2E/DX2                !
 ! A38   A(12,13,16)           117.8401         estimate D2E/DX2                !
 ! A39   A(14,13,16)           121.1642         estimate D2E/DX2                !
 ! A40   A(4,14,13)            119.5003         estimate D2E/DX2                !
 ! A41   A(4,14,15)            118.9169         estimate D2E/DX2                !
 ! A42   A(13,14,15)           121.5811         estimate D2E/DX2                !
 ! A43   A(10,18,11)           126.0753         estimate D2E/DX2                !
 ! A44   A(10,18,24)           115.7508         estimate D2E/DX2                !
 ! A45   A(11,18,24)           118.1737         estimate D2E/DX2                !
 ! A46   A(1,19,5)             125.0856         estimate D2E/DX2                !
 ! A47   A(1,19,28)            116.2868         estimate D2E/DX2                !
 ! A48   A(5,19,28)            118.6276         estimate D2E/DX2                !
 ! A49   A(18,24,25)           109.8574         estimate D2E/DX2                !
 ! A50   A(18,24,26)           109.8979         estimate D2E/DX2                !
 ! A51   A(18,24,27)           107.5355         estimate D2E/DX2                !
 ! A52   A(25,24,26)           108.1108         estimate D2E/DX2                !
 ! A53   A(25,24,27)           110.8301         estimate D2E/DX2                !
 ! A54   A(26,24,27)           110.6124         estimate D2E/DX2                !
 ! A55   A(19,28,29)           109.6906         estimate D2E/DX2                !
 ! A56   A(19,28,30)           109.8136         estimate D2E/DX2                !
 ! A57   A(19,28,31)           107.7461         estimate D2E/DX2                !
 ! A58   A(29,28,30)           108.2991         estimate D2E/DX2                !
 ! A59   A(29,28,31)           110.6959         estimate D2E/DX2                !
 ! A60   A(30,28,31)           110.5924         estimate D2E/DX2                !
 ! A61   A(9,32,33)            130.8839         estimate D2E/DX2                !
 ! A62   A(9,32,34)            118.8051         estimate D2E/DX2                !
 ! A63   A(33,32,34)           110.053          estimate D2E/DX2                !
 ! A64   A(32,33,35)           113.5391         estimate D2E/DX2                !
 ! A65   A(32,33,36)           122.7496         estimate D2E/DX2                !
 ! A66   A(35,33,36)           123.7088         estimate D2E/DX2                !
 ! A67   A(32,34,37)            92.6072         estimate D2E/DX2                !
 ! A68   A(33,35,37)           114.4721         estimate D2E/DX2                !
 ! A69   A(33,35,38)           126.4821         estimate D2E/DX2                !
 ! A70   A(37,35,38)           119.0458         estimate D2E/DX2                !
 ! A71   A(34,37,35)           109.323          estimate D2E/DX2                !
 ! A72   A(34,37,39)           122.9708         estimate D2E/DX2                !
 ! A73   A(35,37,39)           127.69           estimate D2E/DX2                !
 ! A74   A(35,38,40)           117.4883         estimate D2E/DX2                !
 ! A75   A(37,39,41)           127.5839         estimate D2E/DX2                !
 ! A76   A(37,39,42)           123.0862         estimate D2E/DX2                !
 ! A77   A(41,39,42)           109.3299         estimate D2E/DX2                !
 ! A78   A(38,40,43)           105.9632         estimate D2E/DX2                !
 ! A79   A(38,40,44)           111.2299         estimate D2E/DX2                !
 ! A80   A(38,40,45)           111.2125         estimate D2E/DX2                !
 ! A81   A(43,40,44)           109.3399         estimate D2E/DX2                !
 ! A82   A(43,40,45)           109.6863         estimate D2E/DX2                !
 ! A83   A(44,40,45)           109.3431         estimate D2E/DX2                !
 ! A84   A(39,41,46)           114.1827         estimate D2E/DX2                !
 ! A85   A(39,41,47)           119.2601         estimate D2E/DX2                !
 ! A86   A(46,41,47)           126.5567         estimate D2E/DX2                !
 ! A87   A(39,42,48)            91.8065         estimate D2E/DX2                !
 ! A88   A(41,46,48)           111.8936         estimate D2E/DX2                !
 ! A89   A(41,46,49)           124.4829         estimate D2E/DX2                !
 ! A90   A(48,46,49)           123.6235         estimate D2E/DX2                !
 ! A91   A(41,47,50)           117.9862         estimate D2E/DX2                !
 ! A92   A(42,48,46)           112.7872         estimate D2E/DX2                !
 ! A93   A(42,48,51)           119.7667         estimate D2E/DX2                !
 ! A94   A(46,48,51)           127.4458         estimate D2E/DX2                !
 ! A95   A(47,50,52)           111.2126         estimate D2E/DX2                !
 ! A96   A(47,50,53)           106.0565         estimate D2E/DX2                !
 ! A97   A(47,50,54)           111.244          estimate D2E/DX2                !
 ! A98   A(52,50,53)           109.4252         estimate D2E/DX2                !
 ! A99   A(52,50,54)           109.404          estimate D2E/DX2                !
 ! A100  A(53,50,54)           109.4278         estimate D2E/DX2                !
 ! D1    D(19,1,2,3)             0.1578         estimate D2E/DX2                !
 ! D2    D(19,1,2,6)          -178.6792         estimate D2E/DX2                !
 ! D3    D(20,1,2,3)          -179.8231         estimate D2E/DX2                !
 ! D4    D(20,1,2,6)             1.3399         estimate D2E/DX2                !
 ! D5    D(2,1,19,5)            -0.124          estimate D2E/DX2                !
 ! D6    D(2,1,19,28)          179.8267         estimate D2E/DX2                !
 ! D7    D(20,1,19,5)          179.8575         estimate D2E/DX2                !
 ! D8    D(20,1,19,28)          -0.1919         estimate D2E/DX2                !
 ! D9    D(1,2,3,4)              0.0571         estimate D2E/DX2                !
 ! D10   D(1,2,3,7)            179.5453         estimate D2E/DX2                !
 ! D11   D(6,2,3,4)            178.8851         estimate D2E/DX2                !
 ! D12   D(6,2,3,7)             -1.6266         estimate D2E/DX2                !
 ! D13   D(1,2,6,9)            178.625          estimate D2E/DX2                !
 ! D14   D(1,2,6,17)             1.3881         estimate D2E/DX2                !
 ! D15   D(3,2,6,9)             -0.2173         estimate D2E/DX2                !
 ! D16   D(3,2,6,17)          -177.4541         estimate D2E/DX2                !
 ! D17   D(2,3,4,5)             -0.3074         estimate D2E/DX2                !
 ! D18   D(2,3,4,14)           179.3968         estimate D2E/DX2                !
 ! D19   D(7,3,4,5)           -179.7837         estimate D2E/DX2                !
 ! D20   D(7,3,4,14)            -0.0795         estimate D2E/DX2                !
 ! D21   D(2,3,7,8)              1.0523         estimate D2E/DX2                !
 ! D22   D(2,3,7,12)          -178.712          estimate D2E/DX2                !
 ! D23   D(4,3,7,8)           -179.4626         estimate D2E/DX2                !
 ! D24   D(4,3,7,12)             0.7731         estimate D2E/DX2                !
 ! D25   D(3,4,5,19)             0.3343         estimate D2E/DX2                !
 ! D26   D(3,4,5,21)          -179.7799         estimate D2E/DX2                !
 ! D27   D(14,4,5,19)         -179.3729         estimate D2E/DX2                !
 ! D28   D(14,4,5,21)            0.5129         estimate D2E/DX2                !
 ! D29   D(3,4,14,13)           -0.4559         estimate D2E/DX2                !
 ! D30   D(3,4,14,15)         -179.9937         estimate D2E/DX2                !
 ! D31   D(5,4,14,13)          179.252          estimate D2E/DX2                !
 ! D32   D(5,4,14,15)           -0.2858         estimate D2E/DX2                !
 ! D33   D(4,5,19,1)            -0.1141         estimate D2E/DX2                !
 ! D34   D(4,5,19,28)          179.9364         estimate D2E/DX2                !
 ! D35   D(21,5,19,1)          179.9992         estimate D2E/DX2                !
 ! D36   D(21,5,19,28)           0.0496         estimate D2E/DX2                !
 ! D37   D(2,6,9,8)              2.5984         estimate D2E/DX2                !
 ! D38   D(2,6,9,32)          -176.0103         estimate D2E/DX2                !
 ! D39   D(17,6,9,8)           179.77           estimate D2E/DX2                !
 ! D40   D(17,6,9,32)            1.1613         estimate D2E/DX2                !
 ! D41   D(3,7,8,9)              1.3551         estimate D2E/DX2                !
 ! D42   D(3,7,8,10)          -174.5099         estimate D2E/DX2                !
 ! D43   D(12,7,8,9)          -178.8921         estimate D2E/DX2                !
 ! D44   D(12,7,8,10)            5.2428         estimate D2E/DX2                !
 ! D45   D(3,7,12,11)          178.0768         estimate D2E/DX2                !
 ! D46   D(3,7,12,13)           -0.9621         estimate D2E/DX2                !
 ! D47   D(8,7,12,11)           -1.685          estimate D2E/DX2                !
 ! D48   D(8,7,12,13)          179.2761         estimate D2E/DX2                !
 ! D49   D(7,8,9,6)             -3.0809         estimate D2E/DX2                !
 ! D50   D(7,8,9,32)           175.3285         estimate D2E/DX2                !
 ! D51   D(10,8,9,6)           172.5381         estimate D2E/DX2                !
 ! D52   D(10,8,9,32)           -9.0525         estimate D2E/DX2                !
 ! D53   D(7,8,10,18)           -4.7549         estimate D2E/DX2                !
 ! D54   D(7,8,10,23)          174.4235         estimate D2E/DX2                !
 ! D55   D(9,8,10,18)          179.5335         estimate D2E/DX2                !
 ! D56   D(9,8,10,23)           -1.2882         estimate D2E/DX2                !
 ! D57   D(6,9,32,33)          138.4239         estimate D2E/DX2                !
 ! D58   D(6,9,32,34)          -35.1016         estimate D2E/DX2                !
 ! D59   D(8,9,32,33)          -40.0176         Frozen                          !
 ! D60   D(8,9,32,34)          146.4569         estimate D2E/DX2                !
 ! D61   D(8,10,18,11)           0.7189         estimate D2E/DX2                !
 ! D62   D(8,10,18,24)        -179.4089         estimate D2E/DX2                !
 ! D63   D(23,10,18,11)       -178.5188         estimate D2E/DX2                !
 ! D64   D(23,10,18,24)          1.3535         estimate D2E/DX2                !
 ! D65   D(18,11,12,7)          -2.3856         estimate D2E/DX2                !
 ! D66   D(18,11,12,13)        176.6833         estimate D2E/DX2                !
 ! D67   D(22,11,12,7)         178.4862         estimate D2E/DX2                !
 ! D68   D(22,11,12,13)         -2.445          estimate D2E/DX2                !
 ! D69   D(12,11,18,10)          2.8444         estimate D2E/DX2                !
 ! D70   D(12,11,18,24)       -177.0251         estimate D2E/DX2                !
 ! D71   D(22,11,18,10)       -178.0181         estimate D2E/DX2                !
 ! D72   D(22,11,18,24)          2.1124         estimate D2E/DX2                !
 ! D73   D(7,12,13,14)           0.461          estimate D2E/DX2                !
 ! D74   D(7,12,13,16)        -179.8781         estimate D2E/DX2                !
 ! D75   D(11,12,13,14)       -178.6049         estimate D2E/DX2                !
 ! D76   D(11,12,13,16)          1.056          estimate D2E/DX2                !
 ! D77   D(12,13,14,4)           0.2708         estimate D2E/DX2                !
 ! D78   D(12,13,14,15)        179.7958         estimate D2E/DX2                !
 ! D79   D(16,13,14,4)        -179.3788         estimate D2E/DX2                !
 ! D80   D(16,13,14,15)          0.1463         estimate D2E/DX2                !
 ! D81   D(10,18,24,25)        -59.609          estimate D2E/DX2                !
 ! D82   D(10,18,24,26)         59.2209         estimate D2E/DX2                !
 ! D83   D(10,18,24,27)        179.6858         estimate D2E/DX2                !
 ! D84   D(11,18,24,25)        120.2739         estimate D2E/DX2                !
 ! D85   D(11,18,24,26)       -120.8962         estimate D2E/DX2                !
 ! D86   D(11,18,24,27)         -0.4313         estimate D2E/DX2                !
 ! D87   D(1,19,28,29)         -58.1407         estimate D2E/DX2                !
 ! D88   D(1,19,28,30)          60.7668         estimate D2E/DX2                !
 ! D89   D(1,19,28,31)        -178.7139         estimate D2E/DX2                !
 ! D90   D(5,19,28,29)         121.8132         estimate D2E/DX2                !
 ! D91   D(5,19,28,30)        -119.2792         estimate D2E/DX2                !
 ! D92   D(5,19,28,31)           1.2401         estimate D2E/DX2                !
 ! D93   D(9,32,33,35)        -174.2298         estimate D2E/DX2                !
 ! D94   D(9,32,33,36)           6.3205         estimate D2E/DX2                !
 ! D95   D(34,32,33,35)         -0.2676         estimate D2E/DX2                !
 ! D96   D(34,32,33,36)       -179.7174         estimate D2E/DX2                !
 ! D97   D(9,32,34,37)         175.3544         estimate D2E/DX2                !
 ! D98   D(33,32,34,37)          0.5614         estimate D2E/DX2                !
 ! D99   D(32,33,35,37)         -0.2805         estimate D2E/DX2                !
 ! D100  D(32,33,35,38)        179.7476         estimate D2E/DX2                !
 ! D101  D(36,33,35,37)        179.1632         estimate D2E/DX2                !
 ! D102  D(36,33,35,38)         -0.8087         estimate D2E/DX2                !
 ! D103  D(32,34,37,35)         -0.7035         estimate D2E/DX2                !
 ! D104  D(32,34,37,39)        177.9318         estimate D2E/DX2                !
 ! D105  D(33,35,37,34)          0.6907         estimate D2E/DX2                !
 ! D106  D(33,35,37,39)       -177.8624         estimate D2E/DX2                !
 ! D107  D(38,35,37,34)       -179.3351         estimate D2E/DX2                !
 ! D108  D(38,35,37,39)          2.1118         estimate D2E/DX2                !
 ! D109  D(33,35,38,40)          6.534          estimate D2E/DX2                !
 ! D110  D(37,35,38,40)       -173.4368         estimate D2E/DX2                !
 ! D111  D(34,37,39,41)          2.852          estimate D2E/DX2                !
 ! D112  D(34,37,39,42)       -177.1668         estimate D2E/DX2                !
 ! D113  D(35,37,39,41)       -178.7755         estimate D2E/DX2                !
 ! D114  D(35,37,39,42)          1.2057         estimate D2E/DX2                !
 ! D115  D(35,38,40,43)        175.4575         estimate D2E/DX2                !
 ! D116  D(35,38,40,44)        -65.8142         estimate D2E/DX2                !
 ! D117  D(35,38,40,45)         56.3225         estimate D2E/DX2                !
 ! D118  D(37,39,41,46)       -179.9866         estimate D2E/DX2                !
 ! D119  D(37,39,41,47)         -0.2025         estimate D2E/DX2                !
 ! D120  D(42,39,41,46)          0.0301         estimate D2E/DX2                !
 ! D121  D(42,39,41,47)        179.8143         estimate D2E/DX2                !
 ! D122  D(37,39,42,48)        179.9907         estimate D2E/DX2                !
 ! D123  D(41,39,42,48)         -0.0251         estimate D2E/DX2                !
 ! D124  D(39,41,46,48)         -0.02           estimate D2E/DX2                !
 ! D125  D(39,41,46,49)       -179.9829         estimate D2E/DX2                !
 ! D126  D(47,41,46,48)       -179.7856         estimate D2E/DX2                !
 ! D127  D(47,41,46,49)          0.2515         estimate D2E/DX2                !
 ! D128  D(39,41,47,50)        178.3764         estimate D2E/DX2                !
 ! D129  D(46,41,47,50)         -1.8687         estimate D2E/DX2                !
 ! D130  D(39,42,48,46)          0.0147         estimate D2E/DX2                !
 ! D131  D(39,42,48,51)        179.8259         estimate D2E/DX2                !
 ! D132  D(41,46,48,42)         -0.0002         estimate D2E/DX2                !
 ! D133  D(41,46,48,51)       -179.7938         estimate D2E/DX2                !
 ! D134  D(49,46,48,42)        179.963          estimate D2E/DX2                !
 ! D135  D(49,46,48,51)          0.1695         estimate D2E/DX2                !
 ! D136  D(41,47,50,52)         62.0092         estimate D2E/DX2                !
 ! D137  D(41,47,50,53)       -179.1134         estimate D2E/DX2                !
 ! D138  D(41,47,50,54)        -60.2157         estimate D2E/DX2                !
 --------------------------------------------------------------------------------
 Trust Radius=3.00D-01 FncErr=1.00D-07 GrdErr=1.00D-06 EigMax=2.50D+02 EigMin=1.00D-04
 Number of steps in this run=    307 maximum allowed number of steps=    324.
 GradGradGradGradGradGradGradGradGradGradGradGradGradGradGradGradGradGrad

 Stoichiometry    C26H18N2O6S2(2-)
 Framework group  C1[X(C26H18N2O6S2)]
 Deg. of freedom   156
 Full point group                 C1      NOp   1
 Largest Abelian subgroup         C1      NOp   1
 Largest concise Abelian subgroup C1      NOp   1
                         Standard orientation:                         
 ---------------------------------------------------------------------
 Center     Atomic      Atomic             Coordinates (Angstroms)
 Number     Number       Type             X           Y           Z
 ---------------------------------------------------------------------
      1          6           0        2.583379   -2.984229    0.449323
      2          6           0        2.267910   -1.545266    0.249389
      3          6           0        3.305450   -0.597656    0.086598
      4          6           0        4.656904   -1.007172    0.110733
      5          6           0        5.008365   -2.437898    0.314219
      6          6           0        0.957691   -1.138248    0.247892
      7          6           0        2.957368    0.769142   -0.112123
      8          6           0        1.587983    1.185701   -0.125173
      9          6           0        0.561026    0.226817    0.091665
     10          6           0        1.310268    2.608149   -0.463280
     11          6           0        3.755859    3.119124   -0.555135
     12          6           0        4.023820    1.687595   -0.299831
     13          6           0        5.347387    1.268008   -0.269302
     14          6           0        5.672444   -0.077800   -0.061621
     15          1           0        6.701489   -0.416054   -0.039279
     16          1           0        6.119102    2.015366   -0.417044
     17          1           0        0.204265   -1.898225    0.418619
     18          7           0        2.408051    3.471818   -0.646606
     19          7           0        3.938494   -3.335767    0.469700
     20          8           0        1.721170   -3.840152    0.591286
     21          8           0        6.167731   -2.822369    0.343887
     22          8           0        4.649245    3.945237   -0.695026
     23          8           0        0.190325    3.081406   -0.608447
     24          6           0        2.076676    4.865224   -0.964833
     25          1           0        1.496504    4.906669   -1.887895
     26          1           0        1.471136    5.295978   -0.163291
     27          1           0        3.011866    5.407946   -1.071588
     28          6           0        4.237892   -4.757791    0.671577
     29          1           0        3.801738   -5.095452    1.614089
     30          1           0        3.802115   -5.346224   -0.138005
     31          1           0        5.318687   -4.869839    0.686601
     32          6           0       -0.876206    0.470609    0.208436
     33          6           0       -1.573436    1.482811    0.839589
     34         16           0       -1.996775   -0.748028   -0.398693
     35          6           0       -2.968590    1.293261    0.833343
     36          1           0       -1.087580    2.336994    1.283333
     37          6           0       -3.391751    0.126892    0.188864
     38          8           0       -3.899673    2.120160    1.381041
     39          6           0       -4.739508   -0.320939   -0.019643
     40          6           0       -3.447117    3.366162    1.902229
     41          6           0       -5.158410   -1.496012   -0.642051
     42         16           0       -6.149279    0.594155    0.507548
     43          1           0       -4.342978    3.904284    2.213159
     44          1           0       -2.791926    3.219421    2.769877
     45          1           0       -2.914490    3.945584    1.138800
     46          6           0       -6.572165   -1.656232   -0.694490
     47          8           0       -4.227599   -2.356203   -1.132324
     48          6           0       -7.227072   -0.604408   -0.112243
     49          1           0       -7.076057   -2.503510   -1.138147
     50          6           0       -4.684101   -3.564184   -1.730959
     51          1           0       -8.295858   -0.469846   -0.010649
     52          1           0       -5.306715   -3.360426   -2.611631
     53          1           0       -3.790177   -4.105254   -2.036833
     54          1           0       -5.252047   -4.172397   -1.015837
 ---------------------------------------------------------------------
 Rotational constants (GHZ):           0.1535524           0.0587312           0.0445036
 Standard basis: 6-311+G(d,p) (5D, 7F)
 There are   952 symmetry adapted cartesian basis functions of A   symmetry.
 There are   916 symmetry adapted basis functions of A   symmetry.
   916 basis functions,  1468 primitive gaussians,   952 cartesian basis functions
   135 alpha electrons      135 beta electrons
       nuclear repulsion energy      4082.4937826254 Hartrees.
 NAtoms=   54 NActive=   54 NUniq=   54 SFac= 1.00D+00 NAtFMM=   60 NAOKFM=F Big=F
 Integral buffers will be    131072 words long.
 Raffenetti 2 integral format.
 Two-electron integral symmetry is turned on.
 One-electron integrals computed using PRISM.
 NBasis=   916 RedAO= T EigKep=  1.63D-06  NBF=   916
 NBsUse=   901 1.00D-06 EigRej=  9.23D-07 NBFU=   901
 ExpMin= 4.05D-02 ExpMax= 9.34D+04 ExpMxC= 3.17D+03 IAcc=3 IRadAn=         5 AccDes= 0.00D+00
 Harris functional with IExCor=  402 and IRadAn=       5 diagonalized for initial guess.
 HarFok:  IExCor=  402 AccDes= 0.00D+00 IRadAn=         5 IDoV= 1 UseB2=F ITyADJ=14
 ICtDFT=  3500011 ScaDFX=  1.000000  1.000000  1.000000  1.000000
 FoFCou: FMM=F IPFlag=           0 FMFlag=      100000 FMFlg1=           0
         NFxFlg=           0 DoJE=T BraDBF=F KetDBF=T FulRan=T
         wScrn=  0.000000 ICntrl=       500 IOpCl=  0 I1Cent=   200000004 NGrid=           0
         NMat0=    1 NMatS0=      1 NMatT0=    0 NMatD0=    1 NMtDS0=    0 NMtDT0=    0
 Petite list used in FoFCou.
 Requested convergence on RMS density matrix=1.00D-08 within 128 cycles.
 Requested convergence on MAX density matrix=1.00D-06.
 Requested convergence on             energy=1.00D-06.
 No special actions if energy rises.
 EnCoef did     9 forward-backward iterations
 EnCoef did   100 forward-backward iterations
 EnCoef did     5 forward-backward iterations
 Restarting incremental Fock formation.
 SCF Done:  E(RB3LYP) =  -2359.38149512     A.U. after   23 cycles
            NFock= 23  Conv=0.37D-08     -V/T= 2.0029

 **********************************************************************

            Population analysis using the SCF Density.

 **********************************************************************

 Orbital symmetries:
       Occupied  (A) (A) (A) (A) (A) (A) (A) (A) (A) (A) (A) (A)
                 (A) (A) (A) (A) (A) (A) (A) (A) (A) (A) (A) (A)
                 (A) (A) (A) (A) (A) (A) (A) (A) (A) (A) (A) (A)
                 (A) (A) (A) (A) (A) (A) (A) (A) (A) (A) (A) (A)
                 (A) (A) (A) (A) (A) (A) (A) (A) (A) (A) (A) (A)
                 (A) (A) (A) (A) (A) (A) (A) (A) (A) (A) (A) (A)
                 (A) (A) (A) (A) (A) (A) (A) (A) (A) (A) (A) (A)
                 (A) (A) (A) (A) (A) (A) (A) (A) (A) (A) (A) (A)
                 (A) (A) (A) (A) (A) (A) (A) (A) (A) (A) (A) (A)
                 (A) (A) (A) (A) (A) (A) (A) (A) (A) (A) (A) (A)
                 (A) (A) (A) (A) (A) (A) (A) (A) (A) (A) (A) (A)
                 (A) (A) (A)
       Virtual   (A) (A) (A) (A) (A) (A) (A) (A) (A) (A) (A) (A)
                 (A) (A) (A) (A) (A) (A) (A) (A) (A) (A) (A) (A)
                 (A) (A) (A) (A) (A) (A) (A) (A) (A) (A) (A) (A)
                 (A) (A) (A) (A) (A) (A) (A) (A) (A) (A) (A) (A)
                 (A) (A) (A) (A) (A) (A) (A) (A) (A) (A) (A) (A)
                 (A) (A) (A) (A) (A) (A) (A) (A) (A) (A) (A) (A)
                 (A) (A) (A) (A) (A) (A) (A) (A) (A) (A) (A) (A)
                 (A) (A) (A) (A) (A) (A) (A) (A) (A) (A) (A) (A)
                 (A) (A) (A) (A) (A) (A) (A) (A) (A) (A) (A) (A)
                 (A) (A) (A) (A) (A) (A) (A) (A) (A) (A) (A) (A)
                 (A) (A) (A) (A) (A) (A) (A) (A) (A) (A) (A) (A)
                 (A) (A) (A) (A) (A) (A) (A) (A) (A) (A) (A) (A)
                 (A) (A) (A) (A) (A) (A) (A) (A) (A) (A) (A) (A)
                 (A) (A) (A) (A) (A) (A) (A) (A) (A) (A) (A) (A)
                 (A) (A) (A) (A) (A) (A) (A) (A) (A) (A) (A) (A)
                 (A) (A) (A) (A) (A) (A) (A) (A) (A) (A) (A) (A)
                 (A) (A) (A) (A) (A) (A) (A) (A) (A) (A) (A) (A)
                 (A) (A) (A) (A) (A) (A) (A) (A) (A) (A) (A) (A)
                 (A) (A) (A) (A) (A) (A) (A) (A) (A) (A) (A) (A)
                 (A) (A) (A) (A) (A) (A) (A) (A) (A) (A) (A) (A)
                 (A) (A) (A) (A) (A) (A) (A) (A) (A) (A) (A) (A)
                 (A) (A) (A) (A) (A) (A) (A) (A) (A) (A) (A) (A)
                 (A) (A) (A) (A) (A) (A) (A) (A) (A) (A) (A) (A)
                 (A) (A) (A) (A) (A) (A) (A) (A) (A) (A) (A) (A)
                 (A) (A) (A) (A) (A) (A) (A) (A) (A) (A) (A) (A)
                 (A) (A) (A) (A) (A) (A) (A) (A) (A) (A) (A) (A)
                 (A) (A) (A) (A) (A) (A) (A) (A) (A) (A) (A) (A)
                 (A) (A) (A) (A) (A) (A) (A) (A) (A) (A) (A) (A)
                 (A) (A) (A) (A) (A) (A) (A) (A) (A) (A) (A) (A)
                 (A) (A) (A) (A) (A) (A) (A) (A) (A) (A) (A) (A)
                 (A) (A) (A) (A) (A) (A) (A) (A) (A) (A) (A) (A)
                 (A) (A) (A) (A) (A) (A) (A) (A) (A) (A) (A) (A)
                 (A) (A) (A) (A) (A) (A) (A) (A) (A) (A) (A) (A)
                 (A) (A) (A) (A) (A) (A) (A) (A) (A) (A) (A) (A)
                 (A) (A) (A) (A) (A) (A) (A) (A) (A) (A) (A) (A)
                 (A) (A) (A) (A) (A) (A) (A) (A) (A) (A) (A) (A)
                 (A) (A) (A) (A) (A) (A) (A) (A) (A) (A) (A) (A)
                 (A) (A) (A) (A) (A) (A) (A) (A) (A) (A) (A) (A)
                 (A) (A) (A) (A) (A) (A) (A) (A) (A) (A) (A) (A)
                 (A) (A) (A) (A) (A) (A) (A) (A) (A) (A) (A) (A)
                 (A) (A) (A) (A) (A) (A) (A) (A) (A) (A) (A) (A)
                 (A) (A) (A) (A) (A) (A) (A) (A) (A) (A) (A) (A)
                 (A) (A) (A) (A) (A) (A) (A) (A) (A) (A) (A) (A)
                 (A) (A) (A) (A) (A) (A) (A) (A) (A) (A) (A) (A)
                 (A) (A) (A) (A) (A) (A) (A) (A) (A) (A) (A) (A)
                 (A) (A) (A) (A) (A) (A) (A) (A) (A) (A) (A) (A)
                 (A) (A) (A) (A) (A) (A) (A) (A) (A) (A) (A) (A)
                 (A) (A) (A) (A) (A) (A) (A) (A) (A) (A) (A) (A)
                 (A) (A) (A) (A) (A) (A) (A) (A) (A) (A) (A) (A)
                 (A) (A) (A) (A) (A) (A) (A) (A) (A) (A) (A) (A)
                 (A) (A) (A) (A) (A) (A) (A) (A) (A) (A) (A) (A)
                 (A) (A) (A) (A) (A) (A) (A) (A) (A) (A) (A) (A)
                 (A) (A) (A) (A) (A) (A) (A) (A) (A) (A) (A) (A)
                 (A) (A) (A) (A) (A) (A) (A) (A) (A) (A) (A) (A)
                 (A) (A) (A) (A) (A) (A) (A) (A) (A) (A) (A) (A)
                 (A) (A) (A) (A) (A) (A) (A) (A) (A) (A) (A) (A)
                 (A) (A) (A) (A) (A) (A) (A) (A) (A) (A) (A) (A)
                 (A) (A) (A) (A) (A) (A) (A) (A) (A) (A) (A) (A)
                 (A) (A) (A) (A) (A) (A) (A) (A) (A) (A) (A) (A)
                 (A) (A) (A) (A) (A) (A) (A) (A) (A) (A) (A) (A)
                 (A) (A) (A) (A) (A) (A) (A) (A) (A) (A) (A) (A)
                 (A) (A) (A) (A) (A) (A) (A) (A) (A) (A) (A) (A)
                 (A) (A) (A) (A) (A) (A) (A) (A) (A) (A) (A) (A)
                 (A) (A) (A) (A) (A) (A) (A) (A) (A) (A)
 The electronic state is 1-A.
 Alpha  occ. eigenvalues --  -88.70733 -88.66932 -18.99636 -18.98895 -18.87909
 Alpha  occ. eigenvalues --  -18.87496 -18.86844 -18.86096 -14.15516 -14.14553
 Alpha  occ. eigenvalues --  -10.08459 -10.07022 -10.06088 -10.06076 -10.05718
 Alpha  occ. eigenvalues --  -10.05002 -10.04781 -10.04666 -10.03735 -10.02881
 Alpha  occ. eigenvalues --  -10.02051 -10.01334 -10.00827 -10.00658 -10.00449
 Alpha  occ. eigenvalues --   -9.97352  -9.97344  -9.97154  -9.97063  -9.95805
 Alpha  occ. eigenvalues --   -9.95465  -9.95461  -9.95187  -9.95072  -9.94903
 Alpha  occ. eigenvalues --   -9.94877  -7.79314  -7.75538  -5.75625  -5.75253
 Alpha  occ. eigenvalues --   -5.74869  -5.71870  -5.71480  -5.71052  -0.91334
 Alpha  occ. eigenvalues --   -0.90352  -0.84431  -0.83476  -0.82346  -0.81302
 Alpha  occ. eigenvalues --   -0.72686  -0.71638  -0.71580  -0.68425  -0.66376
 Alpha  occ. eigenvalues --   -0.61499  -0.59870  -0.59020  -0.58477  -0.57120
 Alpha  occ. eigenvalues --   -0.54771  -0.53790  -0.52724  -0.52476  -0.52044
 Alpha  occ. eigenvalues --   -0.50452  -0.49098  -0.46015  -0.43574  -0.42184
 Alpha  occ. eigenvalues --   -0.41889  -0.41527  -0.40114  -0.39734  -0.38781
 Alpha  occ. eigenvalues --   -0.36594  -0.35991  -0.33594  -0.33453  -0.32492
 Alpha  occ. eigenvalues --   -0.31624  -0.31083  -0.30931  -0.30679  -0.29379
 Alpha  occ. eigenvalues --   -0.28697  -0.28389  -0.27755  -0.26878  -0.26646
 Alpha  occ. eigenvalues --   -0.25930  -0.25308  -0.24951  -0.24907  -0.23802
 Alpha  occ. eigenvalues --   -0.23489  -0.23318  -0.22245  -0.22010  -0.21261
 Alpha  occ. eigenvalues --   -0.21132  -0.20822  -0.20405  -0.20257  -0.19687
 Alpha  occ. eigenvalues --   -0.19527  -0.19234  -0.18829  -0.18725  -0.18333
 Alpha  occ. eigenvalues --   -0.17873  -0.17255  -0.17118  -0.16859  -0.15782
 Alpha  occ. eigenvalues --   -0.15632  -0.14678  -0.14615  -0.13662  -0.12075
 Alpha  occ. eigenvalues --   -0.11023  -0.09391  -0.07546  -0.06940  -0.06844
 Alpha  occ. eigenvalues --   -0.06463  -0.05703  -0.05588  -0.04958  -0.04610
 Alpha  occ. eigenvalues --   -0.03799  -0.03173  -0.01258   0.00863   0.08432
 Alpha virt. eigenvalues --    0.12364   0.12978   0.13589   0.14360   0.15844
 Alpha virt. eigenvalues --    0.16567   0.16670   0.16783   0.17007   0.17466
 Alpha virt. eigenvalues --    0.17583   0.17766   0.18541   0.18923   0.19270
 Alpha virt. eigenvalues --    0.19326   0.19538   0.20039   0.20290   0.20350
 Alpha virt. eigenvalues --    0.20663   0.20799   0.20984   0.21053   0.21253
 Alpha virt. eigenvalues --    0.21533   0.22190   0.22421   0.22568   0.22918
 Alpha virt. eigenvalues --    0.23022   0.23610   0.23786   0.24174   0.24181
 Alpha virt. eigenvalues --    0.24689   0.24812   0.25360   0.25608   0.25754
 Alpha virt. eigenvalues --    0.25870   0.26187   0.26264   0.26415   0.26737
 Alpha virt. eigenvalues --    0.27000   0.27034   0.27449   0.27866   0.27996
 Alpha virt. eigenvalues --    0.28186   0.28580   0.28734   0.29051   0.29316
 Alpha virt. eigenvalues --    0.29549   0.29771   0.29978   0.30251   0.30624
 Alpha virt. eigenvalues --    0.30887   0.31240   0.31395   0.31875   0.32023
 Alpha virt. eigenvalues --    0.32423   0.32546   0.32718   0.33065   0.33210
 Alpha virt. eigenvalues --    0.33594   0.33639   0.33897   0.33967   0.34270
 Alpha virt. eigenvalues --    0.34675   0.34954   0.35079   0.35168   0.35249
 Alpha virt. eigenvalues --    0.35471   0.35906   0.35953   0.36098   0.36542
 Alpha virt. eigenvalues --    0.36786   0.36880   0.37224   0.37516   0.37616
 Alpha virt. eigenvalues --    0.37690   0.38126   0.38234   0.38679   0.38807
 Alpha virt. eigenvalues --    0.39054   0.39217   0.39493   0.39639   0.39936
 Alpha virt. eigenvalues --    0.40041   0.40235   0.41036   0.41209   0.41284
 Alpha virt. eigenvalues --    0.41756   0.41864   0.42002   0.42141   0.42306
 Alpha virt. eigenvalues --    0.42484   0.42800   0.43107   0.43337   0.43733
 Alpha virt. eigenvalues --    0.44004   0.44265   0.44462   0.44721   0.44934
 Alpha virt. eigenvalues --    0.45119   0.45183   0.45598   0.45708   0.45770
 Alpha virt. eigenvalues --    0.45858   0.46219   0.46271   0.46504   0.46802
 Alpha virt. eigenvalues --    0.47068   0.47328   0.47642   0.47922   0.48000
 Alpha virt. eigenvalues --    0.48123   0.48592   0.48703   0.48758   0.48954
 Alpha virt. eigenvalues --    0.49281   0.49394   0.49633   0.49908   0.50128
 Alpha virt. eigenvalues --    0.50260   0.50563   0.50754   0.51034   0.51358
 Alpha virt. eigenvalues --    0.51525   0.51622   0.52014   0.52380   0.52539
 Alpha virt. eigenvalues --    0.52942   0.52980   0.53321   0.53410   0.53910
 Alpha virt. eigenvalues --    0.54235   0.54572   0.54774   0.55008   0.55422
 Alpha virt. eigenvalues --    0.56099   0.56173   0.56861   0.57061   0.57243
 Alpha virt. eigenvalues --    0.57482   0.58414   0.58973   0.59105   0.59375
 Alpha virt. eigenvalues --    0.59791   0.60043   0.60327   0.60488   0.60940
 Alpha virt. eigenvalues --    0.61157   0.61509   0.61972   0.62461   0.63035
 Alpha virt. eigenvalues --    0.63322   0.63545   0.63705   0.64311   0.64367
 Alpha virt. eigenvalues --    0.64613   0.65273   0.65450   0.65869   0.66120
 Alpha virt. eigenvalues --    0.66319   0.67245   0.67662   0.68257   0.69131
 Alpha virt. eigenvalues --    0.69823   0.70313   0.71116   0.71456   0.71703
 Alpha virt. eigenvalues --    0.71953   0.72228   0.73457   0.73739   0.74109
 Alpha virt. eigenvalues --    0.74141   0.74581   0.75072   0.75411   0.76175
 Alpha virt. eigenvalues --    0.76697   0.76989   0.77244   0.77546   0.78251
 Alpha virt. eigenvalues --    0.78327   0.78456   0.78944   0.79330   0.79411
 Alpha virt. eigenvalues --    0.80415   0.80808   0.81043   0.81200   0.81676
 Alpha virt. eigenvalues --    0.81868   0.82429   0.82819   0.83094   0.83538
 Alpha virt. eigenvalues --    0.83971   0.84653   0.84959   0.85255   0.85581
 Alpha virt. eigenvalues --    0.85987   0.86187   0.86958   0.87061   0.87590
 Alpha virt. eigenvalues --    0.87856   0.88025   0.88232   0.89095   0.89354
 Alpha virt. eigenvalues --    0.89793   0.89919   0.90493   0.90887   0.91305
 Alpha virt. eigenvalues --    0.91760   0.92158   0.92633   0.92726   0.93120
 Alpha virt. eigenvalues --    0.93325   0.93502   0.94093   0.94436   0.94974
 Alpha virt. eigenvalues --    0.95629   0.95730   0.95795   0.96385   0.96860
 Alpha virt. eigenvalues --    0.97224   0.97682   0.97906   0.98336   0.98746
 Alpha virt. eigenvalues --    0.99210   0.99475   0.99768   1.00375   1.00514
 Alpha virt. eigenvalues --    1.01037   1.01858   1.01969   1.02175   1.02830
 Alpha virt. eigenvalues --    1.04172   1.04350   1.05607   1.05890   1.07012
 Alpha virt. eigenvalues --    1.07424   1.08234   1.08439   1.08859   1.10124
 Alpha virt. eigenvalues --    1.10193   1.10439   1.11011   1.11640   1.12514
 Alpha virt. eigenvalues --    1.13007   1.13440   1.14653   1.15044   1.15720
 Alpha virt. eigenvalues --    1.16490   1.16618   1.16937   1.17197   1.17807
 Alpha virt. eigenvalues --    1.17919   1.18327   1.18672   1.18995   1.19232
 Alpha virt. eigenvalues --    1.19941   1.20255   1.20396   1.20602   1.21525
 Alpha virt. eigenvalues --    1.22079   1.22225   1.23025   1.23104   1.23596
 Alpha virt. eigenvalues --    1.23908   1.24444   1.24599   1.25287   1.25554
 Alpha virt. eigenvalues --    1.26176   1.26226   1.26891   1.27244   1.27898
 Alpha virt. eigenvalues --    1.28093   1.28366   1.29463   1.29599   1.30180
 Alpha virt. eigenvalues --    1.30712   1.31268   1.32092   1.32618   1.33219
 Alpha virt. eigenvalues --    1.34716   1.34952   1.35585   1.35898   1.36528
 Alpha virt. eigenvalues --    1.37788   1.38308   1.39203   1.39728   1.39801
 Alpha virt. eigenvalues --    1.41199   1.41398   1.42758   1.42957   1.43269
 Alpha virt. eigenvalues --    1.43794   1.44066   1.45087   1.45845   1.46804
 Alpha virt. eigenvalues --    1.47386   1.48445   1.49233   1.49626   1.50375
 Alpha virt. eigenvalues --    1.50672   1.51381   1.51926   1.51979   1.52560
 Alpha virt. eigenvalues --    1.53122   1.54020   1.55555   1.55790   1.56857
 Alpha virt. eigenvalues --    1.57143   1.57318   1.58473   1.59013   1.59989
 Alpha virt. eigenvalues --    1.60543   1.61492   1.61807   1.62039   1.62593
 Alpha virt. eigenvalues --    1.63007   1.64386   1.64842   1.65242   1.65632
 Alpha virt. eigenvalues --    1.66353   1.67132   1.67304   1.68252   1.68943
 Alpha virt. eigenvalues --    1.69230   1.70147   1.70583   1.70961   1.70997
 Alpha virt. eigenvalues --    1.71550   1.72551   1.73528   1.73852   1.74257
 Alpha virt. eigenvalues --    1.74813   1.75052   1.75347   1.76074   1.76290
 Alpha virt. eigenvalues --    1.76726   1.77107   1.78214   1.78813   1.78981
 Alpha virt. eigenvalues --    1.79327   1.80289   1.80773   1.81522   1.81793
 Alpha virt. eigenvalues --    1.82498   1.82863   1.83406   1.83845   1.84589
 Alpha virt. eigenvalues --    1.85486   1.85711   1.87002   1.87297   1.87912
 Alpha virt. eigenvalues --    1.88539   1.89041   1.90650   1.91173   1.91709
 Alpha virt. eigenvalues --    1.92455   1.92828   1.93201   1.93799   1.94613
 Alpha virt. eigenvalues --    1.94978   1.95120   1.95642   1.96080   1.96529
 Alpha virt. eigenvalues --    1.97587   1.97836   1.98866   1.99154   1.99734
 Alpha virt. eigenvalues --    2.00867   2.01201   2.02509   2.03061   2.03778
 Alpha virt. eigenvalues --    2.04339   2.05415   2.06735   2.07450   2.08283
 Alpha virt. eigenvalues --    2.09413   2.10186   2.10638   2.10774   2.11555
 Alpha virt. eigenvalues --    2.12740   2.13195   2.13492   2.14245   2.14367
 Alpha virt. eigenvalues --    2.15123   2.15607   2.16401   2.17126   2.17990
 Alpha virt. eigenvalues --    2.18197   2.18660   2.20349   2.21116   2.21442
 Alpha virt. eigenvalues --    2.21674   2.22252   2.22618   2.22894   2.23911
 Alpha virt. eigenvalues --    2.24110   2.24578   2.24893   2.25655   2.26056
 Alpha virt. eigenvalues --    2.27002   2.27149   2.27602   2.28117   2.28839
 Alpha virt. eigenvalues --    2.29442   2.30122   2.30651   2.31482   2.32224
 Alpha virt. eigenvalues --    2.32823   2.34123   2.35499   2.36178   2.36894
 Alpha virt. eigenvalues --    2.38076   2.38785   2.39382   2.40268   2.41048
 Alpha virt. eigenvalues --    2.41361   2.42511   2.42678   2.44639   2.46351
 Alpha virt. eigenvalues --    2.48028   2.49680   2.50229   2.51979   2.54861
 Alpha virt. eigenvalues --    2.55840   2.57154   2.57618   2.58884   2.59154
 Alpha virt. eigenvalues --    2.59553   2.60236   2.61184   2.61463   2.62059
 Alpha virt. eigenvalues --    2.63329   2.64158   2.64947   2.65948   2.66102
 Alpha virt. eigenvalues --    2.66207   2.67594   2.68134   2.69038   2.70052
 Alpha virt. eigenvalues --    2.70604   2.70888   2.71459   2.72020   2.72485
 Alpha virt. eigenvalues --    2.73645   2.73978   2.75562   2.76012   2.76288
 Alpha virt. eigenvalues --    2.78339   2.79942   2.80519   2.80826   2.81542
 Alpha virt. eigenvalues --    2.83710   2.85004   2.85675   2.86002   2.86794
 Alpha virt. eigenvalues --    2.88361   2.88455   2.90022   2.90072   2.90384
 Alpha virt. eigenvalues --    2.92374   2.93293   2.93804   2.94025   2.94395
 Alpha virt. eigenvalues --    2.94991   2.95634   2.96024   2.96289   2.96708
 Alpha virt. eigenvalues --    2.99163   2.99631   3.00401   3.00746   3.02884
 Alpha virt. eigenvalues --    3.03034   3.04029   3.06098   3.07183   3.07680
 Alpha virt. eigenvalues --    3.07912   3.09377   3.09763   3.10791   3.11521
 Alpha virt. eigenvalues --    3.11730   3.12738   3.13196   3.13761   3.14567
 Alpha virt. eigenvalues --    3.14777   3.15085   3.15933   3.16690   3.17251
 Alpha virt. eigenvalues --    3.17930   3.19070   3.19406   3.20434   3.20535
 Alpha virt. eigenvalues --    3.21832   3.23800   3.24001   3.26944   3.28034
 Alpha virt. eigenvalues --    3.29016   3.29451   3.31215   3.32030   3.32742
 Alpha virt. eigenvalues --    3.34552   3.36186   3.37545   3.38376   3.38978
 Alpha virt. eigenvalues --    3.39683   3.40825   3.41288   3.41879   3.42627
 Alpha virt. eigenvalues --    3.44176   3.46114   3.48460   3.49293   3.50009
 Alpha virt. eigenvalues --    3.51587   3.53251   3.53984   3.57006   3.57878
 Alpha virt. eigenvalues --    3.58651   3.58668   3.58969   3.60214   3.60689
 Alpha virt. eigenvalues --    3.62805   3.63200   3.64735   3.66959   3.67647
 Alpha virt. eigenvalues --    3.68568   3.69027   3.70512   3.72390   3.73594
 Alpha virt. eigenvalues --    3.75313   3.78973   3.82061   3.83119   3.84508
 Alpha virt. eigenvalues --    3.86104   3.88559   3.89310   3.90718   3.91218
 Alpha virt. eigenvalues --    3.92114   3.92725   3.93135   3.93248   3.93708
 Alpha virt. eigenvalues --    3.95278   3.98065   4.01289   4.04935   4.06464
 Alpha virt. eigenvalues --    4.07938   4.13826   4.15110   4.15721   4.17108
 Alpha virt. eigenvalues --    4.17394   4.20146   4.22022   4.25355   4.25782
 Alpha virt. eigenvalues --    4.27385   4.28756   4.31529   4.37122   4.39481
 Alpha virt. eigenvalues --    4.43124   4.49319   4.51005   4.60319   4.64053
 Alpha virt. eigenvalues --    4.65327   4.73981   4.90876   5.09841   5.09979
 Alpha virt. eigenvalues --    5.11514   5.13414   5.18772   5.20708   5.27756
 Alpha virt. eigenvalues --    5.29560   5.29883   5.33941   5.35308   5.37377
 Alpha virt. eigenvalues --    5.48756   5.50910   5.52981   5.54544   5.59656
 Alpha virt. eigenvalues --    5.61123   5.94107   5.97885   5.99795   6.04326
 Alpha virt. eigenvalues --    6.05925   6.09156   8.19778   8.25540  17.46639
 Alpha virt. eigenvalues --   17.53881  17.67223  17.70168  17.78546  17.83245
 Alpha virt. eigenvalues --   23.71567  23.78816  23.91867  24.00365  24.04836
 Alpha virt. eigenvalues --   24.05565  24.07015  24.07270  24.09144  24.10065
 Alpha virt. eigenvalues --   24.11787  24.12377  24.13411  24.15087  24.16192
 Alpha virt. eigenvalues --   24.20097  24.20472  24.21618  24.22190  24.24496
 Alpha virt. eigenvalues --   24.26077  24.31293  24.31497  24.33671  24.39160
 Alpha virt. eigenvalues --   24.40137  35.79216  35.82237  50.13497  50.15359
 Alpha virt. eigenvalues --   50.26550  50.28834  50.30459  50.32475 189.37112
 Alpha virt. eigenvalues --  189.43534
          Condensed to atoms (all electrons):
 Mulliken charges:
               1
     1  C    0.216776
     2  C   -0.182236
     3  C    0.135834
     4  C    0.149205
     5  C    0.152736
     6  C   -0.412842
     7  C    0.209364
     8  C    0.258364
     9  C    0.465753
    10  C   -0.448754
    11  C    0.126419
    12  C    0.115524
    13  C   -0.486643
    14  C   -0.608472
    15  H    0.098831
    16  H    0.103759
    17  H    0.143602
    18  N   -0.126196
    19  N   -0.134211
    20  O   -0.405185
    21  O   -0.391468
    22  O   -0.402635
    23  O   -0.337924
    24  C   -0.188447
    25  H    0.140186
    26  H    0.132413
    27  H    0.154230
    28  C   -0.185145
    29  H    0.137989
    30  H    0.136329
    31  H    0.155572
    32  C    0.017473
    33  C   -0.477300
    34  S   -0.654033
    35  C   -0.192149
    36  H    0.121639
    37  C    0.732877
    38  O   -0.132601
    39  C    0.800323
    40  C   -0.246069
    41  C   -0.076265
    42  S   -0.338040
    43  H    0.127193
    44  H    0.130081
    45  H    0.164263
    46  C   -0.626578
    47  O   -0.099761
    48  C   -0.335181
    49  H    0.094917
    50  C   -0.244017
    51  H    0.114317
    52  H    0.115903
    53  H    0.161097
    54  H    0.119185
 Sum of Mulliken charges =  -2.00000
 Mulliken charges with hydrogens summed into heavy atoms:
               1
     1  C    0.216776
     2  C   -0.182236
     3  C    0.135834
     4  C    0.149205
     5  C    0.152736
     6  C   -0.269240
     7  C    0.209364
     8  C    0.258364
     9  C    0.465753
    10  C   -0.448754
    11  C    0.126419
    12  C    0.115524
    13  C   -0.382885
    14  C   -0.509641
    18  N   -0.126196
    19  N   -0.134211
    20  O   -0.405185
    21  O   -0.391468
    22  O   -0.402635
    23  O   -0.337924
    24  C    0.238382
    28  C    0.244744
    32  C    0.017473
    33  C   -0.355661
    34  S   -0.654033
    35  C   -0.192149
    37  C    0.732877
    38  O   -0.132601
    39  C    0.800323
    40  C    0.175468
    41  C   -0.076265
    42  S   -0.338040
    46  C   -0.531661
    47  O   -0.099761
    48  C   -0.220865
    50  C    0.152168
 Electronic spatial extent (au):  <R**2>=          22680.7895
 Charge=             -2.0000 electrons
 Dipole moment (field-independent basis, Debye):
    X=            -15.3524    Y=             -0.7945    Z=              0.5597  Tot=             15.3832
 Quadrupole moment (field-independent basis, Debye-Ang):
   XX=           -424.3632   YY=           -297.3533   ZZ=           -234.6928
   XY=              1.2116   XZ=              4.4412   YZ=             19.1235
 Traceless Quadrupole moment (field-independent basis, Debye-Ang):
   XX=           -105.5601   YY=             21.4498   ZZ=             84.1103
   XY=              1.2116   XZ=              4.4412   YZ=             19.1235
 Octapole moment (field-independent basis, Debye-Ang**2):
  XXX=           -492.0855  YYY=            -31.6409  ZZZ=             -0.0272  XYY=           -285.4092
  XXY=             -4.7961  XXZ=            -12.4951  XZZ=             -8.6257  YZZ=             -3.4722
  YYZ=              7.9677  XYZ=             10.0024
 Hexadecapole moment (field-independent basis, Debye-Ang**3):
 XXXX=         -29238.4000 YYYY=          -9253.2105 ZZZZ=          -1020.5041 XXXY=            404.1302
 XXXZ=            103.0612 YYYX=           -269.6587 YYYZ=            295.7923 ZZZX=             11.4332
 ZZZY=             29.9783 XXYY=          -6351.3664 XXZZ=          -4127.3238 YYZZ=          -1534.2973
 XXYZ=            307.8206 YYXZ=             83.1425 ZZXY=            -28.2345
 N-N= 4.082493782625D+03 E-N=-1.376409828017D+04  KE= 2.352470806982D+03
 Calling FoFJK, ICntrl=      2127 FMM=F ISym2X=0 I1Cent= 0 IOpClX= 0 NMat=1 NMatS=1 NMatT=0.
 ***** Axes restored to original set *****
 -------------------------------------------------------------------
 Center     Atomic                   Forces (Hartrees/Bohr)
 Number     Number              X              Y              Z
 -------------------------------------------------------------------
      1        6          -0.000731866    0.042349442    0.004900825
      2        6          -0.022585117   -0.029580879   -0.003013991
      3        6          -0.005651686   -0.007256064   -0.000370562
      4        6           0.015092719   -0.034427058   -0.005116903
      5        6           0.023755277    0.036553805    0.004737818
      6        6           0.029853988    0.027706076    0.003464856
      7        6           0.002605075    0.008203255   -0.000536201
      8        6          -0.014001958    0.040181231    0.006812127
      9        6           0.013821457   -0.040647704   -0.002978964
     10        6          -0.018206604   -0.040097549   -0.009231835
     11        6           0.008504735   -0.041721919   -0.006783910
     12        6           0.024275858    0.028106229    0.004689131
     13        6          -0.028698149   -0.028313151   -0.003726996
     14        6          -0.015268836    0.038008724    0.005697857
     15        1          -0.000103671    0.000887864    0.000110557
     16        1          -0.000053383   -0.000944428   -0.000105895
     17        1          -0.000154691    0.001424840   -0.000762647
     18        7          -0.003232752    0.004423060    0.000068052
     19        7          -0.002415585   -0.004431805   -0.000496989
     20        8           0.014640999   -0.024517634   -0.003419055
     21        8          -0.027107584   -0.016451711   -0.001882238
     22        8          -0.018784015    0.025517157    0.004154056
     23        8           0.026451641    0.015204261    0.004822834
     24        6          -0.001429684   -0.005117612   -0.002020821
     25        1           0.001153912    0.000600261    0.000258505
     26        1           0.000588428    0.000415502    0.000788976
     27        1          -0.000954366   -0.000291214   -0.000078515
     28        6           0.000661352    0.005887598    0.000296152
     29        1           0.000521322   -0.000973698    0.000262933
     30        1           0.000668376   -0.001197334   -0.000092940
     31        1          -0.000609801    0.000690586    0.000181141
     32        6          -0.011148361   -0.004845600   -0.001919101
     33        6           0.006788757    0.005456799   -0.002995069
     34       16          -0.007361437    0.000892812    0.003815017
     35        6          -0.010792590   -0.009590078    0.007467086
     36        1          -0.001105750   -0.000844238    0.001834305
     37        6           0.015172995    0.003377149   -0.003695679
     38        8           0.005592268    0.010254227   -0.006263909
     39        6          -0.012717278    0.001711160   -0.002256235
     40        6           0.000353799   -0.003234374    0.002373354
     41        6           0.013756998    0.004524003   -0.002488135
     42       16          -0.001917646    0.001323220   -0.001045095
     43        1           0.000615535    0.000067439   -0.000267918
     44        1          -0.000087303    0.000091886    0.000824727
     45        1          -0.000243467   -0.001074620   -0.000824299
     46        6          -0.007297007    0.000615653   -0.000261488
     47        8          -0.004291132   -0.014692405    0.007927736
     48        6           0.015311506   -0.001419819    0.000725333
     49        1           0.000361772   -0.000240731    0.000127828
     50        6          -0.002379222    0.008002793   -0.004055767
     51        1          -0.001506215   -0.000166988    0.000359000
     52        1           0.000468953   -0.000183225    0.000127634
     53        1          -0.000631314    0.000028722   -0.000092022
     54        1           0.000450747   -0.000243915   -0.000044660
 -------------------------------------------------------------------
 Cartesian Forces:  Max     0.042349442 RMS     0.012859656

 GradGradGradGradGradGradGradGradGradGradGradGradGradGradGradGradGradGrad
 Berny optimization.
 FormGI is forming the generalized inverse of G from B-inverse, IUseBI=4.
 Internal  Forces:  Max     0.031343597 RMS     0.006098955
 Search for a local minimum.
 Step number   1 out of a maximum of  307
 All quantities printed in internal units (Hartrees-Bohrs-Radians)
 Mixed Optimization -- RFO/linear search
 Second derivative matrix not updated -- first step.
 ITU=  0
     Eigenvalues ---    0.00803   0.00803   0.01176   0.01203   0.01245
     Eigenvalues ---    0.01292   0.01308   0.01311   0.01369   0.01383
     Eigenvalues ---    0.01419   0.01429   0.01459   0.01496   0.01516
     Eigenvalues ---    0.01568   0.01572   0.01577   0.01620   0.01652
     Eigenvalues ---    0.01692   0.01711   0.01714   0.01719   0.01754
     Eigenvalues ---    0.01783   0.01803   0.01847   0.01962   0.02040
     Eigenvalues ---    0.02052   0.02072   0.02073   0.02079   0.02135
     Eigenvalues ---    0.02149   0.02163   0.02180   0.02197   0.02216
     Eigenvalues ---    0.02235   0.02247   0.07556   0.07572   0.07690
     Eigenvalues ---    0.07700   0.10069   0.10069   0.10633   0.10635
     Eigenvalues ---    0.15983   0.15999   0.15999   0.16000   0.16000
     Eigenvalues ---    0.16000   0.16000   0.16000   0.16000   0.16000
     Eigenvalues ---    0.16000   0.16000   0.16000   0.16000   0.16000
     Eigenvalues ---    0.16000   0.16000   0.16000   0.22530   0.22583
     Eigenvalues ---    0.23518   0.23582   0.24516   0.24747   0.24864
     Eigenvalues ---    0.24931   0.24952   0.24985   0.24987   0.24988
     Eigenvalues ---    0.24991   0.24994   0.24997   0.24997   0.24998
     Eigenvalues ---    0.24998   0.25000   0.25000   0.25000   0.25000
     Eigenvalues ---    0.25000   0.25000   0.25000   0.25000   0.25000
     Eigenvalues ---    0.25000   0.28869   0.28905   0.30103   0.32082
     Eigenvalues ---    0.32582   0.32774   0.33111   0.33787   0.33948
     Eigenvalues ---    0.33992   0.34005   0.34076   0.34354   0.34466
     Eigenvalues ---    0.34577   0.34629   0.34693   0.34775   0.34955
     Eigenvalues ---    0.35198   0.35218   0.35468   0.35553   0.35582
     Eigenvalues ---    0.35753   0.35871   0.36078   0.36083   0.36208
     Eigenvalues ---    0.36396   0.36662   0.39352   0.40194   0.40218
     Eigenvalues ---    0.40651   0.40715   0.41524   0.41802   0.41957
     Eigenvalues ---    0.42300   0.42833   0.43455   0.43953   0.44092
     Eigenvalues ---    0.44536   0.44594   0.45014   0.45406   0.46251
     Eigenvalues ---    0.47305   0.47564   0.49310   0.49541   0.52870
     Eigenvalues ---    0.53163   0.93281   0.93432   0.93989   0.94585
     Eigenvalues --- 1000.000001000.000001000.000001000.000001000.00000
     Eigenvalues --- 1000.000001000.000001000.000001000.000001000.00000
     Eigenvalues --- 1000.000001000.000001000.000001000.000001000.00000
     Eigenvalues --- 1000.000001000.000001000.000001000.000001000.00000
     Eigenvalues --- 1000.000001000.000001000.000001000.000001000.00000
     Eigenvalues --- 1000.000001000.000001000.000001000.000001000.00000
     Eigenvalues --- 1000.000001000.000001000.000001000.000001000.00000
     Eigenvalues --- 1000.000001000.000001000.000001000.000001000.00000
     Eigenvalues --- 1000.000001000.000001000.000001000.000001000.00000
     Eigenvalues --- 1000.000001000.000001000.000001000.000001000.00000
     Eigenvalues --- 1000.000001000.000001000.000001000.000001000.00000
     Eigenvalues --- 1000.000001000.000001000.000001000.000001000.00000
     Eigenvalues --- 1000.000001000.000001000.000001000.000001000.00000
     Eigenvalues --- 1000.000001000.000001000.000001000.000001000.00000
     Eigenvalues --- 1000.000001000.000001000.000001000.000001000.00000
     Eigenvalues --- 1000.000001000.000001000.000001000.000001000.00000
     Eigenvalues --- 1000.000001000.000001000.000001000.000001000.00000
     Eigenvalues --- 1000.000001000.000001000.000001000.000001000.00000
     Eigenvalues --- 1000.000001000.000001000.000001000.000001000.00000
     Eigenvalues --- 1000.000001000.000001000.000001000.000001000.00000
     Eigenvalues --- 1000.000001000.000001000.000001000.000001000.00000
     Eigenvalues --- 1000.000001000.000001000.000001000.000001000.00000
     Eigenvalues --- 1000.000001000.000001000.000001000.000001000.00000
     Eigenvalues --- 1000.000001000.000001000.000001000.000001000.00000
     Eigenvalues --- 1000.000001000.000001000.000001000.000001000.00000
     Eigenvalues --- 1000.000001000.000001000.000001000.000001000.00000
     Eigenvalues --- 1000.000001000.000001000.000001000.000001000.00000
     Eigenvalues --- 1000.000001000.000001000.000001000.000001000.00000
     Eigenvalues --- 1000.000001000.00000
 RFO step:  Lambda=-2.28455218D-02 EMin= 8.02933640D-03
 Linear search not attempted -- first point.
 Iteration  1 RMS(Cart)=  0.09569165 RMS(Int)=  0.00088754
 Iteration  2 RMS(Cart)=  0.00227624 RMS(Int)=  0.00004785
 Iteration  3 RMS(Cart)=  0.00000183 RMS(Int)=  0.00004785
 Iteration  4 RMS(Cart)=  0.00000000 RMS(Int)=  0.00004785
 Iteration  1 RMS(Cart)=  0.00000379 RMS(Int)=  0.00000061
 Iteration  2 RMS(Cart)=  0.00000215 RMS(Int)=  0.00000068
 Iteration  3 RMS(Cart)=  0.00000123 RMS(Int)=  0.00000077
 Iteration  4 RMS(Cart)=  0.00000070 RMS(Int)=  0.00000083
 Variable       Old X    -DE/DX   Delta X   Delta X   Delta X     New X
                                 (Linear)    (Quad)   (Total)
    R1        2.80935  -0.02010   0.00000  -0.05537  -0.05536   2.75399
    R2        2.64584   0.00527   0.00000   0.01069   0.01069   2.65653
    R3        2.31147   0.02783   0.00000   0.02891   0.02891   2.34038
    R4        2.67311   0.00959   0.00000   0.02257   0.02256   2.69567
    R5        2.59267   0.02433   0.00000   0.04615   0.04612   2.63880
    R6        2.66894   0.00314   0.00000   0.00762   0.00763   2.67657
    R7        2.69164   0.00884   0.00000   0.02159   0.02163   2.71327
    R8        2.81049  -0.01911   0.00000  -0.05332  -0.05333   2.75716
    R9        2.62173   0.02722   0.00000   0.05416   0.05415   2.67588
   R10        2.65570   0.00407   0.00000   0.00813   0.00812   2.66382
   R11        2.30889   0.03099   0.00000   0.03199   0.03199   2.34088
   R12        2.70248  -0.02350   0.00000  -0.05513  -0.05515   2.64733
   R13        2.04786  -0.00100   0.00000  -0.00263  -0.00263   2.04522
   R14        2.70495   0.00322   0.00000   0.00730   0.00735   2.71230
   R15        2.68322   0.00582   0.00000   0.01335   0.01338   2.69660
   R16        2.68655   0.02521   0.00000   0.05567   0.05569   2.74223
   R17        2.81233  -0.02338   0.00000  -0.06528  -0.06527   2.74706
   R18        2.76359  -0.00255   0.00000  -0.00654  -0.00654   2.75705
   R19        2.66221   0.00708   0.00000   0.01511   0.01509   2.67730
   R20        2.31391   0.03067   0.00000   0.03204   0.03204   2.34595
   R21        2.79415  -0.01881   0.00000  -0.05065  -0.05065   2.74350
   R22        2.63842   0.00344   0.00000   0.00709   0.00707   2.64549
   R23        2.31456   0.03134   0.00000   0.03280   0.03280   2.34736
   R24        2.62448   0.02515   0.00000   0.05004   0.05003   2.67451
   R25        2.64561  -0.02184   0.00000  -0.04626  -0.04628   2.59933
   R26        2.04921  -0.00062   0.00000  -0.00165  -0.00165   2.04756
   R27        2.04741  -0.00019   0.00000  -0.00049  -0.00049   2.04692
   R28        2.77259  -0.00455   0.00000  -0.01185  -0.01185   2.76074
   R29        2.77252  -0.00461   0.00000  -0.01202  -0.01202   2.76050
   R30        2.06176   0.00085   0.00000   0.00231   0.00231   2.06407
   R31        2.06551  -0.00009   0.00000  -0.00024  -0.00024   2.06527
   R32        2.05322   0.00067   0.00000   0.00180   0.00180   2.05502
   R33        2.06368   0.00030   0.00000   0.00081   0.00081   2.06448
   R34        2.06281   0.00083   0.00000   0.00224   0.00224   2.06505
   R35        2.05355   0.00053   0.00000   0.00141   0.00141   2.05496
   R36        2.61099   0.00382   0.00000   0.00744   0.00743   2.61842
   R37        3.33222   0.00152   0.00000   0.00523   0.00519   3.33741
   R38        2.66071  -0.00104   0.00000  -0.00253  -0.00250   2.65821
   R39        2.03757  -0.00094   0.00000  -0.00245  -0.00245   2.03512
   R40        3.30387   0.01085   0.00000   0.03317   0.03317   3.33704
   R41        2.64213  -0.00098   0.00000  -0.00224  -0.00220   2.63993
   R42        2.57076   0.00965   0.00000   0.01749   0.01749   2.58825
   R43        2.71258  -0.00029   0.00000  -0.00069  -0.00069   2.71189
   R44        2.69176  -0.00461   0.00000  -0.01045  -0.01045   2.68131
   R45        2.63457   0.00496   0.00000   0.00992   0.00991   2.64448
   R46        3.32870   0.00426   0.00000   0.01347   0.01346   3.34216
   R47        2.06042   0.00062   0.00000   0.00166   0.00166   2.06208
   R48        2.07321  -0.00062   0.00000  -0.00170  -0.00170   2.07151
   R49        2.07203  -0.00102   0.00000  -0.00280  -0.00280   2.06923
   R50        2.69054  -0.00023   0.00000  -0.00071  -0.00071   2.68983
   R51        2.56802   0.01025   0.00000   0.01849   0.01849   2.58651
   R52        3.26345   0.00559   0.00000   0.01625   0.01626   3.27971
   R53        2.58710   0.00283   0.00000   0.00537   0.00538   2.59247
   R54        2.04284   0.00041   0.00000   0.00107   0.00107   2.04392
   R55        2.68978  -0.00884   0.00000  -0.01997  -0.01997   2.66980
   R56        2.04469  -0.00154   0.00000  -0.00405  -0.00405   2.04064
   R57        2.07418   0.00033   0.00000   0.00091   0.00091   2.07509
   R58        2.05747   0.00048   0.00000   0.00129   0.00129   2.05876
   R59        2.07344   0.00040   0.00000   0.00111   0.00111   2.07455
    A1        2.03797  -0.00393   0.00000  -0.01365  -0.01363   2.02434
    A2        2.14521   0.01034   0.00000   0.03754   0.03753   2.18274
    A3        2.10001  -0.00642   0.00000  -0.02389  -0.02390   2.07611
    A4        2.10395  -0.00174   0.00000  -0.00559  -0.00557   2.09838
    A5        2.08282   0.00083   0.00000   0.00038   0.00036   2.08318
    A6        2.09624   0.00091   0.00000   0.00510   0.00508   2.10132
    A7        2.10093   0.00385   0.00000   0.01313   0.01309   2.11401
    A8        2.07104  -0.00128   0.00000  -0.00334  -0.00334   2.06771
    A9        2.11118  -0.00257   0.00000  -0.00975  -0.00972   2.10146
   A10        2.10296  -0.00200   0.00000  -0.00683  -0.00685   2.09611
   A11        2.09911   0.00151   0.00000   0.00623   0.00626   2.10537
   A12        2.08110   0.00049   0.00000   0.00060   0.00060   2.08170
   A13        2.03739  -0.00249   0.00000  -0.00958  -0.00959   2.02780
   A14        2.12972   0.00929   0.00000   0.03430   0.03430   2.16402
   A15        2.11607  -0.00681   0.00000  -0.02471  -0.02471   2.09136
   A16        2.15098  -0.00065   0.00000  -0.00285  -0.00291   2.14807
   A17        2.04399   0.00117   0.00000   0.00576   0.00572   2.04971
   A18        2.08722  -0.00055   0.00000  -0.00361  -0.00364   2.08358
   A19        2.11101  -0.00278   0.00000  -0.00977  -0.00975   2.10126
   A20        2.04385  -0.00020   0.00000   0.00050   0.00048   2.04433
   A21        2.12832   0.00298   0.00000   0.00926   0.00925   2.13757
   A22        2.08678   0.00142   0.00000   0.00411   0.00417   2.09096
   A23        2.04738   0.00063   0.00000   0.00293   0.00294   2.05032
   A24        2.14662  -0.00204   0.00000  -0.00678  -0.00685   2.13977
   A25        2.04892   0.00239   0.00000   0.00666   0.00664   2.05556
   A26        2.00754   0.00271   0.00000   0.01083   0.01077   2.01831
   A27        2.22643  -0.00513   0.00000  -0.01791  -0.01796   2.20847
   A28        2.06022  -0.00410   0.00000  -0.01524  -0.01523   2.04499
   A29        2.17370   0.00625   0.00000   0.02301   0.02301   2.19671
   A30        2.04919  -0.00216   0.00000  -0.00779  -0.00779   2.04139
   A31        2.01621  -0.00327   0.00000  -0.01145  -0.01146   2.00475
   A32        2.14188   0.00884   0.00000   0.03212   0.03212   2.17400
   A33        2.12500  -0.00557   0.00000  -0.02070  -0.02069   2.10430
   A34        2.10943  -0.00200   0.00000  -0.00676  -0.00673   2.10270
   A35        2.11468   0.00030   0.00000   0.00116   0.00116   2.11584
   A36        2.05896   0.00170   0.00000   0.00563   0.00560   2.06457
   A37        2.11176   0.00048   0.00000   0.00068   0.00066   2.11242
   A38        2.05670   0.00050   0.00000   0.00369   0.00370   2.06039
   A39        2.11471  -0.00097   0.00000  -0.00436  -0.00435   2.11036
   A40        2.08567   0.00049   0.00000   0.00115   0.00113   2.08681
   A41        2.07549   0.00066   0.00000   0.00436   0.00437   2.07986
   A42        2.12199  -0.00115   0.00000  -0.00550  -0.00550   2.11649
   A43        2.20043   0.00577   0.00000   0.02129   0.02126   2.22169
   A44        2.02023  -0.00236   0.00000  -0.00872  -0.00871   2.01152
   A45        2.06252  -0.00341   0.00000  -0.01257  -0.01256   2.04996
   A46        2.18316   0.00630   0.00000   0.02255   0.02256   2.20571
   A47        2.02959  -0.00246   0.00000  -0.00876  -0.00876   2.02082
   A48        2.07044  -0.00384   0.00000  -0.01379  -0.01380   2.05665
   A49        1.91737   0.00084   0.00000   0.00434   0.00434   1.92171
   A50        1.91808   0.00109   0.00000   0.00580   0.00580   1.92388
   A51        1.87685  -0.00124   0.00000  -0.00635  -0.00634   1.87051
   A52        1.88689  -0.00120   0.00000  -0.00744  -0.00745   1.87944
   A53        1.93435   0.00032   0.00000   0.00209   0.00209   1.93644
[...]
 Alpha  occ. eigenvalues --   -0.26317  -0.25522  -0.25286  -0.24938  -0.24476
 Alpha  occ. eigenvalues --   -0.23349  -0.23233  -0.22386  -0.22256  -0.21614
 Alpha  occ. eigenvalues --   -0.21157  -0.20899  -0.20658  -0.20389  -0.19938
 Alpha  occ. eigenvalues --   -0.19555  -0.19252  -0.19099  -0.18708  -0.18279
 Alpha  occ. eigenvalues --   -0.17991  -0.17572  -0.16860  -0.16369  -0.15952
 Alpha  occ. eigenvalues --   -0.15383  -0.15065  -0.14887  -0.12658  -0.12015
 Alpha  occ. eigenvalues --   -0.11587  -0.09912  -0.08938  -0.07009  -0.06891
 Alpha  occ. eigenvalues --   -0.06339  -0.06245  -0.05579  -0.05419  -0.04699
 Alpha  occ. eigenvalues --   -0.04617  -0.03472  -0.01678  -0.00210   0.06546
 Alpha virt. eigenvalues --    0.11929   0.12776   0.13858   0.14382   0.15710
 Alpha virt. eigenvalues --    0.15854   0.16600   0.16768   0.16874   0.17133
 Alpha virt. eigenvalues --    0.17334   0.17920   0.18488   0.18709   0.19004
 Alpha virt. eigenvalues --    0.19052   0.19149   0.19376   0.19989   0.20053
 Alpha virt. eigenvalues --    0.20551   0.20759   0.20937   0.21215   0.21277
 Alpha virt. eigenvalues --    0.21591   0.21703   0.21852   0.22614   0.22723
 Alpha virt. eigenvalues --    0.22974   0.23499   0.23631   0.23911   0.24075
 Alpha virt. eigenvalues --    0.24240   0.24466   0.24817   0.25182   0.25308
 Alpha virt. eigenvalues --    0.25610   0.25800   0.26155   0.26358   0.26534
 Alpha virt. eigenvalues --    0.26801   0.26951   0.27049   0.27324   0.27470
 Alpha virt. eigenvalues --    0.27719   0.28275   0.28480   0.28817   0.29068
 Alpha virt. eigenvalues --    0.29301   0.29618   0.29913   0.30123   0.30277
 Alpha virt. eigenvalues --    0.30683   0.30812   0.31373   0.31485   0.31777
 Alpha virt. eigenvalues --    0.32341   0.32435   0.32575   0.32765   0.32944
 Alpha virt. eigenvalues --    0.33183   0.33349   0.33540   0.33748   0.33858
 Alpha virt. eigenvalues --    0.34102   0.34386   0.34560   0.34654   0.34978
 Alpha virt. eigenvalues --    0.35137   0.35658   0.35718   0.35974   0.36125
 Alpha virt. eigenvalues --    0.36538   0.36922   0.37010   0.37316   0.37599
 Alpha virt. eigenvalues --    0.37832   0.38128   0.38181   0.38497   0.38776
 Alpha virt. eigenvalues --    0.38888   0.39163   0.39379   0.39670   0.39893
 Alpha virt. eigenvalues --    0.40078   0.40250   0.40546   0.40708   0.40853
 Alpha virt. eigenvalues --    0.41232   0.41354   0.41694   0.41865   0.42339
 Alpha virt. eigenvalues --    0.42431   0.42503   0.42651   0.42972   0.43038
 Alpha virt. eigenvalues --    0.43663   0.43946   0.44076   0.44282   0.44471
 Alpha virt. eigenvalues --    0.44677   0.44899   0.45024   0.45050   0.45215
 Alpha virt. eigenvalues --    0.45756   0.45939   0.46084   0.46134   0.46442
 Alpha virt. eigenvalues --    0.46644   0.46726   0.47040   0.47316   0.47383
 Alpha virt. eigenvalues --    0.47587   0.47784   0.48170   0.48404   0.48483
 Alpha virt. eigenvalues --    0.48639   0.48789   0.49096   0.49279   0.49332
 Alpha virt. eigenvalues --    0.49488   0.50045   0.50189   0.50546   0.50721
 Alpha virt. eigenvalues --    0.51064   0.51160   0.51311   0.51682   0.51982
 Alpha virt. eigenvalues --    0.52091   0.52224   0.52602   0.52992   0.53301
 Alpha virt. eigenvalues --    0.53478   0.53613   0.53888   0.54280   0.54620
 Alpha virt. eigenvalues --    0.55129   0.55563   0.55946   0.56203   0.56454
 Alpha virt. eigenvalues --    0.56667   0.57308   0.57502   0.57820   0.58163
 Alpha virt. eigenvalues --    0.58991   0.59226   0.59424   0.60010   0.60263
 Alpha virt. eigenvalues --    0.60687   0.61065   0.61188   0.61479   0.61802
 Alpha virt. eigenvalues --    0.61986   0.62383   0.63006   0.63321   0.63408
 Alpha virt. eigenvalues --    0.64260   0.64501   0.64665   0.64829   0.65400
 Alpha virt. eigenvalues --    0.65896   0.66178   0.66854   0.67466   0.67840
 Alpha virt. eigenvalues --    0.68126   0.68657   0.69348   0.70247   0.70435
 Alpha virt. eigenvalues --    0.71007   0.71364   0.71808   0.72063   0.72620
 Alpha virt. eigenvalues --    0.73153   0.73391   0.73567   0.74526   0.74941
 Alpha virt. eigenvalues --    0.75609   0.75830   0.76203   0.76923   0.77112
 Alpha virt. eigenvalues --    0.77348   0.77752   0.78472   0.78829   0.79054
 Alpha virt. eigenvalues --    0.79187   0.80227   0.80472   0.80617   0.81193
 Alpha virt. eigenvalues --    0.81597   0.81939   0.82529   0.82560   0.82833
 Alpha virt. eigenvalues --    0.83177   0.83783   0.83884   0.84188   0.84819
 Alpha virt. eigenvalues --    0.85038   0.85532   0.85734   0.86104   0.86788
 Alpha virt. eigenvalues --    0.87231   0.87368   0.87535   0.87747   0.88308
 Alpha virt. eigenvalues --    0.88670   0.89043   0.89557   0.89940   0.90373
 Alpha virt. eigenvalues --    0.90664   0.90870   0.91375   0.91639   0.92075
 Alpha virt. eigenvalues --    0.92576   0.92732   0.93006   0.93437   0.93858
 Alpha virt. eigenvalues --    0.94191   0.94741   0.94880   0.95161   0.95596
 Alpha virt. eigenvalues --    0.95979   0.96426   0.96629   0.96949   0.97138
 Alpha virt. eigenvalues --    0.97701   0.98156   0.98263   0.98460   0.99175
 Alpha virt. eigenvalues --    0.99938   1.00327   1.00712   1.01294   1.01671
 Alpha virt. eigenvalues --    1.02072   1.02584   1.04113   1.04403   1.04645
 Alpha virt. eigenvalues --    1.05465   1.06142   1.06587   1.07387   1.08007
 Alpha virt. eigenvalues --    1.08478   1.08942   1.09545   1.09815   1.10598
 Alpha virt. eigenvalues --    1.11036   1.12007   1.12506   1.13146   1.13673
 Alpha virt. eigenvalues --    1.14872   1.15062   1.15821   1.16107   1.16462
 Alpha virt. eigenvalues --    1.16524   1.16679   1.17189   1.17943   1.18106
 Alpha virt. eigenvalues --    1.18751   1.19130   1.19419   1.19983   1.20502
 Alpha virt. eigenvalues --    1.20574   1.20967   1.21429   1.21486   1.22546
 Alpha virt. eigenvalues --    1.22724   1.23139   1.23660   1.24093   1.24900
 Alpha virt. eigenvalues --    1.25143   1.25517   1.25668   1.26232   1.26342
 Alpha virt. eigenvalues --    1.27034   1.27342   1.27746   1.27934   1.29086
 Alpha virt. eigenvalues --    1.29304   1.29744   1.30434   1.31078   1.31230
 Alpha virt. eigenvalues --    1.31880   1.32432   1.33738   1.34261   1.35314
 Alpha virt. eigenvalues --    1.35865   1.36382   1.37050   1.37908   1.38517
 Alpha virt. eigenvalues --    1.39508   1.39936   1.41021   1.41445   1.42053
 Alpha virt. eigenvalues --    1.42499   1.43704   1.43947   1.44607   1.45323
 Alpha virt. eigenvalues --    1.45588   1.46406   1.47417   1.47730   1.48269
 Alpha virt. eigenvalues --    1.49560   1.50008   1.50480   1.50872   1.51595
 Alpha virt. eigenvalues --    1.51920   1.52518   1.52832   1.53198   1.55069
 Alpha virt. eigenvalues --    1.55464   1.56175   1.56855   1.57428   1.58425
 Alpha virt. eigenvalues --    1.59454   1.60656   1.61041   1.61355   1.62740
 Alpha virt. eigenvalues --    1.63429   1.63659   1.64061   1.64814   1.65274
 Alpha virt. eigenvalues --    1.65605   1.65746   1.66620   1.67094   1.67713
 Alpha virt. eigenvalues --    1.68568   1.69258   1.69700   1.70365   1.71099
 Alpha virt. eigenvalues --    1.71270   1.71504   1.72217   1.72816   1.73111
 Alpha virt. eigenvalues --    1.73796   1.74192   1.74644   1.74826   1.75515
 Alpha virt. eigenvalues --    1.75620   1.75914   1.76083   1.76655   1.77033
 Alpha virt. eigenvalues --    1.78095   1.78441   1.79192   1.79761   1.79901
 Alpha virt. eigenvalues --    1.81458   1.81638   1.81909   1.82750   1.83393
 Alpha virt. eigenvalues --    1.83981   1.84082   1.84727   1.85597   1.86427
 Alpha virt. eigenvalues --    1.87676   1.87869   1.88118   1.89459   1.90045
 Alpha virt. eigenvalues --    1.91009   1.91736   1.91979   1.92262   1.92746
 Alpha virt. eigenvalues --    1.93774   1.93846   1.94027   1.94285   1.95534
 Alpha virt. eigenvalues --    1.95957   1.96225   1.96886   1.97222   1.98309
 Alpha virt. eigenvalues --    1.99308   1.99709   2.00412   2.01153   2.01881
 Alpha virt. eigenvalues --    2.02287   2.02944   2.03553   2.04671   2.06170
 Alpha virt. eigenvalues --    2.06815   2.08577   2.09162   2.09667   2.10179
 Alpha virt. eigenvalues --    2.10616   2.10987   2.11391   2.12030   2.13166
 Alpha virt. eigenvalues --    2.13577   2.13885   2.14113   2.14726   2.15398
 Alpha virt. eigenvalues --    2.16527   2.17294   2.18108   2.18806   2.19742
 Alpha virt. eigenvalues --    2.20379   2.20502   2.21313   2.21945   2.22518
 Alpha virt. eigenvalues --    2.22872   2.23630   2.23980   2.24409   2.24911
 Alpha virt. eigenvalues --    2.25321   2.25850   2.26173   2.26475   2.27436
 Alpha virt. eigenvalues --    2.28068   2.28612   2.29021   2.29875   2.30813
 Alpha virt. eigenvalues --    2.31572   2.31936   2.32546   2.33647   2.35609
 Alpha virt. eigenvalues --    2.35957   2.36331   2.37768   2.39177   2.39609
 Alpha virt. eigenvalues --    2.39691   2.41052   2.41976   2.42724   2.43937
 Alpha virt. eigenvalues --    2.44014   2.46853   2.46887   2.49297   2.50983
 Alpha virt. eigenvalues --    2.52011   2.54862   2.56003   2.56235   2.58149
 Alpha virt. eigenvalues --    2.58494   2.58978   2.59370   2.59816   2.60530
 Alpha virt. eigenvalues --    2.61310   2.62003   2.63270   2.64076   2.65277
 Alpha virt. eigenvalues --    2.65900   2.66680   2.67316   2.68057   2.68561
 Alpha virt. eigenvalues --    2.69799   2.70419   2.70911   2.71411   2.72080
 Alpha virt. eigenvalues --    2.72746   2.73616   2.74018   2.75246   2.75694
 Alpha virt. eigenvalues --    2.75777   2.76989   2.78437   2.80453   2.80861
 Alpha virt. eigenvalues --    2.81184   2.82193   2.82745   2.84690   2.85678
 Alpha virt. eigenvalues --    2.86057   2.87624   2.87796   2.88294   2.88528
 Alpha virt. eigenvalues --    2.89805   2.90108   2.90423   2.91107   2.92710
 Alpha virt. eigenvalues --    2.93328   2.93785   2.94506   2.95680   2.96007
 Alpha virt. eigenvalues --    2.96149   2.96391   2.98772   2.99078   3.00057
 Alpha virt. eigenvalues --    3.00435   3.02304   3.02807   3.03460   3.05916
 Alpha virt. eigenvalues --    3.06648   3.06758   3.07344   3.08100   3.09045
 Alpha virt. eigenvalues --    3.10429   3.11206   3.11558   3.12403   3.13272
 Alpha virt. eigenvalues --    3.13408   3.13569   3.14172   3.14915   3.15265
 Alpha virt. eigenvalues --    3.15608   3.15822   3.17355   3.18196   3.18923
 Alpha virt. eigenvalues --    3.19731   3.20248   3.21667   3.23918   3.26578
 Alpha virt. eigenvalues --    3.27117   3.27956   3.29721   3.30230   3.30850
 Alpha virt. eigenvalues --    3.31993   3.33056   3.35527   3.36270   3.37363
 Alpha virt. eigenvalues --    3.37954   3.39330   3.40437   3.41154   3.41760
 Alpha virt. eigenvalues --    3.42294   3.43490   3.45005   3.45699   3.46789
 Alpha virt. eigenvalues --    3.47871   3.49320   3.51285   3.52035   3.52883
 Alpha virt. eigenvalues --    3.55630   3.55943   3.56460   3.56643   3.56948
 Alpha virt. eigenvalues --    3.58273   3.59824   3.60552   3.61611   3.62717
 Alpha virt. eigenvalues --    3.62942   3.64172   3.65613   3.66795   3.68876
 Alpha virt. eigenvalues --    3.70820   3.72890   3.73296   3.75638   3.80524
 Alpha virt. eigenvalues --    3.82032   3.82950   3.84414   3.87361   3.88657
 Alpha virt. eigenvalues --    3.89103   3.91629   3.91843   3.92459   3.92810
 Alpha virt. eigenvalues --    3.93460   3.94097   3.95299   3.97550   4.00107
 Alpha virt. eigenvalues --    4.04026   4.07091   4.08780   4.12741   4.14796
 Alpha virt. eigenvalues --    4.15386   4.16367   4.17106   4.17664   4.19220
 Alpha virt. eigenvalues --    4.21235   4.25637   4.25795   4.28693   4.31044
 Alpha virt. eigenvalues --    4.36206   4.38634   4.42035   4.49295   4.51436
 Alpha virt. eigenvalues --    4.60616   4.63442   4.66052   4.71565   4.87230
 Alpha virt. eigenvalues --    5.06031   5.08633   5.10577   5.13927   5.20729
 Alpha virt. eigenvalues --    5.27867   5.29741   5.29981   5.33674   5.34998
 Alpha virt. eigenvalues --    5.36055   5.37876   5.48363   5.50676   5.52714
 Alpha virt. eigenvalues --    5.54444   5.55794   5.60709   5.90657   5.95518
 Alpha virt. eigenvalues --    5.98660   6.03344   6.05103   6.07812   8.17612
 Alpha virt. eigenvalues --    8.23524  17.46157  17.54316  17.65982  17.69270
 Alpha virt. eigenvalues --   17.78349  17.81416  23.69405  23.78138  23.89780
 Alpha virt. eigenvalues --   23.99681  24.03278  24.05996  24.06777  24.06985
 Alpha virt. eigenvalues --   24.09046  24.10360  24.11851  24.13380  24.14436
 Alpha virt. eigenvalues --   24.14653  24.16310  24.16874  24.19364  24.20086
 Alpha virt. eigenvalues --   24.21947  24.22962  24.24436  24.25765  24.31613
 Alpha virt. eigenvalues --   24.32179  24.35650  24.42406  35.78599  35.81533
 Alpha virt. eigenvalues --   50.12095  50.14007  50.25625  50.27867  50.29111
 Alpha virt. eigenvalues --   50.30911 189.34957 189.41685
          Condensed to atoms (all electrons):
 Mulliken charges:
               1
     1  C    0.202792
     2  C   -0.054249
     3  C    0.091468
     4  C    0.216961
     5  C    0.111619
     6  C   -0.349948
     7  C    0.208799
     8  C    0.239495
     9  C    0.345713
    10  C   -0.488393
    11  C    0.318793
    12  C    0.077469
    13  C   -0.523960
    14  C   -0.610627
    15  H    0.103120
    16  H    0.107349
    17  H    0.147326
    18  N   -0.108051
    19  N   -0.135369
    20  O   -0.426086
    21  O   -0.408470
    22  O   -0.419928
    23  O   -0.345340
    24  C   -0.160421
    25  H    0.139196
    26  H    0.130881
    27  H    0.157843
    28  C   -0.180589
    29  H    0.133763
    30  H    0.135938
    31  H    0.157263
    32  C   -0.036586
    33  C   -0.128573
    34  S   -0.661657
    35  C   -0.636114
    36  H    0.125896
    37  C    0.268899
    38  O   -0.118207
    39  C    0.579410
    40  C   -0.264411
    41  C    0.071950
    42  S   -0.356376
    43  H    0.129002
    44  H    0.129843
    45  H    0.167953
    46  C   -0.093163
    47  O   -0.135285
    48  C   -0.192065
    49  H    0.093742
    50  C   -0.306555
    51  H    0.120186
    52  H    0.106296
    53  H    0.150986
    54  H    0.170468
 Sum of Mulliken charges =  -2.00000
 Mulliken charges with hydrogens summed into heavy atoms:
               1
     1  C    0.202792
     2  C   -0.054249
     3  C    0.091468
     4  C    0.216961
     5  C    0.111619
     6  C   -0.202622
     7  C    0.208799
     8  C    0.239495
     9  C    0.345713
    10  C   -0.488393
    11  C    0.318793
    12  C    0.077469
    13  C   -0.416611
    14  C   -0.507507
    18  N   -0.108051
    19  N   -0.135369
    20  O   -0.426086
    21  O   -0.408470
    22  O   -0.419928
    23  O   -0.345340
    24  C    0.267500
    28  C    0.246375
    32  C   -0.036586
    33  C   -0.002677
    34  S   -0.661657
    35  C   -0.636114
    37  C    0.268899
    38  O   -0.118207
    39  C    0.579410
    40  C    0.162387
    41  C    0.071950
    42  S   -0.356376
    46  C    0.000579
    47  O   -0.135285
    48  C   -0.071879
    50  C    0.121195
 Electronic spatial extent (au):  <R**2>=          22501.7003
 Charge=             -2.0000 electrons
 Dipole moment (field-independent basis, Debye):
    X=            -15.2901    Y=             -0.1273    Z=              2.5447  Tot=             15.5010
 Quadrupole moment (field-independent basis, Debye-Ang):
   XX=           -426.8523   YY=           -307.2777   ZZ=           -238.3256
   XY=             -2.6361   XZ=             -8.6145   YZ=             11.3165
 Traceless Quadrupole moment (field-independent basis, Debye-Ang):
   XX=           -102.7004   YY=             16.8742   ZZ=             85.8263
   XY=             -2.6361   XZ=             -8.6145   YZ=             11.3165
 Octapole moment (field-independent basis, Debye-Ang**2):
  XXX=           -499.3698  YYY=            -28.7947  ZZZ=              9.1743  XYY=           -288.9945
  XXY=             30.6827  XXZ=             -5.3768  XZZ=             10.7432  YZZ=              7.9777
  YYZ=             27.4077  XYZ=             27.4637
 Hexadecapole moment (field-independent basis, Debye-Ang**3):
 XXXX=         -29113.2892 YYYY=          -9357.1704 ZZZZ=           -879.0646 XXXY=            343.3559
 XXXZ=           -212.7970 YYYX=           -367.0913 YYYZ=            189.0271 ZZZX=            -41.3597
 ZZZY=              9.9562 XXYY=          -6493.8747 XXZZ=          -4172.0226 YYZZ=          -1522.5019
 XXYZ=            162.3946 YYXZ=            -51.8665 ZZXY=            -68.4943
 N-N= 4.090946612875D+03 E-N=-1.377993709612D+04  KE= 2.352090014538D+03
 Unable to Open any file for archive entry.
 1\1\GINC-CX3-4-9\FOpt\RB3LYP\6-311+G(d,p)\C26H18N2O6S2(2-)\NS5018\08-O
 ct-2021\0\\# opt=modredundant b3lyp/6-311+g(d,p)\\NDI_-40.pdb\\-2,1\C,
 -2.5191169055,-3.0235218862,-0.0823310399\C,-2.2182093684,-1.619731730
 2,0.0355534771\C,-3.2595895031,-0.65044741,-0.0164243497\C,-4.60748642
 83,-1.0406924251,-0.1701598395\C,-4.9569029989,-2.4383549164,-0.282555
 5442\C,-0.8754252201,-1.2040511325,0.1419113066\C,-2.9131255036,0.7497
 991838,0.0988266007\C,-1.5468820499,1.1487171397,0.2524218463\C,-0.498
 7639745,0.1263788812,0.2103005416\C,-1.2688279595,2.5314789578,0.53027
 38624\C,-3.7116170214,3.0986598505,0.2434823622\C,-3.9751643006,1.6931
 907315,0.0808782017\C,-5.3288197007,1.2661701877,-0.0816945239\C,-5.64
 18077272,-0.0554938953,-0.2078245311\H,-6.6634909288,-0.3944540904,-0.
 3277798195\H,-6.0917460494,2.0354251459,-0.0929388826\H,-0.1219134133,
 -1.9793648604,0.0851174105\N,-2.3682128425,3.4303925422,0.4756816148\N
 ,-3.8836065963,-3.354316394,-0.2262540747\O,-1.6831759272,-3.947858610
 5,-0.0661800517\O,-6.1212995794,-2.8619470568,-0.4220588605\O,-4.58345
 1567,3.9942290387,0.2076681957\O,-0.1590430573,3.0248358813,0.82339258
 47\C,-2.0462948305,4.830410242,0.7284369661\H,-1.6037530933,4.94380318
 58,1.7214498537\H,-1.3091972349,5.1866745132,0.0037139734\H,-2.9716859
 427,5.39548391,0.6484392325\C,-4.1863590073,-4.7766622459,-0.335766274
 6\H,-3.7006285832,-5.2015491011,-1.2187516962\H,-3.800476818,-5.310372
 8773,0.5363390643\H,-5.2664975964,-4.876738179,-0.407261651\C,0.927266
 7332,0.408940032,0.1259792462\C,1.5961419464,1.3697289394,-0.613114966
 2\S,2.0937063175,-0.6479607295,0.919112719\C,2.9939759838,1.2424795756
 ,-0.5729266086\H,1.0665840461,2.1449083825,-1.1407678378\C,3.480185253
 7,0.1810234597,0.1895661258\O,3.8846976087,2.0555841455,-1.2301838755\
 C,4.8359899688,-0.2162479869,0.4052435212\C,3.3605680113,3.2310603679,
 -1.8277457261\C,5.3374125452,-1.3424829563,1.0576108831\S,6.2113087426
 ,0.766562391,-0.1354068301\H,4.2218088862,3.7974722873,-2.1859622498\H
 ,2.7075291716,2.990734522,-2.6750164565\H,2.7968501329,3.8265823338,-1
 .102549824\C,6.7531280389,-1.4083396205,1.136170055\O,4.5292487515,-2.
 3043572509,1.6329287612\C,7.3743951572,-0.3474441942,0.540804402\H,7.2
 688340859,-2.2237119937,1.6293526502\C,4.1935521677,-3.391409702,0.767
 7419689\H,8.4305734284,-0.1468284349,0.446885364\H,5.0929600489,-3.952
 0854744,0.4801316778\H,3.5184160131,-4.0393653055,1.3279737769\H,3.680
 4386897,-3.0369353678,-0.1307327322\\Version=ES64L-G16RevC.01\State=1-
 A\HF=-2359.4012322\RMSD=4.842e-09\RMSF=4.363e-04\Dipole=6.0464313,0.05
 76794,-0.7935097\Quadrupole=-75.7953999,12.0376124,63.7577875,-0.15877
 15,-11.0818722,-6.7053486\PG=C01 [X(C26H18N2O6S2)]\\@
 The archive entry for this job was punched.


 THEREFORE SHALL EVIL COME UPON THEE...
 THOU SHALT NOT KNOW FROM WHENCE IT RISETH...
 AND MISCHIEF SHALL FALL UPON THEE...
 THOU SHALT NOT BE ABLE TO PUT IT OFF...
 AND DESOLATION SHALL COME UPON THEE SUDDENLY...
 WHICH THOU SHALT NOT KNOW...

                                         ISAIAH 47.11
 Job cpu time:       5 days 20 hours 56 minutes 14.0 seconds.
 Elapsed time:       0 days 17 hours 47 minutes 23.6 seconds.
 File lengths (MBytes):  RWF=    569 Int=      0 D2E=      0 Chk=     83 Scr=      1
 Normal termination of Gaussian 16 at Fri Oct  8 08:24:06 2021.
