 Entering Gaussian System, Link 0=g16
 Input=NDI_-155.gjf
 Output=NDI_-155.log
 Initial command:
 /apps/gaussian/g16-c01-avx/g16/l1.exe "/tmp/pbs.4643763[20].pbs/Gau-1521235.inp" -scrdir="/tmp/pbs.4643763[20].pbs/"
 Entering Link 1 = /apps/gaussian/g16-c01-avx/g16/l1.exe PID=   1521263.
  
 Copyright (c) 1988-2019, Gaussian, Inc.  All Rights Reserved.
  
 This is part of the Gaussian(R) 16 program.  It is based on
 the Gaussian(R) 09 system (copyright 2009, Gaussian, Inc.),
 the Gaussian(R) 03 system (copyright 2003, Gaussian, Inc.),
 the Gaussian(R) 98 system (copyright 1998, Gaussian, Inc.),
 the Gaussian(R) 94 system (copyright 1995, Gaussian, Inc.),
 the Gaussian 92(TM) system (copyright 1992, Gaussian, Inc.),
 the Gaussian 90(TM) system (copyright 1990, Gaussian, Inc.),
 the Gaussian 88(TM) system (copyright 1988, Gaussian, Inc.),
 the Gaussian 86(TM) system (copyright 1986, Carnegie Mellon
 University), and the Gaussian 82(TM) system (copyright 1983,
 Carnegie Mellon University). Gaussian is a federally registered
 trademark of Gaussian, Inc.
  
 This software contains proprietary and confidential information,
 including trade secrets, belonging to Gaussian, Inc.
  
 This software is provided under written license and may be
 used, copied, transmitted, or stored only in accord with that
 written license.
  
 The following legend is applicable only to US Government
 contracts under FAR:
  
                    RESTRICTED RIGHTS LEGEND
  
 Use, reproduction and disclosure by the US Government is
 subject to restrictions as set forth in subparagraphs (a)
 and (c) of the Commercial Computer Software - Restricted
 Rights clause in FAR 52.227-19.
  
 Gaussian, Inc.
 340 Quinnipiac St., Bldg. 40, Wallingford CT 06492
  
  
 ---------------------------------------------------------------
 Warning -- This program may not be used in any manner that
 competes with the business of Gaussian, Inc. or will provide
 assistance to any competitor of Gaussian, Inc.  The licensee
 of this program is prohibited from giving any competitor of
 Gaussian, Inc. access to this program.  By using this program,
 the user acknowledges that Gaussian, Inc. is engaged in the
 business of creating and licensing software in the field of
 computational chemistry and represents and warrants to the
 licensee that it is not a competitor of Gaussian, Inc. and that
 it will not use this program in any manner prohibited above.
 ---------------------------------------------------------------
  

 Cite this work as:
 Gaussian 16, Revision C.01,
 M. J. Frisch, G. W. Trucks, H. B. Schlegel, G. E. Scuseria, 
 M. A. Robb, J. R. Cheeseman, G. Scalmani, V. Barone, 
 G. A. Petersson, H. Nakatsuji, X. Li, M. Caricato, A. V. Marenich, 
 J. Bloino, B. G. Janesko, R. Gomperts, B. Mennucci, H. P. Hratchian, 
 J. V. Ortiz, A. F. Izmaylov, J. L. Sonnenberg, D. Williams-Young, 
 F. Ding, F. Lipparini, F. Egidi, J. Goings, B. Peng, A. Petrone, 
 T. Henderson, D. Ranasinghe, V. G. Zakrzewski, J. Gao, N. Rega, 
 G. Zheng, W. Liang, M. Hada, M. Ehara, K. Toyota, R. Fukuda, 
 J. Hasegawa, M. Ishida, T. Nakajima, Y. Honda, O. Kitao, H. Nakai, 
 T. Vreven, K. Throssell, J. A. Montgomery, Jr., J. E. Peralta, 
 F. Ogliaro, M. J. Bearpark, J. J. Heyd, E. N. Brothers, K. N. Kudin, 
 V. N. Staroverov, T. A. Keith, R. Kobayashi, J. Normand, 
 K. Raghavachari, A. P. Rendell, J. C. Burant, S. S. Iyengar, 
 J. Tomasi, M. Cossi, J. M. Millam, M. Klene, C. Adamo, R. Cammi, 
 J. W. Ochterski, R. L. Martin, K. Morokuma, O. Farkas, 
 J. B. Foresman, and D. J. Fox, Gaussian, Inc., Wallingford CT, 2019.
 
 ******************************************
 Gaussian 16:  ES64L-G16RevC.01  3-Jul-2019
                 5-Oct-2021 
 ******************************************
 %mem=10GB
 %nprocshared=8
 Will use up to    8 processors via shared memory.
 -------------------------------------
 # opt=modredundant b3lyp/6-311+g(d,p)
 -------------------------------------
 1/18=120,19=15,26=3,38=1/1,3;
 2/9=110,12=2,17=6,18=5,40=1/2;
 3/5=4,6=6,7=111,11=2,25=1,30=1,71=1,74=-5/1,2,3;
 4//1;
 5/5=2,38=5/2;
 6/7=2,8=2,9=2,10=2,28=1/1;
 7//1,2,3,16;
 1/18=20,19=15,26=3/3(2);
 2/9=110/2;
 99//99;
 2/9=110/2;
 3/5=4,6=6,7=111,11=2,25=1,30=1,71=1,74=-5/1,2,3;
 4/5=5,16=3,69=1/1;
 5/5=2,38=5/2;
 7//1,2,3,16;
 1/18=20,19=15,26=3/3(-5);
 2/9=110/2;
 6/7=2,8=2,9=2,10=2,19=2,28=1/1;
 99/9=1/99;
 ------------
 NDI_-155.pdb
 ------------
 Symbolic Z-matrix:
 Charge = -2 Multiplicity = 1
 C                    -2.563    -2.994    -0.409 
 C                    -2.257    -1.551    -0.224 
 C                    -3.301    -0.607    -0.083 
 C                    -4.65     -1.024    -0.115 
 C                    -4.992    -2.459    -0.304 
 C                    -0.949    -1.137    -0.215 
 C                    -2.962     0.764     0.102 
 C                    -1.595     1.188     0.123 
 C                    -0.561     0.232    -0.072 
 C                    -1.328     2.616     0.446 
 C                    -3.777     3.115     0.508 
 C                    -4.035     1.679     0.268 
 C                    -5.356     1.252     0.23 
 C                    -5.672    -0.098     0.036 
 H                    -6.699    -0.442     0.008 
 H                    -6.133     1.997     0.361 
 H                    -0.19     -1.895    -0.369 
 N                    -2.432     3.476     0.608 
 N                    -3.916    -3.353    -0.438 
 O                    -1.695    -3.847    -0.532 
 O                    -6.149    -2.85     -0.34 
 O                    -4.676     3.938     0.629 
 O                    -0.212     3.097     0.596 
 C                    -2.111     4.875     0.912 
 H                    -1.54      4.931     1.84 
 H                    -1.5       5.299     0.111 
 H                    -3.05      5.414     1.003 
 C                    -4.206    -4.779    -0.625 
 H                    -3.759    -5.126    -1.559 
 H                    -3.775    -5.355     0.196 
 H                    -5.286    -4.897    -0.649 
 C                     0.876     0.482    -0.178 
 C                     1.877    -0.245    -0.792 
 S                     1.571     1.836     0.714 
 C                     3.169     0.268    -0.561 
 H                     1.68     -1.116    -1.396 
 C                     3.2       1.417     0.237 
 O                     4.338    -0.241    -1.032 
 C                     4.348     2.193     0.613 
 C                     4.259    -1.323    -1.955 
 C                     4.38      3.323     1.427 
 S                     5.982     1.815     0.074 
 H                     5.283    -1.526    -2.268 
 H                     3.84     -2.219    -1.481 
 H                     3.652    -1.056    -2.828 
 C                     5.681     3.871     1.612 
 O                     3.22      3.796     1.953 
 C                     6.637     3.157     0.941 
 H                     5.898     4.745     2.211 
 C                     3.289     4.931     2.809 
 H                     7.7       3.349     0.91 
 H                     3.682     5.807     2.277 
 H                     2.266     5.131     3.127 
 H                     3.912     4.729     3.688 
 
 The following ModRedundant input section has been read:
 D       8       9      32      33 F                                           
 

 GradGradGradGradGradGradGradGradGradGradGradGradGradGradGradGradGradGrad
 Berny optimization.
 Initialization pass.
                           ----------------------------
                           !    Initial Parameters    !
                           ! (Angstroms and Degrees)  !
 --------------------------                            --------------------------
 ! Name  Definition              Value          Derivative Info.                !
 --------------------------------------------------------------------------------
 ! R1    R(1,2)                  1.4866         estimate D2E/DX2                !
 ! R2    R(1,19)                 1.4001         estimate D2E/DX2                !
 ! R3    R(1,20)                 1.2232         estimate D2E/DX2                !
 ! R4    R(2,3)                  1.4146         estimate D2E/DX2                !
 ! R5    R(2,6)                  1.372          estimate D2E/DX2                !
 ! R6    R(3,4)                  1.4123         estimate D2E/DX2                !
 ! R7    R(3,7)                  1.4244         estimate D2E/DX2                !
 ! R8    R(4,5)                  1.4872         estimate D2E/DX2                !
 ! R9    R(4,14)                 1.3874         estimate D2E/DX2                !
 ! R10   R(5,19)                 1.4053         estimate D2E/DX2                !
 ! R11   R(5,21)                 1.2218         estimate D2E/DX2                !
 ! R12   R(6,9)                  1.4301         estimate D2E/DX2                !
 ! R13   R(6,17)                 1.0837         estimate D2E/DX2                !
 ! R14   R(7,8)                  1.4314         estimate D2E/DX2                !
 ! R15   R(7,12)                 1.4199         estimate D2E/DX2                !
 ! R16   R(8,9)                  1.4217         estimate D2E/DX2                !
 ! R17   R(8,10)                 1.4882         estimate D2E/DX2                !
 ! R18   R(9,32)                 1.4624         estimate D2E/DX2                !
 ! R19   R(10,18)                1.4088         estimate D2E/DX2                !
 ! R20   R(10,23)                1.2245         estimate D2E/DX2                !
 ! R21   R(11,12)                1.4786         estimate D2E/DX2                !
 ! R22   R(11,18)                1.3962         estimate D2E/DX2                !
 ! R23   R(11,22)                1.2248         estimate D2E/DX2                !
 ! R24   R(12,13)                1.3888         estimate D2E/DX2                !
 ! R25   R(13,14)                1.4            estimate D2E/DX2                !
 ! R26   R(13,16)                1.0844         estimate D2E/DX2                !
 ! R27   R(14,15)                1.0834         estimate D2E/DX2                !
 ! R28   R(18,24)                1.4672         estimate D2E/DX2                !
 ! R29   R(19,28)                1.4672         estimate D2E/DX2                !
 ! R30   R(24,25)                1.091          estimate D2E/DX2                !
 ! R31   R(24,26)                1.093          estimate D2E/DX2                !
 ! R32   R(24,27)                1.0865         estimate D2E/DX2                !
 ! R33   R(28,29)                1.0921         estimate D2E/DX2                !
 ! R34   R(28,30)                1.0916         estimate D2E/DX2                !
 ! R35   R(28,31)                1.0867         estimate D2E/DX2                !
 ! R36   R(32,33)                1.3811         estimate D2E/DX2                !
 ! R37   R(32,34)                1.7641         estimate D2E/DX2                !
 ! R38   R(33,35)                1.4092         estimate D2E/DX2                !
 ! R39   R(33,36)                1.0781         estimate D2E/DX2                !
 ! R40   R(34,37)                1.7484         estimate D2E/DX2                !
 ! R41   R(35,37)                1.3993         estimate D2E/DX2                !
 ! R42   R(35,38)                1.3592         estimate D2E/DX2                !
 ! R43   R(37,39)                1.4358         estimate D2E/DX2                !
 ! R44   R(38,40)                1.4244         estimate D2E/DX2                !
 ! R45   R(39,41)                1.393          estimate D2E/DX2                !
 ! R46   R(39,42)                1.7616         estimate D2E/DX2                !
 ! R47   R(40,43)                1.0898         estimate D2E/DX2                !
 ! R48   R(40,44)                1.0968         estimate D2E/DX2                !
 ! R49   R(40,45)                1.0963         estimate D2E/DX2                !
 ! R50   R(41,46)                1.4238         estimate D2E/DX2                !
 ! R51   R(41,47)                1.3587         estimate D2E/DX2                !
 ! R52   R(42,48)                1.7268         estimate D2E/DX2                !
 ! R53   R(46,48)                1.3689         estimate D2E/DX2                !
 ! R54   R(46,49)                1.0816         estimate D2E/DX2                !
 ! R55   R(47,50)                1.4233         estimate D2E/DX2                !
 ! R56   R(48,51)                1.0806         estimate D2E/DX2                !
 ! R57   R(50,52)                1.0977         estimate D2E/DX2                !
 ! R58   R(50,53)                1.0898         estimate D2E/DX2                !
 ! R59   R(50,54)                1.0962         estimate D2E/DX2                !
 ! A1    A(2,1,19)             116.767          estimate D2E/DX2                !
 ! A2    A(2,1,20)             122.9113         estimate D2E/DX2                !
 ! A3    A(19,1,20)            120.3217         estimate D2E/DX2                !
 ! A4    A(1,2,3)              120.5473         estimate D2E/DX2                !
 ! A5    A(1,2,6)              119.3369         estimate D2E/DX2                !
 ! A6    A(3,2,6)              120.1056         estimate D2E/DX2                !
 ! A7    A(2,3,4)              120.3743         estimate D2E/DX2                !
 ! A8    A(2,3,7)              118.662          estimate D2E/DX2                !
 ! A9    A(4,3,7)              120.9617         estimate D2E/DX2                !
 ! A10   A(3,4,5)              120.4909         estimate D2E/DX2                !
 ! A11   A(3,4,14)             120.2702         estimate D2E/DX2                !
 ! A12   A(5,4,14)             119.2382         estimate D2E/DX2                !
 ! A13   A(4,5,19)             116.7341         estimate D2E/DX2                !
 ! A14   A(4,5,21)             122.024          estimate D2E/DX2                !
 ! A15   A(19,5,21)            121.2418         estimate D2E/DX2                !
 ! A16   A(2,6,9)              123.2421         estimate D2E/DX2                !
 ! A17   A(2,6,17)             117.1119         estimate D2E/DX2                !
 ! A18   A(9,6,17)             119.589          estimate D2E/DX2                !
 ! A19   A(3,7,8)              120.9519         estimate D2E/DX2                !
 ! A20   A(3,7,12)             117.1037         estimate D2E/DX2                !
 ! A21   A(8,7,12)             121.944          estimate D2E/DX2                !
 ! A22   A(7,8,9)              119.5639         estimate D2E/DX2                !
 ! A23   A(7,8,10)             117.3064         estimate D2E/DX2                !
 ! A24   A(9,8,10)             122.9922         estimate D2E/DX2                !
 ! A25   A(6,9,8)              117.3944         estimate D2E/DX2                !
 ! A26   A(6,9,32)             115.0236         estimate D2E/DX2                !
 ! A27   A(8,9,32)             127.5648         estimate D2E/DX2                !
 ! A28   A(8,10,18)            118.042          estimate D2E/DX2                !
 ! A29   A(8,10,23)            124.5436         estimate D2E/DX2                !
 ! A30   A(18,10,23)           117.4097         estimate D2E/DX2                !
 ! A31   A(12,11,18)           115.5202         estimate D2E/DX2                !
 ! A32   A(12,11,22)           122.7205         estimate D2E/DX2                !
 ! A33   A(18,11,22)           121.7534         estimate D2E/DX2                !
 ! A34   A(7,12,11)            120.8614         estimate D2E/DX2                !
 ! A35   A(7,12,13)            121.162          estimate D2E/DX2                !
 ! A36   A(11,12,13)           117.9699         estimate D2E/DX2                !
 ! A37   A(12,13,14)           120.9948         estimate D2E/DX2                !
 ! A38   A(12,13,16)           117.8401         estimate D2E/DX2                !
 ! A39   A(14,13,16)           121.1642         estimate D2E/DX2                !
 ! A40   A(4,14,13)            119.5003         estimate D2E/DX2                !
 ! A41   A(4,14,15)            118.9169         estimate D2E/DX2                !
 ! A42   A(13,14,15)           121.5811         estimate D2E/DX2                !
 ! A43   A(10,18,11)           126.0753         estimate D2E/DX2                !
 ! A44   A(10,18,24)           115.7508         estimate D2E/DX2                !
 ! A45   A(11,18,24)           118.1737         estimate D2E/DX2                !
 ! A46   A(1,19,5)             125.0856         estimate D2E/DX2                !
 ! A47   A(1,19,28)            116.2868         estimate D2E/DX2                !
 ! A48   A(5,19,28)            118.6276         estimate D2E/DX2                !
 ! A49   A(18,24,25)           109.8574         estimate D2E/DX2                !
 ! A50   A(18,24,26)           109.8979         estimate D2E/DX2                !
 ! A51   A(18,24,27)           107.5355         estimate D2E/DX2                !
 ! A52   A(25,24,26)           108.1108         estimate D2E/DX2                !
 ! A53   A(25,24,27)           110.8301         estimate D2E/DX2                !
 ! A54   A(26,24,27)           110.6124         estimate D2E/DX2                !
 ! A55   A(19,28,29)           109.6906         estimate D2E/DX2                !
 ! A56   A(19,28,30)           109.8136         estimate D2E/DX2                !
 ! A57   A(19,28,31)           107.7461         estimate D2E/DX2                !
 ! A58   A(29,28,30)           108.2991         estimate D2E/DX2                !
 ! A59   A(29,28,31)           110.6959         estimate D2E/DX2                !
 ! A60   A(30,28,31)           110.5924         estimate D2E/DX2                !
 ! A61   A(9,32,33)            130.8744         estimate D2E/DX2                !
 ! A62   A(9,32,34)            118.7951         estimate D2E/DX2                !
 ! A63   A(33,32,34)           110.0761         estimate D2E/DX2                !
 ! A64   A(32,33,35)           113.5782         estimate D2E/DX2                !
 ! A65   A(32,33,36)           122.813          estimate D2E/DX2                !
 ! A66   A(35,33,36)           123.6067         estimate D2E/DX2                !
 ! A67   A(32,34,37)            92.5895         estimate D2E/DX2                !
 ! A68   A(33,35,37)           114.3762         estimate D2E/DX2                !
 ! A69   A(33,35,38)           126.5414         estimate D2E/DX2                !
 ! A70   A(37,35,38)           119.0823         estimate D2E/DX2                !
 ! A71   A(34,37,35)           109.3745         estimate D2E/DX2                !
 ! A72   A(34,37,39)           122.957          estimate D2E/DX2                !
 ! A73   A(35,37,39)           127.6523         estimate D2E/DX2                !
 ! A74   A(35,38,40)           117.4715         estimate D2E/DX2                !
 ! A75   A(37,39,41)           127.5763         estimate D2E/DX2                !
 ! A76   A(37,39,42)           123.0615         estimate D2E/DX2                !
 ! A77   A(41,39,42)           109.3622         estimate D2E/DX2                !
 ! A78   A(38,40,43)           105.9908         estimate D2E/DX2                !
 ! A79   A(38,40,44)           111.2037         estimate D2E/DX2                !
 ! A80   A(38,40,45)           111.2055         estimate D2E/DX2                !
 ! A81   A(43,40,44)           109.3223         estimate D2E/DX2                !
 ! A82   A(43,40,45)           109.6879         estimate D2E/DX2                !
 ! A83   A(44,40,45)           109.3642         estimate D2E/DX2                !
 ! A84   A(39,41,46)           114.1506         estimate D2E/DX2                !
 ! A85   A(39,41,47)           119.2755         estimate D2E/DX2                !
 ! A86   A(46,41,47)           126.5734         estimate D2E/DX2                !
 ! A87   A(39,42,48)            91.8025         estimate D2E/DX2                !
 ! A88   A(41,46,48)           111.9437         estimate D2E/DX2                !
 ! A89   A(41,46,49)           124.4946         estimate D2E/DX2                !
 ! A90   A(48,46,49)           123.5616         estimate D2E/DX2                !
 ! A91   A(41,47,50)           117.9738         estimate D2E/DX2                !
 ! A92   A(42,48,46)           112.7409         estimate D2E/DX2                !
 ! A93   A(42,48,51)           119.7892         estimate D2E/DX2                !
 ! A94   A(46,48,51)           127.4699         estimate D2E/DX2                !
 ! A95   A(47,50,52)           111.2405         estimate D2E/DX2                !
 ! A96   A(47,50,53)           106.0417         estimate D2E/DX2                !
 ! A97   A(47,50,54)           111.277          estimate D2E/DX2                !
 ! A98   A(52,50,53)           109.3328         estimate D2E/DX2                !
 ! A99   A(52,50,54)           109.4041         estimate D2E/DX2                !
 ! A100  A(53,50,54)           109.4717         estimate D2E/DX2                !
 ! D1    D(19,1,2,3)             0.1578         estimate D2E/DX2                !
 ! D2    D(19,1,2,6)          -178.6792         estimate D2E/DX2                !
 ! D3    D(20,1,2,3)          -179.8231         estimate D2E/DX2                !
 ! D4    D(20,1,2,6)             1.3399         estimate D2E/DX2                !
 ! D5    D(2,1,19,5)            -0.124          estimate D2E/DX2                !
 ! D6    D(2,1,19,28)          179.8267         estimate D2E/DX2                !
 ! D7    D(20,1,19,5)          179.8575         estimate D2E/DX2                !
 ! D8    D(20,1,19,28)          -0.1919         estimate D2E/DX2                !
 ! D9    D(1,2,3,4)              0.0571         estimate D2E/DX2                !
 ! D10   D(1,2,3,7)            179.5453         estimate D2E/DX2                !
 ! D11   D(6,2,3,4)            178.8851         estimate D2E/DX2                !
 ! D12   D(6,2,3,7)             -1.6266         estimate D2E/DX2                !
 ! D13   D(1,2,6,9)            178.625          estimate D2E/DX2                !
 ! D14   D(1,2,6,17)             1.3881         estimate D2E/DX2                !
 ! D15   D(3,2,6,9)             -0.2173         estimate D2E/DX2                !
 ! D16   D(3,2,6,17)          -177.4541         estimate D2E/DX2                !
 ! D17   D(2,3,4,5)             -0.3074         estimate D2E/DX2                !
 ! D18   D(2,3,4,14)           179.3968         estimate D2E/DX2                !
 ! D19   D(7,3,4,5)           -179.7837         estimate D2E/DX2                !
 ! D20   D(7,3,4,14)            -0.0795         estimate D2E/DX2                !
 ! D21   D(2,3,7,8)              1.0523         estimate D2E/DX2                !
 ! D22   D(2,3,7,12)          -178.712          estimate D2E/DX2                !
 ! D23   D(4,3,7,8)           -179.4626         estimate D2E/DX2                !
 ! D24   D(4,3,7,12)             0.7731         estimate D2E/DX2                !
 ! D25   D(3,4,5,19)             0.3343         estimate D2E/DX2                !
 ! D26   D(3,4,5,21)          -179.7799         estimate D2E/DX2                !
 ! D27   D(14,4,5,19)         -179.3729         estimate D2E/DX2                !
 ! D28   D(14,4,5,21)            0.5129         estimate D2E/DX2                !
 ! D29   D(3,4,14,13)           -0.4559         estimate D2E/DX2                !
 ! D30   D(3,4,14,15)         -179.9937         estimate D2E/DX2                !
 ! D31   D(5,4,14,13)          179.252          estimate D2E/DX2                !
 ! D32   D(5,4,14,15)           -0.2858         estimate D2E/DX2                !
 ! D33   D(4,5,19,1)            -0.1141         estimate D2E/DX2                !
 ! D34   D(4,5,19,28)          179.9364         estimate D2E/DX2                !
 ! D35   D(21,5,19,1)          179.9992         estimate D2E/DX2                !
 ! D36   D(21,5,19,28)           0.0496         estimate D2E/DX2                !
 ! D37   D(2,6,9,8)              2.5984         estimate D2E/DX2                !
 ! D38   D(2,6,9,32)          -176.0103         estimate D2E/DX2                !
 ! D39   D(17,6,9,8)           179.77           estimate D2E/DX2                !
 ! D40   D(17,6,9,32)            1.1613         estimate D2E/DX2                !
 ! D41   D(3,7,8,9)              1.3551         estimate D2E/DX2                !
 ! D42   D(3,7,8,10)          -174.5099         estimate D2E/DX2                !
 ! D43   D(12,7,8,9)          -178.8921         estimate D2E/DX2                !
 ! D44   D(12,7,8,10)            5.2428         estimate D2E/DX2                !
 ! D45   D(3,7,12,11)          178.0768         estimate D2E/DX2                !
 ! D46   D(3,7,12,13)           -0.9621         estimate D2E/DX2                !
 ! D47   D(8,7,12,11)           -1.685          estimate D2E/DX2                !
 ! D48   D(8,7,12,13)          179.2761         estimate D2E/DX2                !
 ! D49   D(7,8,9,6)             -3.0809         estimate D2E/DX2                !
 ! D50   D(7,8,9,32)           175.3285         estimate D2E/DX2                !
 ! D51   D(10,8,9,6)           172.5381         estimate D2E/DX2                !
 ! D52   D(10,8,9,32)           -9.0525         estimate D2E/DX2                !
 ! D53   D(7,8,10,18)           -4.7549         estimate D2E/DX2                !
 ! D54   D(7,8,10,23)          174.4235         estimate D2E/DX2                !
 ! D55   D(9,8,10,18)          179.5335         estimate D2E/DX2                !
 ! D56   D(9,8,10,23)           -1.2882         estimate D2E/DX2                !
 ! D57   D(6,9,32,33)           23.463          estimate D2E/DX2                !
 ! D58   D(6,9,32,34)         -150.1088         estimate D2E/DX2                !
 ! D59   D(8,9,32,33)         -154.9785         Frozen                          !
 ! D60   D(8,9,32,34)           31.4497         estimate D2E/DX2                !
 ! D61   D(8,10,18,11)           0.7189         estimate D2E/DX2                !
 ! D62   D(8,10,18,24)        -179.4089         estimate D2E/DX2                !
 ! D63   D(23,10,18,11)       -178.5188         estimate D2E/DX2                !
 ! D64   D(23,10,18,24)          1.3535         estimate D2E/DX2                !
 ! D65   D(18,11,12,7)          -2.3856         estimate D2E/DX2                !
 ! D66   D(18,11,12,13)        176.6833         estimate D2E/DX2                !
 ! D67   D(22,11,12,7)         178.4862         estimate D2E/DX2                !
 ! D68   D(22,11,12,13)         -2.445          estimate D2E/DX2                !
 ! D69   D(12,11,18,10)          2.8444         estimate D2E/DX2                !
 ! D70   D(12,11,18,24)       -177.0251         estimate D2E/DX2                !
 ! D71   D(22,11,18,10)       -178.0181         estimate D2E/DX2                !
 ! D72   D(22,11,18,24)          2.1124         estimate D2E/DX2                !
 ! D73   D(7,12,13,14)           0.461          estimate D2E/DX2                !
 ! D74   D(7,12,13,16)        -179.8781         estimate D2E/DX2                !
 ! D75   D(11,12,13,14)       -178.6049         estimate D2E/DX2                !
 ! D76   D(11,12,13,16)          1.056          estimate D2E/DX2                !
 ! D77   D(12,13,14,4)           0.2708         estimate D2E/DX2                !
 ! D78   D(12,13,14,15)        179.7958         estimate D2E/DX2                !
 ! D79   D(16,13,14,4)        -179.3788         estimate D2E/DX2                !
 ! D80   D(16,13,14,15)          0.1463         estimate D2E/DX2                !
 ! D81   D(10,18,24,25)        -59.609          estimate D2E/DX2                !
 ! D82   D(10,18,24,26)         59.2209         estimate D2E/DX2                !
 ! D83   D(10,18,24,27)        179.6858         estimate D2E/DX2                !
 ! D84   D(11,18,24,25)        120.2739         estimate D2E/DX2                !
 ! D85   D(11,18,24,26)       -120.8962         estimate D2E/DX2                !
 ! D86   D(11,18,24,27)         -0.4313         estimate D2E/DX2                !
 ! D87   D(1,19,28,29)         -58.1407         estimate D2E/DX2                !
 ! D88   D(1,19,28,30)          60.7668         estimate D2E/DX2                !
 ! D89   D(1,19,28,31)        -178.7139         estimate D2E/DX2                !
 ! D90   D(5,19,28,29)         121.8132         estimate D2E/DX2                !
 ! D91   D(5,19,28,30)        -119.2792         estimate D2E/DX2                !
 ! D92   D(5,19,28,31)           1.2401         estimate D2E/DX2                !
 ! D93   D(9,32,33,35)        -174.215          estimate D2E/DX2                !
 ! D94   D(9,32,33,36)           6.2849         estimate D2E/DX2                !
 ! D95   D(34,32,33,35)         -0.2112         estimate D2E/DX2                !
 ! D96   D(34,32,33,36)       -179.7113         estimate D2E/DX2                !
 ! D97   D(9,32,34,37)         175.3547         estimate D2E/DX2                !
 ! D98   D(33,32,34,37)          0.526          estimate D2E/DX2                !
 ! D99   D(32,33,35,37)         -0.3347         estimate D2E/DX2                !
 ! D100  D(32,33,35,38)        179.7321         estimate D2E/DX2                !
 ! D101  D(36,33,35,37)        179.1608         estimate D2E/DX2                !
 ! D102  D(36,33,35,38)         -0.7724         estimate D2E/DX2                !
 ! D103  D(32,34,37,35)         -0.698          estimate D2E/DX2                !
 ! D104  D(32,34,37,39)        177.9369         estimate D2E/DX2                !
 ! D105  D(33,35,37,34)          0.7162         estimate D2E/DX2                !
 ! D106  D(33,35,37,39)       -177.8371         estimate D2E/DX2                !
 ! D107  D(38,35,37,34)       -179.3453         estimate D2E/DX2                !
 ! D108  D(38,35,37,39)          2.1015         estimate D2E/DX2                !
 ! D109  D(33,35,38,40)          6.4863         estimate D2E/DX2                !
 ! D110  D(37,35,38,40)       -173.444          estimate D2E/DX2                !
 ! D111  D(34,37,39,41)          2.8695         estimate D2E/DX2                !
 ! D112  D(34,37,39,42)       -177.1486         estimate D2E/DX2                !
 ! D113  D(35,37,39,41)       -178.7571         estimate D2E/DX2                !
 ! D114  D(35,37,39,42)          1.2248         estimate D2E/DX2                !
 ! D115  D(35,38,40,43)        175.5022         estimate D2E/DX2                !
 ! D116  D(35,38,40,44)        -65.7881         estimate D2E/DX2                !
 ! D117  D(35,38,40,45)         56.3524         estimate D2E/DX2                !
 ! D118  D(37,39,41,46)       -179.9701         estimate D2E/DX2                !
 ! D119  D(37,39,41,47)         -0.2103         estimate D2E/DX2                !
 ! D120  D(42,39,41,46)          0.046          estimate D2E/DX2                !
 ! D121  D(42,39,41,47)        179.8057         estimate D2E/DX2                !
 ! D122  D(37,39,42,48)       -179.9758         estimate D2E/DX2                !
 ! D123  D(41,39,42,48)          0.009          estimate D2E/DX2                !
 ! D124  D(39,41,46,48)         -0.095          estimate D2E/DX2                !
 ! D125  D(39,41,46,49)       -179.9597         estimate D2E/DX2                !
 ! D126  D(47,41,46,48)       -179.8341         estimate D2E/DX2                !
 ! D127  D(47,41,46,49)          0.3012         estimate D2E/DX2                !
 ! D128  D(39,41,47,50)        178.381          estimate D2E/DX2                !
 ! D129  D(46,41,47,50)         -1.892          estimate D2E/DX2                !
 ! D130  D(39,42,48,46)         -0.0637         estimate D2E/DX2                !
 ! D131  D(39,42,48,51)        179.8976         estimate D2E/DX2                !
 ! D132  D(41,46,48,42)          0.1002         estimate D2E/DX2                !
 ! D133  D(41,46,48,51)       -179.8575         estimate D2E/DX2                !
 ! D134  D(49,46,48,42)        179.9664         estimate D2E/DX2                !
 ! D135  D(49,46,48,51)          0.0087         estimate D2E/DX2                !
 ! D136  D(41,47,50,52)         62.0815         estimate D2E/DX2                !
 ! D137  D(41,47,50,53)       -179.1458         estimate D2E/DX2                !
 ! D138  D(41,47,50,54)        -60.1864         estimate D2E/DX2                !
 --------------------------------------------------------------------------------
 Trust Radius=3.00D-01 FncErr=1.00D-07 GrdErr=1.00D-06 EigMax=2.50D+02 EigMin=1.00D-04
 Number of steps in this run=    307 maximum allowed number of steps=    324.
 GradGradGradGradGradGradGradGradGradGradGradGradGradGradGradGradGradGrad

 Stoichiometry    C26H18N2O6S2(2-)
 Framework group  C1[X(C26H18N2O6S2)]
 Deg. of freedom   156
 Full point group                 C1      NOp   1
 Largest Abelian subgroup         C1      NOp   1
 Largest concise Abelian subgroup C1      NOp   1
                         Standard orientation:                         
 ---------------------------------------------------------------------
 Center     Atomic      Atomic             Coordinates (Angstroms)
 Number     Number       Type             X           Y           Z
 ---------------------------------------------------------------------
      1          6           0       -3.765913   -2.565225    0.437554
      2          6           0       -2.912098   -1.370444    0.206019
      3          6           0       -3.494506   -0.092599    0.036121
      4          6           0       -4.897132    0.065236    0.085529
      5          6           0       -5.781278   -1.109448    0.309836
      6          6           0       -1.550303   -1.521122    0.134238
      7          6           0       -2.638151    1.026092   -0.173574
      8          6           0       -1.217258    0.864237   -0.234990
      9          6           0       -0.653400   -0.435164   -0.113581
     10          6           0       -0.392938    2.099558   -0.331334
     11          6           0       -2.444329    3.519751   -0.490372
     12          6           0       -3.256185    2.296908   -0.312034
     13          6           0       -4.637478    2.433275   -0.264625
     14          6           0       -5.465399    1.321412   -0.068926
     15          1           0       -6.543779    1.417317   -0.027110
     16          1           0       -5.052288    3.428714   -0.378423
     17          1           0       -1.159058   -2.527233    0.229251
     18          7           0       -1.061008    3.333307   -0.458633
     19          7           0       -5.149581   -2.354169    0.472920
     20          8           0       -3.308476   -3.688944    0.593017
     21          8           0       -6.997885   -1.005668    0.353683
     22          8           0       -2.941984    4.628860   -0.639999
     23          8           0        0.830727    2.122429   -0.293410
     24          6           0       -0.199944    4.516653   -0.563130
     25          1           0        0.427517    4.598069    0.325703
     26          1           0        0.454474    4.424819   -1.433763
     27          1           0       -0.846502    5.384417   -0.660445
     28          6           0       -5.982320   -3.540923    0.698103
     29          1           0       -5.787558   -4.280412   -0.081510
     30          1           0       -5.736581   -3.987643    1.663314
     31          1           0       -7.021863   -3.225021    0.676719
     32          6           0        0.753532   -0.812302   -0.244012
     33          6           0        1.338636   -2.014363   -0.590754
     34         16           0        1.992335    0.347312    0.238343
     35          6           0        2.743397   -2.010390   -0.479291
     36          1           0        0.768776   -2.867326   -0.922385
     37          6           0        3.285037   -0.794580   -0.047551
     38          8           0        3.579427   -3.048044   -0.747268
     39          6           0        4.671698   -0.463177    0.122148
     40          6           0        3.008574   -4.220921   -1.319441
     41          6           0        5.208332    0.740035    0.574726
     42         16           0        5.979364   -1.588331   -0.234780
     43          1           0        3.843310   -4.889472   -1.529223
     44          1           0        2.319765   -4.709051   -0.619209
     45          1           0        2.477450   -3.989916   -2.250253
     46          6           0        6.630822    0.758353    0.632319
     47          8           0        4.371510    1.757866    0.906015
     48          6           0        7.174608   -0.430392    0.225924
     49          1           0        7.219770    1.604668    0.958902
     50          6           0        4.947740    2.962522    1.398444
     51          1           0        8.222251   -0.690026    0.172753
     52          1           0        5.599867    3.427288    0.647729
     53          1           0        4.113204    3.629439    1.613908
     54          1           0        5.519156    2.783814    2.316660
 ---------------------------------------------------------------------
 Rotational constants (GHZ):           0.1724398           0.0579666           0.0445636
 Standard basis: 6-311+G(d,p) (5D, 7F)
 There are   952 symmetry adapted cartesian basis functions of A   symmetry.
 There are   916 symmetry adapted basis functions of A   symmetry.
   916 basis functions,  1468 primitive gaussians,   952 cartesian basis functions
   135 alpha electrons      135 beta electrons
       nuclear repulsion energy      4119.4249270947 Hartrees.
 NAtoms=   54 NActive=   54 NUniq=   54 SFac= 1.00D+00 NAtFMM=   60 NAOKFM=F Big=F
 Integral buffers will be    131072 words long.
 Raffenetti 2 integral format.
 Two-electron integral symmetry is turned on.
 One-electron integrals computed using PRISM.
 NBasis=   916 RedAO= T EigKep=  1.39D-06  NBF=   916
 NBsUse=   901 1.00D-06 EigRej=  7.17D-07 NBFU=   901
 ExpMin= 4.05D-02 ExpMax= 9.34D+04 ExpMxC= 3.17D+03 IAcc=3 IRadAn=         5 AccDes= 0.00D+00
 Harris functional with IExCor=  402 and IRadAn=       5 diagonalized for initial guess.
 HarFok:  IExCor=  402 AccDes= 0.00D+00 IRadAn=         5 IDoV= 1 UseB2=F ITyADJ=14
 ICtDFT=  3500011 ScaDFX=  1.000000  1.000000  1.000000  1.000000
 FoFCou: FMM=F IPFlag=           0 FMFlag=      100000 FMFlg1=           0
         NFxFlg=           0 DoJE=T BraDBF=F KetDBF=T FulRan=T
         wScrn=  0.000000 ICntrl=       500 IOpCl=  0 I1Cent=   200000004 NGrid=           0
         NMat0=    1 NMatS0=      1 NMatT0=    0 NMatD0=    1 NMtDS0=    0 NMtDT0=    0
 Petite list used in FoFCou.
 Requested convergence on RMS density matrix=1.00D-08 within 128 cycles.
 Requested convergence on MAX density matrix=1.00D-06.
 Requested convergence on             energy=1.00D-06.
 No special actions if energy rises.
 EnCoef did     9 forward-backward iterations
 EnCoef did   100 forward-backward iterations
 EnCoef did     4 forward-backward iterations
 Restarting incremental Fock formation.
 SCF Done:  E(RB3LYP) =  -2359.35198878     A.U. after   23 cycles
            NFock= 23  Conv=0.55D-08     -V/T= 2.0028

 **********************************************************************

            Population analysis using the SCF Density.

 **********************************************************************

 Orbital symmetries:
       Occupied  (A) (A) (A) (A) (A) (A) (A) (A) (A) (A) (A) (A)
                 (A) (A) (A) (A) (A) (A) (A) (A) (A) (A) (A) (A)
                 (A) (A) (A) (A) (A) (A) (A) (A) (A) (A) (A) (A)
                 (A) (A) (A) (A) (A) (A) (A) (A) (A) (A) (A) (A)
                 (A) (A) (A) (A) (A) (A) (A) (A) (A) (A) (A) (A)
                 (A) (A) (A) (A) (A) (A) (A) (A) (A) (A) (A) (A)
                 (A) (A) (A) (A) (A) (A) (A) (A) (A) (A) (A) (A)
                 (A) (A) (A) (A) (A) (A) (A) (A) (A) (A) (A) (A)
                 (A) (A) (A) (A) (A) (A) (A) (A) (A) (A) (A) (A)
                 (A) (A) (A) (A) (A) (A) (A) (A) (A) (A) (A) (A)
                 (A) (A) (A) (A) (A) (A) (A) (A) (A) (A) (A) (A)
                 (A) (A) (A)
       Virtual   (A) (A) (A) (A) (A) (A) (A) (A) (A) (A) (A) (A)
                 (A) (A) (A) (A) (A) (A) (A) (A) (A) (A) (A) (A)
                 (A) (A) (A) (A) (A) (A) (A) (A) (A) (A) (A) (A)
                 (A) (A) (A) (A) (A) (A) (A) (A) (A) (A) (A) (A)
                 (A) (A) (A) (A) (A) (A) (A) (A) (A) (A) (A) (A)
                 (A) (A) (A) (A) (A) (A) (A) (A) (A) (A) (A) (A)
                 (A) (A) (A) (A) (A) (A) (A) (A) (A) (A) (A) (A)
                 (A) (A) (A) (A) (A) (A) (A) (A) (A) (A) (A) (A)
                 (A) (A) (A) (A) (A) (A) (A) (A) (A) (A) (A) (A)
                 (A) (A) (A) (A) (A) (A) (A) (A) (A) (A) (A) (A)
                 (A) (A) (A) (A) (A) (A) (A) (A) (A) (A) (A) (A)
                 (A) (A) (A) (A) (A) (A) (A) (A) (A) (A) (A) (A)
                 (A) (A) (A) (A) (A) (A) (A) (A) (A) (A) (A) (A)
                 (A) (A) (A) (A) (A) (A) (A) (A) (A) (A) (A) (A)
                 (A) (A) (A) (A) (A) (A) (A) (A) (A) (A) (A) (A)
                 (A) (A) (A) (A) (A) (A) (A) (A) (A) (A) (A) (A)
                 (A) (A) (A) (A) (A) (A) (A) (A) (A) (A) (A) (A)
                 (A) (A) (A) (A) (A) (A) (A) (A) (A) (A) (A) (A)
                 (A) (A) (A) (A) (A) (A) (A) (A) (A) (A) (A) (A)
                 (A) (A) (A) (A) (A) (A) (A) (A) (A) (A) (A) (A)
                 (A) (A) (A) (A) (A) (A) (A) (A) (A) (A) (A) (A)
                 (A) (A) (A) (A) (A) (A) (A) (A) (A) (A) (A) (A)
                 (A) (A) (A) (A) (A) (A) (A) (A) (A) (A) (A) (A)
                 (A) (A) (A) (A) (A) (A) (A) (A) (A) (A) (A) (A)
                 (A) (A) (A) (A) (A) (A) (A) (A) (A) (A) (A) (A)
                 (A) (A) (A) (A) (A) (A) (A) (A) (A) (A) (A) (A)
                 (A) (A) (A) (A) (A) (A) (A) (A) (A) (A) (A) (A)
                 (A) (A) (A) (A) (A) (A) (A) (A) (A) (A) (A) (A)
                 (A) (A) (A) (A) (A) (A) (A) (A) (A) (A) (A) (A)
                 (A) (A) (A) (A) (A) (A) (A) (A) (A) (A) (A) (A)
                 (A) (A) (A) (A) (A) (A) (A) (A) (A) (A) (A) (A)
                 (A) (A) (A) (A) (A) (A) (A) (A) (A) (A) (A) (A)
                 (A) (A) (A) (A) (A) (A) (A) (A) (A) (A) (A) (A)
                 (A) (A) (A) (A) (A) (A) (A) (A) (A) (A) (A) (A)
                 (A) (A) (A) (A) (A) (A) (A) (A) (A) (A) (A) (A)
                 (A) (A) (A) (A) (A) (A) (A) (A) (A) (A) (A) (A)
                 (A) (A) (A) (A) (A) (A) (A) (A) (A) (A) (A) (A)
                 (A) (A) (A) (A) (A) (A) (A) (A) (A) (A) (A) (A)
                 (A) (A) (A) (A) (A) (A) (A) (A) (A) (A) (A) (A)
                 (A) (A) (A) (A) (A) (A) (A) (A) (A) (A) (A) (A)
                 (A) (A) (A) (A) (A) (A) (A) (A) (A) (A) (A) (A)
                 (A) (A) (A) (A) (A) (A) (A) (A) (A) (A) (A) (A)
                 (A) (A) (A) (A) (A) (A) (A) (A) (A) (A) (A) (A)
                 (A) (A) (A) (A) (A) (A) (A) (A) (A) (A) (A) (A)
                 (A) (A) (A) (A) (A) (A) (A) (A) (A) (A) (A) (A)
                 (A) (A) (A) (A) (A) (A) (A) (A) (A) (A) (A) (A)
                 (A) (A) (A) (A) (A) (A) (A) (A) (A) (A) (A) (A)
                 (A) (A) (A) (A) (A) (A) (A) (A) (A) (A) (A) (A)
                 (A) (A) (A) (A) (A) (A) (A) (A) (A) (A) (A) (A)
                 (A) (A) (A) (A) (A) (A) (A) (A) (A) (A) (A) (A)
                 (A) (A) (A) (A) (A) (A) (A) (A) (A) (A) (A) (A)
                 (A) (A) (A) (A) (A) (A) (A) (A) (A) (A) (A) (A)
                 (A) (A) (A) (A) (A) (A) (A) (A) (A) (A) (A) (A)
                 (A) (A) (A) (A) (A) (A) (A) (A) (A) (A) (A) (A)
                 (A) (A) (A) (A) (A) (A) (A) (A) (A) (A) (A) (A)
                 (A) (A) (A) (A) (A) (A) (A) (A) (A) (A) (A) (A)
                 (A) (A) (A) (A) (A) (A) (A) (A) (A) (A) (A) (A)
                 (A) (A) (A) (A) (A) (A) (A) (A) (A) (A) (A) (A)
                 (A) (A) (A) (A) (A) (A) (A) (A) (A) (A) (A) (A)
                 (A) (A) (A) (A) (A) (A) (A) (A) (A) (A) (A) (A)
                 (A) (A) (A) (A) (A) (A) (A) (A) (A) (A) (A) (A)
                 (A) (A) (A) (A) (A) (A) (A) (A) (A) (A) (A) (A)
                 (A) (A) (A) (A) (A) (A) (A) (A) (A) (A) (A) (A)
                 (A) (A) (A) (A) (A) (A) (A) (A) (A) (A)
 The electronic state is 1-A.
 Alpha  occ. eigenvalues --  -88.70453 -88.65344 -18.98887 -18.98609 -18.87562
 Alpha  occ. eigenvalues --  -18.87287 -18.87093 -18.86778 -14.15310 -14.14837
 Alpha  occ. eigenvalues --  -10.07767 -10.07213 -10.05745 -10.05731 -10.05433
 Alpha  occ. eigenvalues --  -10.05349 -10.04941 -10.03953 -10.03217 -10.02732
 Alpha  occ. eigenvalues --  -10.01766 -10.01211 -10.00559 -10.00280  -9.99103
 Alpha  occ. eigenvalues --   -9.97343  -9.97282  -9.97216  -9.96995  -9.95707
 Alpha  occ. eigenvalues --   -9.95517  -9.95179  -9.94931  -9.94869  -9.94802
 Alpha  occ. eigenvalues --   -9.94749  -7.79038  -7.73832  -5.75343  -5.74974
 Alpha  occ. eigenvalues --   -5.74602  -5.70177  -5.69714  -5.69366  -0.90622
 Alpha  occ. eigenvalues --   -0.90131  -0.84342  -0.84176  -0.82100  -0.81967
 Alpha  occ. eigenvalues --   -0.72460  -0.72085  -0.71247  -0.67670  -0.66179
 Alpha  occ. eigenvalues --   -0.61273  -0.59381  -0.58828  -0.58270  -0.56851
 Alpha  occ. eigenvalues --   -0.54481  -0.53370  -0.52718  -0.52199  -0.51757
 Alpha  occ. eigenvalues --   -0.50450  -0.48923  -0.45889  -0.43171  -0.42560
 Alpha  occ. eigenvalues --   -0.41573  -0.41440  -0.40020  -0.39313  -0.38293
 Alpha  occ. eigenvalues --   -0.36489  -0.35685  -0.33641  -0.33340  -0.31836
 Alpha  occ. eigenvalues --   -0.31239  -0.31197  -0.31072  -0.30160  -0.29189
 Alpha  occ. eigenvalues --   -0.28481  -0.28200  -0.27588  -0.27105  -0.26726
 Alpha  occ. eigenvalues --   -0.26440  -0.25265  -0.25141  -0.24882  -0.23629
 Alpha  occ. eigenvalues --   -0.23324  -0.23087  -0.22537  -0.22088  -0.21278
 Alpha  occ. eigenvalues --   -0.21057  -0.21023  -0.20243  -0.20162  -0.19863
 Alpha  occ. eigenvalues --   -0.19633  -0.19067  -0.18708  -0.18179  -0.18132
 Alpha  occ. eigenvalues --   -0.17553  -0.17354  -0.16799  -0.16623  -0.15732
 Alpha  occ. eigenvalues --   -0.15401  -0.15091  -0.14190  -0.12142  -0.11610
 Alpha  occ. eigenvalues --   -0.10099  -0.09177  -0.07185  -0.07053  -0.06610
 Alpha  occ. eigenvalues --   -0.06379  -0.05971  -0.05515  -0.04839  -0.04400
 Alpha  occ. eigenvalues --   -0.03680  -0.01310  -0.01178   0.01283   0.08635
 Alpha virt. eigenvalues --    0.12618   0.13360   0.13659   0.14290   0.15916
 Alpha virt. eigenvalues --    0.16590   0.16895   0.16953   0.17044   0.17609
 Alpha virt. eigenvalues --    0.17807   0.18049   0.18596   0.18978   0.19316
 Alpha virt. eigenvalues --    0.19440   0.19514   0.20057   0.20387   0.20677
 Alpha virt. eigenvalues --    0.20822   0.20905   0.21069   0.21228   0.21274
 Alpha virt. eigenvalues --    0.21740   0.22355   0.22556   0.23147   0.23172
 Alpha virt. eigenvalues --    0.23705   0.23828   0.24176   0.24237   0.24790
 Alpha virt. eigenvalues --    0.24896   0.25187   0.25592   0.25781   0.25913
 Alpha virt. eigenvalues --    0.26008   0.26353   0.26635   0.26729   0.27021
 Alpha virt. eigenvalues --    0.27196   0.27632   0.27792   0.28129   0.28363
 Alpha virt. eigenvalues --    0.28690   0.28753   0.28856   0.29446   0.29511
 Alpha virt. eigenvalues --    0.29798   0.30028   0.30319   0.30429   0.30945
 Alpha virt. eigenvalues --    0.31117   0.31182   0.31697   0.32237   0.32392
 Alpha virt. eigenvalues --    0.32604   0.32853   0.33110   0.33137   0.33518
 Alpha virt. eigenvalues --    0.33699   0.33940   0.34038   0.34490   0.34699
 Alpha virt. eigenvalues --    0.34911   0.35102   0.35383   0.35522   0.35578
 Alpha virt. eigenvalues --    0.35704   0.36139   0.36277   0.36651   0.36820
 Alpha virt. eigenvalues --    0.36916   0.37064   0.37471   0.37645   0.37960
 Alpha virt. eigenvalues --    0.38085   0.38369   0.38481   0.38848   0.38953
 Alpha virt. eigenvalues --    0.39059   0.39472   0.39546   0.39990   0.40048
 Alpha virt. eigenvalues --    0.40402   0.40650   0.40898   0.41202   0.41384
 Alpha virt. eigenvalues --    0.41646   0.41967   0.42138   0.42429   0.42472
 Alpha virt. eigenvalues --    0.42946   0.43187   0.43228   0.43499   0.43691
 Alpha virt. eigenvalues --    0.44259   0.44378   0.44568   0.44853   0.44979
 Alpha virt. eigenvalues --    0.45001   0.45354   0.45490   0.45813   0.45926
 Alpha virt. eigenvalues --    0.45998   0.46091   0.46424   0.46637   0.46904
 Alpha virt. eigenvalues --    0.47000   0.47469   0.47653   0.47705   0.47939
 Alpha virt. eigenvalues --    0.48306   0.48608   0.48853   0.48888   0.49390
 Alpha virt. eigenvalues --    0.49566   0.49928   0.50032   0.50143   0.50255
 Alpha virt. eigenvalues --    0.50364   0.50718   0.50985   0.51210   0.51488
 Alpha virt. eigenvalues --    0.51684   0.51891   0.52096   0.52387   0.52607
 Alpha virt. eigenvalues --    0.52655   0.53087   0.53273   0.53940   0.54063
 Alpha virt. eigenvalues --    0.54488   0.54672   0.55229   0.55726   0.55950
 Alpha virt. eigenvalues --    0.56085   0.56181   0.56654   0.56732   0.57755
 Alpha virt. eigenvalues --    0.58204   0.58507   0.59038   0.59516   0.59771
 Alpha virt. eigenvalues --    0.60085   0.60653   0.60695   0.60766   0.61365
 Alpha virt. eigenvalues --    0.61607   0.61822   0.62335   0.62522   0.63376
 Alpha virt. eigenvalues --    0.63560   0.64162   0.64345   0.64395   0.64733
 Alpha virt. eigenvalues --    0.64925   0.65187   0.65660   0.66016   0.66583
 Alpha virt. eigenvalues --    0.66600   0.67976   0.68195   0.69044   0.69331
 Alpha virt. eigenvalues --    0.69644   0.70509   0.71284   0.71476   0.72101
 Alpha virt. eigenvalues --    0.72667   0.72881   0.73593   0.74049   0.74236
 Alpha virt. eigenvalues --    0.74458   0.74952   0.75362   0.76066   0.76785
 Alpha virt. eigenvalues --    0.77039   0.77240   0.77547   0.78103   0.78444
 Alpha virt. eigenvalues --    0.78675   0.78934   0.79135   0.79304   0.79867
 Alpha virt. eigenvalues --    0.80282   0.80673   0.81256   0.81394   0.81816
 Alpha virt. eigenvalues --    0.82570   0.82732   0.83156   0.83539   0.84090
 Alpha virt. eigenvalues --    0.84373   0.84869   0.85350   0.85583   0.85799
 Alpha virt. eigenvalues --    0.85959   0.86551   0.87032   0.87353   0.87525
 Alpha virt. eigenvalues --    0.87603   0.88599   0.88824   0.89449   0.89661
 Alpha virt. eigenvalues --    0.89898   0.89928   0.90500   0.90734   0.91300
 Alpha virt. eigenvalues --    0.91764   0.92480   0.92789   0.92982   0.93349
 Alpha virt. eigenvalues --    0.93657   0.93861   0.94136   0.94825   0.95283
 Alpha virt. eigenvalues --    0.95787   0.96000   0.96245   0.96559   0.97243
 Alpha virt. eigenvalues --    0.97281   0.97520   0.97885   0.98418   0.98931
 Alpha virt. eigenvalues --    0.99070   0.99310   0.99512   1.00277   1.01071
 Alpha virt. eigenvalues --    1.01533   1.01940   1.02250   1.02433   1.03502
 Alpha virt. eigenvalues --    1.04808   1.05435   1.06397   1.06555   1.07491
 Alpha virt. eigenvalues --    1.07890   1.08592   1.09132   1.09336   1.09900
 Alpha virt. eigenvalues --    1.10920   1.11195   1.11783   1.12292   1.12533
 Alpha virt. eigenvalues --    1.14048   1.14301   1.15017   1.15406   1.15765
 Alpha virt. eigenvalues --    1.16261   1.16550   1.17072   1.17282   1.17942
 Alpha virt. eigenvalues --    1.18281   1.18585   1.18833   1.19192   1.19872
 Alpha virt. eigenvalues --    1.20076   1.20313   1.20724   1.21496   1.21670
 Alpha virt. eigenvalues --    1.22208   1.22322   1.22742   1.23492   1.23870
 Alpha virt. eigenvalues --    1.24504   1.25001   1.25190   1.25818   1.26382
 Alpha virt. eigenvalues --    1.26415   1.26659   1.27473   1.27709   1.28038
 Alpha virt. eigenvalues --    1.28520   1.29329   1.29926   1.30081   1.30399
 Alpha virt. eigenvalues --    1.32192   1.32311   1.33316   1.33456   1.34350
 Alpha virt. eigenvalues --    1.34952   1.35317   1.35848   1.36202   1.37207
 Alpha virt. eigenvalues --    1.37691   1.38668   1.39464   1.40004   1.40204
 Alpha virt. eigenvalues --    1.41412   1.42043   1.42469   1.43069   1.43667
 Alpha virt. eigenvalues --    1.44194   1.44370   1.45178   1.46307   1.46686
 Alpha virt. eigenvalues --    1.48043   1.48398   1.49672   1.50364   1.50761
 Alpha virt. eigenvalues --    1.51018   1.51355   1.51829   1.52435   1.53038
 Alpha virt. eigenvalues --    1.53206   1.53334   1.55960   1.57000   1.57265
 Alpha virt. eigenvalues --    1.57591   1.58127   1.58588   1.59516   1.59889
 Alpha virt. eigenvalues --    1.61096   1.61724   1.62323   1.62674   1.63139
 Alpha virt. eigenvalues --    1.64316   1.65050   1.65213   1.65593   1.65705
 Alpha virt. eigenvalues --    1.66686   1.67171   1.68302   1.68855   1.69713
 Alpha virt. eigenvalues --    1.70045   1.70443   1.70843   1.70932   1.71543
 Alpha virt. eigenvalues --    1.72427   1.72816   1.73797   1.74204   1.74693
 Alpha virt. eigenvalues --    1.74974   1.75389   1.75740   1.76567   1.77165
 Alpha virt. eigenvalues --    1.77447   1.77700   1.78393   1.79037   1.79349
 Alpha virt. eigenvalues --    1.79716   1.80339   1.80730   1.81536   1.81856
 Alpha virt. eigenvalues --    1.82725   1.83054   1.83329   1.84609   1.85155
 Alpha virt. eigenvalues --    1.86253   1.86353   1.87163   1.87323   1.88369
 Alpha virt. eigenvalues --    1.89047   1.89352   1.90701   1.91257   1.91699
 Alpha virt. eigenvalues --    1.92114   1.92903   1.93201   1.93712   1.94662
 Alpha virt. eigenvalues --    1.94880   1.95751   1.96041   1.96362   1.97213
 Alpha virt. eigenvalues --    1.97981   1.98543   1.99511   2.00319   2.00623
 Alpha virt. eigenvalues --    2.01203   2.01761   2.01955   2.03925   2.04610
 Alpha virt. eigenvalues --    2.04871   2.05016   2.07633   2.08179   2.08461
 Alpha virt. eigenvalues --    2.09597   2.10270   2.10866   2.11340   2.12062
 Alpha virt. eigenvalues --    2.12453   2.13183   2.13452   2.13930   2.14516
 Alpha virt. eigenvalues --    2.15353   2.15595   2.16605   2.17313   2.18440
 Alpha virt. eigenvalues --    2.19064   2.19681   2.19965   2.20325   2.21148
 Alpha virt. eigenvalues --    2.21831   2.22575   2.22766   2.23881   2.24244
 Alpha virt. eigenvalues --    2.24506   2.24938   2.25256   2.26018   2.26140
 Alpha virt. eigenvalues --    2.26674   2.27550   2.28079   2.28672   2.29017
 Alpha virt. eigenvalues --    2.29698   2.30791   2.31244   2.32302   2.32703
 Alpha virt. eigenvalues --    2.33454   2.34032   2.35153   2.36596   2.37343
 Alpha virt. eigenvalues --    2.38327   2.38602   2.40132   2.40999   2.41447
 Alpha virt. eigenvalues --    2.41991   2.42998   2.43951   2.45343   2.45640
 Alpha virt. eigenvalues --    2.48110   2.48914   2.50302   2.52160   2.55800
 Alpha virt. eigenvalues --    2.56353   2.57565   2.58593   2.58768   2.59352
 Alpha virt. eigenvalues --    2.59860   2.60544   2.60931   2.62101   2.62530
 Alpha virt. eigenvalues --    2.63126   2.63933   2.64190   2.66006   2.66569
 Alpha virt. eigenvalues --    2.66917   2.68480   2.69099   2.69442   2.69748
 Alpha virt. eigenvalues --    2.70399   2.71129   2.71746   2.72172   2.72379
 Alpha virt. eigenvalues --    2.73221   2.73505   2.75894   2.76134   2.78220
 Alpha virt. eigenvalues --    2.78401   2.80130   2.80926   2.81031   2.81963
 Alpha virt. eigenvalues --    2.84279   2.85203   2.86326   2.86967   2.87283
 Alpha virt. eigenvalues --    2.88219   2.89150   2.90379   2.90409   2.91200
 Alpha virt. eigenvalues --    2.91669   2.93059   2.93571   2.94120   2.94196
 Alpha virt. eigenvalues --    2.95322   2.95847   2.95970   2.96412   2.97024
 Alpha virt. eigenvalues --    2.98734   3.00078   3.00325   3.01138   3.02384
 Alpha virt. eigenvalues --    3.02979   3.04341   3.06047   3.06616   3.07691
 Alpha virt. eigenvalues --    3.08047   3.09686   3.10095   3.10798   3.11443
 Alpha virt. eigenvalues --    3.11993   3.12470   3.13649   3.14396   3.14537
 Alpha virt. eigenvalues --    3.15107   3.16135   3.16522   3.16713   3.17481
 Alpha virt. eigenvalues --    3.17995   3.18530   3.19795   3.20304   3.21319
 Alpha virt. eigenvalues --    3.22328   3.23227   3.24381   3.24813   3.26619
 Alpha virt. eigenvalues --    3.28941   3.29848   3.31296   3.32009   3.33110
 Alpha virt. eigenvalues --    3.34239   3.37233   3.37904   3.38435   3.39163
 Alpha virt. eigenvalues --    3.39407   3.41575   3.41931   3.42188   3.42464
 Alpha virt. eigenvalues --    3.44636   3.47124   3.48685   3.49960   3.50092
 Alpha virt. eigenvalues --    3.52276   3.53714   3.54625   3.56384   3.58157
 Alpha virt. eigenvalues --    3.58689   3.58854   3.59124   3.59565   3.61922
 Alpha virt. eigenvalues --    3.62919   3.64025   3.65101   3.66447   3.66950
 Alpha virt. eigenvalues --    3.69157   3.69508   3.70662   3.73359   3.73552
 Alpha virt. eigenvalues --    3.75227   3.78814   3.82257   3.83289   3.84476
 Alpha virt. eigenvalues --    3.86062   3.88662   3.89603   3.91075   3.92005
 Alpha virt. eigenvalues --    3.92236   3.92679   3.92973   3.93398   3.93696
 Alpha virt. eigenvalues --    3.96325   3.98415   4.01763   4.04531   4.06592
 Alpha virt. eigenvalues --    4.07792   4.13475   4.14963   4.15748   4.17124
 Alpha virt. eigenvalues --    4.17348   4.20501   4.22828   4.25487   4.26228
 Alpha virt. eigenvalues --    4.28079   4.29021   4.32438   4.37758   4.40169
 Alpha virt. eigenvalues --    4.44104   4.49727   4.51349   4.60556   4.64253
 Alpha virt. eigenvalues --    4.66002   4.74628   4.91900   5.10022   5.10230
 Alpha virt. eigenvalues --    5.11552   5.13511   5.20104   5.20668   5.28091
 Alpha virt. eigenvalues --    5.29755   5.30041   5.31948   5.35513   5.37705
 Alpha virt. eigenvalues --    5.48951   5.51185   5.53485   5.59887   5.60774
 Alpha virt. eigenvalues --    5.61638   5.94716   5.98478   6.00114   6.04848
 Alpha virt. eigenvalues --    6.06016   6.09633   8.20359   8.31173  17.47017
 Alpha virt. eigenvalues --   17.56778  17.67872  17.71012  17.80991  17.89576
 Alpha virt. eigenvalues --   23.72370  23.79281  23.92273  24.00823  24.04749
 Alpha virt. eigenvalues --   24.06251  24.06939  24.07513  24.09637  24.10872
 Alpha virt. eigenvalues --   24.12059  24.12366  24.13584  24.15166  24.16254
 Alpha virt. eigenvalues --   24.20203  24.21205  24.21698  24.23058  24.24508
 Alpha virt. eigenvalues --   24.26265  24.31443  24.31779  24.34013  24.39430
 Alpha virt. eigenvalues --   24.40337  35.79624  35.82838  50.14289  50.15961
 Alpha virt. eigenvalues --   50.26767  50.28927  50.30508  50.32145 189.37785
 Alpha virt. eigenvalues --  189.49515
          Condensed to atoms (all electrons):
 Mulliken charges:
               1
     1  C    0.316409
     2  C   -0.137217
     3  C    0.158734
     4  C    0.170423
     5  C    0.177267
     6  C   -0.271486
     7  C    0.109867
     8  C    0.150047
     9  C    0.430591
    10  C   -0.272689
    11  C    0.050959
    12  C    0.175853
    13  C   -0.495144
    14  C   -0.670170
    15  H    0.099024
    16  H    0.102662
    17  H    0.110293
    18  N   -0.155725
    19  N   -0.135191
    20  O   -0.413064
    21  O   -0.398376
    22  O   -0.399761
    23  O   -0.203048
    24  C   -0.194528
    25  H    0.139604
    26  H    0.139697
    27  H    0.158978
    28  C   -0.185119
    29  H    0.136492
    30  H    0.134790
    31  H    0.155813
    32  C   -0.105795
    33  C   -0.535160
    34  S   -0.373656
    35  C   -0.550507
    36  H    0.107808
    37  C    0.630309
    38  O   -0.128297
    39  C    0.779339
    40  C   -0.236700
    41  C   -0.013220
    42  S   -0.339794
    43  H    0.129468
    44  H    0.137316
    45  H    0.137589
    46  C   -0.548715
    47  O   -0.075506
    48  C   -0.344469
    49  H    0.094831
    50  C   -0.260206
    51  H    0.113297
    52  H    0.116130
    53  H    0.166499
    54  H    0.113451
 Sum of Mulliken charges =  -2.00000
 Mulliken charges with hydrogens summed into heavy atoms:
               1
     1  C    0.316409
     2  C   -0.137217
     3  C    0.158734
     4  C    0.170423
     5  C    0.177267
     6  C   -0.161192
     7  C    0.109867
     8  C    0.150047
     9  C    0.430591
    10  C   -0.272689
    11  C    0.050959
    12  C    0.175853
    13  C   -0.392482
    14  C   -0.571146
    18  N   -0.155725
    19  N   -0.135191
    20  O   -0.413064
    21  O   -0.398376
    22  O   -0.399761
    23  O   -0.203048
    24  C    0.243750
    28  C    0.241976
    32  C   -0.105795
    33  C   -0.427352
    34  S   -0.373656
    35  C   -0.550507
    37  C    0.630309
    38  O   -0.128297
    39  C    0.779339
    40  C    0.167673
    41  C   -0.013220
    42  S   -0.339794
    46  C   -0.453883
    47  O   -0.075506
    48  C   -0.231172
    50  C    0.135875
 Electronic spatial extent (au):  <R**2>=          22437.9212
 Charge=             -2.0000 electrons
 Dipole moment (field-independent basis, Debye):
    X=             15.3522    Y=             -1.9665    Z=             -0.0318  Tot=             15.4776
 Quadrupole moment (field-independent basis, Debye-Ang):
   XX=           -426.5523   YY=           -295.4050   ZZ=           -235.3355
   XY=             17.1361   XZ=              3.3711   YZ=             15.9010
 Traceless Quadrupole moment (field-independent basis, Debye-Ang):
   XX=           -107.4547   YY=             23.6926   ZZ=             83.7621
   XY=             17.1361   XZ=              3.3711   YZ=             15.9010
 Octapole moment (field-independent basis, Debye-Ang**2):
  XXX=            555.4467  YYY=           -114.6843  ZZZ=              2.2178  XYY=            242.0056
  XXY=             75.6161  XXZ=            -11.1317  XZZ=              6.4485  YZZ=             -2.3795
  YYZ=              7.9206  XYZ=            -13.2978
 Hexadecapole moment (field-independent basis, Debye-Ang**3):
 XXXX=         -30562.6341 YYYY=          -8970.0044 ZZZZ=           -718.2533 XXXY=            230.1394
 XXXZ=            222.3195 YYYX=            453.4685 YYYZ=            299.8375 ZZZX=            -29.2940
 ZZZY=             17.6232 XXYY=          -5857.4490 XXZZ=          -4171.3636 YYZZ=          -1415.0894
 XXYZ=            211.6814 YYXZ=            -38.7610 ZZXY=             69.4063
 N-N= 4.119424927095D+03 E-N=-1.383873442835D+04  KE= 2.352688900934D+03
 Calling FoFJK, ICntrl=      2127 FMM=F ISym2X=0 I1Cent= 0 IOpClX= 0 NMat=1 NMatS=1 NMatT=0.
 ***** Axes restored to original set *****
 -------------------------------------------------------------------
 Center     Atomic                   Forces (Hartrees/Bohr)
 Number     Number              X              Y              Z
 -------------------------------------------------------------------
      1        6          -0.002648639    0.045331481    0.007467496
      2        6          -0.024941054   -0.031584161   -0.003358885
      3        6          -0.004050542   -0.007365632   -0.001458597
      4        6           0.014414106   -0.036269234   -0.005308682
      5        6           0.024829069    0.038207550    0.004817178
      6        6           0.033042749    0.032293629   -0.004378798
      7        6           0.000683863    0.008446368    0.001287287
      8        6          -0.012207568    0.044399191    0.015148969
      9        6           0.014879006   -0.050078806   -0.012494764
     10        6          -0.043417892   -0.046523833   -0.012107557
     11        6           0.006752985   -0.044151292   -0.007134743
     12        6           0.026587228    0.029234843    0.004647382
     13        6          -0.030592545   -0.029279027   -0.004078725
     14        6          -0.014984559    0.039296186    0.006087377
     15        1          -0.000124935    0.000871379    0.000141596
     16        1          -0.000050011   -0.000964244   -0.000232626
     17        1           0.000573479    0.001241520    0.002116677
     18        7           0.002117495    0.003007965    0.000062149
     19        7          -0.002014592   -0.004309592   -0.000929199
     20        8           0.017109166   -0.026670451   -0.004219816
     21        8          -0.028742632   -0.017188275   -0.001898000
     22        8          -0.018530843    0.026256364    0.004185175
     23        8          -0.001562189    0.034475372    0.000804412
     24        6          -0.001005174   -0.004490567   -0.002387795
     25        1           0.001018074    0.000644336    0.000423598
     26        1           0.000466255    0.000350713    0.000871908
     27        1          -0.000908222   -0.000377975   -0.000016100
     28        6           0.000640172    0.006130365    0.000319605
     29        1           0.000545186   -0.001029802    0.000203883
     30        1           0.000688930   -0.001247625   -0.000065602
     31        1          -0.000659678    0.000730042    0.000173675
     32        6          -0.012876556    0.023776140    0.018047407
     33        6           0.007864572   -0.006610500   -0.003560783
     34       16           0.032352674   -0.010702297   -0.001100854
     35        6          -0.009636970    0.009226473    0.009632812
     36        1          -0.001470865   -0.001262222   -0.001339331
     37        6           0.011257187   -0.017486394   -0.000703029
     38        8           0.011659486   -0.011030440   -0.013519525
     39        6          -0.009945571   -0.006400367   -0.002718925
     40        6           0.000526439    0.004709896    0.004369333
     41        6           0.011335694    0.000689361   -0.001905904
     42       16          -0.000911743   -0.000950031   -0.000475630
     43        1           0.000851411   -0.000395083   -0.000500182
     44        1          -0.000658295    0.000454900   -0.000490503
     45        1          -0.000118777   -0.000388278    0.000198543
     46        6          -0.005528788   -0.002003936   -0.000598934
     47        8          -0.005572732    0.010821692    0.010107695
     48        6           0.012771827    0.005112201    0.001294748
     49        1           0.000125635    0.000057093   -0.000010151
     50        6          -0.000850149   -0.006865650   -0.006391040
     51        1          -0.000433169   -0.000035665    0.000370722
     52        1           0.000334415    0.000343297    0.000203863
     53        1          -0.000019798   -0.000551019   -0.000659728
     54        1           0.001037383    0.000104044    0.001060922
 -------------------------------------------------------------------
 Cartesian Forces:  Max     0.050078806 RMS     0.014753979

 GradGradGradGradGradGradGradGradGradGradGradGradGradGradGradGradGradGrad
 Berny optimization.
 FormGI is forming the generalized inverse of G from B-inverse, IUseBI=4.
 Internal  Forces:  Max     0.134860382 RMS     0.017706449
 Search for a local minimum.
 Step number   1 out of a maximum of  307
 All quantities printed in internal units (Hartrees-Bohrs-Radians)
 Mixed Optimization -- RFO/linear search
 Second derivative matrix not updated -- first step.
 ITU=  0
     Eigenvalues ---    0.00803   0.00803   0.01176   0.01203   0.01245
     Eigenvalues ---    0.01292   0.01308   0.01311   0.01369   0.01384
     Eigenvalues ---    0.01419   0.01429   0.01456   0.01496   0.01515
     Eigenvalues ---    0.01568   0.01576   0.01577   0.01615   0.01651
     Eigenvalues ---    0.01695   0.01706   0.01711   0.01719   0.01754
     Eigenvalues ---    0.01783   0.01803   0.01847   0.01966   0.02040
     Eigenvalues ---    0.02041   0.02065   0.02077   0.02083   0.02135
     Eigenvalues ---    0.02149   0.02163   0.02177   0.02197   0.02231
     Eigenvalues ---    0.02238   0.02248   0.07556   0.07572   0.07690
     Eigenvalues ---    0.07700   0.10063   0.10071   0.10633   0.10634
     Eigenvalues ---    0.15983   0.15999   0.15999   0.16000   0.16000
     Eigenvalues ---    0.16000   0.16000   0.16000   0.16000   0.16000
     Eigenvalues ---    0.16000   0.16000   0.16000   0.16000   0.16000
     Eigenvalues ---    0.16000   0.16000   0.16000   0.22530   0.22583
     Eigenvalues ---    0.23518   0.23581   0.24516   0.24747   0.24866
     Eigenvalues ---    0.24931   0.24952   0.24985   0.24987   0.24988
     Eigenvalues ---    0.24991   0.24994   0.24997   0.24997   0.24998
     Eigenvalues ---    0.24998   0.25000   0.25000   0.25000   0.25000
     Eigenvalues ---    0.25000   0.25000   0.25000   0.25000   0.25000
     Eigenvalues ---    0.25000   0.28807   0.28891   0.30101   0.32101
     Eigenvalues ---    0.32582   0.32774   0.33111   0.33787   0.33943
     Eigenvalues ---    0.34034   0.34095   0.34110   0.34354   0.34466
     Eigenvalues ---    0.34577   0.34629   0.34693   0.34831   0.34836
     Eigenvalues ---    0.35198   0.35218   0.35468   0.35553   0.35582
     Eigenvalues ---    0.35807   0.35916   0.36078   0.36083   0.36227
     Eigenvalues ---    0.36396   0.36662   0.39352   0.40170   0.40194
     Eigenvalues ---    0.40651   0.40716   0.41524   0.41806   0.41970
     Eigenvalues ---    0.42300   0.42661   0.43455   0.43819   0.44092
     Eigenvalues ---    0.44594   0.44695   0.45014   0.45406   0.46251
     Eigenvalues ---    0.47305   0.47613   0.49310   0.49577   0.53105
     Eigenvalues ---    0.53216   0.93281   0.93432   0.93989   0.94585
     Eigenvalues --- 1000.000001000.000001000.000001000.000001000.00000
     Eigenvalues --- 1000.000001000.000001000.000001000.000001000.00000
     Eigenvalues --- 1000.000001000.000001000.000001000.000001000.00000
     Eigenvalues --- 1000.000001000.000001000.000001000.000001000.00000
     Eigenvalues --- 1000.000001000.000001000.000001000.000001000.00000
     Eigenvalues --- 1000.000001000.000001000.000001000.000001000.00000
     Eigenvalues --- 1000.000001000.000001000.000001000.000001000.00000
     Eigenvalues --- 1000.000001000.000001000.000001000.000001000.00000
     Eigenvalues --- 1000.000001000.000001000.000001000.000001000.00000
     Eigenvalues --- 1000.000001000.000001000.000001000.000001000.00000
     Eigenvalues --- 1000.000001000.000001000.000001000.000001000.00000
     Eigenvalues --- 1000.000001000.000001000.000001000.000001000.00000
     Eigenvalues --- 1000.000001000.000001000.000001000.000001000.00000
     Eigenvalues --- 1000.000001000.000001000.000001000.000001000.00000
     Eigenvalues --- 1000.000001000.000001000.000001000.000001000.00000
     Eigenvalues --- 1000.000001000.000001000.000001000.000001000.00000
     Eigenvalues --- 1000.000001000.000001000.000001000.000001000.00000
     Eigenvalues --- 1000.000001000.000001000.000001000.000001000.00000
     Eigenvalues --- 1000.000001000.000001000.000001000.000001000.00000
     Eigenvalues --- 1000.000001000.000001000.000001000.000001000.00000
     Eigenvalues --- 1000.000001000.000001000.000001000.000001000.00000
     Eigenvalues --- 1000.000001000.000001000.000001000.000001000.00000
     Eigenvalues --- 1000.000001000.000001000.000001000.000001000.00000
     Eigenvalues --- 1000.000001000.000001000.000001000.000001000.00000
     Eigenvalues --- 1000.000001000.000001000.000001000.000001000.00000
     Eigenvalues --- 1000.000001000.000001000.000001000.000001000.00000
     Eigenvalues --- 1000.000001000.000001000.000001000.000001000.00000
     Eigenvalues --- 1000.000001000.000001000.000001000.000001000.00000
     Eigenvalues --- 1000.000001000.00000
 RFO step:  Lambda=-1.97009101D-01 EMin= 8.02933640D-03
 Linear search not attempted -- first point.
 Maximum step size (   0.300) exceeded in Quadratic search.
    -- Step size scaled by   0.473
 Iteration  1 RMS(Cart)=  0.31309276 RMS(Int)=  0.00765200
 Iteration  2 RMS(Cart)=  0.12164546 RMS(Int)=  0.00097363
 Iteration  3 RMS(Cart)=  0.00336964 RMS(Int)=  0.00030170
 Iteration  4 RMS(Cart)=  0.00000151 RMS(Int)=  0.00030170
 Iteration  5 RMS(Cart)=  0.00000000 RMS(Int)=  0.00030170
 Iteration  1 RMS(Cart)=  0.00014421 RMS(Int)=  0.00002357
 Iteration  2 RMS(Cart)=  0.00008121 RMS(Int)=  0.00002631
 Iteration  3 RMS(Cart)=  0.00004573 RMS(Int)=  0.00002982
 Iteration  4 RMS(Cart)=  0.00002575 RMS(Int)=  0.00003223
 Iteration  5 RMS(Cart)=  0.00001450 RMS(Int)=  0.00003368
 Iteration  6 RMS(Cart)=  0.00000817 RMS(Int)=  0.00003453
 Iteration  7 RMS(Cart)=  0.00000460 RMS(Int)=  0.00003502
 Iteration  8 RMS(Cart)=  0.00000259 RMS(Int)=  0.00003530
 Iteration  9 RMS(Cart)=  0.00000146 RMS(Int)=  0.00003545
 Iteration 10 RMS(Cart)=  0.00000082 RMS(Int)=  0.00003554
 Variable       Old X    -DE/DX   Delta X   Delta X   Delta X     New X
                                 (Linear)    (Quad)   (Total)
    R1        2.80935  -0.02084   0.00000  -0.01869  -0.01869   2.79066
    R2        2.64584   0.00162   0.00000   0.00099   0.00099   2.64683
    R3        2.31147   0.03116   0.00000   0.01296   0.01296   2.32443
    R4        2.67311  -0.00573   0.00000  -0.00552  -0.00555   2.66756
    R5        2.59267   0.01064   0.00000   0.00545   0.00545   2.59812
    R6        2.66894   0.00908   0.00000   0.00705   0.00704   2.67598
    R7        2.69164   0.01520   0.00000   0.01335   0.01334   2.70498
    R8        2.81049  -0.02048   0.00000  -0.01784  -0.01785   2.79265
    R9        2.62173   0.02002   0.00000   0.01328   0.01325   2.63498
   R10        2.65570   0.00024   0.00000   0.00021   0.00020   2.65590
   R11        2.30889   0.03277   0.00000   0.01356   0.01356   2.32245
   R12        2.70248  -0.02449   0.00000  -0.01995  -0.01992   2.68256
   R13        2.04786  -0.00077   0.00000  -0.00066  -0.00066   2.04720
   R14        2.70495   0.03803   0.00000   0.03321   0.03325   2.73820
   R15        2.68322   0.01636   0.00000   0.01413   0.01410   2.69732
   R16        2.68655   0.08948   0.00000   0.06956   0.06960   2.75614
   R17        2.81233  -0.00807   0.00000  -0.00656  -0.00647   2.80586
   R18        2.76359   0.03894   0.00000   0.03267   0.03267   2.79626
   R19        2.66221  -0.00173   0.00000  -0.00219  -0.00214   2.66007
   R20        2.31391   0.01222   0.00000   0.00511   0.00511   2.31901
   R21        2.79415  -0.03455   0.00000  -0.03063  -0.03072   2.76343
   R22        2.63842  -0.01327   0.00000  -0.01085  -0.01088   2.62753
   R23        2.31456   0.03166   0.00000   0.01325   0.01325   2.32781
   R24        2.62448   0.02513   0.00000   0.01760   0.01760   2.64208
   R25        2.64561  -0.03175   0.00000  -0.02384  -0.02386   2.62175
   R26        2.04921  -0.00065   0.00000  -0.00056  -0.00056   2.04865
   R27        2.04741  -0.00016   0.00000  -0.00014  -0.00014   2.04727
   R28        2.77259  -0.00402   0.00000  -0.00341  -0.00341   2.76919
   R29        2.77252  -0.00477   0.00000  -0.00405  -0.00405   2.76847
   R30        2.06176   0.00093   0.00000   0.00081   0.00081   2.06257
   R31        2.06551  -0.00024   0.00000  -0.00021  -0.00021   2.06530
   R32        2.05322   0.00060   0.00000   0.00051   0.00051   2.05374
   R33        2.06368   0.00038   0.00000   0.00033   0.00033   2.06400
   R34        2.06281   0.00088   0.00000   0.00077   0.00077   2.06358
   R35        2.05355   0.00057   0.00000   0.00049   0.00049   2.05404
   R36        2.60996   0.01856   0.00000   0.01319   0.01325   2.62321
   R37        3.33364   0.01121   0.00000   0.01173   0.01178   3.34543
   R38        2.66297  -0.00653   0.00000  -0.00519  -0.00519   2.65778
   R39        2.03728   0.00204   0.00000   0.00172   0.00172   2.03901
   R40        3.30390   0.01583   0.00000   0.01467   0.01461   3.31852
   R41        2.64424  -0.01485   0.00000  -0.01142  -0.01149   2.63276
   R42        2.56856   0.01648   0.00000   0.01070   0.01070   2.57926
   R43        2.71323   0.00212   0.00000   0.00167   0.00167   2.71490
   R44        2.69171  -0.00568   0.00000  -0.00437  -0.00437   2.68735
   R45        2.63244   0.00606   0.00000   0.00431   0.00431   2.63675
   R46        3.32901   0.00469   0.00000   0.00454   0.00454   3.33355
   R47        2.05950   0.00102   0.00000   0.00088   0.00088   2.06038
   R48        2.07272  -0.00033   0.00000  -0.00029  -0.00029   2.07243
   R49        2.07170  -0.00019   0.00000  -0.00016  -0.00016   2.07154
   R50        2.69054   0.00084   0.00000   0.00064   0.00064   2.69118
   R51        2.56753   0.00734   0.00000   0.00476   0.00476   2.57229
   R52        3.26309   0.00463   0.00000   0.00416   0.00416   3.26726
   R53        2.58691   0.00229   0.00000   0.00152   0.00152   2.58842
   R54        2.04385   0.00007   0.00000   0.00006   0.00006   2.04390
   R55        2.68961  -0.00901   0.00000  -0.00691  -0.00691   2.68270
   R56        2.04212  -0.00044   0.00000  -0.00038  -0.00038   2.04175
   R57        2.07427   0.00030   0.00000   0.00026   0.00026   2.07453
   R58        2.05941  -0.00028   0.00000  -0.00024  -0.00024   2.05918
   R59        2.07145   0.00142   0.00000   0.00125   0.00125   2.07270
    A1        2.03797  -0.00300   0.00000  -0.00391  -0.00391   2.03406
    A2        2.14521   0.00970   0.00000   0.01063   0.01063   2.15584
    A3        2.10001  -0.00670   0.00000  -0.00672  -0.00672   2.09329
    A4        2.10395   0.00516   0.00000   0.00678   0.00678   2.11073
    A5        2.08282  -0.00673   0.00000  -0.00508  -0.00507   2.07775
    A6        2.09624   0.00157   0.00000  -0.00169  -0.00171   2.09453
    A7        2.10093  -0.00448   0.00000  -0.00587  -0.00586   2.09507
    A8        2.07104  -0.00159   0.00000  -0.00281  -0.00286   2.06818
    A9        2.11118   0.00608   0.00000   0.00870   0.00874   2.11992
   A10        2.10296   0.00255   0.00000   0.00327   0.00328   2.10624
   A11        2.09911   0.00411   0.00000   0.00403   0.00400   2.10311
   A12        2.08110  -0.00666   0.00000  -0.00730  -0.00727   2.07383
   A13        2.03739  -0.00342   0.00000  -0.00331  -0.00333   2.03407
   A14        2.12972   0.00996   0.00000   0.01038   0.01039   2.14011
   A15        2.11607  -0.00653   0.00000  -0.00707  -0.00706   2.10901
   A16        2.15098   0.02857   0.00000   0.02925   0.02929   2.18027
   A17        2.04399  -0.01275   0.00000  -0.01254  -0.01258   2.03141
   A18        2.08722  -0.01565   0.00000  -0.01640  -0.01643   2.07079
   A19        2.11101   0.00925   0.00000   0.01027   0.01024   2.12125
   A20        2.04385  -0.02142   0.00000  -0.02384  -0.02381   2.02003
   A21        2.12832   0.01217   0.00000   0.01358   0.01358   2.14190
   A22        2.08678  -0.02091   0.00000  -0.01889  -0.01894   2.06784
   A23        2.04738  -0.03890   0.00000  -0.03954  -0.03946   2.00792
   A24        2.14662   0.06018   0.00000   0.05928   0.05918   2.20580
   A25        2.04892  -0.01678   0.00000  -0.01600  -0.01590   2.03301
   A26        2.00754  -0.11814   0.00000  -0.12585  -0.12590   1.88164
   A27        2.22643   0.13486   0.00000   0.14187   0.14182   2.36825
   A28        2.06022   0.01805   0.00000   0.01984   0.01998   2.08021
   A29        2.17370   0.02754   0.00000   0.02878   0.02870   2.20239
   A30        2.04919  -0.04556   0.00000  -0.04854  -0.04862   2.00057
   A31        2.01621  -0.00942   0.00000  -0.01158  -0.01171   2.00449
   A32        2.14188   0.01275   0.00000   0.01431   0.01437   2.15625
   A33        2.12500  -0.00330   0.00000  -0.00268  -0.00261   2.12239
   A34        2.10943   0.00554   0.00000   0.00669   0.00655   2.11598
   A35        2.11468   0.01134   0.00000   0.01314   0.01321   2.12789
   A36        2.05896  -0.01687   0.00000  -0.01980  -0.01974   2.03923
   A37        2.11176   0.00301   0.00000   0.00304   0.00300   2.11475
   A38        2.05670  -0.00075   0.00000  -0.00052  -0.00050   2.05620
   A39        2.11471  -0.00226   0.00000  -0.00252  -0.00250   2.11222
   A40        2.08567  -0.00307   0.00000  -0.00500  -0.00507   2.08061
   A41        2.07549   0.00244   0.00000   0.00370   0.00373   2.07922
   A42        2.12199   0.00064   0.00000   0.00132   0.00135   2.12334
   A43        2.20043   0.01293   0.00000   0.01177   0.01179   2.21222
   A44        2.02023  -0.00596   0.00000  -0.00535  -0.00536   2.01487
   A45        2.06252  -0.00697   0.00000  -0.00642  -0.00643   2.05609
   A46        2.18316   0.00318   0.00000   0.00305   0.00304   2.18619
[...]
 Alpha  occ. eigenvalues --   -0.31944  -0.31482  -0.30346  -0.30011  -0.29777
 Alpha  occ. eigenvalues --   -0.29177  -0.28170  -0.27507  -0.27286  -0.26621
 Alpha  occ. eigenvalues --   -0.26178  -0.25386  -0.25271  -0.24974  -0.24545
 Alpha  occ. eigenvalues --   -0.23406  -0.23122  -0.22530  -0.21964  -0.21427
 Alpha  occ. eigenvalues --   -0.21220  -0.20898  -0.20841  -0.20375  -0.19848
 Alpha  occ. eigenvalues --   -0.19588  -0.19226  -0.18744  -0.18577  -0.18205
 Alpha  occ. eigenvalues --   -0.17895  -0.17654  -0.16662  -0.16491  -0.16184
 Alpha  occ. eigenvalues --   -0.15338  -0.14821  -0.14628  -0.12462  -0.11706
 Alpha  occ. eigenvalues --   -0.11602  -0.09726  -0.08687  -0.07085  -0.06926
 Alpha  occ. eigenvalues --   -0.06488  -0.06092  -0.05727  -0.05110  -0.04757
 Alpha  occ. eigenvalues --   -0.04602  -0.03329  -0.01692  -0.00065   0.06538
 Alpha virt. eigenvalues --    0.12146   0.12906   0.13730   0.14557   0.15793
 Alpha virt. eigenvalues --    0.15921   0.16557   0.16684   0.16871   0.17402
 Alpha virt. eigenvalues --    0.17490   0.18001   0.18624   0.18851   0.19025
 Alpha virt. eigenvalues --    0.19238   0.19333   0.19427   0.19522   0.20377
 Alpha virt. eigenvalues --    0.20629   0.20692   0.20990   0.21038   0.21382
 Alpha virt. eigenvalues --    0.21841   0.22205   0.22470   0.22537   0.23014
 Alpha virt. eigenvalues --    0.23258   0.23531   0.23807   0.24031   0.24241
 Alpha virt. eigenvalues --    0.24313   0.24675   0.25016   0.25076   0.25237
 Alpha virt. eigenvalues --    0.25921   0.26045   0.26188   0.26446   0.26733
 Alpha virt. eigenvalues --    0.26857   0.26930   0.27348   0.27453   0.27789
 Alpha virt. eigenvalues --    0.27922   0.28277   0.28618   0.29039   0.29433
 Alpha virt. eigenvalues --    0.29621   0.29741   0.29874   0.29896   0.30743
 Alpha virt. eigenvalues --    0.30848   0.31026   0.31134   0.31765   0.31968
 Alpha virt. eigenvalues --    0.32074   0.32586   0.32642   0.33041   0.33213
 Alpha virt. eigenvalues --    0.33316   0.33555   0.33829   0.34020   0.34266
 Alpha virt. eigenvalues --    0.34482   0.34674   0.34770   0.35000   0.35282
 Alpha virt. eigenvalues --    0.35481   0.35547   0.35866   0.36036   0.36529
 Alpha virt. eigenvalues --    0.36736   0.36901   0.36999   0.37325   0.37579
 Alpha virt. eigenvalues --    0.37834   0.38091   0.38325   0.38489   0.38822
 Alpha virt. eigenvalues --    0.39116   0.39388   0.39631   0.39747   0.39985
 Alpha virt. eigenvalues --    0.40148   0.40202   0.40700   0.40869   0.41160
 Alpha virt. eigenvalues --    0.41578   0.41750   0.41979   0.42069   0.42298
 Alpha virt. eigenvalues --    0.42423   0.42770   0.42843   0.43270   0.43398
 Alpha virt. eigenvalues --    0.43583   0.43917   0.44091   0.44202   0.44482
 Alpha virt. eigenvalues --    0.44587   0.44802   0.44962   0.45314   0.45396
 Alpha virt. eigenvalues --    0.45628   0.45877   0.46245   0.46414   0.46531
 Alpha virt. eigenvalues --    0.46804   0.46906   0.47089   0.47382   0.47562
 Alpha virt. eigenvalues --    0.47914   0.48102   0.48153   0.48427   0.48632
 Alpha virt. eigenvalues --    0.48881   0.49088   0.49309   0.49563   0.49828
 Alpha virt. eigenvalues --    0.50131   0.50193   0.50249   0.50419   0.50731
 Alpha virt. eigenvalues --    0.51030   0.51156   0.51466   0.51690   0.51833
 Alpha virt. eigenvalues --    0.52129   0.52362   0.52678   0.52912   0.53072
 Alpha virt. eigenvalues --    0.53838   0.54028   0.54279   0.54600   0.54884
 Alpha virt. eigenvalues --    0.55495   0.55902   0.56118   0.56261   0.56788
 Alpha virt. eigenvalues --    0.56865   0.57381   0.57680   0.58339   0.58549
 Alpha virt. eigenvalues --    0.59058   0.59422   0.59817   0.60255   0.60460
 Alpha virt. eigenvalues --    0.60577   0.60795   0.60871   0.61144   0.61830
 Alpha virt. eigenvalues --    0.62275   0.62599   0.63168   0.63379   0.64004
 Alpha virt. eigenvalues --    0.64132   0.64319   0.64779   0.64836   0.65861
 Alpha virt. eigenvalues --    0.66052   0.66503   0.67247   0.67617   0.68208
 Alpha virt. eigenvalues --    0.68508   0.69242   0.69747   0.70411   0.70737
 Alpha virt. eigenvalues --    0.71302   0.71666   0.72293   0.72984   0.73401
 Alpha virt. eigenvalues --    0.73660   0.74308   0.74530   0.74798   0.74995
 Alpha virt. eigenvalues --    0.75556   0.76416   0.76616   0.77438   0.77868
 Alpha virt. eigenvalues --    0.77927   0.78194   0.78490   0.79045   0.79622
 Alpha virt. eigenvalues --    0.80038   0.80312   0.80697   0.81388   0.81758
 Alpha virt. eigenvalues --    0.82068   0.82399   0.82536   0.83211   0.83394
 Alpha virt. eigenvalues --    0.83858   0.84109   0.84393   0.84992   0.85297
 Alpha virt. eigenvalues --    0.85676   0.85759   0.86085   0.86275   0.86601
 Alpha virt. eigenvalues --    0.87082   0.87309   0.88147   0.88463   0.88923
 Alpha virt. eigenvalues --    0.89076   0.89549   0.89670   0.90138   0.90845
 Alpha virt. eigenvalues --    0.91004   0.91495   0.92087   0.92245   0.92877
 Alpha virt. eigenvalues --    0.93079   0.93481   0.93625   0.93926   0.94228
 Alpha virt. eigenvalues --    0.94588   0.95023   0.95174   0.95384   0.95764
 Alpha virt. eigenvalues --    0.95945   0.96315   0.96758   0.96975   0.97302
 Alpha virt. eigenvalues --    0.97502   0.97729   0.98696   0.98936   0.99461
 Alpha virt. eigenvalues --    0.99823   1.00285   1.00677   1.01286   1.02072
 Alpha virt. eigenvalues --    1.02156   1.03387   1.03767   1.04639   1.05136
 Alpha virt. eigenvalues --    1.06082   1.06698   1.07023   1.07490   1.08088
 Alpha virt. eigenvalues --    1.09411   1.09678   1.10090   1.11102   1.11739
 Alpha virt. eigenvalues --    1.12258   1.12945   1.13630   1.14180   1.14480
 Alpha virt. eigenvalues --    1.14985   1.15137   1.15615   1.16055   1.16390
 Alpha virt. eigenvalues --    1.16721   1.17081   1.17539   1.18230   1.18381
 Alpha virt. eigenvalues --    1.18974   1.19120   1.19637   1.19780   1.20383
 Alpha virt. eigenvalues --    1.20697   1.20965   1.21425   1.22291   1.22666
 Alpha virt. eigenvalues --    1.23337   1.23599   1.24035   1.24714   1.25023
 Alpha virt. eigenvalues --    1.25181   1.25484   1.26132   1.26324   1.26969
 Alpha virt. eigenvalues --    1.27837   1.27988   1.28405   1.28530   1.29346
 Alpha virt. eigenvalues --    1.30008   1.30842   1.31108   1.32011   1.32571
 Alpha virt. eigenvalues --    1.33054   1.33508   1.34673   1.35596   1.35974
 Alpha virt. eigenvalues --    1.36903   1.37565   1.37930   1.39119   1.40124
 Alpha virt. eigenvalues --    1.40495   1.40760   1.41296   1.42207   1.43183
 Alpha virt. eigenvalues --    1.43404   1.44013   1.44360   1.45278   1.45771
 Alpha virt. eigenvalues --    1.46665   1.46932   1.47239   1.47693   1.49245
 Alpha virt. eigenvalues --    1.49529   1.49973   1.50406   1.51458   1.51788
 Alpha virt. eigenvalues --    1.51853   1.52586   1.53132   1.53395   1.56091
 Alpha virt. eigenvalues --    1.56427   1.56873   1.57394   1.58409   1.58984
 Alpha virt. eigenvalues --    1.59080   1.60641   1.62502   1.62564   1.63340
 Alpha virt. eigenvalues --    1.63909   1.64450   1.65281   1.65396   1.65537
 Alpha virt. eigenvalues --    1.65910   1.66273   1.66849   1.68214   1.68505
 Alpha virt. eigenvalues --    1.69208   1.69643   1.69871   1.70461   1.71299
 Alpha virt. eigenvalues --    1.72093   1.72354   1.72799   1.73032   1.73452
 Alpha virt. eigenvalues --    1.74520   1.74626   1.74732   1.75462   1.75869
 Alpha virt. eigenvalues --    1.76108   1.76735   1.76980   1.77730   1.78396
 Alpha virt. eigenvalues --    1.78687   1.78974   1.80202   1.80874   1.80967
 Alpha virt. eigenvalues --    1.81729   1.81991   1.83062   1.83466   1.83635
 Alpha virt. eigenvalues --    1.84386   1.85455   1.86085   1.86243   1.87411
 Alpha virt. eigenvalues --    1.87866   1.88582   1.89095   1.89897   1.90432
 Alpha virt. eigenvalues --    1.90980   1.91488   1.92395   1.92748   1.93340
 Alpha virt. eigenvalues --    1.93465   1.94069   1.94779   1.95858   1.96126
 Alpha virt. eigenvalues --    1.96305   1.96821   1.97755   1.99161   1.99254
 Alpha virt. eigenvalues --    1.99976   2.00445   2.01183   2.02113   2.02455
 Alpha virt. eigenvalues --    2.03024   2.03780   2.04389   2.06281   2.07925
 Alpha virt. eigenvalues --    2.08224   2.08572   2.08751   2.09644   2.10869
 Alpha virt. eigenvalues --    2.11107   2.11493   2.11946   2.12033   2.12748
 Alpha virt. eigenvalues --    2.13306   2.13671   2.14935   2.15645   2.16784
 Alpha virt. eigenvalues --    2.17652   2.18070   2.18444   2.19278   2.20078
 Alpha virt. eigenvalues --    2.20298   2.21223   2.21896   2.22296   2.22851
 Alpha virt. eigenvalues --    2.23301   2.23781   2.24511   2.24732   2.25148
 Alpha virt. eigenvalues --    2.25394   2.26234   2.26491   2.26745   2.27476
 Alpha virt. eigenvalues --    2.28906   2.29487   2.30226   2.30658   2.31660
 Alpha virt. eigenvalues --    2.31994   2.32631   2.34403   2.35148   2.35463
 Alpha virt. eigenvalues --    2.36533   2.37248   2.38820   2.39729   2.40045
 Alpha virt. eigenvalues --    2.41193   2.42371   2.42943   2.43854   2.44414
 Alpha virt. eigenvalues --    2.45563   2.47942   2.49983   2.50981   2.51586
 Alpha virt. eigenvalues --    2.55236   2.55862   2.56235   2.57563   2.58419
 Alpha virt. eigenvalues --    2.58921   2.59753   2.60186   2.60793   2.61289
 Alpha virt. eigenvalues --    2.62140   2.63050   2.63735   2.64791   2.65879
 Alpha virt. eigenvalues --    2.66482   2.67535   2.67725   2.67959   2.69130
 Alpha virt. eigenvalues --    2.70198   2.71004   2.71481   2.72134   2.72320
 Alpha virt. eigenvalues --    2.72784   2.74723   2.75670   2.75909   2.76286
 Alpha virt. eigenvalues --    2.77943   2.78422   2.80374   2.80740   2.82348
 Alpha virt. eigenvalues --    2.82789   2.83458   2.84547   2.85934   2.86624
 Alpha virt. eigenvalues --    2.87609   2.87764   2.88067   2.88508   2.89253
 Alpha virt. eigenvalues --    2.90472   2.90617   2.91036   2.92142   2.93391
 Alpha virt. eigenvalues --    2.93791   2.94338   2.94554   2.95633   2.96061
 Alpha virt. eigenvalues --    2.96201   2.98664   2.99893   3.00158   3.00800
 Alpha virt. eigenvalues --    3.01323   3.02644   3.03373   3.05387   3.06328
 Alpha virt. eigenvalues --    3.06818   3.07612   3.08749   3.09398   3.10286
 Alpha virt. eigenvalues --    3.10724   3.11946   3.12434   3.12553   3.13165
 Alpha virt. eigenvalues --    3.13816   3.13850   3.14855   3.15075   3.15592
 Alpha virt. eigenvalues --    3.16040   3.16685   3.17710   3.18931   3.19767
 Alpha virt. eigenvalues --    3.20688   3.21198   3.23352   3.25298   3.27054
 Alpha virt. eigenvalues --    3.27511   3.29442   3.30360   3.31162   3.32349
 Alpha virt. eigenvalues --    3.32998   3.34491   3.35554   3.37272   3.38510
 Alpha virt. eigenvalues --    3.39543   3.40049   3.41314   3.41789   3.42330
 Alpha virt. eigenvalues --    3.42624   3.44529   3.45247   3.47518   3.48217
 Alpha virt. eigenvalues --    3.49438   3.51182   3.52397   3.52978   3.54548
 Alpha virt. eigenvalues --    3.55560   3.56180   3.56331   3.56731   3.58557
 Alpha virt. eigenvalues --    3.60069   3.60871   3.61333   3.62652   3.62997
 Alpha virt. eigenvalues --    3.64004   3.65037   3.67133   3.68841   3.70768
 Alpha virt. eigenvalues --    3.72642   3.73304   3.75333   3.80461   3.81868
 Alpha virt. eigenvalues --    3.82913   3.83961   3.87136   3.88353   3.88975
 Alpha virt. eigenvalues --    3.91506   3.91614   3.91958   3.92244   3.93509
 Alpha virt. eigenvalues --    3.94161   3.96499   3.97911   4.00040   4.03142
 Alpha virt. eigenvalues --    4.07036   4.08411   4.12223   4.14617   4.15189
 Alpha virt. eigenvalues --    4.16361   4.17704   4.18344   4.19368   4.21040
 Alpha virt. eigenvalues --    4.25422   4.26103   4.28692   4.31703   4.36584
 Alpha virt. eigenvalues --    4.38470   4.42601   4.49577   4.51513   4.60357
 Alpha virt. eigenvalues --    4.63067   4.65722   4.71526   4.87565   5.05790
 Alpha virt. eigenvalues --    5.07890   5.10510   5.13694   5.19771   5.27831
 Alpha virt. eigenvalues --    5.29595   5.30255   5.33664   5.35572   5.35860
 Alpha virt. eigenvalues --    5.37133   5.48080   5.50471   5.52218   5.53888
 Alpha virt. eigenvalues --    5.55141   5.59764   5.91109   5.95672   5.98488
 Alpha virt. eigenvalues --    6.03085   6.04744   6.07418   8.17884   8.24590
 Alpha virt. eigenvalues --   17.46404  17.55377  17.66346  17.69685  17.78918
 Alpha virt. eigenvalues --   17.82936  23.69656  23.77860  23.89794  23.99477
 Alpha virt. eigenvalues --   24.03018  24.06064  24.06458  24.07888  24.08604
 Alpha virt. eigenvalues --   24.10292  24.11784  24.13327  24.14384  24.14842
 Alpha virt. eigenvalues --   24.16111  24.16884  24.19728  24.20170  24.21832
 Alpha virt. eigenvalues --   24.22691  24.24484  24.25794  24.29797  24.32217
 Alpha virt. eigenvalues --   24.34821  24.42087  35.78313  35.81016  50.12586
 Alpha virt. eigenvalues --   50.14205  50.25483  50.27630  50.28863  50.30247
 Alpha virt. eigenvalues --  189.35235 189.42632
          Condensed to atoms (all electrons):
 Mulliken charges:
               1
     1  C    0.218240
     2  C   -0.073900
     3  C    0.088163
     4  C    0.240732
     5  C    0.093321
     6  C   -0.042765
     7  C    0.152945
     8  C    0.190164
     9  C    0.229524
    10  C   -0.535235
    11  C    0.238689
    12  C    0.110828
    13  C   -0.513028
    14  C   -0.582129
    15  H    0.103044
    16  H    0.107089
    17  H    0.124709
    18  N   -0.046574
    19  N   -0.135200
    20  O   -0.430944
    21  O   -0.408055
    22  O   -0.422296
    23  O   -0.352348
    24  C   -0.157854
    25  H    0.140119
    26  H    0.134894
    27  H    0.156409
    28  C   -0.179683
    29  H    0.133766
    30  H    0.135241
    31  H    0.157163
    32  C    0.105597
    33  C   -0.807917
    34  S   -0.666934
    35  C   -0.367641
    36  H    0.116499
    37  C    0.625695
    38  O   -0.133139
    39  C    0.386722
    40  C   -0.225227
    41  C    0.124989
    42  S   -0.368033
    43  H    0.132019
    44  H    0.143927
    45  H    0.133957
    46  C   -0.085559
    47  O   -0.145868
    48  C   -0.199346
    49  H    0.093703
    50  C   -0.296009
    51  H    0.119112
    52  H    0.194829
    53  H    0.142911
    54  H    0.100690
 Sum of Mulliken charges =  -2.00000
 Mulliken charges with hydrogens summed into heavy atoms:
               1
     1  C    0.218240
     2  C   -0.073900
     3  C    0.088163
     4  C    0.240732
     5  C    0.093321
     6  C    0.081944
     7  C    0.152945
     8  C    0.190164
     9  C    0.229524
    10  C   -0.535235
    11  C    0.238689
    12  C    0.110828
    13  C   -0.405940
    14  C   -0.479085
    18  N   -0.046574
    19  N   -0.135200
    20  O   -0.430944
    21  O   -0.408055
    22  O   -0.422296
    23  O   -0.352348
    24  C    0.273568
    28  C    0.246487
    32  C    0.105597
    33  C   -0.691419
    34  S   -0.666934
    35  C   -0.367641
    37  C    0.625695
    38  O   -0.133139
    39  C    0.386722
    40  C    0.184676
    41  C    0.124989
    42  S   -0.368033
    46  C    0.008143
    47  O   -0.145868
    48  C   -0.080235
    50  C    0.142421
 Electronic spatial extent (au):  <R**2>=          22198.3691
 Charge=             -2.0000 electrons
 Dipole moment (field-independent basis, Debye):
    X=             14.7729    Y=             -3.1435    Z=             -1.8387  Tot=             15.2152
 Quadrupole moment (field-independent basis, Debye-Ang):
   XX=           -421.3238   YY=           -303.9219   ZZ=           -241.7705
   XY=              5.9900   XZ=              3.7282   YZ=              8.4409
 Traceless Quadrupole moment (field-independent basis, Debye-Ang):
   XX=            -98.9851   YY=             18.4168   ZZ=             80.5683
   XY=              5.9900   XZ=              3.7282   YZ=              8.4409
 Octapole moment (field-independent basis, Debye-Ang**2):
  XXX=            512.5756  YYY=           -113.0725  ZZZ=            -15.1593  XYY=            251.0282
  XXY=             60.7358  XXZ=           -118.2729  XZZ=             -6.1193  YZZ=            -20.3615
  YYZ=             -8.9599  XYZ=             -5.3665
 Hexadecapole moment (field-independent basis, Debye-Ang**3):
 XXXX=         -29393.4458 YYYY=          -9049.4015 ZZZZ=          -1054.5300 XXXY=           -183.5945
 XXXZ=            436.1820 YYYX=            415.2921 YYYZ=            104.1003 ZZZX=            -59.9935
 ZZZY=             18.4998 XXYY=          -5910.8596 XXZZ=          -4227.4149 YYZZ=          -1447.8400
 XXYZ=            129.1931 YYXZ=            -57.0848 ZZXY=            -10.5144
 N-N= 4.111320984587D+03 E-N=-1.382090020851D+04  KE= 2.352090600568D+03
 Unable to Open any file for archive entry.
 1\1\GINC-CX3-1-26\FOpt\RB3LYP\6-311+G(d,p)\C26H18N2O6S2(2-)\NS5018\06-
 Oct-2021\0\\# opt=modredundant b3lyp/6-311+g(d,p)\\NDI_-155.pdb\\-2,1\
 C,-2.4299683853,-2.8231632407,-0.655790868\C,-2.1850533859,-1.42864504
 71,-0.3925213851\C,-3.2418284048,-0.5792639356,0.0431251525\C,-4.54896
 66462,-1.0780865123,0.2241286411\C,-4.8403448711,-2.4714642465,-0.0265
 210497\C,-0.8744311386,-0.9213795993,-0.4971278729\C,-2.9536879008,0.8
 173765249,0.2808944633\C,-1.6310704017,1.3251643896,0.089542255\C,-0.5
 486484504,0.401500831,-0.2445876434\C,-1.4486405244,2.7493606651,0.087
 4818609\C,-3.8324108993,3.0736731389,0.8395538212\C,-4.0330260746,1.65
 80010202,0.6627252704\C,-5.3427990249,1.120612998,0.8486486998\C,-5.59
 93013672,-0.2041825265,0.6428664576\H,-6.589273096,-0.6235588753,0.773
 9288047\H,-6.1225534767,1.8104510136,1.1490230988\H,-0.0949045507,-1.6
 434193795,-0.7021646394\N,-2.5444240386,3.5368901144,0.5300333478\N,-3
 .755032338,-3.2665151137,-0.4588767053\O,-1.5776878837,-3.6496171598,-
 1.0380210289\O,-5.9655396958,-2.9895973809,0.1117827827\O,-4.716238871
 5,3.8750884239,1.2115910182\O,-0.4224751323,3.3594144721,-0.2777549311
 \C,-2.3026460305,4.9738397412,0.5920489417\H,-1.4099602017,5.174907058
 8,1.1878470129\H,-2.1231941441,5.3771494698,-0.409248268\H,-3.18373035
 74,5.4334805047,1.033148701\C,-4.0016665925,-4.6783658501,-0.728354402
 4\H,-3.734794992,-4.9168255793,-1.7612647872\H,-3.3806865248,-5.301735
 1663,-0.079251753\H,-5.0570269124,-4.8663440441,-0.5475457907\C,0.8781
 396017,0.6936561191,-0.1876636158\C,1.8758167741,0.0589204893,-0.92643
 25241\S,1.6126303374,1.7388185926,1.011014717\C,3.1792403594,0.4070079
 478,-0.5387537804\H,1.6400576836,-0.6152413967,-1.7359411072\C,3.25817
 84627,1.3247341117,0.5078125175\O,4.3393107108,-0.048785658,-1.1224224
 63\C,4.422733206,1.9468662323,1.0600194738\C,4.2089656909,-0.981007695
 7,-2.1785880097\C,4.5220724097,2.9807405526,1.9913039042\S,6.065472053
 8,1.4276162395,0.633159126\H,5.2244984519,-1.2321518735,-2.4891508418\
 H,3.6922344438,-1.8902311174,-1.850080417\H,3.664743097,-0.5513820082,
 -3.0281509704\C,5.8492997214,3.3295759972,2.3560595853\O,3.4293585465,
 3.5904703903,2.5728661529\C,6.7986653682,2.5862398233,1.7145140129\H,6
 .063761312,4.1073584901,3.0792889989\C,2.9325022503,4.7357044311,1.869
 8184508\H,7.8732718789,2.6428197371,1.7962047641\H,2.5675655363,4.4640
 385538,0.8761354382\H,2.0954366747,5.1167026371,2.4558542267\H,3.71105
 77427,5.5057826951,1.7887931568\\Version=ES64L-G16RevC.01\State=1-A\HF
 =-2359.3989518\RMSD=8.929e-09\RMSF=1.670e-04\Dipole=5.8619923,1.102186
 1,-0.5056123\Quadrupole=-65.602524,6.5544206,59.0481034,-24.9079247,-5
 .4611495,-9.7850666\PG=C01 [X(C26H18N2O6S2)]\\@
 The archive entry for this job was punched.


 WHAT, THEN, IS TIME?  IF NO ONE ASKS ME, I KNOW WHAT IT IS.
 IF I WISH TO EXPLAIN WHAT IT IS TO HIM WHO ASKS ME, I DO NOT KNOW.
                                   -- ST. AUGUSTINE (FIFTH CENTURY)
 Job cpu time:       5 days 17 hours 14 minutes 33.5 seconds.
 Elapsed time:       0 days 17 hours 16 minutes 44.0 seconds.
 File lengths (MBytes):  RWF=    525 Int=      0 D2E=      0 Chk=     77 Scr=      1
 Normal termination of Gaussian 16 at Wed Oct  6 00:17:46 2021.
