 Entering Gaussian System, Link 0=g16
 Input=NDI_-60.gjf
 Output=NDI_-60.log
 Initial command:
 /apps/gaussian/g16-c01-avx/g16/l1.exe "/tmp/pbs.4643763[115].pbs/Gau-662514.inp" -scrdir="/tmp/pbs.4643763[115].pbs/"
 Entering Link 1 = /apps/gaussian/g16-c01-avx/g16/l1.exe PID=    662515.
  
 Copyright (c) 1988-2019, Gaussian, Inc.  All Rights Reserved.
  
 This is part of the Gaussian(R) 16 program.  It is based on
 the Gaussian(R) 09 system (copyright 2009, Gaussian, Inc.),
 the Gaussian(R) 03 system (copyright 2003, Gaussian, Inc.),
 the Gaussian(R) 98 system (copyright 1998, Gaussian, Inc.),
 the Gaussian(R) 94 system (copyright 1995, Gaussian, Inc.),
 the Gaussian 92(TM) system (copyright 1992, Gaussian, Inc.),
 the Gaussian 90(TM) system (copyright 1990, Gaussian, Inc.),
 the Gaussian 88(TM) system (copyright 1988, Gaussian, Inc.),
 the Gaussian 86(TM) system (copyright 1986, Carnegie Mellon
 University), and the Gaussian 82(TM) system (copyright 1983,
 Carnegie Mellon University). Gaussian is a federally registered
 trademark of Gaussian, Inc.
  
 This software contains proprietary and confidential information,
 including trade secrets, belonging to Gaussian, Inc.
  
 This software is provided under written license and may be
 used, copied, transmitted, or stored only in accord with that
 written license.
  
 The following legend is applicable only to US Government
 contracts under FAR:
  
                    RESTRICTED RIGHTS LEGEND
  
 Use, reproduction and disclosure by the US Government is
 subject to restrictions as set forth in subparagraphs (a)
 and (c) of the Commercial Computer Software - Restricted
 Rights clause in FAR 52.227-19.
  
 Gaussian, Inc.
 340 Quinnipiac St., Bldg. 40, Wallingford CT 06492
  
  
 ---------------------------------------------------------------
 Warning -- This program may not be used in any manner that
 competes with the business of Gaussian, Inc. or will provide
 assistance to any competitor of Gaussian, Inc.  The licensee
 of this program is prohibited from giving any competitor of
 Gaussian, Inc. access to this program.  By using this program,
 the user acknowledges that Gaussian, Inc. is engaged in the
 business of creating and licensing software in the field of
 computational chemistry and represents and warrants to the
 licensee that it is not a competitor of Gaussian, Inc. and that
 it will not use this program in any manner prohibited above.
 ---------------------------------------------------------------
  

 Cite this work as:
 Gaussian 16, Revision C.01,
 M. J. Frisch, G. W. Trucks, H. B. Schlegel, G. E. Scuseria, 
 M. A. Robb, J. R. Cheeseman, G. Scalmani, V. Barone, 
 G. A. Petersson, H. Nakatsuji, X. Li, M. Caricato, A. V. Marenich, 
 J. Bloino, B. G. Janesko, R. Gomperts, B. Mennucci, H. P. Hratchian, 
 J. V. Ortiz, A. F. Izmaylov, J. L. Sonnenberg, D. Williams-Young, 
 F. Ding, F. Lipparini, F. Egidi, J. Goings, B. Peng, A. Petrone, 
 T. Henderson, D. Ranasinghe, V. G. Zakrzewski, J. Gao, N. Rega, 
 G. Zheng, W. Liang, M. Hada, M. Ehara, K. Toyota, R. Fukuda, 
 J. Hasegawa, M. Ishida, T. Nakajima, Y. Honda, O. Kitao, H. Nakai, 
 T. Vreven, K. Throssell, J. A. Montgomery, Jr., J. E. Peralta, 
 F. Ogliaro, M. J. Bearpark, J. J. Heyd, E. N. Brothers, K. N. Kudin, 
 V. N. Staroverov, T. A. Keith, R. Kobayashi, J. Normand, 
 K. Raghavachari, A. P. Rendell, J. C. Burant, S. S. Iyengar, 
 J. Tomasi, M. Cossi, J. M. Millam, M. Klene, C. Adamo, R. Cammi, 
 J. W. Ochterski, R. L. Martin, K. Morokuma, O. Farkas, 
 J. B. Foresman, and D. J. Fox, Gaussian, Inc., Wallingford CT, 2019.
 
 ******************************************
 Gaussian 16:  ES64L-G16RevC.01  3-Jul-2019
                 7-Oct-2021 
 ******************************************
 %mem=10GB
 %nprocshared=8
 Will use up to    8 processors via shared memory.
 -------------------------------------
 # opt=modredundant b3lyp/6-311+g(d,p)
 -------------------------------------
 1/18=120,19=15,26=3,38=1/1,3;
 2/9=110,12=2,17=6,18=5,40=1/2;
 3/5=4,6=6,7=111,11=2,25=1,30=1,71=1,74=-5/1,2,3;
 4//1;
 5/5=2,38=5/2;
 6/7=2,8=2,9=2,10=2,28=1/1;
 7//1,2,3,16;
 1/18=20,19=15,26=3/3(2);
 2/9=110/2;
 99//99;
 2/9=110/2;
 3/5=4,6=6,7=111,11=2,25=1,30=1,71=1,74=-5/1,2,3;
 4/5=5,16=3,69=1/1;
 5/5=2,38=5/2;
 7//1,2,3,16;
 1/18=20,19=15,26=3/3(-5);
 2/9=110/2;
 6/7=2,8=2,9=2,10=2,19=2,28=1/1;
 99/9=1/99;
 -----------
 NDI_-60.pdb
 -----------
 Symbolic Z-matrix:
 Charge = -2 Multiplicity = 1
 C                    -2.563    -2.994    -0.409 
 C                    -2.257    -1.551    -0.224 
 C                    -3.301    -0.607    -0.083 
 C                    -4.65     -1.024    -0.115 
 C                    -4.992    -2.459    -0.304 
 C                    -0.949    -1.137    -0.215 
 C                    -2.962     0.764     0.102 
 C                    -1.595     1.188     0.123 
 C                    -0.561     0.232    -0.072 
 C                    -1.328     2.616     0.446 
 C                    -3.777     3.115     0.508 
 C                    -4.035     1.679     0.268 
 C                    -5.356     1.252     0.23 
 C                    -5.672    -0.098     0.036 
 H                    -6.699    -0.442     0.008 
 H                    -6.133     1.997     0.361 
 H                    -0.19     -1.895    -0.369 
 N                    -2.432     3.476     0.608 
 N                    -3.916    -3.353    -0.438 
 O                    -1.695    -3.847    -0.532 
 O                    -6.149    -2.85     -0.34 
 O                    -4.676     3.938     0.629 
 O                    -0.212     3.097     0.596 
 C                    -2.111     4.875     0.912 
 H                    -1.54      4.931     1.84 
 H                    -1.5       5.299     0.111 
 H                    -3.05      5.414     1.003 
 C                    -4.206    -4.779    -0.625 
 H                    -3.759    -5.126    -1.559 
 H                    -3.775    -5.355     0.196 
 H                    -5.286    -4.897    -0.649 
 C                     0.876     0.482    -0.178 
 C                     1.597     1.242    -1.078 
 S                     1.973    -0.401     0.884 
 C                     2.993     1.127    -0.921 
 H                     1.13      1.868    -1.821 
 C                     3.39      0.276     0.115 
 O                     3.945     1.752    -1.664 
 C                     4.727    -0.014     0.549 
 C                     3.507     2.719    -2.614 
 C                     5.122    -0.881     1.566 
 S                     6.154     0.722    -0.177 
 H                     4.413     3.154    -3.038 
 H                     2.92      2.252    -3.414 
 H                     2.91      3.504    -2.135 
 C                     6.531    -0.952     1.758 
 O                     4.175    -1.557     2.267 
 C                     7.206    -0.14      0.887 
 H                     7.018    -1.57      2.499 
 C                     4.61     -2.462     3.276 
 H                     8.276    -0.003     0.811 
 H                     5.162    -1.939     4.068 
 H                     3.706    -2.901     3.697 
 H                     5.239    -3.255     2.855 
 
 The following ModRedundant input section has been read:
 D       8       9      32      33 F                                           
 

 GradGradGradGradGradGradGradGradGradGradGradGradGradGradGradGradGradGrad
 Berny optimization.
 Initialization pass.
                           ----------------------------
                           !    Initial Parameters    !
                           ! (Angstroms and Degrees)  !
 --------------------------                            --------------------------
 ! Name  Definition              Value          Derivative Info.                !
 --------------------------------------------------------------------------------
 ! R1    R(1,2)                  1.4866         estimate D2E/DX2                !
 ! R2    R(1,19)                 1.4001         estimate D2E/DX2                !
 ! R3    R(1,20)                 1.2232         estimate D2E/DX2                !
 ! R4    R(2,3)                  1.4146         estimate D2E/DX2                !
 ! R5    R(2,6)                  1.372          estimate D2E/DX2                !
 ! R6    R(3,4)                  1.4123         estimate D2E/DX2                !
 ! R7    R(3,7)                  1.4244         estimate D2E/DX2                !
 ! R8    R(4,5)                  1.4872         estimate D2E/DX2                !
 ! R9    R(4,14)                 1.3874         estimate D2E/DX2                !
 ! R10   R(5,19)                 1.4053         estimate D2E/DX2                !
 ! R11   R(5,21)                 1.2218         estimate D2E/DX2                !
 ! R12   R(6,9)                  1.4301         estimate D2E/DX2                !
 ! R13   R(6,17)                 1.0837         estimate D2E/DX2                !
 ! R14   R(7,8)                  1.4314         estimate D2E/DX2                !
 ! R15   R(7,12)                 1.4199         estimate D2E/DX2                !
 ! R16   R(8,9)                  1.4217         estimate D2E/DX2                !
 ! R17   R(8,10)                 1.4882         estimate D2E/DX2                !
 ! R18   R(9,32)                 1.4624         estimate D2E/DX2                !
 ! R19   R(10,18)                1.4088         estimate D2E/DX2                !
 ! R20   R(10,23)                1.2245         estimate D2E/DX2                !
 ! R21   R(11,12)                1.4786         estimate D2E/DX2                !
 ! R22   R(11,18)                1.3962         estimate D2E/DX2                !
 ! R23   R(11,22)                1.2248         estimate D2E/DX2                !
 ! R24   R(12,13)                1.3888         estimate D2E/DX2                !
 ! R25   R(13,14)                1.4            estimate D2E/DX2                !
 ! R26   R(13,16)                1.0844         estimate D2E/DX2                !
 ! R27   R(14,15)                1.0834         estimate D2E/DX2                !
 ! R28   R(18,24)                1.4672         estimate D2E/DX2                !
 ! R29   R(19,28)                1.4672         estimate D2E/DX2                !
 ! R30   R(24,25)                1.091          estimate D2E/DX2                !
 ! R31   R(24,26)                1.093          estimate D2E/DX2                !
 ! R32   R(24,27)                1.0865         estimate D2E/DX2                !
 ! R33   R(28,29)                1.0921         estimate D2E/DX2                !
 ! R34   R(28,30)                1.0916         estimate D2E/DX2                !
 ! R35   R(28,31)                1.0867         estimate D2E/DX2                !
 ! R36   R(32,33)                1.3811         estimate D2E/DX2                !
 ! R37   R(32,34)                1.7638         estimate D2E/DX2                !
 ! R38   R(33,35)                1.4095         estimate D2E/DX2                !
 ! R39   R(33,36)                1.078          estimate D2E/DX2                !
 ! R40   R(34,37)                1.7486         estimate D2E/DX2                !
 ! R41   R(35,37)                1.3983         estimate D2E/DX2                !
 ! R42   R(35,38)                1.3598         estimate D2E/DX2                !
 ! R43   R(37,39)                1.4353         estimate D2E/DX2                !
 ! R44   R(38,40)                1.4246         estimate D2E/DX2                !
 ! R45   R(39,41)                1.3936         estimate D2E/DX2                !
 ! R46   R(39,42)                1.7621         estimate D2E/DX2                !
 ! R47   R(40,43)                1.0908         estimate D2E/DX2                !
 ! R48   R(40,44)                1.0967         estimate D2E/DX2                !
 ! R49   R(40,45)                1.0964         estimate D2E/DX2                !
 ! R50   R(41,46)                1.4238         estimate D2E/DX2                !
 ! R51   R(41,47)                1.3584         estimate D2E/DX2                !
 ! R52   R(42,48)                1.7268         estimate D2E/DX2                !
 ! R53   R(46,48)                1.3688         estimate D2E/DX2                !
 ! R54   R(46,49)                1.0808         estimate D2E/DX2                !
 ! R55   R(47,50)                1.4235         estimate D2E/DX2                !
 ! R56   R(48,51)                1.0814         estimate D2E/DX2                !
 ! R57   R(50,52)                1.098          estimate D2E/DX2                !
 ! R58   R(50,53)                1.0896         estimate D2E/DX2                !
 ! R59   R(50,54)                1.0962         estimate D2E/DX2                !
 ! A1    A(2,1,19)             116.767          estimate D2E/DX2                !
 ! A2    A(2,1,20)             122.9113         estimate D2E/DX2                !
 ! A3    A(19,1,20)            120.3217         estimate D2E/DX2                !
 ! A4    A(1,2,3)              120.5473         estimate D2E/DX2                !
 ! A5    A(1,2,6)              119.3369         estimate D2E/DX2                !
 ! A6    A(3,2,6)              120.1056         estimate D2E/DX2                !
 ! A7    A(2,3,4)              120.3743         estimate D2E/DX2                !
 ! A8    A(2,3,7)              118.662          estimate D2E/DX2                !
 ! A9    A(4,3,7)              120.9617         estimate D2E/DX2                !
 ! A10   A(3,4,5)              120.4909         estimate D2E/DX2                !
 ! A11   A(3,4,14)             120.2702         estimate D2E/DX2                !
 ! A12   A(5,4,14)             119.2382         estimate D2E/DX2                !
 ! A13   A(4,5,19)             116.7341         estimate D2E/DX2                !
 ! A14   A(4,5,21)             122.024          estimate D2E/DX2                !
 ! A15   A(19,5,21)            121.2418         estimate D2E/DX2                !
 ! A16   A(2,6,9)              123.2421         estimate D2E/DX2                !
 ! A17   A(2,6,17)             117.1119         estimate D2E/DX2                !
 ! A18   A(9,6,17)             119.589          estimate D2E/DX2                !
 ! A19   A(3,7,8)              120.9519         estimate D2E/DX2                !
 ! A20   A(3,7,12)             117.1037         estimate D2E/DX2                !
 ! A21   A(8,7,12)             121.944          estimate D2E/DX2                !
 ! A22   A(7,8,9)              119.5639         estimate D2E/DX2                !
 ! A23   A(7,8,10)             117.3064         estimate D2E/DX2                !
 ! A24   A(9,8,10)             122.9922         estimate D2E/DX2                !
 ! A25   A(6,9,8)              117.3944         estimate D2E/DX2                !
 ! A26   A(6,9,32)             115.0236         estimate D2E/DX2                !
 ! A27   A(8,9,32)             127.5648         estimate D2E/DX2                !
 ! A28   A(8,10,18)            118.042          estimate D2E/DX2                !
 ! A29   A(8,10,23)            124.5436         estimate D2E/DX2                !
 ! A30   A(18,10,23)           117.4097         estimate D2E/DX2                !
 ! A31   A(12,11,18)           115.5202         estimate D2E/DX2                !
 ! A32   A(12,11,22)           122.7205         estimate D2E/DX2                !
 ! A33   A(18,11,22)           121.7534         estimate D2E/DX2                !
 ! A34   A(7,12,11)            120.8614         estimate D2E/DX2                !
 ! A35   A(7,12,13)            121.162          estimate D2E/DX2                !
 ! A36   A(11,12,13)           117.9699         estimate D2E/DX2                !
 ! A37   A(12,13,14)           120.9948         estimate D2E/DX2                !
 ! A38   A(12,13,16)           117.8401         estimate D2E/DX2                !
 ! A39   A(14,13,16)           121.1642         estimate D2E/DX2                !
 ! A40   A(4,14,13)            119.5003         estimate D2E/DX2                !
 ! A41   A(4,14,15)            118.9169         estimate D2E/DX2                !
 ! A42   A(13,14,15)           121.5811         estimate D2E/DX2                !
 ! A43   A(10,18,11)           126.0753         estimate D2E/DX2                !
 ! A44   A(10,18,24)           115.7508         estimate D2E/DX2                !
 ! A45   A(11,18,24)           118.1737         estimate D2E/DX2                !
 ! A46   A(1,19,5)             125.0856         estimate D2E/DX2                !
 ! A47   A(1,19,28)            116.2868         estimate D2E/DX2                !
 ! A48   A(5,19,28)            118.6276         estimate D2E/DX2                !
 ! A49   A(18,24,25)           109.8574         estimate D2E/DX2                !
 ! A50   A(18,24,26)           109.8979         estimate D2E/DX2                !
 ! A51   A(18,24,27)           107.5355         estimate D2E/DX2                !
 ! A52   A(25,24,26)           108.1108         estimate D2E/DX2                !
 ! A53   A(25,24,27)           110.8301         estimate D2E/DX2                !
 ! A54   A(26,24,27)           110.6124         estimate D2E/DX2                !
 ! A55   A(19,28,29)           109.6906         estimate D2E/DX2                !
 ! A56   A(19,28,30)           109.8136         estimate D2E/DX2                !
 ! A57   A(19,28,31)           107.7461         estimate D2E/DX2                !
 ! A58   A(29,28,30)           108.2991         estimate D2E/DX2                !
 ! A59   A(29,28,31)           110.6959         estimate D2E/DX2                !
 ! A60   A(30,28,31)           110.5924         estimate D2E/DX2                !
 ! A61   A(9,32,33)            130.8645         estimate D2E/DX2                !
 ! A62   A(9,32,34)            118.8107         estimate D2E/DX2                !
 ! A63   A(33,32,34)           110.0699         estimate D2E/DX2                !
 ! A64   A(32,33,35)           113.5509         estimate D2E/DX2                !
 ! A65   A(32,33,36)           122.858          estimate D2E/DX2                !
 ! A66   A(35,33,36)           123.5888         estimate D2E/DX2                !
 ! A67   A(32,34,37)            92.6014         estimate D2E/DX2                !
 ! A68   A(33,35,37)           114.4181         estimate D2E/DX2                !
 ! A69   A(33,35,38)           126.516          estimate D2E/DX2                !
 ! A70   A(37,35,38)           119.0658         estimate D2E/DX2                !
 ! A71   A(34,37,35)           109.3537         estimate D2E/DX2                !
 ! A72   A(34,37,39)           122.9337         estimate D2E/DX2                !
 ! A73   A(35,37,39)           127.6979         estimate D2E/DX2                !
 ! A74   A(35,38,40)           117.4598         estimate D2E/DX2                !
 ! A75   A(37,39,41)           127.6197         estimate D2E/DX2                !
 ! A76   A(37,39,42)           123.0514         estimate D2E/DX2                !
 ! A77   A(41,39,42)           109.3289         estimate D2E/DX2                !
 ! A78   A(38,40,43)           105.9347         estimate D2E/DX2                !
 ! A79   A(38,40,44)           111.222          estimate D2E/DX2                !
 ! A80   A(38,40,45)           111.2279         estimate D2E/DX2                !
 ! A81   A(43,40,44)           109.3201         estimate D2E/DX2                !
 ! A82   A(43,40,45)           109.6673         estimate D2E/DX2                !
 ! A83   A(44,40,45)           109.3988         estimate D2E/DX2                !
 ! A84   A(39,41,46)           114.201          estimate D2E/DX2                !
 ! A85   A(39,41,47)           119.2499         estimate D2E/DX2                !
 ! A86   A(46,41,47)           126.5487         estimate D2E/DX2                !
 ! A87   A(39,42,48)            91.7761         estimate D2E/DX2                !
 ! A88   A(41,46,48)           111.8772         estimate D2E/DX2                !
 ! A89   A(41,46,49)           124.5321         estimate D2E/DX2                !
 ! A90   A(48,46,49)           123.5907         estimate D2E/DX2                !
 ! A91   A(41,47,50)           117.9784         estimate D2E/DX2                !
 ! A92   A(42,48,46)           112.8168         estimate D2E/DX2                !
 ! A93   A(42,48,51)           119.752          estimate D2E/DX2                !
 ! A94   A(46,48,51)           127.4309         estimate D2E/DX2                !
 ! A95   A(47,50,52)           111.2291         estimate D2E/DX2                !
 ! A96   A(47,50,53)           106.0511         estimate D2E/DX2                !
 ! A97   A(47,50,54)           111.286          estimate D2E/DX2                !
 ! A98   A(52,50,53)           109.2887         estimate D2E/DX2                !
 ! A99   A(52,50,54)           109.459          estimate D2E/DX2                !
 ! A100  A(53,50,54)           109.4502         estimate D2E/DX2                !
 ! D1    D(19,1,2,3)             0.1578         estimate D2E/DX2                !
 ! D2    D(19,1,2,6)          -178.6792         estimate D2E/DX2                !
 ! D3    D(20,1,2,3)          -179.8231         estimate D2E/DX2                !
 ! D4    D(20,1,2,6)             1.3399         estimate D2E/DX2                !
 ! D5    D(2,1,19,5)            -0.124          estimate D2E/DX2                !
 ! D6    D(2,1,19,28)          179.8267         estimate D2E/DX2                !
 ! D7    D(20,1,19,5)          179.8575         estimate D2E/DX2                !
 ! D8    D(20,1,19,28)          -0.1919         estimate D2E/DX2                !
 ! D9    D(1,2,3,4)              0.0571         estimate D2E/DX2                !
 ! D10   D(1,2,3,7)            179.5453         estimate D2E/DX2                !
 ! D11   D(6,2,3,4)            178.8851         estimate D2E/DX2                !
 ! D12   D(6,2,3,7)             -1.6266         estimate D2E/DX2                !
 ! D13   D(1,2,6,9)            178.625          estimate D2E/DX2                !
 ! D14   D(1,2,6,17)             1.3881         estimate D2E/DX2                !
 ! D15   D(3,2,6,9)             -0.2173         estimate D2E/DX2                !
 ! D16   D(3,2,6,17)          -177.4541         estimate D2E/DX2                !
 ! D17   D(2,3,4,5)             -0.3074         estimate D2E/DX2                !
 ! D18   D(2,3,4,14)           179.3968         estimate D2E/DX2                !
 ! D19   D(7,3,4,5)           -179.7837         estimate D2E/DX2                !
 ! D20   D(7,3,4,14)            -0.0795         estimate D2E/DX2                !
 ! D21   D(2,3,7,8)              1.0523         estimate D2E/DX2                !
 ! D22   D(2,3,7,12)          -178.712          estimate D2E/DX2                !
 ! D23   D(4,3,7,8)           -179.4626         estimate D2E/DX2                !
 ! D24   D(4,3,7,12)             0.7731         estimate D2E/DX2                !
 ! D25   D(3,4,5,19)             0.3343         estimate D2E/DX2                !
 ! D26   D(3,4,5,21)          -179.7799         estimate D2E/DX2                !
 ! D27   D(14,4,5,19)         -179.3729         estimate D2E/DX2                !
 ! D28   D(14,4,5,21)            0.5129         estimate D2E/DX2                !
 ! D29   D(3,4,14,13)           -0.4559         estimate D2E/DX2                !
 ! D30   D(3,4,14,15)         -179.9937         estimate D2E/DX2                !
 ! D31   D(5,4,14,13)          179.252          estimate D2E/DX2                !
 ! D32   D(5,4,14,15)           -0.2858         estimate D2E/DX2                !
 ! D33   D(4,5,19,1)            -0.1141         estimate D2E/DX2                !
 ! D34   D(4,5,19,28)          179.9364         estimate D2E/DX2                !
 ! D35   D(21,5,19,1)          179.9992         estimate D2E/DX2                !
 ! D36   D(21,5,19,28)           0.0496         estimate D2E/DX2                !
 ! D37   D(2,6,9,8)              2.5984         estimate D2E/DX2                !
 ! D38   D(2,6,9,32)          -176.0103         estimate D2E/DX2                !
 ! D39   D(17,6,9,8)           179.77           estimate D2E/DX2                !
 ! D40   D(17,6,9,32)            1.1613         estimate D2E/DX2                !
 ! D41   D(3,7,8,9)              1.3551         estimate D2E/DX2                !
 ! D42   D(3,7,8,10)          -174.5099         estimate D2E/DX2                !
 ! D43   D(12,7,8,9)          -178.8921         estimate D2E/DX2                !
 ! D44   D(12,7,8,10)            5.2428         estimate D2E/DX2                !
 ! D45   D(3,7,12,11)          178.0768         estimate D2E/DX2                !
 ! D46   D(3,7,12,13)           -0.9621         estimate D2E/DX2                !
 ! D47   D(8,7,12,11)           -1.685          estimate D2E/DX2                !
 ! D48   D(8,7,12,13)          179.2761         estimate D2E/DX2                !
 ! D49   D(7,8,9,6)             -3.0809         estimate D2E/DX2                !
 ! D50   D(7,8,9,32)           175.3285         estimate D2E/DX2                !
 ! D51   D(10,8,9,6)           172.5381         estimate D2E/DX2                !
 ! D52   D(10,8,9,32)           -9.0525         estimate D2E/DX2                !
 ! D53   D(7,8,10,18)           -4.7549         estimate D2E/DX2                !
 ! D54   D(7,8,10,23)          174.4235         estimate D2E/DX2                !
 ! D55   D(9,8,10,18)          179.5335         estimate D2E/DX2                !
 ! D56   D(9,8,10,23)           -1.2882         estimate D2E/DX2                !
 ! D57   D(6,9,32,33)          118.4543         estimate D2E/DX2                !
 ! D58   D(6,9,32,34)          -55.1113         estimate D2E/DX2                !
 ! D59   D(8,9,32,33)          -59.9872         Frozen                          !
 ! D60   D(8,9,32,34)          126.4472         estimate D2E/DX2                !
 ! D61   D(8,10,18,11)           0.7189         estimate D2E/DX2                !
 ! D62   D(8,10,18,24)        -179.4089         estimate D2E/DX2                !
 ! D63   D(23,10,18,11)       -178.5188         estimate D2E/DX2                !
 ! D64   D(23,10,18,24)          1.3535         estimate D2E/DX2                !
 ! D65   D(18,11,12,7)          -2.3856         estimate D2E/DX2                !
 ! D66   D(18,11,12,13)        176.6833         estimate D2E/DX2                !
 ! D67   D(22,11,12,7)         178.4862         estimate D2E/DX2                !
 ! D68   D(22,11,12,13)         -2.445          estimate D2E/DX2                !
 ! D69   D(12,11,18,10)          2.8444         estimate D2E/DX2                !
 ! D70   D(12,11,18,24)       -177.0251         estimate D2E/DX2                !
 ! D71   D(22,11,18,10)       -178.0181         estimate D2E/DX2                !
 ! D72   D(22,11,18,24)          2.1124         estimate D2E/DX2                !
 ! D73   D(7,12,13,14)           0.461          estimate D2E/DX2                !
 ! D74   D(7,12,13,16)        -179.8781         estimate D2E/DX2                !
 ! D75   D(11,12,13,14)       -178.6049         estimate D2E/DX2                !
 ! D76   D(11,12,13,16)          1.056          estimate D2E/DX2                !
 ! D77   D(12,13,14,4)           0.2708         estimate D2E/DX2                !
 ! D78   D(12,13,14,15)        179.7958         estimate D2E/DX2                !
 ! D79   D(16,13,14,4)        -179.3788         estimate D2E/DX2                !
 ! D80   D(16,13,14,15)          0.1463         estimate D2E/DX2                !
 ! D81   D(10,18,24,25)        -59.609          estimate D2E/DX2                !
 ! D82   D(10,18,24,26)         59.2209         estimate D2E/DX2                !
 ! D83   D(10,18,24,27)        179.6858         estimate D2E/DX2                !
 ! D84   D(11,18,24,25)        120.2739         estimate D2E/DX2                !
 ! D85   D(11,18,24,26)       -120.8962         estimate D2E/DX2                !
 ! D86   D(11,18,24,27)         -0.4313         estimate D2E/DX2                !
 ! D87   D(1,19,28,29)         -58.1407         estimate D2E/DX2                !
 ! D88   D(1,19,28,30)          60.7668         estimate D2E/DX2                !
 ! D89   D(1,19,28,31)        -178.7139         estimate D2E/DX2                !
 ! D90   D(5,19,28,29)         121.8132         estimate D2E/DX2                !
 ! D91   D(5,19,28,30)        -119.2792         estimate D2E/DX2                !
 ! D92   D(5,19,28,31)           1.2401         estimate D2E/DX2                !
 ! D93   D(9,32,33,35)        -174.2301         estimate D2E/DX2                !
 ! D94   D(9,32,33,36)           6.2966         estimate D2E/DX2                !
 ! D95   D(34,32,33,35)         -0.2309         estimate D2E/DX2                !
 ! D96   D(34,32,33,36)       -179.7041         estimate D2E/DX2                !
 ! D97   D(9,32,34,37)         175.3748         estimate D2E/DX2                !
 ! D98   D(33,32,34,37)          0.5516         estimate D2E/DX2                !
 ! D99   D(32,33,35,37)         -0.3341         estimate D2E/DX2                !
 ! D100  D(32,33,35,38)        179.7367         estimate D2E/DX2                !
 ! D101  D(36,33,35,37)        179.1347         estimate D2E/DX2                !
 ! D102  D(36,33,35,38)         -0.7945         estimate D2E/DX2                !
 ! D103  D(32,34,37,35)         -0.7228         estimate D2E/DX2                !
 ! D104  D(32,34,37,39)        177.979          estimate D2E/DX2                !
 ! D105  D(33,35,37,34)          0.7346         estimate D2E/DX2                !
 ! D106  D(33,35,37,39)       -177.8883         estimate D2E/DX2                !
 ! D107  D(38,35,37,34)       -179.3305         estimate D2E/DX2                !
 ! D108  D(38,35,37,39)          2.0466         estimate D2E/DX2                !
 ! D109  D(33,35,38,40)          6.4936         estimate D2E/DX2                !
 ! D110  D(37,35,38,40)       -173.4327         estimate D2E/DX2                !
 ! D111  D(34,37,39,41)          2.8131         estimate D2E/DX2                !
 ! D112  D(34,37,39,42)       -177.1843         estimate D2E/DX2                !
 ! D113  D(35,37,39,41)       -178.7349         estimate D2E/DX2                !
 ! D114  D(35,37,39,42)          1.2676         estimate D2E/DX2                !
 ! D115  D(35,38,40,43)        175.4957         estimate D2E/DX2                !
 ! D116  D(35,38,40,44)        -65.8212         estimate D2E/DX2                !
 ! D117  D(35,38,40,45)         56.3924         estimate D2E/DX2                !
 ! D118  D(37,39,41,46)       -179.956          estimate D2E/DX2                !
 ! D119  D(37,39,41,47)         -0.184          estimate D2E/DX2                !
 ! D120  D(42,39,41,46)          0.0417         estimate D2E/DX2                !
 ! D121  D(42,39,41,47)        179.8137         estimate D2E/DX2                !
 ! D122  D(37,39,42,48)        179.9653         estimate D2E/DX2                !
 ! D123  D(41,39,42,48)         -0.0326         estimate D2E/DX2                !
 ! D124  D(39,41,46,48)         -0.0308         estimate D2E/DX2                !
 ! D125  D(39,41,46,49)       -179.9939         estimate D2E/DX2                !
 ! D126  D(47,41,46,48)       -179.7831         estimate D2E/DX2                !
 ! D127  D(47,41,46,49)          0.2538         estimate D2E/DX2                !
 ! D128  D(39,41,47,50)        178.3713         estimate D2E/DX2                !
 ! D129  D(46,41,47,50)         -1.8876         estimate D2E/DX2                !
 ! D130  D(39,42,48,46)          0.0163         estimate D2E/DX2                !
 ! D131  D(39,42,48,51)        179.8397         estimate D2E/DX2                !
 ! D132  D(41,46,48,42)          0.0045         estimate D2E/DX2                !
 ! D133  D(41,46,48,51)       -179.8024         estimate D2E/DX2                !
 ! D134  D(49,46,48,42)        179.968          estimate D2E/DX2                !
 ! D135  D(49,46,48,51)          0.161          estimate D2E/DX2                !
 ! D136  D(41,47,50,52)         62.1021         estimate D2E/DX2                !
 ! D137  D(41,47,50,53)       -179.1788         estimate D2E/DX2                !
 ! D138  D(41,47,50,54)        -60.2347         estimate D2E/DX2                !
 --------------------------------------------------------------------------------
 Trust Radius=3.00D-01 FncErr=1.00D-07 GrdErr=1.00D-06 EigMax=2.50D+02 EigMin=1.00D-04
 Number of steps in this run=    307 maximum allowed number of steps=    324.
 GradGradGradGradGradGradGradGradGradGradGradGradGradGradGradGradGradGrad

 Stoichiometry    C26H18N2O6S2(2-)
 Framework group  C1[X(C26H18N2O6S2)]
 Deg. of freedom   156
 Full point group                 C1      NOp   1
 Largest Abelian subgroup         C1      NOp   1
 Largest concise Abelian subgroup C1      NOp   1
                         Standard orientation:                         
 ---------------------------------------------------------------------
 Center     Atomic      Atomic             Coordinates (Angstroms)
 Number     Number       Type             X           Y           Z
 ---------------------------------------------------------------------
      1          6           0        2.746963   -2.925015    0.593562
      2          6           0        2.356050   -1.511809    0.348319
      3          6           0        3.339194   -0.528889    0.087074
      4          6           0        4.707280   -0.878172    0.054589
      5          6           0        5.133912   -2.281441    0.301028
      6          6           0        1.030414   -1.162192    0.401221
      7          6           0        2.919101    0.810946   -0.151991
      8          6           0        1.533397    1.166997   -0.107768
      9          6           0        0.564195    0.175787    0.207300
     10          6           0        1.173552    2.558948   -0.492198
     11          6           0        3.584965    3.170130   -0.741175
     12          6           0        3.931093    1.764859   -0.438405
     13          6           0        5.272159    1.404619   -0.462531
     14          6           0        5.668803    0.085155   -0.214181
     15          1           0        6.711928   -0.207000   -0.233801
     16          1           0        6.000059    2.176920   -0.685304
     17          1           0        0.322554   -1.945232    0.646467
     18          7           0        2.219527    3.459743   -0.773562
     19          7           0        4.115859   -3.216452    0.554579
     20          8           0        1.933432   -3.809834    0.820331
     21          8           0        6.309533   -2.613758    0.283557
     22          8           0        4.431066    4.026640   -0.966287
     23          8           0        0.027069    2.976222   -0.596014
     24          6           0        1.808535    4.821316   -1.133926
     25          1           0        1.178830    4.794883   -2.024507
     26          1           0        1.227454    5.262225   -0.319898
     27          1           0        2.711015    5.398341   -1.315843
     28          6           0        4.490072   -4.613356    0.801903
     29          1           0        4.120481   -4.925483    1.780961
     30          1           0        4.039152   -5.256916    0.044223
     31          1           0        5.574120   -4.677865    0.762193
     32          6           0       -0.874414    0.362507    0.392353
     33          6           0       -1.576309    1.139031    1.293349
     34         16           0       -1.988306   -0.633324   -0.544934
     35          6           0       -2.971577    0.948209    1.234150
     36          1           0       -1.096934    1.829555    1.968175
     37          6           0       -3.387790    0.019352    0.275455
     38          8           0       -3.906515    1.569770    2.001309
     39          6           0       -4.732444   -0.359530   -0.053757
     40          6           0       -3.460763    2.611165    2.865157
     41          6           0       -5.144658   -1.303121   -0.992755
     42         16           0       -6.147611    0.348951    0.721136
     43          1           0       -4.359881    3.026601    3.322144
     44          1           0       -2.801872    2.220982    3.650191
     45          1           0       -2.935968    3.394133    2.305133
     46          6           0       -6.557328   -1.452765   -1.088444
     47          8           0       -4.209463   -1.973287   -1.714887
     48          6           0       -7.217857   -0.623904   -0.222245
     49          1           0       -7.056926   -2.136151   -1.760426
     50          6           0       -4.659089   -2.956210   -2.641186
     51          1           0       -8.286703   -0.534054   -0.084618
     52          1           0       -5.285485   -2.508040   -3.423662
     53          1           0       -3.761572   -3.375553   -3.094830
     54          1           0       -5.218972   -3.752120   -2.136419
 ---------------------------------------------------------------------
 Rotational constants (GHZ):           0.1548282           0.0567393           0.0456791
 Standard basis: 6-311+G(d,p) (5D, 7F)
 There are   952 symmetry adapted cartesian basis functions of A   symmetry.
 There are   916 symmetry adapted basis functions of A   symmetry.
   916 basis functions,  1468 primitive gaussians,   952 cartesian basis functions
   135 alpha electrons      135 beta electrons
       nuclear repulsion energy      4076.8688013365 Hartrees.
 NAtoms=   54 NActive=   54 NUniq=   54 SFac= 1.00D+00 NAtFMM=   60 NAOKFM=F Big=F
 Integral buffers will be    131072 words long.
 Raffenetti 2 integral format.
 Two-electron integral symmetry is turned on.
 One-electron integrals computed using PRISM.
 NBasis=   916 RedAO= T EigKep=  1.06D-06  NBF=   916
 NBsUse=   902 1.00D-06 EigRej=  6.30D-07 NBFU=   902
 ExpMin= 4.05D-02 ExpMax= 9.34D+04 ExpMxC= 3.17D+03 IAcc=3 IRadAn=         5 AccDes= 0.00D+00
 Harris functional with IExCor=  402 and IRadAn=       5 diagonalized for initial guess.
 HarFok:  IExCor=  402 AccDes= 0.00D+00 IRadAn=         5 IDoV= 1 UseB2=F ITyADJ=14
 ICtDFT=  3500011 ScaDFX=  1.000000  1.000000  1.000000  1.000000
 FoFCou: FMM=F IPFlag=           0 FMFlag=      100000 FMFlg1=           0
         NFxFlg=           0 DoJE=T BraDBF=F KetDBF=T FulRan=T
         wScrn=  0.000000 ICntrl=       500 IOpCl=  0 I1Cent=   200000004 NGrid=           0
         NMat0=    1 NMatS0=      1 NMatT0=    0 NMatD0=    1 NMtDS0=    0 NMtDT0=    0
 Petite list used in FoFCou.
 Requested convergence on RMS density matrix=1.00D-08 within 128 cycles.
 Requested convergence on MAX density matrix=1.00D-06.
 Requested convergence on             energy=1.00D-06.
 No special actions if energy rises.
 EnCoef did     9 forward-backward iterations
 EnCoef did   100 forward-backward iterations
 EnCoef did     6 forward-backward iterations
 EnCoef did     2 forward-backward iterations
 Restarting incremental Fock formation.
 SCF Done:  E(RB3LYP) =  -2359.37771555     A.U. after   23 cycles
            NFock= 23  Conv=0.71D-08     -V/T= 2.0030

 **********************************************************************

            Population analysis using the SCF Density.

 **********************************************************************

 Orbital symmetries:
       Occupied  (A) (A) (A) (A) (A) (A) (A) (A) (A) (A) (A) (A)
                 (A) (A) (A) (A) (A) (A) (A) (A) (A) (A) (A) (A)
                 (A) (A) (A) (A) (A) (A) (A) (A) (A) (A) (A) (A)
                 (A) (A) (A) (A) (A) (A) (A) (A) (A) (A) (A) (A)
                 (A) (A) (A) (A) (A) (A) (A) (A) (A) (A) (A) (A)
                 (A) (A) (A) (A) (A) (A) (A) (A) (A) (A) (A) (A)
                 (A) (A) (A) (A) (A) (A) (A) (A) (A) (A) (A) (A)
                 (A) (A) (A) (A) (A) (A) (A) (A) (A) (A) (A) (A)
                 (A) (A) (A) (A) (A) (A) (A) (A) (A) (A) (A) (A)
                 (A) (A) (A) (A) (A) (A) (A) (A) (A) (A) (A) (A)
                 (A) (A) (A) (A) (A) (A) (A) (A) (A) (A) (A) (A)
                 (A) (A) (A)
       Virtual   (A) (A) (A) (A) (A) (A) (A) (A) (A) (A) (A) (A)
                 (A) (A) (A) (A) (A) (A) (A) (A) (A) (A) (A) (A)
                 (A) (A) (A) (A) (A) (A) (A) (A) (A) (A) (A) (A)
                 (A) (A) (A) (A) (A) (A) (A) (A) (A) (A) (A) (A)
                 (A) (A) (A) (A) (A) (A) (A) (A) (A) (A) (A) (A)
                 (A) (A) (A) (A) (A) (A) (A) (A) (A) (A) (A) (A)
                 (A) (A) (A) (A) (A) (A) (A) (A) (A) (A) (A) (A)
                 (A) (A) (A) (A) (A) (A) (A) (A) (A) (A) (A) (A)
                 (A) (A) (A) (A) (A) (A) (A) (A) (A) (A) (A) (A)
                 (A) (A) (A) (A) (A) (A) (A) (A) (A) (A) (A) (A)
                 (A) (A) (A) (A) (A) (A) (A) (A) (A) (A) (A) (A)
                 (A) (A) (A) (A) (A) (A) (A) (A) (A) (A) (A) (A)
                 (A) (A) (A) (A) (A) (A) (A) (A) (A) (A) (A) (A)
                 (A) (A) (A) (A) (A) (A) (A) (A) (A) (A) (A) (A)
                 (A) (A) (A) (A) (A) (A) (A) (A) (A) (A) (A) (A)
                 (A) (A) (A) (A) (A) (A) (A) (A) (A) (A) (A) (A)
                 (A) (A) (A) (A) (A) (A) (A) (A) (A) (A) (A) (A)
                 (A) (A) (A) (A) (A) (A) (A) (A) (A) (A) (A) (A)
                 (A) (A) (A) (A) (A) (A) (A) (A) (A) (A) (A) (A)
                 (A) (A) (A) (A) (A) (A) (A) (A) (A) (A) (A) (A)
                 (A) (A) (A) (A) (A) (A) (A) (A) (A) (A) (A) (A)
                 (A) (A) (A) (A) (A) (A) (A) (A) (A) (A) (A) (A)
                 (A) (A) (A) (A) (A) (A) (A) (A) (A) (A) (A) (A)
                 (A) (A) (A) (A) (A) (A) (A) (A) (A) (A) (A) (A)
                 (A) (A) (A) (A) (A) (A) (A) (A) (A) (A) (A) (A)
                 (A) (A) (A) (A) (A) (A) (A) (A) (A) (A) (A) (A)
                 (A) (A) (A) (A) (A) (A) (A) (A) (A) (A) (A) (A)
                 (A) (A) (A) (A) (A) (A) (A) (A) (A) (A) (A) (A)
                 (A) (A) (A) (A) (A) (A) (A) (A) (A) (A) (A) (A)
                 (A) (A) (A) (A) (A) (A) (A) (A) (A) (A) (A) (A)
                 (A) (A) (A) (A) (A) (A) (A) (A) (A) (A) (A) (A)
                 (A) (A) (A) (A) (A) (A) (A) (A) (A) (A) (A) (A)
                 (A) (A) (A) (A) (A) (A) (A) (A) (A) (A) (A) (A)
                 (A) (A) (A) (A) (A) (A) (A) (A) (A) (A) (A) (A)
                 (A) (A) (A) (A) (A) (A) (A) (A) (A) (A) (A) (A)
                 (A) (A) (A) (A) (A) (A) (A) (A) (A) (A) (A) (A)
                 (A) (A) (A) (A) (A) (A) (A) (A) (A) (A) (A) (A)
                 (A) (A) (A) (A) (A) (A) (A) (A) (A) (A) (A) (A)
                 (A) (A) (A) (A) (A) (A) (A) (A) (A) (A) (A) (A)
                 (A) (A) (A) (A) (A) (A) (A) (A) (A) (A) (A) (A)
                 (A) (A) (A) (A) (A) (A) (A) (A) (A) (A) (A) (A)
                 (A) (A) (A) (A) (A) (A) (A) (A) (A) (A) (A) (A)
                 (A) (A) (A) (A) (A) (A) (A) (A) (A) (A) (A) (A)
                 (A) (A) (A) (A) (A) (A) (A) (A) (A) (A) (A) (A)
                 (A) (A) (A) (A) (A) (A) (A) (A) (A) (A) (A) (A)
                 (A) (A) (A) (A) (A) (A) (A) (A) (A) (A) (A) (A)
                 (A) (A) (A) (A) (A) (A) (A) (A) (A) (A) (A) (A)
                 (A) (A) (A) (A) (A) (A) (A) (A) (A) (A) (A) (A)
                 (A) (A) (A) (A) (A) (A) (A) (A) (A) (A) (A) (A)
                 (A) (A) (A) (A) (A) (A) (A) (A) (A) (A) (A) (A)
                 (A) (A) (A) (A) (A) (A) (A) (A) (A) (A) (A) (A)
                 (A) (A) (A) (A) (A) (A) (A) (A) (A) (A) (A) (A)
                 (A) (A) (A) (A) (A) (A) (A) (A) (A) (A) (A) (A)
                 (A) (A) (A) (A) (A) (A) (A) (A) (A) (A) (A) (A)
                 (A) (A) (A) (A) (A) (A) (A) (A) (A) (A) (A) (A)
                 (A) (A) (A) (A) (A) (A) (A) (A) (A) (A) (A) (A)
                 (A) (A) (A) (A) (A) (A) (A) (A) (A) (A) (A) (A)
                 (A) (A) (A) (A) (A) (A) (A) (A) (A) (A) (A) (A)
                 (A) (A) (A) (A) (A) (A) (A) (A) (A) (A) (A) (A)
                 (A) (A) (A) (A) (A) (A) (A) (A) (A) (A) (A) (A)
                 (A) (A) (A) (A) (A) (A) (A) (A) (A) (A) (A) (A)
                 (A) (A) (A) (A) (A) (A) (A) (A) (A) (A) (A) (A)
                 (A) (A) (A) (A) (A) (A) (A) (A) (A) (A) (A) (A)
                 (A) (A) (A) (A) (A) (A) (A) (A) (A) (A) (A)
 The electronic state is 1-A.
 Alpha  occ. eigenvalues --  -88.71121 -88.67467 -19.00030 -18.99343 -18.87499
 Alpha  occ. eigenvalues --  -18.87118 -18.86637 -18.85937 -14.15185 -14.14341
 Alpha  occ. eigenvalues --  -10.08804 -10.07561 -10.06521 -10.05665 -10.05317
 Alpha  occ. eigenvalues --  -10.05102 -10.04768 -10.04582 -10.04106 -10.03303
 Alpha  occ. eigenvalues --  -10.02405 -10.01265 -10.01165 -10.01077 -10.00233
 Alpha  occ. eigenvalues --   -9.97812  -9.97189  -9.97121  -9.96909  -9.95542
 Alpha  occ. eigenvalues --   -9.95412  -9.95081  -9.94790  -9.94768  -9.94640
 Alpha  occ. eigenvalues --   -9.94619  -7.79700  -7.76044  -5.76010  -5.75638
 Alpha  occ. eigenvalues --   -5.75257  -5.72372  -5.71979  -5.71575  -0.91738
 Alpha  occ. eigenvalues --   -0.90819  -0.84063  -0.83237  -0.81973  -0.81037
 Alpha  occ. eigenvalues --   -0.72339  -0.72019  -0.71350  -0.68755  -0.66158
 Alpha  occ. eigenvalues --   -0.61466  -0.60159  -0.59116  -0.58415  -0.57532
 Alpha  occ. eigenvalues --   -0.55053  -0.53781  -0.52692  -0.52550  -0.52005
 Alpha  occ. eigenvalues --   -0.50225  -0.49289  -0.45840  -0.43436  -0.42465
 Alpha  occ. eigenvalues --   -0.41776  -0.41433  -0.40146  -0.39689  -0.39149
 Alpha  occ. eigenvalues --   -0.36761  -0.36414  -0.33350  -0.33268  -0.32852
 Alpha  occ. eigenvalues --   -0.31964  -0.31596  -0.30860  -0.30801  -0.29538
 Alpha  occ. eigenvalues --   -0.29051  -0.28625  -0.27458  -0.26666  -0.26605
 Alpha  occ. eigenvalues --   -0.25901  -0.25375  -0.24940  -0.24630  -0.24178
 Alpha  occ. eigenvalues --   -0.23876  -0.23082  -0.22226  -0.21887  -0.21095
 Alpha  occ. eigenvalues --   -0.20882  -0.20709  -0.20403  -0.20268  -0.19936
 Alpha  occ. eigenvalues --   -0.19532  -0.19300  -0.19149  -0.18591  -0.18284
 Alpha  occ. eigenvalues --   -0.17582  -0.17505  -0.16947  -0.16591  -0.16146
 Alpha  occ. eigenvalues --   -0.15372  -0.14833  -0.14347  -0.14060  -0.11989
 Alpha  occ. eigenvalues --   -0.10659  -0.09583  -0.07727  -0.06635  -0.06590
 Alpha  occ. eigenvalues --   -0.06173  -0.05517  -0.05357  -0.04960  -0.04464
 Alpha  occ. eigenvalues --   -0.03458  -0.03249  -0.00950   0.00373   0.08705
 Alpha virt. eigenvalues --    0.12133   0.12771   0.13340   0.13989   0.15572
 Alpha virt. eigenvalues --    0.16538   0.16733   0.16854   0.17029   0.17251
 Alpha virt. eigenvalues --    0.17422   0.17924   0.18323   0.18538   0.19020
 Alpha virt. eigenvalues --    0.19409   0.19449   0.19824   0.19941   0.20079
 Alpha virt. eigenvalues --    0.20636   0.20749   0.20826   0.21061   0.21352
 Alpha virt. eigenvalues --    0.21487   0.21897   0.22131   0.22253   0.22666
 Alpha virt. eigenvalues --    0.22843   0.23410   0.23696   0.23951   0.24263
 Alpha virt. eigenvalues --    0.24536   0.25016   0.25247   0.25404   0.25502
 Alpha virt. eigenvalues --    0.25748   0.26101   0.26311   0.26422   0.26564
 Alpha virt. eigenvalues --    0.26737   0.26908   0.27088   0.27577   0.27847
 Alpha virt. eigenvalues --    0.27946   0.28327   0.28700   0.28910   0.29016
 Alpha virt. eigenvalues --    0.29194   0.29538   0.29892   0.30040   0.30517
 Alpha virt. eigenvalues --    0.30856   0.31098   0.31336   0.31907   0.32030
 Alpha virt. eigenvalues --    0.32109   0.32273   0.32602   0.32953   0.33119
 Alpha virt. eigenvalues --    0.33296   0.33390   0.33710   0.33794   0.34131
 Alpha virt. eigenvalues --    0.34321   0.34542   0.34856   0.35030   0.35308
 Alpha virt. eigenvalues --    0.35631   0.35646   0.35872   0.35977   0.36414
 Alpha virt. eigenvalues --    0.36705   0.36972   0.37096   0.37209   0.37476
 Alpha virt. eigenvalues --    0.37648   0.38060   0.38207   0.38407   0.38528
 Alpha virt. eigenvalues --    0.38882   0.39269   0.39397   0.39513   0.39817
 Alpha virt. eigenvalues --    0.40044   0.40322   0.40740   0.40948   0.41222
 Alpha virt. eigenvalues --    0.41512   0.41748   0.42034   0.42227   0.42405
 Alpha virt. eigenvalues --    0.42470   0.42789   0.43082   0.43245   0.43323
 Alpha virt. eigenvalues --    0.43530   0.44047   0.44234   0.44413   0.44631
 Alpha virt. eigenvalues --    0.45023   0.45227   0.45317   0.45645   0.45678
 Alpha virt. eigenvalues --    0.45874   0.46177   0.46226   0.46409   0.46721
 Alpha virt. eigenvalues --    0.46777   0.47080   0.47760   0.47823   0.48119
 Alpha virt. eigenvalues --    0.48260   0.48387   0.48607   0.48707   0.48975
 Alpha virt. eigenvalues --    0.49073   0.49338   0.49435   0.49653   0.49821
 Alpha virt. eigenvalues --    0.50051   0.50190   0.50626   0.50932   0.51131
 Alpha virt. eigenvalues --    0.51354   0.51563   0.51763   0.51966   0.52307
 Alpha virt. eigenvalues --    0.52536   0.52670   0.52902   0.53131   0.53305
 Alpha virt. eigenvalues --    0.53929   0.54219   0.54553   0.54566   0.55118
 Alpha virt. eigenvalues --    0.55583   0.56004   0.56183   0.57017   0.57120
 Alpha virt. eigenvalues --    0.57490   0.57977   0.58216   0.58586   0.59263
 Alpha virt. eigenvalues --    0.59391   0.59747   0.60176   0.60327   0.60573
 Alpha virt. eigenvalues --    0.61039   0.61151   0.61398   0.61715   0.62502
 Alpha virt. eigenvalues --    0.62611   0.63247   0.63481   0.64061   0.64253
 Alpha virt. eigenvalues --    0.64702   0.64992   0.65079   0.65524   0.65768
 Alpha virt. eigenvalues --    0.66018   0.67054   0.67170   0.68040   0.68157
 Alpha virt. eigenvalues --    0.68863   0.69889   0.70181   0.70908   0.71126
 Alpha virt. eigenvalues --    0.71988   0.72240   0.72613   0.72901   0.73189
 Alpha virt. eigenvalues --    0.73512   0.74247   0.74722   0.75285   0.75648
 Alpha virt. eigenvalues --    0.76324   0.76683   0.77079   0.77602   0.78043
 Alpha virt. eigenvalues --    0.78259   0.78489   0.78743   0.79039   0.79280
 Alpha virt. eigenvalues --    0.79751   0.79908   0.80689   0.80932   0.81203
 Alpha virt. eigenvalues --    0.81800   0.82290   0.83091   0.83165   0.83395
 Alpha virt. eigenvalues --    0.83624   0.84086   0.84439   0.85271   0.85527
 Alpha virt. eigenvalues --    0.86005   0.86072   0.86720   0.87163   0.87370
 Alpha virt. eigenvalues --    0.87647   0.88377   0.88635   0.88839   0.89199
 Alpha virt. eigenvalues --    0.89773   0.89848   0.90490   0.90809   0.90906
 Alpha virt. eigenvalues --    0.91138   0.92048   0.92135   0.92456   0.92973
 Alpha virt. eigenvalues --    0.93225   0.93401   0.93490   0.94088   0.94599
 Alpha virt. eigenvalues --    0.95133   0.95569   0.95762   0.96133   0.96291
 Alpha virt. eigenvalues --    0.96763   0.97238   0.97510   0.98086   0.98295
 Alpha virt. eigenvalues --    0.98592   0.99037   0.99472   0.99859   1.00043
 Alpha virt. eigenvalues --    1.00568   1.00904   1.01733   1.01856   1.02085
 Alpha virt. eigenvalues --    1.02777   1.03415   1.04365   1.05215   1.05985
 Alpha virt. eigenvalues --    1.06571   1.07195   1.08242   1.08633   1.09017
 Alpha virt. eigenvalues --    1.09732   1.10417   1.10721   1.11081   1.11771
 Alpha virt. eigenvalues --    1.12367   1.12999   1.13238   1.13916   1.15363
 Alpha virt. eigenvalues --    1.15957   1.16267   1.16639   1.16903   1.17430
 Alpha virt. eigenvalues --    1.17626   1.17887   1.18545   1.18822   1.19145
 Alpha virt. eigenvalues --    1.19585   1.20153   1.20537   1.20899   1.21020
 Alpha virt. eigenvalues --    1.21357   1.22099   1.22358   1.22543   1.23305
 Alpha virt. eigenvalues --    1.23445   1.23868   1.24335   1.24556   1.25280
 Alpha virt. eigenvalues --    1.25602   1.26123   1.26341   1.27034   1.27457
 Alpha virt. eigenvalues --    1.27742   1.28041   1.28400   1.29441   1.29915
 Alpha virt. eigenvalues --    1.30608   1.31205   1.31489   1.31921   1.32539
 Alpha virt. eigenvalues --    1.33348   1.34736   1.35054   1.35495   1.36448
 Alpha virt. eigenvalues --    1.36696   1.37800   1.38078   1.39224   1.39771
 Alpha virt. eigenvalues --    1.40160   1.41349   1.41457   1.42352   1.42630
 Alpha virt. eigenvalues --    1.43167   1.43814   1.44113   1.44245   1.46182
 Alpha virt. eigenvalues --    1.47146   1.47594   1.48446   1.49249   1.50206
 Alpha virt. eigenvalues --    1.50482   1.50837   1.51206   1.51308   1.51658
 Alpha virt. eigenvalues --    1.52558   1.53066   1.54198   1.55774   1.56312
 Alpha virt. eigenvalues --    1.56730   1.56927   1.57204   1.58297   1.59383
 Alpha virt. eigenvalues --    1.59754   1.59856   1.61079   1.61802   1.61979
 Alpha virt. eigenvalues --    1.63211   1.63296   1.64257   1.65030   1.65621
 Alpha virt. eigenvalues --    1.65898   1.66151   1.67261   1.67881   1.68472
 Alpha virt. eigenvalues --    1.68874   1.69360   1.70112   1.70511   1.70751
 Alpha virt. eigenvalues --    1.71137   1.71602   1.72848   1.73246   1.74217
 Alpha virt. eigenvalues --    1.74605   1.74988   1.75295   1.75643   1.76136
 Alpha virt. eigenvalues --    1.76410   1.76871   1.77377   1.78357   1.78741
 Alpha virt. eigenvalues --    1.78765   1.79292   1.80049   1.81106   1.81570
 Alpha virt. eigenvalues --    1.81869   1.82471   1.83246   1.83909   1.84060
 Alpha virt. eigenvalues --    1.84214   1.84615   1.85108   1.87114   1.87393
 Alpha virt. eigenvalues --    1.87977   1.88286   1.89180   1.90463   1.91129
 Alpha virt. eigenvalues --    1.91846   1.92349   1.92754   1.93438   1.93909
 Alpha virt. eigenvalues --    1.94280   1.94686   1.94977   1.95886   1.96243
 Alpha virt. eigenvalues --    1.97212   1.97688   1.97994   1.98944   1.99384
 Alpha virt. eigenvalues --    2.00154   2.00779   2.01194   2.02300   2.03265
 Alpha virt. eigenvalues --    2.03857   2.04945   2.05909   2.06463   2.07722
 Alpha virt. eigenvalues --    2.08522   2.09453   2.09914   2.10813   2.11590
 Alpha virt. eigenvalues --    2.11829   2.12552   2.13249   2.13558   2.14249
 Alpha virt. eigenvalues --    2.14592   2.14884   2.15840   2.16116   2.17114
 Alpha virt. eigenvalues --    2.17782   2.17897   2.18372   2.19857   2.20751
 Alpha virt. eigenvalues --    2.21224   2.21698   2.22180   2.22705   2.23153
 Alpha virt. eigenvalues --    2.23710   2.24332   2.24423   2.24855   2.25673
 Alpha virt. eigenvalues --    2.26074   2.26647   2.27132   2.27547   2.27712
 Alpha virt. eigenvalues --    2.28399   2.29007   2.29449   2.30683   2.31768
 Alpha virt. eigenvalues --    2.31855   2.33115   2.34031   2.35020   2.35617
 Alpha virt. eigenvalues --    2.36469   2.37783   2.38543   2.38886   2.40030
 Alpha virt. eigenvalues --    2.40961   2.41617   2.42230   2.42583   2.44823
 Alpha virt. eigenvalues --    2.46104   2.47992   2.49234   2.50302   2.52024
 Alpha virt. eigenvalues --    2.55685   2.56313   2.57054   2.57283   2.58294
 Alpha virt. eigenvalues --    2.59172   2.59306   2.60190   2.61054   2.61313
 Alpha virt. eigenvalues --    2.61815   2.63499   2.64205   2.64828   2.65524
 Alpha virt. eigenvalues --    2.66234   2.66758   2.67428   2.68138   2.68598
 Alpha virt. eigenvalues --    2.69637   2.70134   2.71074   2.71688   2.72235
 Alpha virt. eigenvalues --    2.72326   2.73745   2.74207   2.75714   2.76003
 Alpha virt. eigenvalues --    2.76322   2.78188   2.80278   2.80401   2.80896
 Alpha virt. eigenvalues --    2.81753   2.83304   2.84532   2.85273   2.86147
 Alpha virt. eigenvalues --    2.87433   2.88271   2.89073   2.89571   2.89852
 Alpha virt. eigenvalues --    2.90467   2.92273   2.92598   2.93219   2.94068
 Alpha virt. eigenvalues --    2.94840   2.95623   2.95768   2.96008   2.96656
 Alpha virt. eigenvalues --    2.96992   2.98417   2.99259   3.00408   3.00916
 Alpha virt. eigenvalues --    3.02775   3.03318   3.03531   3.06671   3.07347
 Alpha virt. eigenvalues --    3.07841   3.08753   3.09428   3.10158   3.10778
 Alpha virt. eigenvalues --    3.11504   3.12349   3.12990   3.13510   3.14040
 Alpha virt. eigenvalues --    3.14429   3.14681   3.15739   3.16149   3.16962
 Alpha virt. eigenvalues --    3.17102   3.17733   3.19104   3.19763   3.20166
 Alpha virt. eigenvalues --    3.20741   3.22398   3.23203   3.23685   3.26740
 Alpha virt. eigenvalues --    3.27286   3.28404   3.29541   3.31296   3.31997
 Alpha virt. eigenvalues --    3.32676   3.34563   3.35892   3.37721   3.38314
 Alpha virt. eigenvalues --    3.38909   3.39728   3.40554   3.40908   3.41468
 Alpha virt. eigenvalues --    3.42920   3.44436   3.45771   3.47981   3.48992
 Alpha virt. eigenvalues --    3.50206   3.51891   3.53432   3.54189   3.57034
 Alpha virt. eigenvalues --    3.57701   3.58266   3.59015   3.59216   3.59756
 Alpha virt. eigenvalues --    3.61224   3.62818   3.62905   3.64964   3.66792
 Alpha virt. eigenvalues --    3.67174   3.69033   3.69328   3.70928   3.72374
 Alpha virt. eigenvalues --    3.73744   3.75253   3.79146   3.82359   3.83415
 Alpha virt. eigenvalues --    3.84648   3.86244   3.88500   3.89411   3.90946
 Alpha virt. eigenvalues --    3.90997   3.92381   3.92477   3.93072   3.93548
 Alpha virt. eigenvalues --    3.93659   3.95807   3.97670   4.00798   4.05532
 Alpha virt. eigenvalues --    4.06782   4.08127   4.14348   4.15524   4.16076
 Alpha virt. eigenvalues --    4.17409   4.17628   4.20085   4.22252   4.25513
 Alpha virt. eigenvalues --    4.25638   4.27100   4.28832   4.31204   4.37327
 Alpha virt. eigenvalues --    4.38996   4.42608   4.49292   4.51041   4.60565
 Alpha virt. eigenvalues --    4.62308   4.65561   4.73688   4.88185   5.10098
 Alpha virt. eigenvalues --    5.10207   5.12424   5.13696   5.18483   5.20278
 Alpha virt. eigenvalues --    5.28130   5.29829   5.30073   5.34125   5.35598
 Alpha virt. eigenvalues --    5.37364   5.49088   5.51155   5.53126   5.55565
 Alpha virt. eigenvalues --    5.59625   5.61166   5.93762   5.97531   5.99994
 Alpha virt. eigenvalues --    6.04484   6.06206   6.09846   8.19294   8.25263
 Alpha virt. eigenvalues --   17.46248  17.54395  17.66918  17.69917  17.78216
 Alpha virt. eigenvalues --   17.82635  23.71513  23.78878  23.91745  23.99895
 Alpha virt. eigenvalues --   24.04974  24.05447  24.06601  24.07729  24.09250
 Alpha virt. eigenvalues --   24.09961  24.12124  24.12611  24.13692  24.15310
 Alpha virt. eigenvalues --   24.16433  24.20312  24.20438  24.21644  24.22300
 Alpha virt. eigenvalues --   24.24827  24.26308  24.31206  24.31545  24.33480
 Alpha virt. eigenvalues --   24.39342  24.40432  35.79446  35.82382  50.13117
 Alpha virt. eigenvalues --   50.14902  50.26865  50.28932  50.30785  50.32601
 Alpha virt. eigenvalues --  189.36622 189.43193
          Condensed to atoms (all electrons):
 Mulliken charges:
               1
     1  C    0.275025
     2  C   -0.158051
     3  C    0.072870
     4  C    0.183328
     5  C    0.129714
     6  C   -0.717378
     7  C    0.203344
     8  C    0.145350
     9  C    0.583768
    10  C   -0.451008
    11  C    0.281243
    12  C    0.068674
    13  C   -0.532402
    14  C   -0.654332
    15  H    0.098528
    16  H    0.103280
    17  H    0.138405
    18  N   -0.139732
    19  N   -0.136294
    20  O   -0.407769
    21  O   -0.395932
    22  O   -0.407407
    23  O   -0.295332
    24  C   -0.177383
    25  H    0.140139
    26  H    0.133612
    27  H    0.154950
    28  C   -0.183594
    29  H    0.137108
    30  H    0.135254
    31  H    0.155592
    32  C    0.076615
    33  C   -0.268112
    34  S   -0.552226
    35  C   -0.362497
    36  H    0.097492
    37  C    0.579524
    38  O   -0.121885
    39  C    0.865892
    40  C   -0.248381
    41  C   -0.064761
    42  S   -0.311378
    43  H    0.129897
    44  H    0.131322
    45  H    0.157959
    46  C   -0.512404
    47  O   -0.103609
    48  C   -0.342410
    49  H    0.096054
    50  C   -0.244091
    51  H    0.115738
    52  H    0.118341
    53  H    0.158948
    54  H    0.120403
 Sum of Mulliken charges =  -2.00000
 Mulliken charges with hydrogens summed into heavy atoms:
               1
     1  C    0.275025
     2  C   -0.158051
     3  C    0.072870
     4  C    0.183328
     5  C    0.129714
     6  C   -0.578973
     7  C    0.203344
     8  C    0.145350
     9  C    0.583768
    10  C   -0.451008
    11  C    0.281243
    12  C    0.068674
    13  C   -0.429122
    14  C   -0.555803
    18  N   -0.139732
    19  N   -0.136294
    20  O   -0.407769
    21  O   -0.395932
    22  O   -0.407407
    23  O   -0.295332
    24  C    0.251318
    28  C    0.244360
    32  C    0.076615
    33  C   -0.170620
    34  S   -0.552226
    35  C   -0.362497
    37  C    0.579524
    38  O   -0.121885
    39  C    0.865892
    40  C    0.170797
    41  C   -0.064761
    42  S   -0.311378
    46  C   -0.416350
    47  O   -0.103609
    48  C   -0.226672
    50  C    0.153601
 Electronic spatial extent (au):  <R**2>=          22664.0194
 Charge=             -2.0000 electrons
 Dipole moment (field-independent basis, Debye):
    X=            -16.4925    Y=             -0.9712    Z=              0.8031  Tot=             16.5406
 Quadrupole moment (field-independent basis, Debye-Ang):
   XX=           -422.6944   YY=           -301.9303   ZZ=           -230.9660
   XY=              1.0759   XZ=              8.0199   YZ=             24.6847
 Traceless Quadrupole moment (field-independent basis, Debye-Ang):
   XX=           -104.1642   YY=             16.5999   ZZ=             87.5642
   XY=              1.0759   XZ=              8.0199   YZ=             24.6847
 Octapole moment (field-independent basis, Debye-Ang**2):
  XXX=           -535.9048  YYY=            -40.7285  ZZZ=              1.5955  XYY=           -266.4389
  XXY=              8.9919  XXZ=             -4.7506  XZZ=            -33.7162  YZZ=             -4.3788
  YYZ=             10.3635  XYZ=             11.0239
 Hexadecapole moment (field-independent basis, Debye-Ang**3):
 XXXX=         -29252.1422 YYYY=          -8549.8759 ZZZZ=          -1742.1529 XXXY=            433.2401
 XXXZ=            219.0555 YYYX=           -323.4437 YYYZ=            344.5616 ZZZX=             34.7213
 ZZZY=             95.7693 XXYY=          -6234.1602 XXZZ=          -4185.7187 YYZZ=          -1518.9924
 XXYZ=            379.4360 YYXZ=            123.2528 ZZXY=            -32.4165
 N-N= 4.076868801337D+03 E-N=-1.375272308148D+04  KE= 2.352433107930D+03
 Calling FoFJK, ICntrl=      2127 FMM=F ISym2X=0 I1Cent= 0 IOpClX= 0 NMat=1 NMatS=1 NMatT=0.
 ***** Axes restored to original set *****
 -------------------------------------------------------------------
 Center     Atomic                   Forces (Hartrees/Bohr)
 Number     Number              X              Y              Z
 -------------------------------------------------------------------
      1        6          -0.001303463    0.044385231    0.005152658
      2        6          -0.026484204   -0.030588984   -0.003921510
      3        6          -0.003768620   -0.007883586   -0.000727545
      4        6           0.014195461   -0.035948811   -0.005297470
      5        6           0.024774386    0.037790219    0.004887676
      6        6           0.035666418    0.029772998    0.005842163
      7        6           0.001597211    0.008068294   -0.000705337
      8        6          -0.012701034    0.038187641    0.005852097
      9        6           0.003420199   -0.042803703   -0.002487708
     10        6          -0.015344318   -0.038122309   -0.009231217
     11        6           0.008381694   -0.042519304   -0.006869262
     12        6           0.025065679    0.028653671    0.004590020
     13        6          -0.029565613   -0.028708222   -0.003723385
     14        6          -0.015128512    0.038634276    0.005810145
     15        1          -0.000132384    0.000865366    0.000136945
     16        1          -0.000068347   -0.000949908   -0.000069221
     17        1           0.001302028    0.001683063    0.000066062
     18        7          -0.002798987    0.004337281    0.000304570
     19        7          -0.002440474   -0.004318862   -0.000444447
     20        8           0.015809553   -0.025689042   -0.003670161
     21        8          -0.028455804   -0.017008571   -0.001955052
     22        8          -0.018930550    0.025815673    0.004120463
     23        8           0.027806574    0.012190896    0.002444269
     24        6          -0.001333180   -0.005123025   -0.002073516
     25        1           0.001183743    0.000609607    0.000259063
     26        1           0.000651240    0.000378127    0.000806707
     27        1          -0.000979509   -0.000311015   -0.000055277
     28        6           0.000675525    0.006084472    0.000334871
     29        1           0.000558784   -0.001017187    0.000231359
     30        1           0.000698391   -0.001244328   -0.000082566
     31        1          -0.000658266    0.000723804    0.000192733
     32        6          -0.002094232   -0.002345617   -0.000422790
     33        6           0.003310022    0.004465979    0.001678928
     34       16          -0.011282185    0.002092474   -0.001483586
     35        6          -0.009803596   -0.006504632    0.011652302
     36        1          -0.002735150    0.000290010    0.000292789
     37        6           0.012545590    0.002648621   -0.004276546
     38        8           0.005939710    0.008324485   -0.010127762
     39        6          -0.010075585   -0.000089248   -0.003175076
     40        6           0.001324849   -0.002685621    0.003539179
     41        6           0.013000579    0.004199609   -0.003822401
     42       16          -0.002017990    0.000348669   -0.000967420
     43        1           0.000182836   -0.000020179   -0.000102779
     44        1          -0.000293612    0.000203211    0.000468987
     45        1          -0.000002513   -0.000988578   -0.000185876
     46        6          -0.006689955    0.000323871   -0.000969114
     47        8          -0.004506530   -0.011234909    0.011994952
     48        6           0.014237656   -0.000439052    0.001775892
     49        1           0.000337050   -0.000213871    0.000310143
     50        6          -0.002801180    0.006282634   -0.005577216
     51        1          -0.001128739    0.000015478    0.000352986
     52        1           0.000379118   -0.000218827   -0.000092474
     53        1          -0.000219451    0.000134919   -0.000397918
     54        1           0.000699683   -0.000533187   -0.000183327
 -------------------------------------------------------------------
 Cartesian Forces:  Max     0.044385231 RMS     0.013067473

 GradGradGradGradGradGradGradGradGradGradGradGradGradGradGradGradGradGrad
 Berny optimization.
 FormGI is forming the generalized inverse of G from B-inverse, IUseBI=4.
 Internal  Forces:  Max     0.032446942 RMS     0.006341440
 Search for a local minimum.
 Step number   1 out of a maximum of  307
 All quantities printed in internal units (Hartrees-Bohrs-Radians)
 Mixed Optimization -- RFO/linear search
 Second derivative matrix not updated -- first step.
 ITU=  0
     Eigenvalues ---    0.00803   0.00803   0.01176   0.01203   0.01245
     Eigenvalues ---    0.01292   0.01308   0.01311   0.01367   0.01381
     Eigenvalues ---    0.01419   0.01429   0.01458   0.01496   0.01516
     Eigenvalues ---    0.01568   0.01572   0.01577   0.01622   0.01652
     Eigenvalues ---    0.01694   0.01711   0.01713   0.01719   0.01754
     Eigenvalues ---    0.01783   0.01803   0.01847   0.01965   0.02040
     Eigenvalues ---    0.02044   0.02066   0.02076   0.02082   0.02135
     Eigenvalues ---    0.02149   0.02163   0.02177   0.02197   0.02224
     Eigenvalues ---    0.02242   0.02249   0.07556   0.07572   0.07690
     Eigenvalues ---    0.07700   0.10059   0.10065   0.10633   0.10638
     Eigenvalues ---    0.15983   0.15999   0.15999   0.16000   0.16000
     Eigenvalues ---    0.16000   0.16000   0.16000   0.16000   0.16000
     Eigenvalues ---    0.16000   0.16000   0.16000   0.16000   0.16000
     Eigenvalues ---    0.16000   0.16000   0.16000   0.22530   0.22583
     Eigenvalues ---    0.23518   0.23582   0.24516   0.24747   0.24866
     Eigenvalues ---    0.24931   0.24952   0.24986   0.24987   0.24988
     Eigenvalues ---    0.24992   0.24994   0.24997   0.24997   0.24998
     Eigenvalues ---    0.24998   0.25000   0.25000   0.25000   0.25000
     Eigenvalues ---    0.25000   0.25000   0.25000   0.25000   0.25000
     Eigenvalues ---    0.25000   0.28832   0.28850   0.30080   0.32096
     Eigenvalues ---    0.32582   0.32774   0.33111   0.33787   0.33910
     Eigenvalues ---    0.34054   0.34084   0.34102   0.34354   0.34466
     Eigenvalues ---    0.34577   0.34629   0.34693   0.34721   0.34862
     Eigenvalues ---    0.35198   0.35218   0.35468   0.35553   0.35582
     Eigenvalues ---    0.35825   0.35895   0.36078   0.36083   0.36241
     Eigenvalues ---    0.36396   0.36662   0.39352   0.40194   0.40240
     Eigenvalues ---    0.40651   0.40713   0.41524   0.41778   0.41939
     Eigenvalues ---    0.42300   0.42629   0.43455   0.43939   0.44092
     Eigenvalues ---    0.44594   0.44622   0.45014   0.45406   0.46251
     Eigenvalues ---    0.47305   0.47639   0.49310   0.49589   0.52994
     Eigenvalues ---    0.53277   0.93281   0.93432   0.93989   0.94585
     Eigenvalues --- 1000.000001000.000001000.000001000.000001000.00000
     Eigenvalues --- 1000.000001000.000001000.000001000.000001000.00000
     Eigenvalues --- 1000.000001000.000001000.000001000.000001000.00000
     Eigenvalues --- 1000.000001000.000001000.000001000.000001000.00000
     Eigenvalues --- 1000.000001000.000001000.000001000.000001000.00000
     Eigenvalues --- 1000.000001000.000001000.000001000.000001000.00000
     Eigenvalues --- 1000.000001000.000001000.000001000.000001000.00000
     Eigenvalues --- 1000.000001000.000001000.000001000.000001000.00000
     Eigenvalues --- 1000.000001000.000001000.000001000.000001000.00000
     Eigenvalues --- 1000.000001000.000001000.000001000.000001000.00000
     Eigenvalues --- 1000.000001000.000001000.000001000.000001000.00000
     Eigenvalues --- 1000.000001000.000001000.000001000.000001000.00000
     Eigenvalues --- 1000.000001000.000001000.000001000.000001000.00000
     Eigenvalues --- 1000.000001000.000001000.000001000.000001000.00000
     Eigenvalues --- 1000.000001000.000001000.000001000.000001000.00000
     Eigenvalues --- 1000.000001000.000001000.000001000.000001000.00000
     Eigenvalues --- 1000.000001000.000001000.000001000.000001000.00000
     Eigenvalues --- 1000.000001000.000001000.000001000.000001000.00000
     Eigenvalues --- 1000.000001000.000001000.000001000.000001000.00000
     Eigenvalues --- 1000.000001000.000001000.000001000.000001000.00000
     Eigenvalues --- 1000.000001000.000001000.000001000.000001000.00000
     Eigenvalues --- 1000.000001000.000001000.000001000.000001000.00000
     Eigenvalues --- 1000.000001000.000001000.000001000.000001000.00000
     Eigenvalues --- 1000.000001000.000001000.000001000.000001000.00000
     Eigenvalues --- 1000.000001000.000001000.000001000.000001000.00000
     Eigenvalues --- 1000.000001000.000001000.000001000.000001000.00000
     Eigenvalues --- 1000.000001000.000001000.000001000.000001000.00000
     Eigenvalues --- 1000.000001000.000001000.000001000.000001000.00000
     Eigenvalues --- 1000.000001000.00000
 RFO step:  Lambda=-2.51397379D-02 EMin= 8.02933640D-03
 Linear search not attempted -- first point.
 Iteration  1 RMS(Cart)=  0.09839911 RMS(Int)=  0.00091673
 Iteration  2 RMS(Cart)=  0.00416233 RMS(Int)=  0.00011447
 Iteration  3 RMS(Cart)=  0.00000392 RMS(Int)=  0.00011446
 Iteration  4 RMS(Cart)=  0.00000000 RMS(Int)=  0.00011446
 Iteration  1 RMS(Cart)=  0.00002518 RMS(Int)=  0.00000402
 Iteration  2 RMS(Cart)=  0.00001437 RMS(Int)=  0.00000449
 Iteration  3 RMS(Cart)=  0.00000820 RMS(Int)=  0.00000510
 Iteration  4 RMS(Cart)=  0.00000468 RMS(Int)=  0.00000552
 Iteration  5 RMS(Cart)=  0.00000267 RMS(Int)=  0.00000578
 Iteration  6 RMS(Cart)=  0.00000152 RMS(Int)=  0.00000593
 Iteration  7 RMS(Cart)=  0.00000087 RMS(Int)=  0.00000602
 Variable       Old X    -DE/DX   Delta X   Delta X   Delta X     New X
                                 (Linear)    (Quad)   (Total)
    R1        2.80935  -0.02118   0.00000  -0.05788  -0.05788   2.75147
    R2        2.64584   0.00604   0.00000   0.01221   0.01222   2.65806
    R3        2.31147   0.02950   0.00000   0.03057   0.03057   2.34204
    R4        2.67311   0.01022   0.00000   0.02492   0.02481   2.69792
    R5        2.59267   0.02885   0.00000   0.05530   0.05520   2.64788
    R6        2.66894   0.00349   0.00000   0.00846   0.00846   2.67740
    R7        2.69164   0.00852   0.00000   0.02054   0.02058   2.71222
    R8        2.81049  -0.01986   0.00000  -0.05516  -0.05516   2.75533
    R9        2.62173   0.02850   0.00000   0.05674   0.05673   2.67845
   R10        2.65570   0.00477   0.00000   0.00948   0.00949   2.66519
   R11        2.30889   0.03245   0.00000   0.03342   0.03342   2.34231
   R12        2.70248  -0.02695   0.00000  -0.06273  -0.06273   2.63975
   R13        2.04786  -0.00027   0.00000  -0.00072  -0.00072   2.04714
   R14        2.70495   0.00035   0.00000  -0.00103  -0.00085   2.70410
   R15        2.68322   0.00451   0.00000   0.00975   0.00981   2.69303
   R16        2.68655   0.01633   0.00000   0.03451   0.03459   2.72114
   R17        2.81233  -0.02618   0.00000  -0.07302  -0.07300   2.73933
   R18        2.76359  -0.00099   0.00000  -0.00253  -0.00253   2.76106
   R19        2.66221   0.00708   0.00000   0.01534   0.01529   2.67749
   R20        2.31391   0.03043   0.00000   0.03172   0.03172   2.34562
   R21        2.79415  -0.01731   0.00000  -0.04593  -0.04595   2.74820
   R22        2.63842   0.00586   0.00000   0.01262   0.01254   2.65096
   R23        2.31456   0.03165   0.00000   0.03304   0.03304   2.34760
   R24        2.62448   0.02607   0.00000   0.05159   0.05157   2.67605
   R25        2.64561  -0.02094   0.00000  -0.04397  -0.04400   2.60161
   R26        2.04921  -0.00061   0.00000  -0.00161  -0.00161   2.04760
   R27        2.04741  -0.00015   0.00000  -0.00040  -0.00040   2.04701
   R28        2.77259  -0.00456   0.00000  -0.01183  -0.01183   2.76077
   R29        2.77252  -0.00476   0.00000  -0.01233  -0.01233   2.76020
   R30        2.06176   0.00087   0.00000   0.00234   0.00234   2.06410
   R31        2.06551  -0.00008   0.00000  -0.00022  -0.00022   2.06530
   R32        2.05322   0.00069   0.00000   0.00182   0.00182   2.05505
   R33        2.06368   0.00035   0.00000   0.00096   0.00096   2.06463
   R34        2.06281   0.00087   0.00000   0.00234   0.00234   2.06516
   R35        2.05355   0.00057   0.00000   0.00152   0.00152   2.05507
   R36        2.60990  -0.00061   0.00000  -0.00134  -0.00132   2.60858
   R37        3.33307  -0.00362   0.00000  -0.01122  -0.01123   3.32184
   R38        2.66357   0.00024   0.00000   0.00025   0.00027   2.66384
   R39        2.03706   0.00115   0.00000   0.00297   0.00297   2.04003
   R40        3.30436   0.01031   0.00000   0.03146   0.03144   3.33580
   R41        2.64231  -0.00172   0.00000  -0.00360  -0.00360   2.63871
   R42        2.56960   0.01073   0.00000   0.01933   0.01933   2.58893
   R43        2.71228   0.00119   0.00000   0.00279   0.00279   2.71507
   R44        2.69207  -0.00522   0.00000  -0.01179  -0.01179   2.68028
   R45        2.63344   0.00424   0.00000   0.00839   0.00838   2.64182
   R46        3.32994   0.00366   0.00000   0.01149   0.01148   3.34142
   R47        2.06131   0.00018   0.00000   0.00049   0.00049   2.06180
   R48        2.07238  -0.00027   0.00000  -0.00074  -0.00074   2.07164
   R49        2.07188  -0.00079   0.00000  -0.00215  -0.00215   2.06973
   R50        2.69058   0.00007   0.00000  -0.00000  -0.00001   2.69057
   R51        2.56696   0.01023   0.00000   0.01834   0.01834   2.58530
   R52        3.26318   0.00505   0.00000   0.01461   0.01462   3.27780
   R53        2.58665   0.00258   0.00000   0.00489   0.00490   2.59156
   R54        2.04246   0.00049   0.00000   0.00127   0.00127   2.04372
   R55        2.69001  -0.00863   0.00000  -0.01940  -0.01940   2.67061
   R56        2.04357  -0.00114   0.00000  -0.00297  -0.00297   2.04059
   R57        2.07483   0.00002   0.00000   0.00005   0.00005   2.07488
   R58        2.05900  -0.00003   0.00000  -0.00007  -0.00007   2.05893
   R59        2.07158   0.00086   0.00000   0.00234   0.00234   2.07393
    A1        2.03797  -0.00421   0.00000  -0.01412  -0.01411   2.02386
    A2        2.14521   0.01051   0.00000   0.03762   0.03761   2.18282
    A3        2.10001  -0.00630   0.00000  -0.02350  -0.02351   2.07650
    A4        2.10395  -0.00230   0.00000  -0.00834  -0.00828   2.09566
    A5        2.08282   0.00214   0.00000   0.00335   0.00344   2.08626
    A6        2.09624   0.00017   0.00000   0.00503   0.00488   2.10112
    A7        2.10093   0.00494   0.00000   0.01708   0.01704   2.11796
    A8        2.07104  -0.00120   0.00000  -0.00177  -0.00184   2.06921
    A9        2.11118  -0.00374   0.00000  -0.01530  -0.01519   2.09599
   A10        2.10296  -0.00258   0.00000  -0.00891  -0.00895   2.09402
   A11        2.09911   0.00098   0.00000   0.00463   0.00467   2.10378
   A12        2.08110   0.00160   0.00000   0.00427   0.00428   2.08538
   A13        2.03739  -0.00281   0.00000  -0.01065  -0.01066   2.02674
   A14        2.12972   0.00957   0.00000   0.03501   0.03501   2.16473
   A15        2.11607  -0.00676   0.00000  -0.02435  -0.02435   2.09172
   A16        2.15098  -0.00407   0.00000  -0.01531  -0.01537   2.13561
   A17        2.04399   0.00419   0.00000   0.01915   0.01917   2.06316
   A18        2.08722  -0.00013   0.00000  -0.00428  -0.00428   2.08294
   A19        2.11101  -0.00416   0.00000  -0.01510  -0.01505   2.09596
   A20        2.04385   0.00245   0.00000   0.01093   0.01085   2.05470
   A21        2.12832   0.00172   0.00000   0.00416   0.00419   2.13251
   A22        2.08678   0.00320   0.00000   0.00821   0.00830   2.09508
   A23        2.04738   0.00510   0.00000   0.01924   0.01922   2.06660
   A24        2.14662  -0.00826   0.00000  -0.02598  -0.02627   2.12035
   A25        2.04892   0.00609   0.00000   0.01852   0.01854   2.06746
   A26        2.00754   0.00680   0.00000   0.02685   0.02670   2.03424
   A27        2.22643  -0.01291   0.00000  -0.04480  -0.04495   2.18148
   A28        2.06022  -0.00615   0.00000  -0.02305  -0.02308   2.03714
   A29        2.17370   0.00302   0.00000   0.01138   0.01135   2.18504
   A30        2.04919   0.00314   0.00000   0.01185   0.01182   2.06100
   A31        2.01621  -0.00245   0.00000  -0.00710  -0.00720   2.00901
   A32        2.14188   0.00856   0.00000   0.03027   0.03030   2.17218
   A33        2.12500  -0.00610   0.00000  -0.02304  -0.02301   2.10199
   A34        2.10943  -0.00296   0.00000  -0.01015  -0.01012   2.09931
   A35        2.11468  -0.00101   0.00000  -0.00430  -0.00431   2.11037
   A36        2.05896   0.00397   0.00000   0.01451   0.01447   2.07344
   A37        2.11176   0.00014   0.00000  -0.00070  -0.00073   2.11103
   A38        2.05670   0.00068   0.00000   0.00439   0.00440   2.06110
   A39        2.11471  -0.00082   0.00000  -0.00368  -0.00366   2.11105
   A40        2.08567   0.00118   0.00000   0.00475   0.00472   2.09040
   A41        2.07549   0.00031   0.00000   0.00245   0.00246   2.07796
   A42        2.12199  -0.00148   0.00000  -0.00720  -0.00718   2.11481
   A43        2.20043   0.00482   0.00000   0.01872   0.01863   2.21906
   A44        2.02023  -0.00213   0.00000  -0.00835  -0.00831   2.01193
   A45        2.06252  -0.00269   0.00000  -0.01037  -0.01032   2.05220
   A46        2.18316   0.00697   0.00000   0.02496   0.02497   2.20812
   A47        2.02959  -0.00276   0.00000  -0.00983  -0.00983   2.01975
   A48        2.07044  -0.00421   0.00000  -0.01513  -0.01513   2.05531
   A49        1.91737   0.00085   0.00000   0.00430   0.00430   1.92167
   A50        1.91808   0.00106   0.00000   0.00555   0.00556   1.92364
[...]
 Alpha  occ. eigenvalues --   -0.31767  -0.31443  -0.31030  -0.30932  -0.30129
 Alpha  occ. eigenvalues --   -0.29406  -0.28793  -0.27087  -0.27000  -0.26535
 Alpha  occ. eigenvalues --   -0.26293  -0.25678  -0.25102  -0.24710  -0.24668
 Alpha  occ. eigenvalues --   -0.23564  -0.23081  -0.22296  -0.22265  -0.21583
 Alpha  occ. eigenvalues --   -0.20946  -0.20786  -0.20616  -0.20362  -0.20158
 Alpha  occ. eigenvalues --   -0.19448  -0.19179  -0.18971  -0.18722  -0.17979
 Alpha  occ. eigenvalues --   -0.17889  -0.17279  -0.16987  -0.16308  -0.16046
 Alpha  occ. eigenvalues --   -0.15403  -0.14916  -0.14819  -0.12574  -0.12112
 Alpha  occ. eigenvalues --   -0.11332  -0.10049  -0.09176  -0.06777  -0.06634
 Alpha  occ. eigenvalues --   -0.06230  -0.06038  -0.05421  -0.05357  -0.04461
 Alpha  occ. eigenvalues --   -0.04297  -0.03479  -0.01527  -0.00427   0.06805
 Alpha virt. eigenvalues --    0.11809   0.12626   0.13661   0.14206   0.15601
 Alpha virt. eigenvalues --    0.16026   0.16544   0.16838   0.16975   0.17020
 Alpha virt. eigenvalues --    0.17219   0.17808   0.18353   0.18484   0.18778
 Alpha virt. eigenvalues --    0.18938   0.19235   0.19504   0.19727   0.20019
 Alpha virt. eigenvalues --    0.20263   0.20844   0.20998   0.21059   0.21301
 Alpha virt. eigenvalues --    0.21503   0.21701   0.21893   0.22554   0.22670
 Alpha virt. eigenvalues --    0.22739   0.23096   0.23655   0.23949   0.24198
 Alpha virt. eigenvalues --    0.24243   0.24410   0.24700   0.25092   0.25423
 Alpha virt. eigenvalues --    0.25619   0.25796   0.26192   0.26319   0.26367
 Alpha virt. eigenvalues --    0.26604   0.26732   0.27126   0.27177   0.27403
 Alpha virt. eigenvalues --    0.27900   0.28028   0.28451   0.28668   0.28886
 Alpha virt. eigenvalues --    0.29283   0.29543   0.29708   0.30052   0.30362
 Alpha virt. eigenvalues --    0.30683   0.30917   0.31258   0.31438   0.31771
 Alpha virt. eigenvalues --    0.32010   0.32253   0.32476   0.32684   0.32926
 Alpha virt. eigenvalues --    0.33053   0.33268   0.33482   0.33734   0.33919
 Alpha virt. eigenvalues --    0.34048   0.34325   0.34531   0.34703   0.34906
 Alpha virt. eigenvalues --    0.35267   0.35585   0.35762   0.35897   0.36201
 Alpha virt. eigenvalues --    0.36519   0.36741   0.37118   0.37501   0.37658
 Alpha virt. eigenvalues --    0.37721   0.37942   0.38251   0.38366   0.38669
 Alpha virt. eigenvalues --    0.38999   0.39205   0.39404   0.39646   0.39727
 Alpha virt. eigenvalues --    0.40152   0.40212   0.40484   0.40631   0.40963
 Alpha virt. eigenvalues --    0.41128   0.41396   0.41718   0.41925   0.42160
 Alpha virt. eigenvalues --    0.42198   0.42518   0.42569   0.42830   0.43044
 Alpha virt. eigenvalues --    0.43594   0.43928   0.44071   0.44284   0.44386
 Alpha virt. eigenvalues --    0.44789   0.44965   0.45062   0.45359   0.45499
 Alpha virt. eigenvalues --    0.45611   0.45779   0.45909   0.46280   0.46528
 Alpha virt. eigenvalues --    0.46653   0.46771   0.47125   0.47246   0.47419
 Alpha virt. eigenvalues --    0.47630   0.47887   0.48179   0.48294   0.48528
 Alpha virt. eigenvalues --    0.48731   0.48950   0.49024   0.49158   0.49304
 Alpha virt. eigenvalues --    0.49565   0.49886   0.50115   0.50155   0.50564
 Alpha virt. eigenvalues --    0.50819   0.51161   0.51463   0.51562   0.51953
 Alpha virt. eigenvalues --    0.52071   0.52198   0.52473   0.52657   0.53160
 Alpha virt. eigenvalues --    0.53341   0.53539   0.53860   0.54127   0.54360
 Alpha virt. eigenvalues --    0.55088   0.55221   0.55912   0.55977   0.56303
 Alpha virt. eigenvalues --    0.56566   0.57244   0.57413   0.57852   0.58290
 Alpha virt. eigenvalues --    0.58515   0.59163   0.59506   0.60032   0.60346
 Alpha virt. eigenvalues --    0.60686   0.60783   0.61166   0.61404   0.61606
 Alpha virt. eigenvalues --    0.62119   0.62391   0.62960   0.63366   0.63556
 Alpha virt. eigenvalues --    0.64166   0.64258   0.64719   0.65039   0.65464
 Alpha virt. eigenvalues --    0.65791   0.66095   0.67002   0.67234   0.67613
 Alpha virt. eigenvalues --    0.67766   0.69253   0.69519   0.70340   0.70668
 Alpha virt. eigenvalues --    0.71054   0.71341   0.71655   0.72054   0.72397
 Alpha virt. eigenvalues --    0.72907   0.73289   0.73581   0.74297   0.74855
 Alpha virt. eigenvalues --    0.75848   0.75986   0.76608   0.77112   0.77457
 Alpha virt. eigenvalues --    0.77603   0.78013   0.78346   0.78733   0.79046
 Alpha virt. eigenvalues --    0.79249   0.80155   0.80426   0.80571   0.80948
 Alpha virt. eigenvalues --    0.81012   0.82279   0.82752   0.82906   0.83029
 Alpha virt. eigenvalues --    0.83287   0.83869   0.84131   0.84489   0.84983
 Alpha virt. eigenvalues --    0.85625   0.85666   0.85967   0.86309   0.86687
 Alpha virt. eigenvalues --    0.87098   0.87488   0.87740   0.88064   0.88281
 Alpha virt. eigenvalues --    0.88677   0.88973   0.89699   0.89885   0.90170
 Alpha virt. eigenvalues --    0.90667   0.91114   0.91156   0.91587   0.92087
 Alpha virt. eigenvalues --    0.92187   0.92827   0.92991   0.93411   0.93837
 Alpha virt. eigenvalues --    0.94086   0.94512   0.94747   0.95307   0.95596
 Alpha virt. eigenvalues --    0.96099   0.96376   0.96697   0.96925   0.97156
 Alpha virt. eigenvalues --    0.97559   0.97902   0.98489   0.98758   0.99253
 Alpha virt. eigenvalues --    0.99736   1.00173   1.00758   1.01118   1.01673
 Alpha virt. eigenvalues --    1.02577   1.02862   1.03529   1.04291   1.04485
 Alpha virt. eigenvalues --    1.05344   1.06015   1.06368   1.08053   1.08482
 Alpha virt. eigenvalues --    1.08641   1.08944   1.09297   1.09769   1.10360
 Alpha virt. eigenvalues --    1.10528   1.11653   1.12243   1.13269   1.13441
 Alpha virt. eigenvalues --    1.14864   1.15451   1.15751   1.16039   1.16534
 Alpha virt. eigenvalues --    1.16728   1.17172   1.17465   1.17948   1.18048
 Alpha virt. eigenvalues --    1.18819   1.19461   1.19810   1.19899   1.20417
 Alpha virt. eigenvalues --    1.20870   1.21345   1.21549   1.21749   1.22711
 Alpha virt. eigenvalues --    1.22841   1.23635   1.23965   1.24291   1.24910
 Alpha virt. eigenvalues --    1.25223   1.25719   1.25956   1.26032   1.26455
 Alpha virt. eigenvalues --    1.26932   1.27344   1.28025   1.28281   1.29357
 Alpha virt. eigenvalues --    1.29588   1.30002   1.30336   1.31057   1.31509
 Alpha virt. eigenvalues --    1.32075   1.32649   1.33625   1.33936   1.35553
 Alpha virt. eigenvalues --    1.36031   1.36325   1.37435   1.38209   1.39075
 Alpha virt. eigenvalues --    1.39415   1.39841   1.41059   1.41388   1.42054
 Alpha virt. eigenvalues --    1.42233   1.43290   1.43951   1.44096   1.44771
 Alpha virt. eigenvalues --    1.45647   1.46506   1.46810   1.48191   1.48568
 Alpha virt. eigenvalues --    1.49665   1.50305   1.50715   1.50920   1.51481
 Alpha virt. eigenvalues --    1.52098   1.52251   1.52787   1.53807   1.54765
 Alpha virt. eigenvalues --    1.55648   1.56532   1.57352   1.57864   1.58483
 Alpha virt. eigenvalues --    1.59660   1.60448   1.61034   1.62176   1.62674
 Alpha virt. eigenvalues --    1.63753   1.63997   1.64171   1.65064   1.65678
 Alpha virt. eigenvalues --    1.65823   1.66359   1.66693   1.66943   1.68129
 Alpha virt. eigenvalues --    1.68637   1.69450   1.69851   1.70588   1.71058
 Alpha virt. eigenvalues --    1.71164   1.71422   1.72203   1.72868   1.73449
 Alpha virt. eigenvalues --    1.73811   1.74149   1.74697   1.75091   1.75524
 Alpha virt. eigenvalues --    1.76117   1.76202   1.76440   1.76943   1.77859
 Alpha virt. eigenvalues --    1.78369   1.78440   1.79052   1.79157   1.79747
 Alpha virt. eigenvalues --    1.81662   1.81911   1.82267   1.82736   1.83341
 Alpha virt. eigenvalues --    1.83806   1.84152   1.84687   1.85716   1.86773
 Alpha virt. eigenvalues --    1.87383   1.87813   1.88192   1.89652   1.90236
 Alpha virt. eigenvalues --    1.91133   1.91770   1.91898   1.92402   1.92469
 Alpha virt. eigenvalues --    1.93270   1.93389   1.94011   1.94190   1.95306
 Alpha virt. eigenvalues --    1.96387   1.96752   1.97153   1.97601   1.98874
 Alpha virt. eigenvalues --    1.99169   1.99798   2.00501   2.01065   2.01695
 Alpha virt. eigenvalues --    2.02733   2.02920   2.04052   2.04860   2.06926
 Alpha virt. eigenvalues --    2.07550   2.08866   2.09415   2.09865   2.10063
 Alpha virt. eigenvalues --    2.10523   2.11014   2.11386   2.12113   2.13207
 Alpha virt. eigenvalues --    2.13512   2.14083   2.14249   2.14715   2.15716
 Alpha virt. eigenvalues --    2.16164   2.17417   2.17874   2.18744   2.19608
 Alpha virt. eigenvalues --    2.20200   2.20390   2.21263   2.22308   2.22648
 Alpha virt. eigenvalues --    2.22927   2.23602   2.23693   2.24466   2.25011
 Alpha virt. eigenvalues --    2.25131   2.25993   2.26340   2.26471   2.27088
 Alpha virt. eigenvalues --    2.27654   2.28215   2.29181   2.29742   2.30356
 Alpha virt. eigenvalues --    2.31265   2.31921   2.32816   2.33626   2.34382
 Alpha virt. eigenvalues --    2.35857   2.36159   2.37902   2.38651   2.39531
 Alpha virt. eigenvalues --    2.40156   2.40567   2.42232   2.43059   2.43531
 Alpha virt. eigenvalues --    2.44461   2.46671   2.47585   2.48408   2.50861
 Alpha virt. eigenvalues --    2.52264   2.55737   2.56265   2.56656   2.57683
 Alpha virt. eigenvalues --    2.58173   2.58976   2.59154   2.59568   2.60614
 Alpha virt. eigenvalues --    2.61454   2.62018   2.63506   2.64137   2.65128
 Alpha virt. eigenvalues --    2.66347   2.66733   2.67254   2.68034   2.68433
 Alpha virt. eigenvalues --    2.69647   2.70173   2.71314   2.71788   2.72077
 Alpha virt. eigenvalues --    2.72958   2.73924   2.74099   2.75053   2.75834
 Alpha virt. eigenvalues --    2.75914   2.76786   2.78398   2.80521   2.81166
 Alpha virt. eigenvalues --    2.81313   2.81982   2.82465   2.84425   2.85365
 Alpha virt. eigenvalues --    2.86567   2.87460   2.87946   2.88298   2.88699
 Alpha virt. eigenvalues --    2.89705   2.90119   2.90240   2.91153   2.92401
 Alpha virt. eigenvalues --    2.93339   2.94375   2.94882   2.95576   2.95992
 Alpha virt. eigenvalues --    2.96197   2.96414   2.98291   2.98490   3.00233
 Alpha virt. eigenvalues --    3.00389   3.01880   3.02332   3.03509   3.05956
 Alpha virt. eigenvalues --    3.06809   3.07268   3.07617   3.08668   3.09719
 Alpha virt. eigenvalues --    3.10623   3.11319   3.12038   3.12494   3.13435
 Alpha virt. eigenvalues --    3.13549   3.13781   3.14199   3.15006   3.15298
 Alpha virt. eigenvalues --    3.15542   3.16779   3.17558   3.18537   3.18746
 Alpha virt. eigenvalues --    3.19678   3.20893   3.21833   3.23647   3.26199
 Alpha virt. eigenvalues --    3.27407   3.27722   3.28922   3.30182   3.30913
 Alpha virt. eigenvalues --    3.31988   3.33199   3.35017   3.36061   3.37354
 Alpha virt. eigenvalues --    3.37848   3.39582   3.40366   3.40958   3.42014
 Alpha virt. eigenvalues --    3.42568   3.43213   3.45417   3.45435   3.46957
 Alpha virt. eigenvalues --    3.48009   3.49088   3.51302   3.52714   3.53366
 Alpha virt. eigenvalues --    3.55871   3.56283   3.56423   3.56727   3.56858
 Alpha virt. eigenvalues --    3.58003   3.59803   3.60400   3.62088   3.62872
 Alpha virt. eigenvalues --    3.63323   3.64571   3.65958   3.66863   3.69100
 Alpha virt. eigenvalues --    3.70901   3.72971   3.73151   3.75728   3.80778
 Alpha virt. eigenvalues --    3.82189   3.83201   3.84625   3.87633   3.88838
 Alpha virt. eigenvalues --    3.89341   3.91769   3.91845   3.92643   3.92754
 Alpha virt. eigenvalues --    3.93375   3.95042   3.95167   3.97363   3.99792
 Alpha virt. eigenvalues --    4.04571   4.07371   4.09096   4.13141   4.15087
 Alpha virt. eigenvalues --    4.15649   4.16627   4.16936   4.17482   4.19054
 Alpha virt. eigenvalues --    4.21488   4.25486   4.25958   4.29165   4.30728
 Alpha virt. eigenvalues --    4.36475   4.38391   4.41710   4.49417   4.51580
 Alpha virt. eigenvalues --    4.60821   4.61622   4.66561   4.71733   4.84662
 Alpha virt. eigenvalues --    5.06495   5.10014   5.10805   5.14338   5.20590
 Alpha virt. eigenvalues --    5.28222   5.29868   5.30155   5.33435   5.34605
 Alpha virt. eigenvalues --    5.36362   5.38393   5.48752   5.51037   5.53078
 Alpha virt. eigenvalues --    5.54969   5.56462   5.60338   5.90432   5.95179
 Alpha virt. eigenvalues --    5.98909   6.03757   6.05358   6.09201   8.17195
 Alpha virt. eigenvalues --    8.23559  17.45873  17.54522  17.65544  17.68907
 Alpha virt. eigenvalues --   17.78275  17.80782  23.69200  23.78009  23.89502
 Alpha virt. eigenvalues --   23.99489  24.03313  24.06300  24.06382  24.06757
 Alpha virt. eigenvalues --   24.08684  24.10691  24.12150  24.13696  24.14659
 Alpha virt. eigenvalues --   24.14781  24.16459  24.17180  24.19678  24.20056
 Alpha virt. eigenvalues --   24.21828  24.23238  24.24821  24.26021  24.31433
 Alpha virt. eigenvalues --   24.31919  24.36786  24.42711  35.78962  35.82056
 Alpha virt. eigenvalues --   50.11844  50.13681  50.25893  50.27986  50.29315
 Alpha virt. eigenvalues --   50.31307 189.34482 189.41667
          Condensed to atoms (all electrons):
 Mulliken charges:
               1
     1  C    0.281153
     2  C   -0.111343
     3  C    0.049973
     4  C    0.227111
     5  C    0.124469
     6  C   -0.721013
     7  C    0.212530
     8  C    0.129814
     9  C    0.575259
    10  C   -0.341698
    11  C    0.252972
    12  C    0.151330
    13  C   -0.546722
    14  C   -0.629557
    15  H    0.102642
    16  H    0.105977
    17  H    0.143036
    18  N   -0.147081
    19  N   -0.136951
    20  O   -0.429348
    21  O   -0.413804
    22  O   -0.423557
    23  O   -0.321554
    24  C   -0.187508
    25  H    0.140024
    26  H    0.129410
    27  H    0.158109
    28  C   -0.179692
    29  H    0.132750
    30  H    0.134628
    31  H    0.157387
    32  C   -0.002910
    33  C   -0.319138
    34  S   -0.486259
    35  C   -0.554620
    36  H    0.116973
    37  C    0.459505
    38  O   -0.125794
    39  C    0.475912
    40  C   -0.265703
    41  C    0.126676
    42  S   -0.356217
    43  H    0.129544
    44  H    0.129027
    45  H    0.165375
    46  C   -0.125392
    47  O   -0.135612
    48  C   -0.184084
    49  H    0.094877
    50  C   -0.310218
    51  H    0.121126
    52  H    0.106285
    53  H    0.151044
    54  H    0.170857
 Sum of Mulliken charges =  -2.00000
 Mulliken charges with hydrogens summed into heavy atoms:
               1
     1  C    0.281153
     2  C   -0.111343
     3  C    0.049973
     4  C    0.227111
     5  C    0.124469
     6  C   -0.577977
     7  C    0.212530
     8  C    0.129814
     9  C    0.575259
    10  C   -0.341698
    11  C    0.252972
    12  C    0.151330
    13  C   -0.440745
    14  C   -0.526915
    18  N   -0.147081
    19  N   -0.136951
    20  O   -0.429348
    21  O   -0.413804
    22  O   -0.423557
    23  O   -0.321554
    24  C    0.240035
    28  C    0.245073
    32  C   -0.002910
    33  C   -0.202165
    34  S   -0.486259
    35  C   -0.554620
    37  C    0.459505
    38  O   -0.125794
    39  C    0.475912
    40  C    0.158244
    41  C    0.126676
    42  S   -0.356217
    46  C   -0.030514
    47  O   -0.135612
    48  C   -0.062958
    50  C    0.117967
 Electronic spatial extent (au):  <R**2>=          22439.6089
 Charge=             -2.0000 electrons
 Dipole moment (field-independent basis, Debye):
    X=            -16.3991    Y=             -0.3741    Z=              2.6014  Tot=             16.6084
 Quadrupole moment (field-independent basis, Debye-Ang):
   XX=           -425.8581   YY=           -308.1989   ZZ=           -237.6439
   XY=             -0.5704   XZ=             -4.0246   YZ=             16.7602
 Traceless Quadrupole moment (field-independent basis, Debye-Ang):
   XX=           -101.9578   YY=             15.7014   ZZ=             86.2564
   XY=             -0.5704   XZ=             -4.0246   YZ=             16.7602
 Octapole moment (field-independent basis, Debye-Ang**2):
  XXX=           -541.7177  YYY=            -40.2198  ZZZ=             19.1787  XYY=           -290.2559
  XXY=             34.2106  XXZ=             26.3958  XZZ=              2.9198  YZZ=             13.1867
  YYZ=             22.5818  XYZ=             34.5594
 Hexadecapole moment (field-independent basis, Debye-Ang**3):
 XXXX=         -28969.2173 YYYY=          -9026.7985 ZZZZ=          -1236.2563 XXXY=            390.9531
 XXXZ=            -54.5539 YYYX=           -329.1839 YYYZ=            285.6741 ZZZX=            -58.4223
 ZZZY=             28.7923 XXYY=          -6415.0781 XXZZ=          -4213.6073 YYZZ=          -1522.1813
 XXYZ=            242.5484 YYXZ=             26.8296 ZZXY=            -92.7711
 N-N= 4.090245560702D+03 E-N=-1.377856508117D+04  KE= 2.352085843157D+03
 Unable to Open any file for archive entry.
 1\1\GINC-CX3-3-22\FOpt\RB3LYP\6-311+G(d,p)\C26H18N2O6S2(2-)\NS5018\08-
 Oct-2021\0\\# opt=modredundant b3lyp/6-311+g(d,p)\\NDI_-60.pdb\\-2,1\C
 ,-2.4296460567,-2.9801648896,-0.0180566632\C,-2.1706142756,-1.56637088
 78,0.0518506819\C,-3.2446140704,-0.6339841902,0.0240031509\C,-4.586211
 9575,-1.0705144425,-0.0568858317\C,-4.8937318376,-2.4789008204,-0.1214
 462879\C,-0.8363329914,-1.1042805064,0.1241403796\C,-2.9426011203,0.77
 99665932,0.0854722024\C,-1.5854657521,1.2252464808,0.1572055176\C,-0.5
 107407462,0.2381433022,0.1296014044\C,-1.3266132416,2.632984587,0.2829
 704862\C,-3.8025343811,3.1085531252,0.1793910215\C,-4.0318127238,1.691
 6263239,0.0873979078\C,-5.3782572586,1.2167652711,0.0059102178\C,-5.65
 20352958,-0.1171551511,-0.0682661363\H,-6.6667871779,-0.4911856668,-0.
 1297150188\H,-6.166396909,1.9602660722,0.009117731\H,-0.0549371234,-1.
 853334307,0.1062585335\N,-2.455037912,3.4924068088,0.2903219406\N,-3.7
 874193928,-3.3576458432,-0.0955082817\O,-1.5629955392,-3.8777088061,-0
 .0134254391\O,-6.0488645746,-2.9453930283,-0.1972450106\O,-4.702360460
 2,3.9771941424,0.1739700955\O,-0.2046724491,3.1718957248,0.3941601387\
 C,-2.1600669701,4.914345,0.4254353145\H,-1.575380358,5.0910850463,1.33
 12135934\H,-1.5597635257,5.2624861586,-0.4203902587\H,-3.1105880898,5.
 4409362345,0.4613941579\C,-4.0469789852,-4.7910280649,-0.1597470206\H,
 -3.5734892595,-5.2228403177,-1.0459666815\H,-3.6187692553,-5.290333931
 7,0.7132922505\H,-5.1251011643,-4.9265881981,-0.1950635145\C,0.9161544
 982,0.5706310678,0.1191861417\C,1.6483984634,1.3026831468,-0.795394488
 3\S,1.9991422247,-0.2431767209,1.2349039012\C,3.0387118822,1.216117698
 6,-0.6056527804\H,1.1661331367,1.8990217011,-1.5532878643\C,3.44852461
 59,0.3952626003,0.4439922287\O,3.9888751971,1.8412775572,-1.376847093\
 C,4.7797157412,0.0917018616,0.8730059651\C,3.5304182988,2.8355389104,-
 2.2785287233\C,5.2135575794,-0.8315946779,1.8221830831\S,6.2000741978,
 0.9444516104,0.2403241389\H,4.4247867343,3.2989842111,-2.6982954916\H,
 2.9367531806,2.3967888525,-3.0892885851\H,2.9265838138,3.5895798723,-1
 .7631684295\C,6.6155018018,-0.8448316098,2.0472447942\O,4.3518132593,-
 1.6423030854,2.5345751165\C,7.2910208796,0.054842428,1.2729072415\H,7.
 0808158867,-1.5048243724,2.7695162197\C,4.0964518086,-2.912453335,1.92
 97537345\H,8.3515407677,0.2504429546,1.2320171049\H,5.0164988908,-3.50
 92663125,1.8750223279\H,3.3661625996,-3.4179715319,2.5625400725\H,3.67
 61853965,-2.795374646,0.9269008042\\Version=ES64L-G16RevC.01\State=1-A
 \HF=-2359.3986967\RMSD=4.797e-09\RMSF=1.203e-03\Dipole=6.5146157,0.122
 9165,-0.4909932\Quadrupole=-74.2190499,9.1775476,65.0415023,-4.5796733
 ,-13.6789997,-6.500979\PG=C01 [X(C26H18N2O6S2)]\\@
 The archive entry for this job was punched.


 LAW OF COMPENSATION:
      NO CALCULATION IS EVER A COMPLETE FAILURE; IT 
      CAN ALWAYS SERVE AS A BAD EXAMPLE.

                                           -- ANON
 Job cpu time:       8 days  8 hours 36 minutes 18.1 seconds.
 Elapsed time:       1 days  1 hours 15 minutes 47.5 seconds.
 File lengths (MBytes):  RWF=    556 Int=      0 D2E=      0 Chk=     77 Scr=      1
 Normal termination of Gaussian 16 at Fri Oct  8 11:52:40 2021.
