 Entering Gaussian System, Link 0=g16
 Input=NDI_-140.gjf
 Output=NDI_-140.log
 Initial command:
 /apps/gaussian/g16-c01-avx/g16/l1.exe "/tmp/pbs.4643763[35].pbs/Gau-1679781.inp" -scrdir="/tmp/pbs.4643763[35].pbs/"
 Entering Link 1 = /apps/gaussian/g16-c01-avx/g16/l1.exe PID=   1679786.
  
 Copyright (c) 1988-2019, Gaussian, Inc.  All Rights Reserved.
  
 This is part of the Gaussian(R) 16 program.  It is based on
 the Gaussian(R) 09 system (copyright 2009, Gaussian, Inc.),
 the Gaussian(R) 03 system (copyright 2003, Gaussian, Inc.),
 the Gaussian(R) 98 system (copyright 1998, Gaussian, Inc.),
 the Gaussian(R) 94 system (copyright 1995, Gaussian, Inc.),
 the Gaussian 92(TM) system (copyright 1992, Gaussian, Inc.),
 the Gaussian 90(TM) system (copyright 1990, Gaussian, Inc.),
 the Gaussian 88(TM) system (copyright 1988, Gaussian, Inc.),
 the Gaussian 86(TM) system (copyright 1986, Carnegie Mellon
 University), and the Gaussian 82(TM) system (copyright 1983,
 Carnegie Mellon University). Gaussian is a federally registered
 trademark of Gaussian, Inc.
  
 This software contains proprietary and confidential information,
 including trade secrets, belonging to Gaussian, Inc.
  
 This software is provided under written license and may be
 used, copied, transmitted, or stored only in accord with that
 written license.
  
 The following legend is applicable only to US Government
 contracts under FAR:
  
                    RESTRICTED RIGHTS LEGEND
  
 Use, reproduction and disclosure by the US Government is
 subject to restrictions as set forth in subparagraphs (a)
 and (c) of the Commercial Computer Software - Restricted
 Rights clause in FAR 52.227-19.
  
 Gaussian, Inc.
 340 Quinnipiac St., Bldg. 40, Wallingford CT 06492
  
  
 ---------------------------------------------------------------
 Warning -- This program may not be used in any manner that
 competes with the business of Gaussian, Inc. or will provide
 assistance to any competitor of Gaussian, Inc.  The licensee
 of this program is prohibited from giving any competitor of
 Gaussian, Inc. access to this program.  By using this program,
 the user acknowledges that Gaussian, Inc. is engaged in the
 business of creating and licensing software in the field of
 computational chemistry and represents and warrants to the
 licensee that it is not a competitor of Gaussian, Inc. and that
 it will not use this program in any manner prohibited above.
 ---------------------------------------------------------------
  

 Cite this work as:
 Gaussian 16, Revision C.01,
 M. J. Frisch, G. W. Trucks, H. B. Schlegel, G. E. Scuseria, 
 M. A. Robb, J. R. Cheeseman, G. Scalmani, V. Barone, 
 G. A. Petersson, H. Nakatsuji, X. Li, M. Caricato, A. V. Marenich, 
 J. Bloino, B. G. Janesko, R. Gomperts, B. Mennucci, H. P. Hratchian, 
 J. V. Ortiz, A. F. Izmaylov, J. L. Sonnenberg, D. Williams-Young, 
 F. Ding, F. Lipparini, F. Egidi, J. Goings, B. Peng, A. Petrone, 
 T. Henderson, D. Ranasinghe, V. G. Zakrzewski, J. Gao, N. Rega, 
 G. Zheng, W. Liang, M. Hada, M. Ehara, K. Toyota, R. Fukuda, 
 J. Hasegawa, M. Ishida, T. Nakajima, Y. Honda, O. Kitao, H. Nakai, 
 T. Vreven, K. Throssell, J. A. Montgomery, Jr., J. E. Peralta, 
 F. Ogliaro, M. J. Bearpark, J. J. Heyd, E. N. Brothers, K. N. Kudin, 
 V. N. Staroverov, T. A. Keith, R. Kobayashi, J. Normand, 
 K. Raghavachari, A. P. Rendell, J. C. Burant, S. S. Iyengar, 
 J. Tomasi, M. Cossi, J. M. Millam, M. Klene, C. Adamo, R. Cammi, 
 J. W. Ochterski, R. L. Martin, K. Morokuma, O. Farkas, 
 J. B. Foresman, and D. J. Fox, Gaussian, Inc., Wallingford CT, 2019.
 
 ******************************************
 Gaussian 16:  ES64L-G16RevC.01  3-Jul-2019
                 5-Oct-2021 
 ******************************************
 %mem=10GB
 %nprocshared=8
 Will use up to    8 processors via shared memory.
 -------------------------------------
 # opt=modredundant b3lyp/6-311+g(d,p)
 -------------------------------------
 1/18=120,19=15,26=3,38=1/1,3;
 2/9=110,12=2,17=6,18=5,40=1/2;
 3/5=4,6=6,7=111,11=2,25=1,30=1,71=1,74=-5/1,2,3;
 4//1;
 5/5=2,38=5/2;
 6/7=2,8=2,9=2,10=2,28=1/1;
 7//1,2,3,16;
 1/18=20,19=15,26=3/3(2);
 2/9=110/2;
 99//99;
 2/9=110/2;
 3/5=4,6=6,7=111,11=2,25=1,30=1,71=1,74=-5/1,2,3;
 4/5=5,16=3,69=1/1;
 5/5=2,38=5/2;
 7//1,2,3,16;
 1/18=20,19=15,26=3/3(-5);
 2/9=110/2;
 6/7=2,8=2,9=2,10=2,19=2,28=1/1;
 99/9=1/99;
 ------------
 NDI_-140.pdb
 ------------
 Symbolic Z-matrix:
 Charge = -2 Multiplicity = 1
 C                    -2.563    -2.994    -0.409 
 C                    -2.257    -1.551    -0.224 
 C                    -3.301    -0.607    -0.083 
 C                    -4.65     -1.024    -0.115 
 C                    -4.992    -2.459    -0.304 
 C                    -0.949    -1.137    -0.215 
 C                    -2.962     0.764     0.102 
 C                    -1.595     1.188     0.123 
 C                    -0.561     0.232    -0.072 
 C                    -1.328     2.616     0.446 
 C                    -3.777     3.115     0.508 
 C                    -4.035     1.679     0.268 
 C                    -5.356     1.252     0.23 
 C                    -5.672    -0.098     0.036 
 H                    -6.699    -0.442     0.008 
 H                    -6.133     1.997     0.361 
 H                    -0.19     -1.895    -0.369 
 N                    -2.432     3.476     0.608 
 N                    -3.916    -3.353    -0.438 
 O                    -1.695    -3.847    -0.532 
 O                    -6.149    -2.85     -0.34 
 O                    -4.676     3.938     0.629 
 O                    -0.212     3.097     0.596 
 C                    -2.111     4.875     0.912 
 H                    -1.54      4.931     1.84 
 H                    -1.5       5.299     0.111 
 H                    -3.05      5.414     1.003 
 C                    -4.206    -4.779    -0.625 
 H                    -3.759    -5.126    -1.559 
 H                    -3.775    -5.355     0.196 
 H                    -5.286    -4.897    -0.649 
 C                     0.876     0.482    -0.178 
 C                     1.833    -0.078    -1.002 
 S                     1.641     1.555     0.995 
 C                     3.145     0.343    -0.709 
 H                     1.589    -0.764    -1.798 
 C                     3.238     1.25      0.351 
 O                     4.281    -0.045    -1.348 
 C                     4.419     1.889     0.858 
 C                     4.137    -0.855    -2.511 
 C                     4.513     2.775     1.93 
 S                     6.019     1.64      0.166 
 H                     5.142    -0.984    -2.913 
 H                     3.716    -1.837    -2.261 
 H                     3.5      -0.366    -3.259 
 C                     5.833     3.241     2.188 
 O                     3.388     3.113     2.613 
 C                     6.742     2.709     1.313 
 H                     6.096     3.93      2.978 
 C                     3.52      3.992     3.725 
 H                     7.808     2.888     1.282 
 H                     3.912     4.969     3.415 
 H                     2.517     4.117     4.13 
 H                     4.174     3.564     4.494 
 
 The following ModRedundant input section has been read:
 D       8       9      32      33 F                                           
 

 GradGradGradGradGradGradGradGradGradGradGradGradGradGradGradGradGradGrad
 Berny optimization.
 Initialization pass.
                           ----------------------------
                           !    Initial Parameters    !
                           ! (Angstroms and Degrees)  !
 --------------------------                            --------------------------
 ! Name  Definition              Value          Derivative Info.                !
 --------------------------------------------------------------------------------
 ! R1    R(1,2)                  1.4866         estimate D2E/DX2                !
 ! R2    R(1,19)                 1.4001         estimate D2E/DX2                !
 ! R3    R(1,20)                 1.2232         estimate D2E/DX2                !
 ! R4    R(2,3)                  1.4146         estimate D2E/DX2                !
 ! R5    R(2,6)                  1.372          estimate D2E/DX2                !
 ! R6    R(3,4)                  1.4123         estimate D2E/DX2                !
 ! R7    R(3,7)                  1.4244         estimate D2E/DX2                !
 ! R8    R(4,5)                  1.4872         estimate D2E/DX2                !
 ! R9    R(4,14)                 1.3874         estimate D2E/DX2                !
 ! R10   R(5,19)                 1.4053         estimate D2E/DX2                !
 ! R11   R(5,21)                 1.2218         estimate D2E/DX2                !
 ! R12   R(6,9)                  1.4301         estimate D2E/DX2                !
 ! R13   R(6,17)                 1.0837         estimate D2E/DX2                !
 ! R14   R(7,8)                  1.4314         estimate D2E/DX2                !
 ! R15   R(7,12)                 1.4199         estimate D2E/DX2                !
 ! R16   R(8,9)                  1.4217         estimate D2E/DX2                !
 ! R17   R(8,10)                 1.4882         estimate D2E/DX2                !
 ! R18   R(9,32)                 1.4624         estimate D2E/DX2                !
 ! R19   R(10,18)                1.4088         estimate D2E/DX2                !
 ! R20   R(10,23)                1.2245         estimate D2E/DX2                !
 ! R21   R(11,12)                1.4786         estimate D2E/DX2                !
 ! R22   R(11,18)                1.3962         estimate D2E/DX2                !
 ! R23   R(11,22)                1.2248         estimate D2E/DX2                !
 ! R24   R(12,13)                1.3888         estimate D2E/DX2                !
 ! R25   R(13,14)                1.4            estimate D2E/DX2                !
 ! R26   R(13,16)                1.0844         estimate D2E/DX2                !
 ! R27   R(14,15)                1.0834         estimate D2E/DX2                !
 ! R28   R(18,24)                1.4672         estimate D2E/DX2                !
 ! R29   R(19,28)                1.4672         estimate D2E/DX2                !
 ! R30   R(24,25)                1.091          estimate D2E/DX2                !
 ! R31   R(24,26)                1.093          estimate D2E/DX2                !
 ! R32   R(24,27)                1.0865         estimate D2E/DX2                !
 ! R33   R(28,29)                1.0921         estimate D2E/DX2                !
 ! R34   R(28,30)                1.0916         estimate D2E/DX2                !
 ! R35   R(28,31)                1.0867         estimate D2E/DX2                !
 ! R36   R(32,33)                1.3815         estimate D2E/DX2                !
 ! R37   R(32,34)                1.7642         estimate D2E/DX2                !
 ! R38   R(33,35)                1.4087         estimate D2E/DX2                !
 ! R39   R(33,36)                1.0788         estimate D2E/DX2                !
 ! R40   R(34,37)                1.7488         estimate D2E/DX2                !
 ! R41   R(35,37)                1.3982         estimate D2E/DX2                !
 ! R42   R(35,38)                1.3599         estimate D2E/DX2                !
 ! R43   R(37,39)                1.4353         estimate D2E/DX2                !
 ! R44   R(38,40)                1.4246         estimate D2E/DX2                !
 ! R45   R(39,41)                1.3939         estimate D2E/DX2                !
 ! R46   R(39,42)                1.7609         estimate D2E/DX2                !
 ! R47   R(40,43)                1.0901         estimate D2E/DX2                !
 ! R48   R(40,44)                1.0973         estimate D2E/DX2                !
 ! R49   R(40,45)                1.0974         estimate D2E/DX2                !
 ! R50   R(41,46)                1.4234         estimate D2E/DX2                !
 ! R51   R(41,47)                1.3588         estimate D2E/DX2                !
 ! R52   R(42,48)                1.7266         estimate D2E/DX2                !
 ! R53   R(46,48)                1.3693         estimate D2E/DX2                !
 ! R54   R(46,49)                1.0807         estimate D2E/DX2                !
 ! R55   R(47,50)                1.4236         estimate D2E/DX2                !
 ! R56   R(48,51)                1.0814         estimate D2E/DX2                !
 ! R57   R(50,52)                1.0974         estimate D2E/DX2                !
 ! R58   R(50,53)                1.0889         estimate D2E/DX2                !
 ! R59   R(50,54)                1.0965         estimate D2E/DX2                !
 ! A1    A(2,1,19)             116.767          estimate D2E/DX2                !
 ! A2    A(2,1,20)             122.9113         estimate D2E/DX2                !
 ! A3    A(19,1,20)            120.3217         estimate D2E/DX2                !
 ! A4    A(1,2,3)              120.5473         estimate D2E/DX2                !
 ! A5    A(1,2,6)              119.3369         estimate D2E/DX2                !
 ! A6    A(3,2,6)              120.1056         estimate D2E/DX2                !
 ! A7    A(2,3,4)              120.3743         estimate D2E/DX2                !
 ! A8    A(2,3,7)              118.662          estimate D2E/DX2                !
 ! A9    A(4,3,7)              120.9617         estimate D2E/DX2                !
 ! A10   A(3,4,5)              120.4909         estimate D2E/DX2                !
 ! A11   A(3,4,14)             120.2702         estimate D2E/DX2                !
 ! A12   A(5,4,14)             119.2382         estimate D2E/DX2                !
 ! A13   A(4,5,19)             116.7341         estimate D2E/DX2                !
 ! A14   A(4,5,21)             122.024          estimate D2E/DX2                !
 ! A15   A(19,5,21)            121.2418         estimate D2E/DX2                !
 ! A16   A(2,6,9)              123.2421         estimate D2E/DX2                !
 ! A17   A(2,6,17)             117.1119         estimate D2E/DX2                !
 ! A18   A(9,6,17)             119.589          estimate D2E/DX2                !
 ! A19   A(3,7,8)              120.9519         estimate D2E/DX2                !
 ! A20   A(3,7,12)             117.1037         estimate D2E/DX2                !
 ! A21   A(8,7,12)             121.944          estimate D2E/DX2                !
 ! A22   A(7,8,9)              119.5639         estimate D2E/DX2                !
 ! A23   A(7,8,10)             117.3064         estimate D2E/DX2                !
 ! A24   A(9,8,10)             122.9922         estimate D2E/DX2                !
 ! A25   A(6,9,8)              117.3944         estimate D2E/DX2                !
 ! A26   A(6,9,32)             115.0236         estimate D2E/DX2                !
 ! A27   A(8,9,32)             127.5648         estimate D2E/DX2                !
 ! A28   A(8,10,18)            118.042          estimate D2E/DX2                !
 ! A29   A(8,10,23)            124.5436         estimate D2E/DX2                !
 ! A30   A(18,10,23)           117.4097         estimate D2E/DX2                !
 ! A31   A(12,11,18)           115.5202         estimate D2E/DX2                !
 ! A32   A(12,11,22)           122.7205         estimate D2E/DX2                !
 ! A33   A(18,11,22)           121.7534         estimate D2E/DX2                !
 ! A34   A(7,12,11)            120.8614         estimate D2E/DX2                !
 ! A35   A(7,12,13)            121.162          estimate D2E/DX2                !
 ! A36   A(11,12,13)           117.9699         estimate D2E/DX2                !
 ! A37   A(12,13,14)           120.9948         estimate D2E/DX2                !
 ! A38   A(12,13,16)           117.8401         estimate D2E/DX2                !
 ! A39   A(14,13,16)           121.1642         estimate D2E/DX2                !
 ! A40   A(4,14,13)            119.5003         estimate D2E/DX2                !
 ! A41   A(4,14,15)            118.9169         estimate D2E/DX2                !
 ! A42   A(13,14,15)           121.5811         estimate D2E/DX2                !
 ! A43   A(10,18,11)           126.0753         estimate D2E/DX2                !
 ! A44   A(10,18,24)           115.7508         estimate D2E/DX2                !
 ! A45   A(11,18,24)           118.1737         estimate D2E/DX2                !
 ! A46   A(1,19,5)             125.0856         estimate D2E/DX2                !
 ! A47   A(1,19,28)            116.2868         estimate D2E/DX2                !
 ! A48   A(5,19,28)            118.6276         estimate D2E/DX2                !
 ! A49   A(18,24,25)           109.8574         estimate D2E/DX2                !
 ! A50   A(18,24,26)           109.8979         estimate D2E/DX2                !
 ! A51   A(18,24,27)           107.5355         estimate D2E/DX2                !
 ! A52   A(25,24,26)           108.1108         estimate D2E/DX2                !
 ! A53   A(25,24,27)           110.8301         estimate D2E/DX2                !
 ! A54   A(26,24,27)           110.6124         estimate D2E/DX2                !
 ! A55   A(19,28,29)           109.6906         estimate D2E/DX2                !
 ! A56   A(19,28,30)           109.8136         estimate D2E/DX2                !
 ! A57   A(19,28,31)           107.7461         estimate D2E/DX2                !
 ! A58   A(29,28,30)           108.2991         estimate D2E/DX2                !
 ! A59   A(29,28,31)           110.6959         estimate D2E/DX2                !
 ! A60   A(30,28,31)           110.5924         estimate D2E/DX2                !
 ! A61   A(9,32,33)            130.8921         estimate D2E/DX2                !
 ! A62   A(9,32,34)            118.8067         estimate D2E/DX2                !
 ! A63   A(33,32,34)           110.0439         estimate D2E/DX2                !
 ! A64   A(32,33,35)           113.5772         estimate D2E/DX2                !
 ! A65   A(32,33,36)           122.7662         estimate D2E/DX2                !
 ! A66   A(35,33,36)           123.654          estimate D2E/DX2                !
 ! A67   A(32,34,37)            92.5828         estimate D2E/DX2                !
 ! A68   A(33,35,37)           114.4252         estimate D2E/DX2                !
 ! A69   A(33,35,38)           126.513          estimate D2E/DX2                !
 ! A70   A(37,35,38)           119.0618         estimate D2E/DX2                !
 ! A71   A(34,37,35)           109.3651         estimate D2E/DX2                !
 ! A72   A(34,37,39)           122.9346         estimate D2E/DX2                !
 ! A73   A(35,37,39)           127.6855         estimate D2E/DX2                !
 ! A74   A(35,38,40)           117.477          estimate D2E/DX2                !
 ! A75   A(37,39,41)           127.598          estimate D2E/DX2                !
 ! A76   A(37,39,42)           123.0832         estimate D2E/DX2                !
 ! A77   A(41,39,42)           109.3188         estimate D2E/DX2                !
 ! A78   A(38,40,43)           105.9716         estimate D2E/DX2                !
 ! A79   A(38,40,44)           111.2004         estimate D2E/DX2                !
 ! A80   A(38,40,45)           111.2079         estimate D2E/DX2                !
 ! A81   A(43,40,44)           109.3805         estimate D2E/DX2                !
 ! A82   A(43,40,45)           109.6645         estimate D2E/DX2                !
 ! A83   A(44,40,45)           109.3507         estimate D2E/DX2                !
 ! A84   A(39,41,46)           114.206          estimate D2E/DX2                !
 ! A85   A(39,41,47)           119.2642         estimate D2E/DX2                !
 ! A86   A(46,41,47)           126.5295         estimate D2E/DX2                !
 ! A87   A(39,42,48)            91.8263         estimate D2E/DX2                !
 ! A88   A(41,46,48)           111.876          estimate D2E/DX2                !
 ! A89   A(41,46,49)           124.533          estimate D2E/DX2                !
 ! A90   A(48,46,49)           123.5909         estimate D2E/DX2                !
 ! A91   A(41,47,50)           117.9986         estimate D2E/DX2                !
 ! A92   A(42,48,46)           112.7729         estimate D2E/DX2                !
 ! A93   A(42,48,51)           119.7513         estimate D2E/DX2                !
 ! A94   A(46,48,51)           127.4756         estimate D2E/DX2                !
 ! A95   A(47,50,52)           111.2338         estimate D2E/DX2                !
 ! A96   A(47,50,53)           106.0219         estimate D2E/DX2                !
 ! A97   A(47,50,54)           111.2304         estimate D2E/DX2                !
 ! A98   A(52,50,53)           109.3842         estimate D2E/DX2                !
 ! A99   A(52,50,54)           109.4251         estimate D2E/DX2                !
 ! A100  A(53,50,54)           109.4733         estimate D2E/DX2                !
 ! D1    D(19,1,2,3)             0.1578         estimate D2E/DX2                !
 ! D2    D(19,1,2,6)          -178.6792         estimate D2E/DX2                !
 ! D3    D(20,1,2,3)          -179.8231         estimate D2E/DX2                !
 ! D4    D(20,1,2,6)             1.3399         estimate D2E/DX2                !
 ! D5    D(2,1,19,5)            -0.124          estimate D2E/DX2                !
 ! D6    D(2,1,19,28)          179.8267         estimate D2E/DX2                !
 ! D7    D(20,1,19,5)          179.8575         estimate D2E/DX2                !
 ! D8    D(20,1,19,28)          -0.1919         estimate D2E/DX2                !
 ! D9    D(1,2,3,4)              0.0571         estimate D2E/DX2                !
 ! D10   D(1,2,3,7)            179.5453         estimate D2E/DX2                !
 ! D11   D(6,2,3,4)            178.8851         estimate D2E/DX2                !
 ! D12   D(6,2,3,7)             -1.6266         estimate D2E/DX2                !
 ! D13   D(1,2,6,9)            178.625          estimate D2E/DX2                !
 ! D14   D(1,2,6,17)             1.3881         estimate D2E/DX2                !
 ! D15   D(3,2,6,9)             -0.2173         estimate D2E/DX2                !
 ! D16   D(3,2,6,17)          -177.4541         estimate D2E/DX2                !
 ! D17   D(2,3,4,5)             -0.3074         estimate D2E/DX2                !
 ! D18   D(2,3,4,14)           179.3968         estimate D2E/DX2                !
 ! D19   D(7,3,4,5)           -179.7837         estimate D2E/DX2                !
 ! D20   D(7,3,4,14)            -0.0795         estimate D2E/DX2                !
 ! D21   D(2,3,7,8)              1.0523         estimate D2E/DX2                !
 ! D22   D(2,3,7,12)          -178.712          estimate D2E/DX2                !
 ! D23   D(4,3,7,8)           -179.4626         estimate D2E/DX2                !
 ! D24   D(4,3,7,12)             0.7731         estimate D2E/DX2                !
 ! D25   D(3,4,5,19)             0.3343         estimate D2E/DX2                !
 ! D26   D(3,4,5,21)          -179.7799         estimate D2E/DX2                !
 ! D27   D(14,4,5,19)         -179.3729         estimate D2E/DX2                !
 ! D28   D(14,4,5,21)            0.5129         estimate D2E/DX2                !
 ! D29   D(3,4,14,13)           -0.4559         estimate D2E/DX2                !
 ! D30   D(3,4,14,15)         -179.9937         estimate D2E/DX2                !
 ! D31   D(5,4,14,13)          179.252          estimate D2E/DX2                !
 ! D32   D(5,4,14,15)           -0.2858         estimate D2E/DX2                !
 ! D33   D(4,5,19,1)            -0.1141         estimate D2E/DX2                !
 ! D34   D(4,5,19,28)          179.9364         estimate D2E/DX2                !
 ! D35   D(21,5,19,1)          179.9992         estimate D2E/DX2                !
 ! D36   D(21,5,19,28)           0.0496         estimate D2E/DX2                !
 ! D37   D(2,6,9,8)              2.5984         estimate D2E/DX2                !
 ! D38   D(2,6,9,32)          -176.0103         estimate D2E/DX2                !
 ! D39   D(17,6,9,8)           179.77           estimate D2E/DX2                !
 ! D40   D(17,6,9,32)            1.1613         estimate D2E/DX2                !
 ! D41   D(3,7,8,9)              1.3551         estimate D2E/DX2                !
 ! D42   D(3,7,8,10)          -174.5099         estimate D2E/DX2                !
 ! D43   D(12,7,8,9)          -178.8921         estimate D2E/DX2                !
 ! D44   D(12,7,8,10)            5.2428         estimate D2E/DX2                !
 ! D45   D(3,7,12,11)          178.0768         estimate D2E/DX2                !
 ! D46   D(3,7,12,13)           -0.9621         estimate D2E/DX2                !
 ! D47   D(8,7,12,11)           -1.685          estimate D2E/DX2                !
 ! D48   D(8,7,12,13)          179.2761         estimate D2E/DX2                !
 ! D49   D(7,8,9,6)             -3.0809         estimate D2E/DX2                !
 ! D50   D(7,8,9,32)           175.3285         estimate D2E/DX2                !
 ! D51   D(10,8,9,6)           172.5381         estimate D2E/DX2                !
 ! D52   D(10,8,9,32)           -9.0525         estimate D2E/DX2                !
 ! D53   D(7,8,10,18)           -4.7549         estimate D2E/DX2                !
 ! D54   D(7,8,10,23)          174.4235         estimate D2E/DX2                !
 ! D55   D(9,8,10,18)          179.5335         estimate D2E/DX2                !
 ! D56   D(9,8,10,23)           -1.2882         estimate D2E/DX2                !
 ! D57   D(6,9,32,33)           38.4225         estimate D2E/DX2                !
 ! D58   D(6,9,32,34)         -135.1109         estimate D2E/DX2                !
 ! D59   D(8,9,32,33)         -140.019          Frozen                          !
 ! D60   D(8,9,32,34)           46.4476         estimate D2E/DX2                !
 ! D61   D(8,10,18,11)           0.7189         estimate D2E/DX2                !
 ! D62   D(8,10,18,24)        -179.4089         estimate D2E/DX2                !
 ! D63   D(23,10,18,11)       -178.5188         estimate D2E/DX2                !
 ! D64   D(23,10,18,24)          1.3535         estimate D2E/DX2                !
 ! D65   D(18,11,12,7)          -2.3856         estimate D2E/DX2                !
 ! D66   D(18,11,12,13)        176.6833         estimate D2E/DX2                !
 ! D67   D(22,11,12,7)         178.4862         estimate D2E/DX2                !
 ! D68   D(22,11,12,13)         -2.445          estimate D2E/DX2                !
 ! D69   D(12,11,18,10)          2.8444         estimate D2E/DX2                !
 ! D70   D(12,11,18,24)       -177.0251         estimate D2E/DX2                !
 ! D71   D(22,11,18,10)       -178.0181         estimate D2E/DX2                !
 ! D72   D(22,11,18,24)          2.1124         estimate D2E/DX2                !
 ! D73   D(7,12,13,14)           0.461          estimate D2E/DX2                !
 ! D74   D(7,12,13,16)        -179.8781         estimate D2E/DX2                !
 ! D75   D(11,12,13,14)       -178.6049         estimate D2E/DX2                !
 ! D76   D(11,12,13,16)          1.056          estimate D2E/DX2                !
 ! D77   D(12,13,14,4)           0.2708         estimate D2E/DX2                !
 ! D78   D(12,13,14,15)        179.7958         estimate D2E/DX2                !
 ! D79   D(16,13,14,4)        -179.3788         estimate D2E/DX2                !
 ! D80   D(16,13,14,15)          0.1463         estimate D2E/DX2                !
 ! D81   D(10,18,24,25)        -59.609          estimate D2E/DX2                !
 ! D82   D(10,18,24,26)         59.2209         estimate D2E/DX2                !
 ! D83   D(10,18,24,27)        179.6858         estimate D2E/DX2                !
 ! D84   D(11,18,24,25)        120.2739         estimate D2E/DX2                !
 ! D85   D(11,18,24,26)       -120.8962         estimate D2E/DX2                !
 ! D86   D(11,18,24,27)         -0.4313         estimate D2E/DX2                !
 ! D87   D(1,19,28,29)         -58.1407         estimate D2E/DX2                !
 ! D88   D(1,19,28,30)          60.7668         estimate D2E/DX2                !
 ! D89   D(1,19,28,31)        -178.7139         estimate D2E/DX2                !
 ! D90   D(5,19,28,29)         121.8132         estimate D2E/DX2                !
 ! D91   D(5,19,28,30)        -119.2792         estimate D2E/DX2                !
 ! D92   D(5,19,28,31)           1.2401         estimate D2E/DX2                !
 ! D93   D(9,32,33,35)        -174.2298         estimate D2E/DX2                !
 ! D94   D(9,32,33,36)           6.3428         estimate D2E/DX2                !
 ! D95   D(34,32,33,35)         -0.2599         estimate D2E/DX2                !
 ! D96   D(34,32,33,36)       -179.6872         estimate D2E/DX2                !
 ! D97   D(9,32,34,37)         175.3675         estimate D2E/DX2                !
 ! D98   D(33,32,34,37)          0.5672         estimate D2E/DX2                !
 ! D99   D(32,33,35,37)         -0.3027         estimate D2E/DX2                !
 ! D100  D(32,33,35,38)        179.7352         estimate D2E/DX2                !
 ! D101  D(36,33,35,37)        179.1189         estimate D2E/DX2                !
 ! D102  D(36,33,35,38)         -0.8433         estimate D2E/DX2                !
 ! D103  D(32,34,37,35)         -0.7215         estimate D2E/DX2                !
 ! D104  D(32,34,37,39)        177.9751         estimate D2E/DX2                !
 ! D105  D(33,35,37,34)          0.7166         estimate D2E/DX2                !
 ! D106  D(33,35,37,39)       -177.9011         estimate D2E/DX2                !
 ! D107  D(38,35,37,34)       -179.3182         estimate D2E/DX2                !
 ! D108  D(38,35,37,39)          2.0641         estimate D2E/DX2                !
 ! D109  D(33,35,38,40)          6.5485         estimate D2E/DX2                !
 ! D110  D(37,35,38,40)       -173.4121         estimate D2E/DX2                !
 ! D111  D(34,37,39,41)          2.7841         estimate D2E/DX2                !
 ! D112  D(34,37,39,42)       -177.1705         estimate D2E/DX2                !
 ! D113  D(35,37,39,41)       -178.7698         estimate D2E/DX2                !
 ! D114  D(35,37,39,42)          1.2756         estimate D2E/DX2                !
 ! D115  D(35,38,40,43)        175.4342         estimate D2E/DX2                !
 ! D116  D(35,38,40,44)        -65.7997         estimate D2E/DX2                !
 ! D117  D(35,38,40,45)         56.3228         estimate D2E/DX2                !
 ! D118  D(37,39,41,46)       -179.9434         estimate D2E/DX2                !
 ! D119  D(37,39,41,47)         -0.1052         estimate D2E/DX2                !
 ! D120  D(42,39,41,46)          0.0163         estimate D2E/DX2                !
 ! D121  D(42,39,41,47)        179.8545         estimate D2E/DX2                !
 ! D122  D(37,39,42,48)        179.9624         estimate D2E/DX2                !
 ! D123  D(41,39,42,48)          0.0006         estimate D2E/DX2                !
 ! D124  D(39,41,46,48)         -0.03           estimate D2E/DX2                !
 ! D125  D(39,41,46,49)       -179.9173         estimate D2E/DX2                !
 ! D126  D(47,41,46,48)       -179.8544         estimate D2E/DX2                !
 ! D127  D(47,41,46,49)          0.2584         estimate D2E/DX2                !
 ! D128  D(39,41,47,50)        178.365          estimate D2E/DX2                !
 ! D129  D(46,41,47,50)         -1.8186         estimate D2E/DX2                !
 ! D130  D(39,42,48,46)         -0.0178         estimate D2E/DX2                !
 ! D131  D(39,42,48,51)        179.8502         estimate D2E/DX2                !
 ! D132  D(41,46,48,42)          0.0298         estimate D2E/DX2                !
 ! D133  D(41,46,48,51)       -179.8257         estimate D2E/DX2                !
 ! D134  D(49,46,48,42)        179.9184         estimate D2E/DX2                !
 ! D135  D(49,46,48,51)          0.0628         estimate D2E/DX2                !
 ! D136  D(41,47,50,52)         62.0065         estimate D2E/DX2                !
 ! D137  D(41,47,50,53)       -179.1748         estimate D2E/DX2                !
 ! D138  D(41,47,50,54)        -60.2508         estimate D2E/DX2                !
 --------------------------------------------------------------------------------
 Trust Radius=3.00D-01 FncErr=1.00D-07 GrdErr=1.00D-06 EigMax=2.50D+02 EigMin=1.00D-04
 Number of steps in this run=    307 maximum allowed number of steps=    324.
 GradGradGradGradGradGradGradGradGradGradGradGradGradGradGradGradGradGrad

 Stoichiometry    C26H18N2O6S2(2-)
 Framework group  C1[X(C26H18N2O6S2)]
 Deg. of freedom   156
 Full point group                 C1      NOp   1
 Largest Abelian subgroup         C1      NOp   1
 Largest concise Abelian subgroup C1      NOp   1
                         Standard orientation:                         
 ---------------------------------------------------------------------
 Center     Atomic      Atomic             Coordinates (Angstroms)
 Number     Number       Type             X           Y           Z
 ---------------------------------------------------------------------
      1          6           0       -3.643862   -2.604089    0.586057
      2          6           0       -2.844929   -1.391032    0.269342
      3          6           0       -3.480985   -0.143858    0.066995
      4          6           0       -4.885698   -0.034439    0.164579
      5          6           0       -5.715946   -1.228848    0.474394
      6          6           0       -1.482102   -1.495777    0.150718
      7          6           0       -2.675831    0.994309   -0.224704
      8          6           0       -1.253178    0.880993   -0.334817
      9          6           0       -0.636663   -0.390546   -0.179208
     10          6           0       -0.480131    2.139541   -0.517179
     11          6           0       -2.588032    3.476556   -0.657142
     12          6           0       -3.346014    2.234598   -0.393960
     13          6           0       -4.728691    2.323262   -0.298277
     14          6           0       -5.506236    1.192303   -0.021965
     15          1           0       -6.585119    1.251198    0.057991
     16          1           0       -5.184649    3.297037   -0.438913
     17          1           0       -1.049981   -2.481899    0.273993
     18          7           0       -1.198463    3.341530   -0.671713
     19          7           0       -5.032174   -2.441488    0.666560
     20          8           0       -3.138941   -3.702529    0.772196
     21          8           0       -6.933080   -1.166962    0.561468
     22          8           0       -3.132344    4.559228   -0.835237
     23          8           0        0.742367    2.208027   -0.528414
     24          6           0       -0.387076    4.549143   -0.861395
     25          1           0        0.269921    4.692917   -0.002300
     26          1           0        0.237065    4.441827   -1.752254
     27          1           0       -1.069029    5.387874   -0.970909
     28          6           0       -5.810602   -3.646060    0.975755
     29          1           0       -5.617670   -4.412376    0.222024
     30          1           0       -5.512039   -4.039824    1.949094
     31          1           0       -6.861360   -3.368979    0.981515
     32          6           0        0.777548   -0.722393   -0.348296
     33          6           0        1.386137   -1.822906   -0.920062
     34         16           0        1.990381    0.321154    0.395026
     35          6           0        2.787241   -1.831163   -0.774213
     36          1           0        0.834217   -2.593048   -1.435828
     37          6           0        3.303572   -0.727953   -0.087753
     38          8           0        3.642503   -2.785636   -1.229042
     39          6           0        4.681064   -0.429117    0.183064
     40          6           0        3.100024   -3.818895   -2.046047
     41          6           0        5.192520    0.659229    0.887998
     42         16           0        6.010730   -1.445793   -0.363948
     43          1           0        3.948271   -4.422948   -2.368332
     44          1           0        2.400361   -4.446448   -1.479732
     45          1           0        2.587814   -3.403663   -2.923325
     46          6           0        6.612484    0.676178    0.985649
     47          8           0        4.335441    1.580200    1.401404
     48          6           0        7.180063   -0.399058    0.355846
     49          1           0        7.182477    1.440178    1.494964
     50          6           0        4.884495    2.661691    2.146741
     51          1           0        8.232348   -0.635484    0.277375
     52          1           0        5.548598    3.275895    1.525441
     53          1           0        4.037089    3.262493    2.473236
     54          1           0        5.435764    2.300537    3.023058
 ---------------------------------------------------------------------
 Rotational constants (GHZ):           0.1692945           0.0569431           0.0452415
 Standard basis: 6-311+G(d,p) (5D, 7F)
 There are   952 symmetry adapted cartesian basis functions of A   symmetry.
 There are   916 symmetry adapted basis functions of A   symmetry.
   916 basis functions,  1468 primitive gaussians,   952 cartesian basis functions
   135 alpha electrons      135 beta electrons
       nuclear repulsion energy      4106.8703077946 Hartrees.
 NAtoms=   54 NActive=   54 NUniq=   54 SFac= 1.00D+00 NAtFMM=   60 NAOKFM=F Big=F
 Integral buffers will be    131072 words long.
 Raffenetti 2 integral format.
 Two-electron integral symmetry is turned on.
 One-electron integrals computed using PRISM.
 NBasis=   916 RedAO= T EigKep=  1.48D-06  NBF=   916
 NBsUse=   901 1.00D-06 EigRej=  9.42D-07 NBFU=   901
 ExpMin= 4.05D-02 ExpMax= 9.34D+04 ExpMxC= 3.17D+03 IAcc=3 IRadAn=         5 AccDes= 0.00D+00
 Harris functional with IExCor=  402 and IRadAn=       5 diagonalized for initial guess.
 HarFok:  IExCor=  402 AccDes= 0.00D+00 IRadAn=         5 IDoV= 1 UseB2=F ITyADJ=14
 ICtDFT=  3500011 ScaDFX=  1.000000  1.000000  1.000000  1.000000
 FoFCou: FMM=F IPFlag=           0 FMFlag=      100000 FMFlg1=           0
         NFxFlg=           0 DoJE=T BraDBF=F KetDBF=T FulRan=T
         wScrn=  0.000000 ICntrl=       500 IOpCl=  0 I1Cent=   200000004 NGrid=           0
         NMat0=    1 NMatS0=      1 NMatT0=    0 NMatD0=    1 NMtDS0=    0 NMtDT0=    0
 Petite list used in FoFCou.
 Requested convergence on RMS density matrix=1.00D-08 within 128 cycles.
 Requested convergence on MAX density matrix=1.00D-06.
 Requested convergence on             energy=1.00D-06.
 No special actions if energy rises.
 EnCoef did     8 forward-backward iterations
 Restarting incremental Fock formation.
 SCF Done:  E(RB3LYP) =  -2359.36487712     A.U. after   22 cycles
            NFock= 22  Conv=0.72D-08     -V/T= 2.0029

 **********************************************************************

            Population analysis using the SCF Density.

 **********************************************************************

 Orbital symmetries:
       Occupied  (A) (A) (A) (A) (A) (A) (A) (A) (A) (A) (A) (A)
                 (A) (A) (A) (A) (A) (A) (A) (A) (A) (A) (A) (A)
                 (A) (A) (A) (A) (A) (A) (A) (A) (A) (A) (A) (A)
                 (A) (A) (A) (A) (A) (A) (A) (A) (A) (A) (A) (A)
                 (A) (A) (A) (A) (A) (A) (A) (A) (A) (A) (A) (A)
                 (A) (A) (A) (A) (A) (A) (A) (A) (A) (A) (A) (A)
                 (A) (A) (A) (A) (A) (A) (A) (A) (A) (A) (A) (A)
                 (A) (A) (A) (A) (A) (A) (A) (A) (A) (A) (A) (A)
                 (A) (A) (A) (A) (A) (A) (A) (A) (A) (A) (A) (A)
                 (A) (A) (A) (A) (A) (A) (A) (A) (A) (A) (A) (A)
                 (A) (A) (A) (A) (A) (A) (A) (A) (A) (A) (A) (A)
                 (A) (A) (A)
       Virtual   (A) (A) (A) (A) (A) (A) (A) (A) (A) (A) (A) (A)
                 (A) (A) (A) (A) (A) (A) (A) (A) (A) (A) (A) (A)
                 (A) (A) (A) (A) (A) (A) (A) (A) (A) (A) (A) (A)
                 (A) (A) (A) (A) (A) (A) (A) (A) (A) (A) (A) (A)
                 (A) (A) (A) (A) (A) (A) (A) (A) (A) (A) (A) (A)
                 (A) (A) (A) (A) (A) (A) (A) (A) (A) (A) (A) (A)
                 (A) (A) (A) (A) (A) (A) (A) (A) (A) (A) (A) (A)
                 (A) (A) (A) (A) (A) (A) (A) (A) (A) (A) (A) (A)
                 (A) (A) (A) (A) (A) (A) (A) (A) (A) (A) (A) (A)
                 (A) (A) (A) (A) (A) (A) (A) (A) (A) (A) (A) (A)
                 (A) (A) (A) (A) (A) (A) (A) (A) (A) (A) (A) (A)
                 (A) (A) (A) (A) (A) (A) (A) (A) (A) (A) (A) (A)
                 (A) (A) (A) (A) (A) (A) (A) (A) (A) (A) (A) (A)
                 (A) (A) (A) (A) (A) (A) (A) (A) (A) (A) (A) (A)
                 (A) (A) (A) (A) (A) (A) (A) (A) (A) (A) (A) (A)
                 (A) (A) (A) (A) (A) (A) (A) (A) (A) (A) (A) (A)
                 (A) (A) (A) (A) (A) (A) (A) (A) (A) (A) (A) (A)
                 (A) (A) (A) (A) (A) (A) (A) (A) (A) (A) (A) (A)
                 (A) (A) (A) (A) (A) (A) (A) (A) (A) (A) (A) (A)
                 (A) (A) (A) (A) (A) (A) (A) (A) (A) (A) (A) (A)
                 (A) (A) (A) (A) (A) (A) (A) (A) (A) (A) (A) (A)
                 (A) (A) (A) (A) (A) (A) (A) (A) (A) (A) (A) (A)
                 (A) (A) (A) (A) (A) (A) (A) (A) (A) (A) (A) (A)
                 (A) (A) (A) (A) (A) (A) (A) (A) (A) (A) (A) (A)
                 (A) (A) (A) (A) (A) (A) (A) (A) (A) (A) (A) (A)
                 (A) (A) (A) (A) (A) (A) (A) (A) (A) (A) (A) (A)
                 (A) (A) (A) (A) (A) (A) (A) (A) (A) (A) (A) (A)
                 (A) (A) (A) (A) (A) (A) (A) (A) (A) (A) (A) (A)
                 (A) (A) (A) (A) (A) (A) (A) (A) (A) (A) (A) (A)
                 (A) (A) (A) (A) (A) (A) (A) (A) (A) (A) (A) (A)
                 (A) (A) (A) (A) (A) (A) (A) (A) (A) (A) (A) (A)
                 (A) (A) (A) (A) (A) (A) (A) (A) (A) (A) (A) (A)
                 (A) (A) (A) (A) (A) (A) (A) (A) (A) (A) (A) (A)
                 (A) (A) (A) (A) (A) (A) (A) (A) (A) (A) (A) (A)
                 (A) (A) (A) (A) (A) (A) (A) (A) (A) (A) (A) (A)
                 (A) (A) (A) (A) (A) (A) (A) (A) (A) (A) (A) (A)
                 (A) (A) (A) (A) (A) (A) (A) (A) (A) (A) (A) (A)
                 (A) (A) (A) (A) (A) (A) (A) (A) (A) (A) (A) (A)
                 (A) (A) (A) (A) (A) (A) (A) (A) (A) (A) (A) (A)
                 (A) (A) (A) (A) (A) (A) (A) (A) (A) (A) (A) (A)
                 (A) (A) (A) (A) (A) (A) (A) (A) (A) (A) (A) (A)
                 (A) (A) (A) (A) (A) (A) (A) (A) (A) (A) (A) (A)
                 (A) (A) (A) (A) (A) (A) (A) (A) (A) (A) (A) (A)
                 (A) (A) (A) (A) (A) (A) (A) (A) (A) (A) (A) (A)
                 (A) (A) (A) (A) (A) (A) (A) (A) (A) (A) (A) (A)
                 (A) (A) (A) (A) (A) (A) (A) (A) (A) (A) (A) (A)
                 (A) (A) (A) (A) (A) (A) (A) (A) (A) (A) (A) (A)
                 (A) (A) (A) (A) (A) (A) (A) (A) (A) (A) (A) (A)
                 (A) (A) (A) (A) (A) (A) (A) (A) (A) (A) (A) (A)
                 (A) (A) (A) (A) (A) (A) (A) (A) (A) (A) (A) (A)
                 (A) (A) (A) (A) (A) (A) (A) (A) (A) (A) (A) (A)
                 (A) (A) (A) (A) (A) (A) (A) (A) (A) (A) (A) (A)
                 (A) (A) (A) (A) (A) (A) (A) (A) (A) (A) (A) (A)
                 (A) (A) (A) (A) (A) (A) (A) (A) (A) (A) (A) (A)
                 (A) (A) (A) (A) (A) (A) (A) (A) (A) (A) (A) (A)
                 (A) (A) (A) (A) (A) (A) (A) (A) (A) (A) (A) (A)
                 (A) (A) (A) (A) (A) (A) (A) (A) (A) (A) (A) (A)
                 (A) (A) (A) (A) (A) (A) (A) (A) (A) (A) (A) (A)
                 (A) (A) (A) (A) (A) (A) (A) (A) (A) (A) (A) (A)
                 (A) (A) (A) (A) (A) (A) (A) (A) (A) (A) (A) (A)
                 (A) (A) (A) (A) (A) (A) (A) (A) (A) (A) (A) (A)
                 (A) (A) (A) (A) (A) (A) (A) (A) (A) (A) (A) (A)
                 (A) (A) (A) (A) (A) (A) (A) (A) (A) (A) (A) (A)
                 (A) (A) (A) (A) (A) (A) (A) (A) (A) (A)
 The electronic state is 1-A.
 Alpha  occ. eigenvalues --  -88.70809 -88.65853 -18.99323 -18.98964 -18.87555
 Alpha  occ. eigenvalues --  -18.87259 -18.86541 -18.86075 -14.15272 -14.14359
 Alpha  occ. eigenvalues --  -10.08142 -10.07522 -10.06136 -10.05716 -10.05415
 Alpha  occ. eigenvalues --  -10.04695 -10.04662 -10.04342 -10.03634 -10.03055
 Alpha  occ. eigenvalues --  -10.02073 -10.01179 -10.00379 -10.00290 -10.00170
 Alpha  occ. eigenvalues --   -9.97615  -9.97129  -9.97039  -9.96894  -9.95546
 Alpha  occ. eigenvalues --   -9.95348  -9.95115  -9.94859  -9.94761  -9.94617
 Alpha  occ. eigenvalues --   -9.94603  -7.79392  -7.74401  -5.75698  -5.75328
 Alpha  occ. eigenvalues --   -5.74954  -5.70734  -5.70295  -5.69944  -0.91038
 Alpha  occ. eigenvalues --   -0.90456  -0.84152  -0.83429  -0.82076  -0.81318
 Alpha  occ. eigenvalues --   -0.72429  -0.71635  -0.71469  -0.68021  -0.66108
 Alpha  occ. eigenvalues --   -0.61274  -0.59686  -0.58878  -0.58340  -0.57169
 Alpha  occ. eigenvalues --   -0.54687  -0.53463  -0.52630  -0.52158  -0.51910
 Alpha  occ. eigenvalues --   -0.50224  -0.49003  -0.45811  -0.43143  -0.42397
 Alpha  occ. eigenvalues --   -0.41661  -0.41340  -0.39944  -0.39513  -0.38630
 Alpha  occ. eigenvalues --   -0.36581  -0.36000  -0.33395  -0.33232  -0.32203
 Alpha  occ. eigenvalues --   -0.31482  -0.31445  -0.31025  -0.30284  -0.29351
 Alpha  occ. eigenvalues --   -0.28699  -0.28219  -0.27554  -0.26714  -0.26657
 Alpha  occ. eigenvalues --   -0.25726  -0.25171  -0.24965  -0.24782  -0.23821
 Alpha  occ. eigenvalues --   -0.23640  -0.23131  -0.22390  -0.21660  -0.21112
 Alpha  occ. eigenvalues --   -0.20930  -0.20819  -0.20405  -0.20164  -0.19670
 Alpha  occ. eigenvalues --   -0.19414  -0.19291  -0.18611  -0.18476  -0.18113
 Alpha  occ. eigenvalues --   -0.17592  -0.17121  -0.16983  -0.16609  -0.15765
 Alpha  occ. eigenvalues --   -0.15418  -0.14709  -0.14237  -0.12355  -0.11981
 Alpha  occ. eigenvalues --   -0.10410  -0.09300  -0.07398  -0.06808  -0.06640
 Alpha  occ. eigenvalues --   -0.06237  -0.05742  -0.05385  -0.04849  -0.04365
 Alpha  occ. eigenvalues --   -0.03523  -0.01764  -0.01001   0.01080   0.08687
 Alpha virt. eigenvalues --    0.12442   0.13081   0.13498   0.14126   0.15802
 Alpha virt. eigenvalues --    0.16619   0.16763   0.16943   0.16965   0.17453
 Alpha virt. eigenvalues --    0.17893   0.17992   0.18437   0.18665   0.19110
 Alpha virt. eigenvalues --    0.19486   0.19734   0.19907   0.20212   0.20503
 Alpha virt. eigenvalues --    0.20696   0.20888   0.21043   0.21161   0.21358
 Alpha virt. eigenvalues --    0.21726   0.22115   0.22327   0.22929   0.23007
 Alpha virt. eigenvalues --    0.23493   0.23827   0.24034   0.24264   0.24698
 Alpha virt. eigenvalues --    0.24764   0.25096   0.25128   0.25545   0.25754
 Alpha virt. eigenvalues --    0.25872   0.26249   0.26467   0.26626   0.26755
 Alpha virt. eigenvalues --    0.26984   0.27349   0.27458   0.27977   0.28157
 Alpha virt. eigenvalues --    0.28474   0.28488   0.28936   0.29235   0.29338
 Alpha virt. eigenvalues --    0.29522   0.29860   0.30115   0.30263   0.30718
 Alpha virt. eigenvalues --    0.30945   0.31230   0.31353   0.31926   0.32186
 Alpha virt. eigenvalues --    0.32518   0.32745   0.32794   0.33113   0.33344
 Alpha virt. eigenvalues --    0.33487   0.33909   0.34021   0.34234   0.34541
 Alpha virt. eigenvalues --    0.34699   0.34815   0.35202   0.35392   0.35476
 Alpha virt. eigenvalues --    0.35622   0.35867   0.36007   0.36591   0.36780
 Alpha virt. eigenvalues --    0.36856   0.37118   0.37483   0.37609   0.37673
 Alpha virt. eigenvalues --    0.37942   0.38130   0.38496   0.38677   0.38928
 Alpha virt. eigenvalues --    0.39288   0.39472   0.39698   0.39897   0.40120
 Alpha virt. eigenvalues --    0.40229   0.40381   0.40865   0.41168   0.41312
 Alpha virt. eigenvalues --    0.41609   0.41957   0.42079   0.42350   0.42650
 Alpha virt. eigenvalues --    0.42856   0.43108   0.43181   0.43467   0.43641
 Alpha virt. eigenvalues --    0.44000   0.44157   0.44453   0.44707   0.44997
 Alpha virt. eigenvalues --    0.45090   0.45387   0.45466   0.45512   0.45796
 Alpha virt. eigenvalues --    0.46035   0.46076   0.46416   0.46782   0.47034
 Alpha virt. eigenvalues --    0.47079   0.47241   0.47604   0.47695   0.48099
 Alpha virt. eigenvalues --    0.48194   0.48534   0.48738   0.49045   0.49221
 Alpha virt. eigenvalues --    0.49285   0.49825   0.49899   0.50127   0.50276
 Alpha virt. eigenvalues --    0.50440   0.50680   0.50988   0.51263   0.51426
 Alpha virt. eigenvalues --    0.51478   0.51829   0.52190   0.52411   0.52493
 Alpha virt. eigenvalues --    0.52688   0.52883   0.53306   0.53584   0.54239
 Alpha virt. eigenvalues --    0.54275   0.54666   0.54958   0.55382   0.55561
 Alpha virt. eigenvalues --    0.55858   0.56027   0.56574   0.56684   0.57373
 Alpha virt. eigenvalues --    0.57975   0.58504   0.58812   0.59282   0.59497
 Alpha virt. eigenvalues --    0.59988   0.60105   0.60386   0.60773   0.60864
 Alpha virt. eigenvalues --    0.61298   0.61460   0.62001   0.62108   0.63299
 Alpha virt. eigenvalues --    0.63547   0.63652   0.64197   0.64502   0.64882
 Alpha virt. eigenvalues --    0.65118   0.65294   0.65494   0.65834   0.66060
 Alpha virt. eigenvalues --    0.66439   0.67405   0.67774   0.68661   0.68961
 Alpha virt. eigenvalues --    0.69465   0.70540   0.71116   0.71492   0.71774
 Alpha virt. eigenvalues --    0.72573   0.72756   0.73266   0.73552   0.74131
 Alpha virt. eigenvalues --    0.74504   0.74851   0.75547   0.75987   0.76668
 Alpha virt. eigenvalues --    0.76998   0.77356   0.77715   0.77895   0.78000
 Alpha virt. eigenvalues --    0.78515   0.78587   0.79186   0.79589   0.79975
 Alpha virt. eigenvalues --    0.80154   0.80647   0.80892   0.81191   0.81730
 Alpha virt. eigenvalues --    0.82610   0.82989   0.83141   0.83656   0.83783
 Alpha virt. eigenvalues --    0.84389   0.85010   0.85114   0.85676   0.85734
 Alpha virt. eigenvalues --    0.86023   0.86690   0.86866   0.87408   0.87722
 Alpha virt. eigenvalues --    0.88088   0.88428   0.88857   0.89164   0.89317
 Alpha virt. eigenvalues --    0.89746   0.89979   0.90325   0.90917   0.91165
 Alpha virt. eigenvalues --    0.91886   0.92305   0.92410   0.92789   0.93045
 Alpha virt. eigenvalues --    0.93488   0.93773   0.94114   0.95018   0.95357
 Alpha virt. eigenvalues --    0.95739   0.95997   0.96266   0.96568   0.96682
 Alpha virt. eigenvalues --    0.97229   0.97885   0.98331   0.98682   0.98794
 Alpha virt. eigenvalues --    0.99036   0.99498   0.99606   1.00689   1.00933
 Alpha virt. eigenvalues --    1.01613   1.01789   1.01993   1.02321   1.02512
 Alpha virt. eigenvalues --    1.04440   1.05064   1.06176   1.06576   1.06901
 Alpha virt. eigenvalues --    1.07575   1.08240   1.08832   1.09321   1.09684
 Alpha virt. eigenvalues --    1.10468   1.11118   1.11584   1.12131   1.12450
 Alpha virt. eigenvalues --    1.13508   1.13748   1.14856   1.14934   1.15918
 Alpha virt. eigenvalues --    1.16203   1.16543   1.17091   1.17623   1.17657
 Alpha virt. eigenvalues --    1.18301   1.18615   1.18882   1.19351   1.19754
 Alpha virt. eigenvalues --    1.20165   1.20259   1.20717   1.21017   1.21784
 Alpha virt. eigenvalues --    1.21881   1.22357   1.22684   1.23444   1.23916
 Alpha virt. eigenvalues --    1.24498   1.24586   1.25106   1.25655   1.26222
 Alpha virt. eigenvalues --    1.26460   1.26617   1.26916   1.27544   1.27654
 Alpha virt. eigenvalues --    1.28453   1.29223   1.29464   1.29491   1.30360
 Alpha virt. eigenvalues --    1.31643   1.31964   1.32436   1.33225   1.34100
 Alpha virt. eigenvalues --    1.34828   1.35395   1.35907   1.36393   1.36449
 Alpha virt. eigenvalues --    1.37376   1.38197   1.39307   1.39854   1.40291
 Alpha virt. eigenvalues --    1.41443   1.41708   1.42280   1.42727   1.43410
 Alpha virt. eigenvalues --    1.43755   1.44272   1.44887   1.46223   1.46503
 Alpha virt. eigenvalues --    1.48154   1.48952   1.49411   1.50033   1.50586
 Alpha virt. eigenvalues --    1.50934   1.51607   1.51910   1.52128   1.52378
 Alpha virt. eigenvalues --    1.53067   1.53390   1.55648   1.56088   1.56979
 Alpha virt. eigenvalues --    1.57356   1.57712   1.58178   1.58590   1.59664
 Alpha virt. eigenvalues --    1.60965   1.61227   1.61804   1.62562   1.63135
 Alpha virt. eigenvalues --    1.64163   1.65176   1.65274   1.65500   1.65744
 Alpha virt. eigenvalues --    1.66399   1.66757   1.68315   1.68711   1.69398
 Alpha virt. eigenvalues --    1.69740   1.70429   1.70505   1.71084   1.71447
 Alpha virt. eigenvalues --    1.72277   1.72824   1.73489   1.74245   1.74811
 Alpha virt. eigenvalues --    1.74944   1.75641   1.75893   1.76367   1.76661
 Alpha virt. eigenvalues --    1.77044   1.78037   1.78119   1.78717   1.79242
 Alpha virt. eigenvalues --    1.79503   1.80147   1.80774   1.81652   1.81909
 Alpha virt. eigenvalues --    1.82343   1.82953   1.83250   1.84300   1.84697
 Alpha virt. eigenvalues --    1.85586   1.86261   1.86476   1.87038   1.88081
 Alpha virt. eigenvalues --    1.88437   1.89318   1.90301   1.91356   1.91704
 Alpha virt. eigenvalues --    1.92058   1.92536   1.93336   1.93635   1.94734
 Alpha virt. eigenvalues --    1.94952   1.95354   1.96097   1.96426   1.96945
 Alpha virt. eigenvalues --    1.97973   1.98433   1.99960   2.00227   2.00588
 Alpha virt. eigenvalues --    2.01399   2.01510   2.02446   2.04053   2.04208
 Alpha virt. eigenvalues --    2.04809   2.05327   2.07162   2.08362   2.08684
 Alpha virt. eigenvalues --    2.10101   2.10515   2.11110   2.11359   2.12579
 Alpha virt. eigenvalues --    2.12661   2.13144   2.13789   2.14082   2.14699
 Alpha virt. eigenvalues --    2.15368   2.15766   2.16830   2.17105   2.17815
 Alpha virt. eigenvalues --    2.18900   2.19139   2.19628   2.20050   2.20977
 Alpha virt. eigenvalues --    2.21262   2.22401   2.22688   2.23737   2.24226
 Alpha virt. eigenvalues --    2.24364   2.24766   2.25121   2.25622   2.26111
 Alpha virt. eigenvalues --    2.26873   2.27005   2.27948   2.28235   2.28533
 Alpha virt. eigenvalues --    2.29239   2.30483   2.30694   2.31895   2.32338
 Alpha virt. eigenvalues --    2.33068   2.34217   2.34756   2.36180   2.36782
 Alpha virt. eigenvalues --    2.37228   2.38089   2.39643   2.40689   2.41265
 Alpha virt. eigenvalues --    2.41978   2.42684   2.44209   2.45006   2.45360
 Alpha virt. eigenvalues --    2.48188   2.48878   2.50272   2.52085   2.55994
 Alpha virt. eigenvalues --    2.56382   2.57223   2.58050   2.58473   2.58977
 Alpha virt. eigenvalues --    2.59547   2.60359   2.61156   2.61836   2.62073
 Alpha virt. eigenvalues --    2.63043   2.64011   2.64113   2.65983   2.66383
 Alpha virt. eigenvalues --    2.67161   2.68213   2.68721   2.69337   2.69625
 Alpha virt. eigenvalues --    2.70793   2.70824   2.71855   2.72247   2.72414
 Alpha virt. eigenvalues --    2.73045   2.73688   2.75669   2.76202   2.77665
 Alpha virt. eigenvalues --    2.78293   2.80187   2.80521   2.81318   2.81755
 Alpha virt. eigenvalues --    2.83774   2.84922   2.85997   2.86499   2.87074
 Alpha virt. eigenvalues --    2.88797   2.89023   2.89847   2.90128   2.91284
 Alpha virt. eigenvalues --    2.91457   2.92618   2.93638   2.93804   2.94557
 Alpha virt. eigenvalues --    2.95243   2.95392   2.95827   2.96463   2.96499
 Alpha virt. eigenvalues --    2.98164   2.99842   3.00256   3.00973   3.02299
 Alpha virt. eigenvalues --    3.02747   3.03697   3.06368   3.07107   3.07811
 Alpha virt. eigenvalues --    3.08794   3.10052   3.10551   3.11198   3.11859
 Alpha virt. eigenvalues --    3.12308   3.12635   3.13816   3.14430   3.14900
 Alpha virt. eigenvalues --    3.15036   3.15905   3.16288   3.16916   3.17579
 Alpha virt. eigenvalues --    3.17893   3.18584   3.19424   3.20563   3.20851
 Alpha virt. eigenvalues --    3.22216   3.23183   3.24041   3.25387   3.26210
 Alpha virt. eigenvalues --    3.29414   3.30134   3.31381   3.32070   3.32604
 Alpha virt. eigenvalues --    3.34669   3.36694   3.37947   3.38479   3.39139
 Alpha virt. eigenvalues --    3.39347   3.41136   3.41618   3.41698   3.42416
 Alpha virt. eigenvalues --    3.44737   3.46897   3.48228   3.49646   3.50175
 Alpha virt. eigenvalues --    3.52322   3.54043   3.54536   3.55923   3.58200
 Alpha virt. eigenvalues --    3.58675   3.58888   3.59277   3.60207   3.61389
 Alpha virt. eigenvalues --    3.62813   3.63446   3.65065   3.66345   3.67018
 Alpha virt. eigenvalues --    3.69059   3.69468   3.70786   3.73240   3.73615
 Alpha virt. eigenvalues --    3.75045   3.78746   3.82316   3.83415   3.84781
 Alpha virt. eigenvalues --    3.86327   3.88734   3.89700   3.91217   3.91641
 Alpha virt. eigenvalues --    3.92237   3.92264   3.92862   3.93407   3.94001
 Alpha virt. eigenvalues --    3.96100   3.98202   4.01276   4.04964   4.06723
 Alpha virt. eigenvalues --    4.08071   4.13961   4.15126   4.15836   4.17376
 Alpha virt. eigenvalues --    4.17569   4.20445   4.22546   4.25466   4.25661
 Alpha virt. eigenvalues --    4.27612   4.29132   4.31991   4.37768   4.39541
 Alpha virt. eigenvalues --    4.43453   4.49542   4.51181   4.60670   4.62997
 Alpha virt. eigenvalues --    4.65922   4.74149   4.89748   5.10156   5.10265
 Alpha virt. eigenvalues --    5.11787   5.13724   5.19427   5.20374   5.28122
 Alpha virt. eigenvalues --    5.29836   5.30228   5.33128   5.35557   5.37771
 Alpha virt. eigenvalues --    5.48999   5.51201   5.53414   5.57315   5.59907
 Alpha virt. eigenvalues --    5.61129   5.94304   5.97951   6.00077   6.04889
 Alpha virt. eigenvalues --    6.05975   6.09974   8.19965   8.29491  17.46670
 Alpha virt. eigenvalues --   17.57667  17.67302  17.70372  17.79679  17.84996
 Alpha virt. eigenvalues --   23.71943  23.79031  23.92010  24.00454  24.05089
 Alpha virt. eigenvalues --   24.05842  24.06571  24.07557  24.09685  24.10596
 Alpha virt. eigenvalues --   24.12105  24.12595  24.13734  24.15379  24.16544
 Alpha virt. eigenvalues --   24.20359  24.20672  24.21835  24.22609  24.24629
 Alpha virt. eigenvalues --   24.26312  24.31393  24.31566  24.33653  24.39407
 Alpha virt. eigenvalues --   24.40455  35.79588  35.82852  50.13782  50.15390
 Alpha virt. eigenvalues --   50.26798  50.29205  50.30632  50.32580 189.37341
 Alpha virt. eigenvalues --  189.47919
          Condensed to atoms (all electrons):
 Mulliken charges:
               1
     1  C    0.320196
     2  C   -0.143265
     3  C    0.113678
     4  C    0.182661
     5  C    0.159250
     6  C   -0.347649
     7  C    0.118424
     8  C    0.087708
     9  C    0.422570
    10  C   -0.324090
    11  C    0.103263
    12  C    0.185396
    13  C   -0.487976
    14  C   -0.670455
    15  H    0.098355
    16  H    0.102986
    17  H    0.112989
    18  N   -0.141126
    19  N   -0.135921
    20  O   -0.410027
    21  O   -0.397886
    22  O   -0.402806
    23  O   -0.280734
    24  C   -0.202585
    25  H    0.139469
    26  H    0.137717
    27  H    0.155922
    28  C   -0.183802
    29  H    0.136114
    30  H    0.135020
    31  H    0.155626
    32  C   -0.050926
    33  C   -0.630026
    34  S   -0.584436
    35  C   -0.248260
    36  H    0.107726
    37  C    0.817884
    38  O   -0.133555
    39  C    0.801848
    40  C   -0.233910
    41  C    0.004044
    42  S   -0.337622
    43  H    0.129721
    44  H    0.138582
    45  H    0.139122
    46  C   -0.580454
    47  O   -0.095356
    48  C   -0.338505
    49  H    0.095889
    50  C   -0.252494
    51  H    0.114669
    52  H    0.118484
    53  H    0.163569
    54  H    0.114985
 Sum of Mulliken charges =  -2.00000
 Mulliken charges with hydrogens summed into heavy atoms:
               1
     1  C    0.320196
     2  C   -0.143265
     3  C    0.113678
     4  C    0.182661
     5  C    0.159250
     6  C   -0.234660
     7  C    0.118424
     8  C    0.087708
     9  C    0.422570
    10  C   -0.324090
    11  C    0.103263
    12  C    0.185396
    13  C   -0.384990
    14  C   -0.572100
    18  N   -0.141126
    19  N   -0.135921
    20  O   -0.410027
    21  O   -0.397886
    22  O   -0.402806
    23  O   -0.280734
    24  C    0.230523
    28  C    0.242957
    32  C   -0.050926
    33  C   -0.522299
    34  S   -0.584436
    35  C   -0.248260
    37  C    0.817884
    38  O   -0.133555
    39  C    0.801848
    40  C    0.173515
    41  C    0.004044
    42  S   -0.337622
    46  C   -0.484565
    47  O   -0.095356
    48  C   -0.223836
    50  C    0.144544
 Electronic spatial extent (au):  <R**2>=          22474.3494
 Charge=             -2.0000 electrons
 Dipole moment (field-independent basis, Debye):
    X=             15.9501    Y=             -2.2660    Z=              0.0695  Tot=             16.1104
 Quadrupole moment (field-independent basis, Debye-Ang):
   XX=           -423.3570   YY=           -297.5364   ZZ=           -233.9891
   XY=             15.5044   XZ=              6.0768   YZ=             21.9273
 Traceless Quadrupole moment (field-independent basis, Debye-Ang):
   XX=           -105.0628   YY=             20.7578   ZZ=             84.3050
   XY=             15.5044   XZ=              6.0768   YZ=             21.9273
 Octapole moment (field-independent basis, Debye-Ang**2):
  XXX=            567.3636  YYY=           -106.5314  ZZZ=              2.4233  XYY=            237.5650
  XXY=             65.4214  XXZ=            -17.0573  XZZ=             22.8139  YZZ=             -4.4553
  YYZ=             10.3275  XYZ=            -15.4379
 Hexadecapole moment (field-independent basis, Debye-Ang**3):
 XXXX=         -30260.6409 YYYY=          -8612.9104 ZZZZ=          -1224.4455 XXXY=            152.3928
 XXXZ=            357.0358 YYYX=            466.6329 YYYZ=            373.1079 ZZZX=            -28.7785
 ZZZY=             52.3779 XXYY=          -5839.5501 XXZZ=          -4213.4897 YYZZ=          -1426.6989
 XXYZ=            304.2371 YYXZ=            -55.2941 ZZXY=             75.9781
 N-N= 4.106870307795D+03 E-N=-1.381343776714D+04  KE= 2.352562410105D+03
 Calling FoFJK, ICntrl=      2127 FMM=F ISym2X=0 I1Cent= 0 IOpClX= 0 NMat=1 NMatS=1 NMatT=0.
 ***** Axes restored to original set *****
 -------------------------------------------------------------------
 Center     Atomic                   Forces (Hartrees/Bohr)
 Number     Number              X              Y              Z
 -------------------------------------------------------------------
      1        6          -0.002208593    0.044945768    0.007745484
      2        6          -0.025336184   -0.031453750   -0.002829177
      3        6          -0.004465500   -0.007545456   -0.001452609
      4        6           0.014576009   -0.035821878   -0.005295689
      5        6           0.024596399    0.037978471    0.004778560
      6        6           0.033803704    0.032188928   -0.006713979
      7        6           0.002205379    0.008002400    0.001754756
      8        6          -0.013319386    0.040552585    0.015469524
      9        6           0.010155684   -0.046757979   -0.014110293
     10        6          -0.028346780   -0.040908651   -0.010558455
     11        6           0.008379156   -0.042777572   -0.006753494
     12        6           0.025194836    0.028842260    0.004591178
     13        6          -0.029512677   -0.028762064   -0.004119805
     14        6          -0.015262447    0.038665713    0.006009955
     15        1          -0.000128949    0.000869753    0.000146601
     16        1          -0.000054287   -0.000917581   -0.000261382
     17        1           0.001538092    0.001421704    0.001801151
     18        7          -0.001830761    0.003623576    0.000126788
     19        7          -0.002084587   -0.004439887   -0.001067099
     20        8           0.016720060   -0.026468250   -0.004258324
     21        8          -0.028368018   -0.017118874   -0.001884604
     22        8          -0.019146988    0.026024509    0.004148686
     23        8           0.014331220    0.023717552   -0.001509204
     24        6          -0.001177568   -0.004766084   -0.002346914
     25        1           0.001145616    0.000625586    0.000308298
     26        1           0.000589612    0.000278410    0.000912969
     27        1          -0.000967480   -0.000343116   -0.000028384
     28        6           0.000661532    0.006125903    0.000328200
     29        1           0.000542197   -0.001041639    0.000200007
     30        1           0.000683652   -0.001252356   -0.000070393
     31        1          -0.000659567    0.000726451    0.000178302
     32        6          -0.007699736    0.016719466    0.021310463
     33        6           0.004505000   -0.006158302   -0.003396290
     34       16           0.010747898   -0.008150835   -0.003021018
     35        6          -0.009647707    0.005228422    0.010905402
     36        1          -0.002040802   -0.000695381   -0.001035207
     37        6           0.008025967   -0.008454280   -0.000724588
     38        8           0.010537652   -0.006668419   -0.014677340
     39        6          -0.008646284   -0.003637964   -0.002414658
     40        6           0.000153207    0.003599745    0.005149888
     41        6           0.010958014    0.000322116   -0.002858742
     42       16          -0.001065298   -0.000967034   -0.000791940
     43        1           0.000594258   -0.000213069   -0.000401114
     44        1          -0.000464252    0.000829135   -0.000359423
     45        1           0.000330166   -0.000658846    0.000642729
     46        6          -0.005402592   -0.002272208   -0.001670837
     47        8          -0.005425835    0.007568833    0.012447343
     48        6           0.013024544    0.004539567    0.002260166
     49        1           0.000226218    0.000374438    0.000333087
     50        6          -0.000584529   -0.005275510   -0.007874306
     51        1          -0.000979074   -0.000254627    0.000356050
     52        1           0.000236821    0.000244053    0.000198858
     53        1          -0.000522364   -0.000134610   -0.000441159
     54        1           0.000885352   -0.000099127    0.000821985
 -------------------------------------------------------------------
 Cartesian Forces:  Max     0.046757979 RMS     0.013708458

 GradGradGradGradGradGradGradGradGradGradGradGradGradGradGradGradGradGrad
 Berny optimization.
 FormGI is forming the generalized inverse of G from B-inverse, IUseBI=4.
 Internal  Forces:  Max     0.058979904 RMS     0.009831459
 Search for a local minimum.
 Step number   1 out of a maximum of  307
 All quantities printed in internal units (Hartrees-Bohrs-Radians)
 Mixed Optimization -- RFO/linear search
 Second derivative matrix not updated -- first step.
 ITU=  0
     Eigenvalues ---    0.00803   0.00803   0.01176   0.01203   0.01245
     Eigenvalues ---    0.01292   0.01308   0.01311   0.01367   0.01380
     Eigenvalues ---    0.01419   0.01429   0.01456   0.01496   0.01515
     Eigenvalues ---    0.01568   0.01576   0.01577   0.01622   0.01651
     Eigenvalues ---    0.01695   0.01711   0.01713   0.01719   0.01754
     Eigenvalues ---    0.01783   0.01803   0.01847   0.01965   0.02040
     Eigenvalues ---    0.02048   0.02069   0.02075   0.02080   0.02135
     Eigenvalues ---    0.02149   0.02163   0.02178   0.02197   0.02222
     Eigenvalues ---    0.02237   0.02246   0.07556   0.07572   0.07690
     Eigenvalues ---    0.07700   0.10066   0.10071   0.10634   0.10635
     Eigenvalues ---    0.15983   0.15999   0.15999   0.16000   0.16000
     Eigenvalues ---    0.16000   0.16000   0.16000   0.16000   0.16000
     Eigenvalues ---    0.16000   0.16000   0.16000   0.16000   0.16000
     Eigenvalues ---    0.16000   0.16000   0.16000   0.22531   0.22583
     Eigenvalues ---    0.23518   0.23581   0.24516   0.24747   0.24864
     Eigenvalues ---    0.24931   0.24952   0.24986   0.24987   0.24988
     Eigenvalues ---    0.24992   0.24994   0.24997   0.24997   0.24998
     Eigenvalues ---    0.24998   0.25000   0.25000   0.25000   0.25000
     Eigenvalues ---    0.25000   0.25000   0.25000   0.25000   0.25000
     Eigenvalues ---    0.25000   0.28796   0.28951   0.30065   0.32116
     Eigenvalues ---    0.32582   0.32774   0.33111   0.33787   0.33966
     Eigenvalues ---    0.33971   0.33983   0.34075   0.34354   0.34466
     Eigenvalues ---    0.34577   0.34629   0.34693   0.34804   0.34942
     Eigenvalues ---    0.35198   0.35218   0.35468   0.35553   0.35582
     Eigenvalues ---    0.35829   0.35906   0.36078   0.36083   0.36143
     Eigenvalues ---    0.36396   0.36662   0.39352   0.40194   0.40235
     Eigenvalues ---    0.40651   0.40763   0.41524   0.41779   0.41924
     Eigenvalues ---    0.42300   0.42738   0.43455   0.43947   0.44092
     Eigenvalues ---    0.44566   0.44594   0.45014   0.45406   0.46251
     Eigenvalues ---    0.47305   0.47593   0.49310   0.49505   0.52965
     Eigenvalues ---    0.53189   0.93281   0.93432   0.93989   0.94585
     Eigenvalues --- 1000.000001000.000001000.000001000.000001000.00000
     Eigenvalues --- 1000.000001000.000001000.000001000.000001000.00000
     Eigenvalues --- 1000.000001000.000001000.000001000.000001000.00000
     Eigenvalues --- 1000.000001000.000001000.000001000.000001000.00000
     Eigenvalues --- 1000.000001000.000001000.000001000.000001000.00000
     Eigenvalues --- 1000.000001000.000001000.000001000.000001000.00000
     Eigenvalues --- 1000.000001000.000001000.000001000.000001000.00000
     Eigenvalues --- 1000.000001000.000001000.000001000.000001000.00000
     Eigenvalues --- 1000.000001000.000001000.000001000.000001000.00000
     Eigenvalues --- 1000.000001000.000001000.000001000.000001000.00000
     Eigenvalues --- 1000.000001000.000001000.000001000.000001000.00000
     Eigenvalues --- 1000.000001000.000001000.000001000.000001000.00000
     Eigenvalues --- 1000.000001000.000001000.000001000.000001000.00000
     Eigenvalues --- 1000.000001000.000001000.000001000.000001000.00000
     Eigenvalues --- 1000.000001000.000001000.000001000.000001000.00000
     Eigenvalues --- 1000.000001000.000001000.000001000.000001000.00000
     Eigenvalues --- 1000.000001000.000001000.000001000.000001000.00000
     Eigenvalues --- 1000.000001000.000001000.000001000.000001000.00000
     Eigenvalues --- 1000.000001000.000001000.000001000.000001000.00000
     Eigenvalues --- 1000.000001000.000001000.000001000.000001000.00000
     Eigenvalues --- 1000.000001000.000001000.000001000.000001000.00000
     Eigenvalues --- 1000.000001000.000001000.000001000.000001000.00000
     Eigenvalues --- 1000.000001000.000001000.000001000.000001000.00000
     Eigenvalues --- 1000.000001000.000001000.000001000.000001000.00000
     Eigenvalues --- 1000.000001000.000001000.000001000.000001000.00000
     Eigenvalues --- 1000.000001000.000001000.000001000.000001000.00000
     Eigenvalues --- 1000.000001000.000001000.000001000.000001000.00000
     Eigenvalues --- 1000.000001000.000001000.000001000.000001000.00000
     Eigenvalues --- 1000.000001000.00000
 RFO step:  Lambda=-7.76358573D-02 EMin= 8.02933640D-03
 Linear search not attempted -- first point.
 Maximum step size (   0.300) exceeded in Quadratic search.
    -- Step size scaled by   0.699
 Iteration  1 RMS(Cart)=  0.33558902 RMS(Int)=  0.00787434
 Iteration  2 RMS(Cart)=  0.08079993 RMS(Int)=  0.00072299
 Iteration  3 RMS(Cart)=  0.00171028 RMS(Int)=  0.00059476
 Iteration  4 RMS(Cart)=  0.00000286 RMS(Int)=  0.00059476
 Iteration  5 RMS(Cart)=  0.00000001 RMS(Int)=  0.00059476
 Iteration  1 RMS(Cart)=  0.00023098 RMS(Int)=  0.00003756
 Iteration  2 RMS(Cart)=  0.00013035 RMS(Int)=  0.00004193
 Iteration  3 RMS(Cart)=  0.00007356 RMS(Int)=  0.00004754
 Iteration  4 RMS(Cart)=  0.00004151 RMS(Int)=  0.00005139
 Iteration  5 RMS(Cart)=  0.00002343 RMS(Int)=  0.00005373
 Iteration  6 RMS(Cart)=  0.00001322 RMS(Int)=  0.00005510
 Iteration  7 RMS(Cart)=  0.00000746 RMS(Int)=  0.00005588
 Iteration  8 RMS(Cart)=  0.00000421 RMS(Int)=  0.00005633
 Iteration  9 RMS(Cart)=  0.00000238 RMS(Int)=  0.00005658
 Iteration 10 RMS(Cart)=  0.00000134 RMS(Int)=  0.00005672
 Iteration 11 RMS(Cart)=  0.00000076 RMS(Int)=  0.00005681
 Variable       Old X    -DE/DX   Delta X   Delta X   Delta X     New X
                                 (Linear)    (Quad)   (Total)
    R1        2.80935  -0.02102   0.00000  -0.03554  -0.03553   2.77382
    R2        2.64584   0.00373   0.00000   0.00456   0.00455   2.65039
    R3        2.31147   0.03075   0.00000   0.02112   0.02112   2.33259
    R4        2.67311   0.00287   0.00000   0.00331   0.00331   2.67643
    R5        2.59267   0.01948   0.00000   0.02166   0.02164   2.61431
    R6        2.66894   0.00595   0.00000   0.00870   0.00871   2.67765
    R7        2.69164   0.01237   0.00000   0.01982   0.01986   2.71150
    R8        2.81049  -0.01993   0.00000  -0.03331  -0.03332   2.77718
    R9        2.62173   0.02435   0.00000   0.02978   0.02975   2.65148
   R10        2.65570   0.00269   0.00000   0.00341   0.00339   2.65909
   R11        2.30889   0.03240   0.00000   0.02212   0.02212   2.33101
   R12        2.70248  -0.02649   0.00000  -0.03925  -0.03927   2.66321
   R13        2.04786  -0.00017   0.00000  -0.00028  -0.00028   2.04758
   R14        2.70495   0.01815   0.00000   0.02969   0.02972   2.73468
   R15        2.68322   0.01053   0.00000   0.01652   0.01647   2.69969
   R16        2.68655   0.05278   0.00000   0.07462   0.07464   2.76118
   R17        2.81233  -0.01599   0.00000  -0.02641  -0.02634   2.78599
   R18        2.76359   0.01565   0.00000   0.02461   0.02461   2.78821
   R19        2.66221   0.00372   0.00000   0.00403   0.00409   2.66630
   R20        2.31391   0.02219   0.00000   0.01533   0.01533   2.32923
   R21        2.79415  -0.02533   0.00000  -0.04225  -0.04233   2.75182
   R22        2.63842  -0.00375   0.00000  -0.00622  -0.00622   2.63220
   R23        2.31456   0.03195   0.00000   0.02210   0.02210   2.33666
   R24        2.62448   0.02527   0.00000   0.03168   0.03168   2.65616
   R25        2.64561  -0.02594   0.00000  -0.03509  -0.03512   2.61049
   R26        2.04921  -0.00062   0.00000  -0.00101  -0.00101   2.04820
   R27        2.04741  -0.00016   0.00000  -0.00025  -0.00025   2.04716
   R28        2.77259  -0.00434   0.00000  -0.00692  -0.00692   2.76568
   R29        2.77252  -0.00475   0.00000  -0.00758  -0.00758   2.76495
   R30        2.06176   0.00089   0.00000   0.00147   0.00147   2.06323
   R31        2.06551  -0.00023   0.00000  -0.00038  -0.00038   2.06513
   R32        2.05322   0.00066   0.00000   0.00108   0.00108   2.05430
   R33        2.06368   0.00038   0.00000   0.00063   0.00063   2.06431
   R34        2.06281   0.00088   0.00000   0.00145   0.00145   2.06426
   R35        2.05355   0.00057   0.00000   0.00093   0.00093   2.05448
   R36        2.61058   0.00957   0.00000   0.01227   0.01242   2.62300
   R37        3.33390   0.00333   0.00000   0.00732   0.00746   3.34136
   R38        2.66206  -0.00148   0.00000  -0.00232  -0.00233   2.65973
   R39        2.03858   0.00167   0.00000   0.00265   0.00265   2.04124
   R40        3.30468   0.01067   0.00000   0.01912   0.01899   3.32368
   R41        2.64217  -0.00605   0.00000  -0.00863  -0.00880   2.63337
   R42        2.56986   0.01473   0.00000   0.01695   0.01695   2.58682
   R43        2.71235   0.00254   0.00000   0.00369   0.00369   2.71605
   R44        2.69205  -0.00619   0.00000  -0.00873  -0.00873   2.68332
   R45        2.63413   0.00421   0.00000   0.00533   0.00533   2.63946
   R46        3.32767   0.00440   0.00000   0.00828   0.00828   3.33595
   R47        2.05995   0.00072   0.00000   0.00118   0.00118   2.06113
   R48        2.07359  -0.00065   0.00000  -0.00108  -0.00108   2.07251
   R49        2.07388  -0.00092   0.00000  -0.00155  -0.00155   2.07233
   R50        2.68987   0.00076   0.00000   0.00099   0.00099   2.69086
   R51        2.56777   0.00764   0.00000   0.00876   0.00876   2.57654
   R52        3.26277   0.00459   0.00000   0.00801   0.00801   3.27079
   R53        2.58757   0.00203   0.00000   0.00243   0.00244   2.59000
   R54        2.04229   0.00054   0.00000   0.00086   0.00086   2.04315
   R55        2.69020  -0.00895   0.00000  -0.01258  -0.01258   2.67761
   R56        2.04349  -0.00102   0.00000  -0.00163  -0.00163   2.04186
   R57        2.07379   0.00025   0.00000   0.00041   0.00041   2.07420
   R58        2.05768   0.00030   0.00000   0.00049   0.00049   2.05818
   R59        2.07204   0.00114   0.00000   0.00191   0.00191   2.07395
    A1        2.03797  -0.00373   0.00000  -0.00856  -0.00856   2.02941
    A2        2.14521   0.01022   0.00000   0.02210   0.02210   2.16731
    A3        2.10001  -0.00649   0.00000  -0.01355  -0.01355   2.08646
    A4        2.10395   0.00161   0.00000   0.00516   0.00517   2.10911
    A5        2.08282  -0.00213   0.00000  -0.00322  -0.00323   2.07960
    A6        2.09624   0.00052   0.00000  -0.00190  -0.00190   2.09434
    A7        2.10093   0.00012   0.00000  -0.00153  -0.00154   2.09938
    A8        2.07104  -0.00119   0.00000  -0.00317  -0.00316   2.06788
    A9        2.11118   0.00108   0.00000   0.00475   0.00473   2.11591
   A10        2.10296  -0.00010   0.00000   0.00068   0.00070   2.10366
   A11        2.09911   0.00252   0.00000   0.00532   0.00528   2.10439
   A12        2.08110  -0.00241   0.00000  -0.00598  -0.00597   2.07513
   A13        2.03739  -0.00294   0.00000  -0.00597  -0.00598   2.03141
   A14        2.12972   0.00978   0.00000   0.02070   0.02071   2.15043
   A15        2.11607  -0.00684   0.00000  -0.01473  -0.01473   2.10134
   A16        2.15098   0.01178   0.00000   0.02403   0.02394   2.17492
   A17        2.04399  -0.00353   0.00000  -0.00479  -0.00488   2.03911
   A18        2.08722  -0.00809   0.00000  -0.01822  -0.01830   2.06892
   A19        2.11101   0.00261   0.00000   0.00631   0.00636   2.11736
   A20        2.04385  -0.00928   0.00000  -0.02076  -0.02074   2.02310
   A21        2.12832   0.00667   0.00000   0.01448   0.01439   2.14271
   A22        2.08678  -0.00951   0.00000  -0.01680  -0.01698   2.06981
   A23        2.04738  -0.01583   0.00000  -0.03118  -0.03129   2.01609
   A24        2.14662   0.02562   0.00000   0.05008   0.04991   2.19653
   A25        2.04892  -0.00406   0.00000  -0.00759  -0.00756   2.04136
   A26        2.00754  -0.05493   0.00000  -0.11769  -0.11772   1.88982
   A27        2.22643   0.05898   0.00000   0.12536   0.12535   2.35177
   A28        2.06022   0.00496   0.00000   0.01160   0.01165   2.07187
   A29        2.17370   0.01494   0.00000   0.03144   0.03129   2.20498
   A30        2.04919  -0.01987   0.00000  -0.04275  -0.04290   2.00629
   A31        2.01621  -0.00571   0.00000  -0.01362  -0.01374   2.00247
   A32        2.14188   0.01021   0.00000   0.02257   0.02259   2.16446
   A33        2.12500  -0.00447   0.00000  -0.00876  -0.00874   2.11626
   A34        2.10943   0.00134   0.00000   0.00414   0.00399   2.11342
   A35        2.11468   0.00491   0.00000   0.01180   0.01188   2.12655
   A36        2.05896  -0.00623   0.00000  -0.01586  -0.01580   2.04316
   A37        2.11176   0.00174   0.00000   0.00328   0.00324   2.11499
   A38        2.05670  -0.00014   0.00000   0.00051   0.00053   2.05723
   A39        2.11471  -0.00160   0.00000  -0.00377  -0.00375   2.11096
   A40        2.08567  -0.00095   0.00000  -0.00421  -0.00427   2.08140
   A41        2.07549   0.00137   0.00000   0.00476   0.00479   2.08028
   A42        2.12199  -0.00042   0.00000  -0.00051  -0.00049   2.12150
   A43        2.20043   0.00892   0.00000   0.01706   0.01711   2.21754
   A44        2.02023  -0.00420   0.00000  -0.00797  -0.00799   2.01224
   A45        2.06252  -0.00472   0.00000  -0.00909  -0.00912   2.05340
   A46        2.18316   0.00504   0.00000   0.01023   0.01022   2.19337
   A47        2.02959  -0.00170   0.00000  -0.00336  -0.00336   2.02623
[...]
 Alpha  occ. eigenvalues --   -0.29324  -0.28340  -0.27249  -0.27201  -0.26527
 Alpha  occ. eigenvalues --   -0.26111  -0.25459  -0.25170  -0.24808  -0.24663
 Alpha  occ. eigenvalues --   -0.23502  -0.23097  -0.22420  -0.21928  -0.21509
 Alpha  occ. eigenvalues --   -0.21119  -0.20822  -0.20693  -0.20380  -0.20004
 Alpha  occ. eigenvalues --   -0.19480  -0.19096  -0.18832  -0.18611  -0.18029
 Alpha  occ. eigenvalues --   -0.17856  -0.17396  -0.16834  -0.16360  -0.16033
 Alpha  occ. eigenvalues --   -0.15508  -0.14851  -0.14690  -0.12272  -0.11909
 Alpha  occ. eigenvalues --   -0.11433  -0.09834  -0.08889  -0.06840  -0.06729
 Alpha  occ. eigenvalues --   -0.06295  -0.06003  -0.05621  -0.05041  -0.04513
 Alpha  occ. eigenvalues --   -0.04463  -0.03377  -0.01579  -0.00300   0.06709
 Alpha virt. eigenvalues --    0.11999   0.12774   0.13523   0.14447   0.15791
 Alpha virt. eigenvalues --    0.15960   0.16451   0.16826   0.16916   0.17320
 Alpha virt. eigenvalues --    0.17429   0.17881   0.18511   0.18593   0.19018
 Alpha virt. eigenvalues --    0.19181   0.19287   0.19472   0.19505   0.20127
 Alpha virt. eigenvalues --    0.20527   0.20723   0.20907   0.21117   0.21324
 Alpha virt. eigenvalues --    0.21617   0.22058   0.22299   0.22504   0.22961
 Alpha virt. eigenvalues --    0.23003   0.23448   0.23870   0.23955   0.24292
 Alpha virt. eigenvalues --    0.24311   0.24688   0.24882   0.25017   0.25190
 Alpha virt. eigenvalues --    0.25846   0.25993   0.26217   0.26300   0.26718
 Alpha virt. eigenvalues --    0.26816   0.26879   0.27248   0.27351   0.27756
 Alpha virt. eigenvalues --    0.27866   0.28218   0.28478   0.28878   0.29217
 Alpha virt. eigenvalues --    0.29363   0.29571   0.29858   0.30017   0.30486
 Alpha virt. eigenvalues --    0.30782   0.30935   0.31267   0.31651   0.31871
 Alpha virt. eigenvalues --    0.32023   0.32304   0.32410   0.33005   0.33037
 Alpha virt. eigenvalues --    0.33202   0.33564   0.33730   0.33862   0.34074
 Alpha virt. eigenvalues --    0.34128   0.34422   0.34696   0.34923   0.35273
 Alpha virt. eigenvalues --    0.35385   0.35448   0.35976   0.36027   0.36499
 Alpha virt. eigenvalues --    0.36713   0.36857   0.37073   0.37368   0.37562
 Alpha virt. eigenvalues --    0.37736   0.38095   0.38146   0.38621   0.38924
 Alpha virt. eigenvalues --    0.39222   0.39303   0.39519   0.39700   0.39915
 Alpha virt. eigenvalues --    0.40103   0.40281   0.40578   0.40892   0.41209
 Alpha virt. eigenvalues --    0.41453   0.41514   0.41869   0.41944   0.42097
 Alpha virt. eigenvalues --    0.42247   0.42525   0.42763   0.43179   0.43328
 Alpha virt. eigenvalues --    0.43495   0.43699   0.44024   0.44223   0.44511
 Alpha virt. eigenvalues --    0.44633   0.44783   0.44929   0.45068   0.45223
 Alpha virt. eigenvalues --    0.45434   0.45822   0.45992   0.46192   0.46529
 Alpha virt. eigenvalues --    0.46693   0.46827   0.46913   0.47068   0.47525
 Alpha virt. eigenvalues --    0.47666   0.47729   0.48075   0.48284   0.48532
 Alpha virt. eigenvalues --    0.48717   0.48937   0.49171   0.49548   0.49744
 Alpha virt. eigenvalues --    0.49914   0.50088   0.50250   0.50406   0.50622
 Alpha virt. eigenvalues --    0.50907   0.50998   0.51316   0.51544   0.51694
 Alpha virt. eigenvalues --    0.51799   0.51953   0.52292   0.52833   0.52963
 Alpha virt. eigenvalues --    0.53441   0.53844   0.54078   0.54310   0.54838
 Alpha virt. eigenvalues --    0.55125   0.55772   0.55884   0.56191   0.56244
 Alpha virt. eigenvalues --    0.56874   0.57166   0.57519   0.57977   0.58409
 Alpha virt. eigenvalues --    0.59126   0.59215   0.59668   0.59943   0.60337
 Alpha virt. eigenvalues --    0.60598   0.60754   0.60937   0.61092   0.61892
 Alpha virt. eigenvalues --    0.62062   0.62532   0.63173   0.63428   0.63574
 Alpha virt. eigenvalues --    0.63872   0.64373   0.64469   0.65132   0.65583
 Alpha virt. eigenvalues --    0.65749   0.66211   0.66749   0.67330   0.67492
 Alpha virt. eigenvalues --    0.68390   0.68655   0.69189   0.69621   0.70543
 Alpha virt. eigenvalues --    0.70917   0.71153   0.71813   0.72158   0.73084
 Alpha virt. eigenvalues --    0.73440   0.73717   0.74016   0.74622   0.74916
 Alpha virt. eigenvalues --    0.75397   0.76255   0.76685   0.77158   0.77534
 Alpha virt. eigenvalues --    0.77900   0.77971   0.78359   0.78627   0.79134
 Alpha virt. eigenvalues --    0.79422   0.79962   0.80280   0.80642   0.81357
 Alpha virt. eigenvalues --    0.82039   0.82416   0.82732   0.83062   0.83241
 Alpha virt. eigenvalues --    0.83683   0.84187   0.84202   0.84526   0.84757
 Alpha virt. eigenvalues --    0.85377   0.85589   0.86037   0.86148   0.86317
 Alpha virt. eigenvalues --    0.86581   0.87068   0.87255   0.88129   0.88748
 Alpha virt. eigenvalues --    0.89197   0.89500   0.89600   0.89652   0.90170
 Alpha virt. eigenvalues --    0.90753   0.91094   0.91324   0.92031   0.92213
 Alpha virt. eigenvalues --    0.92782   0.93089   0.93381   0.93599   0.94016
 Alpha virt. eigenvalues --    0.94427   0.94755   0.94801   0.95156   0.95594
 Alpha virt. eigenvalues --    0.95877   0.96002   0.96395   0.96896   0.97015
 Alpha virt. eigenvalues --    0.97253   0.97906   0.98332   0.98962   0.99243
 Alpha virt. eigenvalues --    0.99530   0.99682   1.00777   1.00993   1.01450
 Alpha virt. eigenvalues --    1.02294   1.02435   1.03219   1.04248   1.04541
 Alpha virt. eigenvalues --    1.06065   1.06236   1.07055   1.07492   1.07752
 Alpha virt. eigenvalues --    1.08388   1.09086   1.09684   1.10251   1.10929
 Alpha virt. eigenvalues --    1.12096   1.12471   1.13125   1.13441   1.13892
 Alpha virt. eigenvalues --    1.14549   1.14848   1.15025   1.15784   1.16005
 Alpha virt. eigenvalues --    1.16542   1.17002   1.17176   1.17604   1.18537
 Alpha virt. eigenvalues --    1.18811   1.19061   1.19445   1.19607   1.19771
 Alpha virt. eigenvalues --    1.20589   1.20772   1.20972   1.21464   1.22196
 Alpha virt. eigenvalues --    1.22996   1.23435   1.23537   1.24216   1.24887
 Alpha virt. eigenvalues --    1.25057   1.25298   1.25621   1.26336   1.26830
 Alpha virt. eigenvalues --    1.27115   1.27981   1.28001   1.28382   1.28512
 Alpha virt. eigenvalues --    1.29472   1.30181   1.30556   1.30909   1.32023
 Alpha virt. eigenvalues --    1.32431   1.33323   1.34172   1.35012   1.35724
 Alpha virt. eigenvalues --    1.35917   1.36926   1.37256   1.38224   1.38396
 Alpha virt. eigenvalues --    1.39911   1.40266   1.40687   1.41348   1.41964
 Alpha virt. eigenvalues --    1.42593   1.43507   1.43982   1.44346   1.44928
 Alpha virt. eigenvalues --    1.45952   1.46893   1.47068   1.47512   1.48378
 Alpha virt. eigenvalues --    1.49073   1.49258   1.50202   1.50555   1.51430
 Alpha virt. eigenvalues --    1.51794   1.52258   1.52776   1.53232   1.53792
 Alpha virt. eigenvalues --    1.56042   1.56786   1.57392   1.58056   1.58410
 Alpha virt. eigenvalues --    1.58695   1.59631   1.61423   1.62623   1.63242
 Alpha virt. eigenvalues --    1.63767   1.64036   1.64766   1.65263   1.65627
 Alpha virt. eigenvalues --    1.65793   1.66168   1.66425   1.67153   1.68286
 Alpha virt. eigenvalues --    1.68698   1.69448   1.69779   1.69932   1.70370
 Alpha virt. eigenvalues --    1.71226   1.72027   1.72479   1.72975   1.73066
 Alpha virt. eigenvalues --    1.73640   1.74663   1.74839   1.75162   1.75538
 Alpha virt. eigenvalues --    1.76106   1.76313   1.76839   1.77070   1.78312
 Alpha virt. eigenvalues --    1.78374   1.78695   1.79272   1.80073   1.80983
 Alpha virt. eigenvalues --    1.81144   1.81641   1.82294   1.82969   1.83346
 Alpha virt. eigenvalues --    1.83851   1.84200   1.85470   1.86115   1.86494
 Alpha virt. eigenvalues --    1.87284   1.87850   1.88681   1.89296   1.90019
 Alpha virt. eigenvalues --    1.91048   1.91222   1.91557   1.91982   1.92492
 Alpha virt. eigenvalues --    1.93375   1.93400   1.94091   1.94731   1.95759
 Alpha virt. eigenvalues --    1.96251   1.96448   1.97132   1.98011   1.99179
 Alpha virt. eigenvalues --    1.99398   1.99772   2.01060   2.01534   2.02352
 Alpha virt. eigenvalues --    2.02888   2.03235   2.03832   2.04691   2.06337
 Alpha virt. eigenvalues --    2.07685   2.08433   2.08983   2.09065   2.09563
 Alpha virt. eigenvalues --    2.11338   2.11454   2.11582   2.11873   2.12187
 Alpha virt. eigenvalues --    2.13275   2.13678   2.14210   2.15160   2.15512
 Alpha virt. eigenvalues --    2.16818   2.17457   2.17937   2.18261   2.19231
 Alpha virt. eigenvalues --    2.19468   2.20376   2.20968   2.21595   2.22289
 Alpha virt. eigenvalues --    2.22952   2.23157   2.23779   2.24620   2.24876
 Alpha virt. eigenvalues --    2.25230   2.25606   2.26179   2.26677   2.26928
 Alpha virt. eigenvalues --    2.27462   2.28746   2.29517   2.30042   2.30323
 Alpha virt. eigenvalues --    2.31814   2.32317   2.32857   2.33922   2.34685
 Alpha virt. eigenvalues --    2.35867   2.36499   2.36845   2.38693   2.39336
 Alpha virt. eigenvalues --    2.39994   2.41326   2.41958   2.42961   2.44328
 Alpha virt. eigenvalues --    2.44447   2.45559   2.48376   2.49474   2.51090
 Alpha virt. eigenvalues --    2.51784   2.55638   2.56079   2.56487   2.57346
 Alpha virt. eigenvalues --    2.58132   2.58860   2.59773   2.59959   2.60914
 Alpha virt. eigenvalues --    2.61390   2.62462   2.63103   2.63843   2.64823
 Alpha virt. eigenvalues --    2.66249   2.66755   2.67449   2.67662   2.68100
 Alpha virt. eigenvalues --    2.69187   2.70523   2.70786   2.71587   2.71888
 Alpha virt. eigenvalues --    2.72587   2.73021   2.74639   2.75386   2.75924
 Alpha virt. eigenvalues --    2.76047   2.77710   2.78471   2.80489   2.81028
 Alpha virt. eigenvalues --    2.81926   2.82790   2.83623   2.84588   2.86031
 Alpha virt. eigenvalues --    2.86345   2.87551   2.87899   2.88154   2.88476
 Alpha virt. eigenvalues --    2.89299   2.90424   2.90764   2.90972   2.92021
 Alpha virt. eigenvalues --    2.92661   2.93939   2.94480   2.94756   2.95833
 Alpha virt. eigenvalues --    2.96293   2.96532   2.97944   2.99797   3.00093
 Alpha virt. eigenvalues --    3.00749   3.01438   3.02483   3.03174   3.05708
 Alpha virt. eigenvalues --    3.06667   3.07199   3.07986   3.09020   3.09912
 Alpha virt. eigenvalues --    3.10719   3.11375   3.12103   3.12315   3.12997
 Alpha virt. eigenvalues --    3.13289   3.13621   3.14175   3.15150   3.15346
 Alpha virt. eigenvalues --    3.15688   3.16360   3.16735   3.18024   3.18704
 Alpha virt. eigenvalues --    3.19547   3.21113   3.21487   3.23471   3.26367
 Alpha virt. eigenvalues --    3.26781   3.27177   3.29764   3.30483   3.31178
 Alpha virt. eigenvalues --    3.32537   3.33238   3.34990   3.35621   3.37349
 Alpha virt. eigenvalues --    3.38212   3.39712   3.39836   3.41276   3.41941
 Alpha virt. eigenvalues --    3.42427   3.42832   3.44809   3.45575   3.47560
 Alpha virt. eigenvalues --    3.48218   3.49307   3.51493   3.52749   3.53163
 Alpha virt. eigenvalues --    3.54732   3.55771   3.56012   3.56560   3.56813
 Alpha virt. eigenvalues --    3.58404   3.59919   3.60862   3.61802   3.62805
 Alpha virt. eigenvalues --    3.63396   3.64221   3.65342   3.66881   3.69086
 Alpha virt. eigenvalues --    3.70932   3.72430   3.73068   3.75462   3.80636
 Alpha virt. eigenvalues --    3.81996   3.83099   3.84071   3.87346   3.88631
 Alpha virt. eigenvalues --    3.89301   3.91506   3.91700   3.91858   3.92379
 Alpha virt. eigenvalues --    3.93868   3.94004   3.96606   3.97802   4.00017
 Alpha virt. eigenvalues --    4.03769   4.07254   4.08697   4.12706   4.14877
 Alpha virt. eigenvalues --    4.15438   4.16607   4.17677   4.18188   4.19271
 Alpha virt. eigenvalues --    4.20986   4.25550   4.25966   4.28972   4.31325
 Alpha virt. eigenvalues --    4.36872   4.38186   4.42345   4.49437   4.51518
 Alpha virt. eigenvalues --    4.60667   4.62451   4.66018   4.71294   4.86377
 Alpha virt. eigenvalues --    5.06183   5.08811   5.10670   5.13943   5.19569
 Alpha virt. eigenvalues --    5.28128   5.29923   5.30330   5.33939   5.35522
 Alpha virt. eigenvalues --    5.36028   5.37421   5.48380   5.50709   5.52560
 Alpha virt. eigenvalues --    5.54524   5.54887   5.60397   5.90946   5.95487
 Alpha virt. eigenvalues --    5.98682   6.03342   6.04981   6.08095   8.17532
 Alpha virt. eigenvalues --    8.24685  17.46161  17.56551  17.66178  17.69284
 Alpha virt. eigenvalues --   17.79631  17.81967  23.69472  23.78190  23.89927
 Alpha virt. eigenvalues --   23.99394  24.03265  24.06134  24.06335  24.07811
 Alpha virt. eigenvalues --   24.08231  24.10607  24.11986  24.13645  24.14545
 Alpha virt. eigenvalues --   24.14893  24.16296  24.17016  24.19828  24.20275
 Alpha virt. eigenvalues --   24.21908  24.22975  24.24731  24.25884  24.29813
 Alpha virt. eigenvalues --   24.31930  24.35719  24.42372  35.78563  35.81330
 Alpha virt. eigenvalues --   50.12413  50.13851  50.25727  50.27749  50.29087
 Alpha virt. eigenvalues --   50.30534 189.34850 189.42910
          Condensed to atoms (all electrons):
 Mulliken charges:
               1
     1  C    0.238224
     2  C   -0.134968
     3  C    0.082413
     4  C    0.314363
     5  C    0.153667
     6  C   -0.262911
     7  C    0.205882
     8  C    0.078975
     9  C    0.141908
    10  C   -0.382934
    11  C    0.222396
    12  C    0.254626
    13  C   -0.491593
    14  C   -0.627351
    15  H    0.103037
    16  H    0.106414
    17  H    0.123801
    18  N   -0.070483
    19  N   -0.135561
    20  O   -0.431985
    21  O   -0.412415
    22  O   -0.423592
    23  O   -0.349427
    24  C   -0.159643
    25  H    0.137579
    26  H    0.135148
    27  H    0.157119
    28  C   -0.180788
    29  H    0.132628
    30  H    0.134942
    31  H    0.157360
    32  C   -0.173701
    33  C   -0.361757
    34  S   -0.414598
    35  C   -0.456427
    36  H    0.114758
    37  C    0.243602
    38  O   -0.121054
    39  C    0.452618
    40  C   -0.237841
    41  C    0.103800
    42  S   -0.334902
    43  H    0.132069
    44  H    0.142985
    45  H    0.136501
    46  C   -0.054315
    47  O   -0.152698
    48  C   -0.188355
    49  H    0.094970
    50  C   -0.307838
    51  H    0.120815
    52  H    0.201070
    53  H    0.141586
    54  H    0.101884
 Sum of Mulliken charges =  -2.00000
 Mulliken charges with hydrogens summed into heavy atoms:
               1
     1  C    0.238224
     2  C   -0.134968
     3  C    0.082413
     4  C    0.314363
     5  C    0.153667
     6  C   -0.139110
     7  C    0.205882
     8  C    0.078975
     9  C    0.141908
    10  C   -0.382934
    11  C    0.222396
    12  C    0.254626
    13  C   -0.385179
    14  C   -0.524315
    18  N   -0.070483
    19  N   -0.135561
    20  O   -0.431985
    21  O   -0.412415
    22  O   -0.423592
    23  O   -0.349427
    24  C    0.270203
    28  C    0.244142
    32  C   -0.173701
    33  C   -0.246999
    34  S   -0.414598
    35  C   -0.456427
    37  C    0.243602
    38  O   -0.121054
    39  C    0.452618
    40  C    0.173713
    41  C    0.103800
    42  S   -0.334902
    46  C    0.040655
    47  O   -0.152698
    48  C   -0.067540
    50  C    0.136702
 Electronic spatial extent (au):  <R**2>=          22187.8135
 Charge=             -2.0000 electrons
 Dipole moment (field-independent basis, Debye):
    X=             15.7061    Y=             -2.8068    Z=             -2.0708  Tot=             16.0887
 Quadrupole moment (field-independent basis, Debye-Ang):
   XX=           -422.2872   YY=           -305.2257   ZZ=           -240.4643
   XY=              5.6454   XZ=              2.5042   YZ=             12.4122
 Traceless Quadrupole moment (field-independent basis, Debye-Ang):
   XX=            -99.6281   YY=             17.4333   ZZ=             82.1947
   XY=              5.6454   XZ=              2.5042   YZ=             12.4122
 Octapole moment (field-independent basis, Debye-Ang**2):
  XXX=            553.6212  YYY=           -100.9949  ZZZ=            -22.6754  XYY=            252.4408
  XXY=             60.3745  XXZ=           -112.7637  XZZ=             -3.6483  YZZ=            -23.3176
  YYZ=             -5.7896  XYZ=            -10.7138
 Hexadecapole moment (field-independent basis, Debye-Ang**3):
 XXXX=         -29513.3208 YYYY=          -8788.8826 ZZZZ=          -1267.1427 XXXY=           -202.6585
 XXXZ=            412.3761 YYYX=            419.2251 YYYZ=            177.6982 ZZZX=            -87.2211
 ZZZY=             32.5507 XXYY=          -5881.3466 XXZZ=          -4270.0952 YYZZ=          -1421.8642
 XXYZ=            172.3643 YYXZ=            -72.0845 ZZXY=            -15.4428
 N-N= 4.111343557481D+03 E-N=-1.382095260456D+04  KE= 2.352087911822D+03
 Unable to Open any file for archive entry.
 1\1\GINC-CX3-1-4\FOpt\RB3LYP\6-311+G(d,p)\C26H18N2O6S2(2-)\NS5018\05-O
 ct-2021\0\\# opt=modredundant b3lyp/6-311+g(d,p)\\NDI_-140.pdb\\-2,1\C
 ,-2.498676878,-2.8703976727,-0.711422547\C,-2.2092451055,-1.4988267126
 ,-0.3869262424\C,-3.2488251292,-0.6219562524,0.0346025745\C,-4.5827446
 295,-1.072259533,0.1428293318\C,-4.9183364488,-2.4422025674,-0.1671163
 782\C,-0.8744852436,-1.0374692989,-0.4296363027\C,-2.920335787,0.75512
 87171,0.3320687545\C,-1.5720706399,1.2149122778,0.2154243056\C,-0.5194
 38463,0.2593003053,-0.1083424798\C,-1.3216820182,2.6267247966,0.296486
 8321\C,-3.7293370796,3.0252822965,0.9327284978\C,-3.9800275516,1.62713
 26559,0.696089391\C,-5.3181694657,1.1377479877,0.8051898392\C,-5.61532
 78142,-0.1681484464,0.543791171\H,-6.6259378826,-0.5511346596,0.616465
 4875\H,-6.083661512,1.8483116959,1.0936615123\H,-0.1079745158,-1.77099
 3018,-0.6466339757\N,-2.4076459243,3.4440598134,0.7055942107\N,-3.8474
 161173,-3.2658235258,-0.5818537386\O,-1.6651497099,-3.717814771,-1.091
 4275373\O,-6.0686302903,-2.9191051481,-0.0934950726\O,-4.5963800467,3.
 8518661039,1.290147971\O,-0.2450416681,3.2010046211,0.0312855728\C,-2.
 1092781014,4.8651775128,0.8405165214\H,-1.2654157971,5.0070252903,1.51
 95533208\H,-1.8229487162,5.2896294903,-0.1262950907\H,-3.0047828988,5.
 3508234287,1.2204437425\C,-4.1377898982,-4.6565627027,-0.9102135836\H,
 -3.8483355556,-4.8689198171,-1.9429311262\H,-3.5602602702,-5.325484874
 7,-0.2664327496\H,-5.2046557017,-4.8100106648,-0.7681927031\C,0.914777
 5645,0.5219144269,-0.038122779\C,1.8745269893,0.0932956107,-0.94457214
 41\S,1.6886823887,1.3089329066,1.3206420431\C,3.1932795762,0.402955518
 9,-0.5605737015\H,1.6000730732,-0.3967071933,-1.8668174927\C,3.3083124
 084,1.0906934164,0.6444306674\O,4.327543042,0.118773421,-1.2850186109\
 C,4.4887160704,1.6252952215,1.2562427112\C,4.1554263013,-0.5528209376,
 -2.5187006235\C,4.6104736772,2.4930576183,2.3401646265\S,6.117680531,1
 .1955632154,0.7029324933\H,5.1565294207,-0.6955623618,-2.9287013746\H,
 3.675088357,-1.5284789717,-2.3809712484\H,3.5568972298,0.0420787116,-3
 .2186833995\C,5.9473117615,2.7868452884,2.7200262987\O,3.5360278826,2.
 9998723862,3.0404479667\C,6.8786322535,2.1643601873,1.9388624017\H,6.1
 803997431,3.4406307081,3.5518483377\C,2.9801379294,4.2072786914,2.5015
 684309\H,7.9549911407,2.2212061357,1.9929004495\H,2.5611833438,4.04309
 25036,1.5058125057\H,2.1740149072,4.5000694435,3.1751051671\H,3.741301
 2685,4.9976367246,2.4672177657\\Version=ES64L-G16RevC.01\State=1-A\HF=
 -2359.3989155\RMSD=7.880e-09\RMSF=2.352e-04\Dipole=6.1929295,1.2468433
 ,-0.3992269\Quadrupole=-67.0831744,6.9862755,60.0968989,-21.9586536,-9
 .757005,-11.9590802\PG=C01 [X(C26H18N2O6S2)]\\@
 The archive entry for this job was punched.


 IT IS IMPOSSIBLE TO MEDITATE ON TIME AND THE MYSTERY 
 OF NATURE WITHOUT AN OVERWHELMING EMOTION AT THE
 LIMITATIONS OF HUMAN INTELLIGENCE.

                                         -- ALFRED NORTH WHITEHEAD
 Job cpu time:       5 days  5 hours 10 minutes  7.4 seconds.
 Elapsed time:       0 days 15 hours 45 minutes 59.7 seconds.
 File lengths (MBytes):  RWF=    531 Int=      0 D2E=      0 Chk=     83 Scr=      1
 Normal termination of Gaussian 16 at Tue Oct  5 23:36:31 2021.
