 Entering Gaussian System, Link 0=g16
 Input=NDI_-65.gjf
 Output=NDI_-65.log
 Initial command:
 /apps/gaussian/g16-c01-avx/g16/l1.exe "/tmp/pbs.4643763[110].pbs/Gau-1343203.inp" -scrdir="/tmp/pbs.4643763[110].pbs/"
 Entering Link 1 = /apps/gaussian/g16-c01-avx/g16/l1.exe PID=   1343246.
  
 Copyright (c) 1988-2019, Gaussian, Inc.  All Rights Reserved.
  
 This is part of the Gaussian(R) 16 program.  It is based on
 the Gaussian(R) 09 system (copyright 2009, Gaussian, Inc.),
 the Gaussian(R) 03 system (copyright 2003, Gaussian, Inc.),
 the Gaussian(R) 98 system (copyright 1998, Gaussian, Inc.),
 the Gaussian(R) 94 system (copyright 1995, Gaussian, Inc.),
 the Gaussian 92(TM) system (copyright 1992, Gaussian, Inc.),
 the Gaussian 90(TM) system (copyright 1990, Gaussian, Inc.),
 the Gaussian 88(TM) system (copyright 1988, Gaussian, Inc.),
 the Gaussian 86(TM) system (copyright 1986, Carnegie Mellon
 University), and the Gaussian 82(TM) system (copyright 1983,
 Carnegie Mellon University). Gaussian is a federally registered
 trademark of Gaussian, Inc.
  
 This software contains proprietary and confidential information,
 including trade secrets, belonging to Gaussian, Inc.
  
 This software is provided under written license and may be
 used, copied, transmitted, or stored only in accord with that
 written license.
  
 The following legend is applicable only to US Government
 contracts under FAR:
  
                    RESTRICTED RIGHTS LEGEND
  
 Use, reproduction and disclosure by the US Government is
 subject to restrictions as set forth in subparagraphs (a)
 and (c) of the Commercial Computer Software - Restricted
 Rights clause in FAR 52.227-19.
  
 Gaussian, Inc.
 340 Quinnipiac St., Bldg. 40, Wallingford CT 06492
  
  
 ---------------------------------------------------------------
 Warning -- This program may not be used in any manner that
 competes with the business of Gaussian, Inc. or will provide
 assistance to any competitor of Gaussian, Inc.  The licensee
 of this program is prohibited from giving any competitor of
 Gaussian, Inc. access to this program.  By using this program,
 the user acknowledges that Gaussian, Inc. is engaged in the
 business of creating and licensing software in the field of
 computational chemistry and represents and warrants to the
 licensee that it is not a competitor of Gaussian, Inc. and that
 it will not use this program in any manner prohibited above.
 ---------------------------------------------------------------
  

 Cite this work as:
 Gaussian 16, Revision C.01,
 M. J. Frisch, G. W. Trucks, H. B. Schlegel, G. E. Scuseria, 
 M. A. Robb, J. R. Cheeseman, G. Scalmani, V. Barone, 
 G. A. Petersson, H. Nakatsuji, X. Li, M. Caricato, A. V. Marenich, 
 J. Bloino, B. G. Janesko, R. Gomperts, B. Mennucci, H. P. Hratchian, 
 J. V. Ortiz, A. F. Izmaylov, J. L. Sonnenberg, D. Williams-Young, 
 F. Ding, F. Lipparini, F. Egidi, J. Goings, B. Peng, A. Petrone, 
 T. Henderson, D. Ranasinghe, V. G. Zakrzewski, J. Gao, N. Rega, 
 G. Zheng, W. Liang, M. Hada, M. Ehara, K. Toyota, R. Fukuda, 
 J. Hasegawa, M. Ishida, T. Nakajima, Y. Honda, O. Kitao, H. Nakai, 
 T. Vreven, K. Throssell, J. A. Montgomery, Jr., J. E. Peralta, 
 F. Ogliaro, M. J. Bearpark, J. J. Heyd, E. N. Brothers, K. N. Kudin, 
 V. N. Staroverov, T. A. Keith, R. Kobayashi, J. Normand, 
 K. Raghavachari, A. P. Rendell, J. C. Burant, S. S. Iyengar, 
 J. Tomasi, M. Cossi, J. M. Millam, M. Klene, C. Adamo, R. Cammi, 
 J. W. Ochterski, R. L. Martin, K. Morokuma, O. Farkas, 
 J. B. Foresman, and D. J. Fox, Gaussian, Inc., Wallingford CT, 2019.
 
 ******************************************
 Gaussian 16:  ES64L-G16RevC.01  3-Jul-2019
                 7-Oct-2021 
 ******************************************
 %mem=10GB
 %nprocshared=8
 Will use up to    8 processors via shared memory.
 -------------------------------------
 # opt=modredundant b3lyp/6-311+g(d,p)
 -------------------------------------
 1/18=120,19=15,26=3,38=1/1,3;
 2/9=110,12=2,17=6,18=5,40=1/2;
 3/5=4,6=6,7=111,11=2,25=1,30=1,71=1,74=-5/1,2,3;
 4//1;
 5/5=2,38=5/2;
 6/7=2,8=2,9=2,10=2,28=1/1;
 7//1,2,3,16;
 1/18=20,19=15,26=3/3(2);
 2/9=110/2;
 99//99;
 2/9=110/2;
 3/5=4,6=6,7=111,11=2,25=1,30=1,71=1,74=-5/1,2,3;
 4/5=5,16=3,69=1/1;
 5/5=2,38=5/2;
 7//1,2,3,16;
 1/18=20,19=15,26=3/3(-5);
 2/9=110/2;
 6/7=2,8=2,9=2,10=2,19=2,28=1/1;
 99/9=1/99;
 -----------
 NDI_-65.pdb
 -----------
 Symbolic Z-matrix:
 Charge = -2 Multiplicity = 1
 C                    -2.563    -2.994    -0.409 
 C                    -2.257    -1.551    -0.224 
 C                    -3.301    -0.607    -0.083 
 C                    -4.65     -1.024    -0.115 
 C                    -4.992    -2.459    -0.304 
 C                    -0.949    -1.137    -0.215 
 C                    -2.962     0.764     0.102 
 C                    -1.595     1.188     0.123 
 C                    -0.561     0.232    -0.072 
 C                    -1.328     2.616     0.446 
 C                    -3.777     3.115     0.508 
 C                    -4.035     1.679     0.268 
 C                    -5.356     1.252     0.23 
 C                    -5.672    -0.098     0.036 
 H                    -6.699    -0.442     0.008 
 H                    -6.133     1.997     0.361 
 H                    -0.19     -1.895    -0.369 
 N                    -2.432     3.476     0.608 
 N                    -3.916    -3.353    -0.438 
 O                    -1.695    -3.847    -0.532 
 O                    -6.149    -2.85     -0.34 
 O                    -4.676     3.938     0.629 
 O                    -0.212     3.097     0.596 
 C                    -2.111     4.875     0.912 
 H                    -1.54      4.931     1.84 
 H                    -1.5       5.299     0.111 
 H                    -3.05      5.414     1.003 
 C                    -4.206    -4.779    -0.625 
 H                    -3.759    -5.126    -1.559 
 H                    -3.775    -5.355     0.196 
 H                    -5.286    -4.897    -0.649 
 C                     0.876     0.482    -0.178 
 C                     1.607     1.167    -1.129 
 S                     1.962    -0.3       0.972 
 C                     3.        1.076    -0.943 
 H                     1.147     1.724    -1.93 
 C                     3.386     0.319     0.168 
 O                     3.96      1.641    -1.722 
 C                     4.718     0.077     0.645 
 C                     3.531     2.521    -2.758 
 C                     5.103    -0.697     1.739 
 S                     6.152     0.757    -0.12 
 H                     4.44      2.924    -3.204 
 H                     2.959     1.983    -3.524 
 H                     2.922     3.339    -2.356 
 C                     6.509    -0.741     1.956 
 O                     4.149    -1.318     2.481 
 C                     7.193    -0.003     1.029 
 H                     6.988    -1.291     2.755 
 C                     4.574    -2.129     3.57 
 H                     8.263     0.135     0.957 
 H                     5.111    -1.537     4.322 
 H                     3.666    -2.537     4.013 
 H                     5.214    -2.951     3.228 
 
 The following ModRedundant input section has been read:
 D       8       9      32      33 F                                           
 

 GradGradGradGradGradGradGradGradGradGradGradGradGradGradGradGradGradGrad
 Berny optimization.
 Initialization pass.
                           ----------------------------
                           !    Initial Parameters    !
                           ! (Angstroms and Degrees)  !
 --------------------------                            --------------------------
 ! Name  Definition              Value          Derivative Info.                !
 --------------------------------------------------------------------------------
 ! R1    R(1,2)                  1.4866         estimate D2E/DX2                !
 ! R2    R(1,19)                 1.4001         estimate D2E/DX2                !
 ! R3    R(1,20)                 1.2232         estimate D2E/DX2                !
 ! R4    R(2,3)                  1.4146         estimate D2E/DX2                !
 ! R5    R(2,6)                  1.372          estimate D2E/DX2                !
 ! R6    R(3,4)                  1.4123         estimate D2E/DX2                !
 ! R7    R(3,7)                  1.4244         estimate D2E/DX2                !
 ! R8    R(4,5)                  1.4872         estimate D2E/DX2                !
 ! R9    R(4,14)                 1.3874         estimate D2E/DX2                !
 ! R10   R(5,19)                 1.4053         estimate D2E/DX2                !
 ! R11   R(5,21)                 1.2218         estimate D2E/DX2                !
 ! R12   R(6,9)                  1.4301         estimate D2E/DX2                !
 ! R13   R(6,17)                 1.0837         estimate D2E/DX2                !
 ! R14   R(7,8)                  1.4314         estimate D2E/DX2                !
 ! R15   R(7,12)                 1.4199         estimate D2E/DX2                !
 ! R16   R(8,9)                  1.4217         estimate D2E/DX2                !
 ! R17   R(8,10)                 1.4882         estimate D2E/DX2                !
 ! R18   R(9,32)                 1.4624         estimate D2E/DX2                !
 ! R19   R(10,18)                1.4088         estimate D2E/DX2                !
 ! R20   R(10,23)                1.2245         estimate D2E/DX2                !
 ! R21   R(11,12)                1.4786         estimate D2E/DX2                !
 ! R22   R(11,18)                1.3962         estimate D2E/DX2                !
 ! R23   R(11,22)                1.2248         estimate D2E/DX2                !
 ! R24   R(12,13)                1.3888         estimate D2E/DX2                !
 ! R25   R(13,14)                1.4            estimate D2E/DX2                !
 ! R26   R(13,16)                1.0844         estimate D2E/DX2                !
 ! R27   R(14,15)                1.0834         estimate D2E/DX2                !
 ! R28   R(18,24)                1.4672         estimate D2E/DX2                !
 ! R29   R(19,28)                1.4672         estimate D2E/DX2                !
 ! R30   R(24,25)                1.091          estimate D2E/DX2                !
 ! R31   R(24,26)                1.093          estimate D2E/DX2                !
 ! R32   R(24,27)                1.0865         estimate D2E/DX2                !
 ! R33   R(28,29)                1.0921         estimate D2E/DX2                !
 ! R34   R(28,30)                1.0916         estimate D2E/DX2                !
 ! R35   R(28,31)                1.0867         estimate D2E/DX2                !
 ! R36   R(32,33)                1.3813         estimate D2E/DX2                !
 ! R37   R(32,34)                1.7645         estimate D2E/DX2                !
 ! R38   R(33,35)                1.4083         estimate D2E/DX2                !
 ! R39   R(33,36)                1.0786         estimate D2E/DX2                !
 ! R40   R(34,37)                1.7485         estimate D2E/DX2                !
 ! R41   R(35,37)                1.3987         estimate D2E/DX2                !
 ! R42   R(35,38)                1.3593         estimate D2E/DX2                !
 ! R43   R(37,39)                1.4354         estimate D2E/DX2                !
 ! R44   R(38,40)                1.4254         estimate D2E/DX2                !
 ! R45   R(39,41)                1.3943         estimate D2E/DX2                !
 ! R46   R(39,42)                1.7618         estimate D2E/DX2                !
 ! R47   R(40,43)                1.0898         estimate D2E/DX2                !
 ! R48   R(40,44)                1.097          estimate D2E/DX2                !
 ! R49   R(40,45)                1.0962         estimate D2E/DX2                !
 ! R50   R(41,46)                1.4233         estimate D2E/DX2                !
 ! R51   R(41,47)                1.3588         estimate D2E/DX2                !
 ! R52   R(42,48)                1.7267         estimate D2E/DX2                !
 ! R53   R(46,48)                1.3681         estimate D2E/DX2                !
 ! R54   R(46,49)                1.0818         estimate D2E/DX2                !
 ! R55   R(47,50)                1.4228         estimate D2E/DX2                !
 ! R56   R(48,51)                1.0813         estimate D2E/DX2                !
 ! R57   R(50,52)                1.0974         estimate D2E/DX2                !
 ! R58   R(50,53)                1.0896         estimate D2E/DX2                !
 ! R59   R(50,54)                1.0965         estimate D2E/DX2                !
 ! A1    A(2,1,19)             116.767          estimate D2E/DX2                !
 ! A2    A(2,1,20)             122.9113         estimate D2E/DX2                !
 ! A3    A(19,1,20)            120.3217         estimate D2E/DX2                !
 ! A4    A(1,2,3)              120.5473         estimate D2E/DX2                !
 ! A5    A(1,2,6)              119.3369         estimate D2E/DX2                !
 ! A6    A(3,2,6)              120.1056         estimate D2E/DX2                !
 ! A7    A(2,3,4)              120.3743         estimate D2E/DX2                !
 ! A8    A(2,3,7)              118.662          estimate D2E/DX2                !
 ! A9    A(4,3,7)              120.9617         estimate D2E/DX2                !
 ! A10   A(3,4,5)              120.4909         estimate D2E/DX2                !
 ! A11   A(3,4,14)             120.2702         estimate D2E/DX2                !
 ! A12   A(5,4,14)             119.2382         estimate D2E/DX2                !
 ! A13   A(4,5,19)             116.7341         estimate D2E/DX2                !
 ! A14   A(4,5,21)             122.024          estimate D2E/DX2                !
 ! A15   A(19,5,21)            121.2418         estimate D2E/DX2                !
 ! A16   A(2,6,9)              123.2421         estimate D2E/DX2                !
 ! A17   A(2,6,17)             117.1119         estimate D2E/DX2                !
 ! A18   A(9,6,17)             119.589          estimate D2E/DX2                !
 ! A19   A(3,7,8)              120.9519         estimate D2E/DX2                !
 ! A20   A(3,7,12)             117.1037         estimate D2E/DX2                !
 ! A21   A(8,7,12)             121.944          estimate D2E/DX2                !
 ! A22   A(7,8,9)              119.5639         estimate D2E/DX2                !
 ! A23   A(7,8,10)             117.3064         estimate D2E/DX2                !
 ! A24   A(9,8,10)             122.9922         estimate D2E/DX2                !
 ! A25   A(6,9,8)              117.3944         estimate D2E/DX2                !
 ! A26   A(6,9,32)             115.0236         estimate D2E/DX2                !
 ! A27   A(8,9,32)             127.5648         estimate D2E/DX2                !
 ! A28   A(8,10,18)            118.042          estimate D2E/DX2                !
 ! A29   A(8,10,23)            124.5436         estimate D2E/DX2                !
 ! A30   A(18,10,23)           117.4097         estimate D2E/DX2                !
 ! A31   A(12,11,18)           115.5202         estimate D2E/DX2                !
 ! A32   A(12,11,22)           122.7205         estimate D2E/DX2                !
 ! A33   A(18,11,22)           121.7534         estimate D2E/DX2                !
 ! A34   A(7,12,11)            120.8614         estimate D2E/DX2                !
 ! A35   A(7,12,13)            121.162          estimate D2E/DX2                !
 ! A36   A(11,12,13)           117.9699         estimate D2E/DX2                !
 ! A37   A(12,13,14)           120.9948         estimate D2E/DX2                !
 ! A38   A(12,13,16)           117.8401         estimate D2E/DX2                !
 ! A39   A(14,13,16)           121.1642         estimate D2E/DX2                !
 ! A40   A(4,14,13)            119.5003         estimate D2E/DX2                !
 ! A41   A(4,14,15)            118.9169         estimate D2E/DX2                !
 ! A42   A(13,14,15)           121.5811         estimate D2E/DX2                !
 ! A43   A(10,18,11)           126.0753         estimate D2E/DX2                !
 ! A44   A(10,18,24)           115.7508         estimate D2E/DX2                !
 ! A45   A(11,18,24)           118.1737         estimate D2E/DX2                !
 ! A46   A(1,19,5)             125.0856         estimate D2E/DX2                !
 ! A47   A(1,19,28)            116.2868         estimate D2E/DX2                !
 ! A48   A(5,19,28)            118.6276         estimate D2E/DX2                !
 ! A49   A(18,24,25)           109.8574         estimate D2E/DX2                !
 ! A50   A(18,24,26)           109.8979         estimate D2E/DX2                !
 ! A51   A(18,24,27)           107.5355         estimate D2E/DX2                !
 ! A52   A(25,24,26)           108.1108         estimate D2E/DX2                !
 ! A53   A(25,24,27)           110.8301         estimate D2E/DX2                !
 ! A54   A(26,24,27)           110.6124         estimate D2E/DX2                !
 ! A55   A(19,28,29)           109.6906         estimate D2E/DX2                !
 ! A56   A(19,28,30)           109.8136         estimate D2E/DX2                !
 ! A57   A(19,28,31)           107.7461         estimate D2E/DX2                !
 ! A58   A(29,28,30)           108.2991         estimate D2E/DX2                !
 ! A59   A(29,28,31)           110.6959         estimate D2E/DX2                !
 ! A60   A(30,28,31)           110.5924         estimate D2E/DX2                !
 ! A61   A(9,32,33)            130.8959         estimate D2E/DX2                !
 ! A62   A(9,32,34)            118.8011         estimate D2E/DX2                !
 ! A63   A(33,32,34)           110.0464         estimate D2E/DX2                !
 ! A64   A(32,33,35)           113.6086         estimate D2E/DX2                !
 ! A65   A(32,33,36)           122.7971         estimate D2E/DX2                !
 ! A66   A(35,33,36)           123.5921         estimate D2E/DX2                !
 ! A67   A(32,34,37)            92.56           estimate D2E/DX2                !
 ! A68   A(33,35,37)           114.384          estimate D2E/DX2                !
 ! A69   A(33,35,38)           126.5859         estimate D2E/DX2                !
 ! A70   A(37,35,38)           119.0301         estimate D2E/DX2                !
 ! A71   A(34,37,35)           109.3952         estimate D2E/DX2                !
 ! A72   A(34,37,39)           122.9055         estimate D2E/DX2                !
 ! A73   A(35,37,39)           127.6837         estimate D2E/DX2                !
 ! A74   A(35,38,40)           117.4253         estimate D2E/DX2                !
 ! A75   A(37,39,41)           127.63           estimate D2E/DX2                !
 ! A76   A(37,39,42)           123.0892         estimate D2E/DX2                !
 ! A77   A(41,39,42)           109.2807         estimate D2E/DX2                !
 ! A78   A(38,40,43)           105.9453         estimate D2E/DX2                !
 ! A79   A(38,40,44)           111.2029         estimate D2E/DX2                !
 ! A80   A(38,40,45)           111.1841         estimate D2E/DX2                !
 ! A81   A(43,40,44)           109.3003         estimate D2E/DX2                !
 ! A82   A(43,40,45)           109.727          estimate D2E/DX2                !
 ! A83   A(44,40,45)           109.4124         estimate D2E/DX2                !
 ! A84   A(39,41,46)           114.1759         estimate D2E/DX2                !
 ! A85   A(39,41,47)           119.2282         estimate D2E/DX2                !
 ! A86   A(46,41,47)           126.5956         estimate D2E/DX2                !
 ! A87   A(39,42,48)            91.8274         estimate D2E/DX2                !
 ! A88   A(41,46,48)           111.9554         estimate D2E/DX2                !
 ! A89   A(41,46,49)           124.4508         estimate D2E/DX2                !
 ! A90   A(48,46,49)           123.5937         estimate D2E/DX2                !
 ! A91   A(41,47,50)           117.9535         estimate D2E/DX2                !
 ! A92   A(42,48,46)           112.7606         estimate D2E/DX2                !
 ! A93   A(42,48,51)           119.7436         estimate D2E/DX2                !
 ! A94   A(46,48,51)           127.4957         estimate D2E/DX2                !
 ! A95   A(47,50,52)           111.2948         estimate D2E/DX2                !
 ! A96   A(47,50,53)           106.0045         estimate D2E/DX2                !
 ! A97   A(47,50,54)           111.2812         estimate D2E/DX2                !
 ! A98   A(52,50,53)           109.3402         estimate D2E/DX2                !
 ! A99   A(52,50,54)           109.4223         estimate D2E/DX2                !
 ! A100  A(53,50,54)           109.4214         estimate D2E/DX2                !
 ! D1    D(19,1,2,3)             0.1578         estimate D2E/DX2                !
 ! D2    D(19,1,2,6)          -178.6792         estimate D2E/DX2                !
 ! D3    D(20,1,2,3)          -179.8231         estimate D2E/DX2                !
 ! D4    D(20,1,2,6)             1.3399         estimate D2E/DX2                !
 ! D5    D(2,1,19,5)            -0.124          estimate D2E/DX2                !
 ! D6    D(2,1,19,28)          179.8267         estimate D2E/DX2                !
 ! D7    D(20,1,19,5)          179.8575         estimate D2E/DX2                !
 ! D8    D(20,1,19,28)          -0.1919         estimate D2E/DX2                !
 ! D9    D(1,2,3,4)              0.0571         estimate D2E/DX2                !
 ! D10   D(1,2,3,7)            179.5453         estimate D2E/DX2                !
 ! D11   D(6,2,3,4)            178.8851         estimate D2E/DX2                !
 ! D12   D(6,2,3,7)             -1.6266         estimate D2E/DX2                !
 ! D13   D(1,2,6,9)            178.625          estimate D2E/DX2                !
 ! D14   D(1,2,6,17)             1.3881         estimate D2E/DX2                !
 ! D15   D(3,2,6,9)             -0.2173         estimate D2E/DX2                !
 ! D16   D(3,2,6,17)          -177.4541         estimate D2E/DX2                !
 ! D17   D(2,3,4,5)             -0.3074         estimate D2E/DX2                !
 ! D18   D(2,3,4,14)           179.3968         estimate D2E/DX2                !
 ! D19   D(7,3,4,5)           -179.7837         estimate D2E/DX2                !
 ! D20   D(7,3,4,14)            -0.0795         estimate D2E/DX2                !
 ! D21   D(2,3,7,8)              1.0523         estimate D2E/DX2                !
 ! D22   D(2,3,7,12)          -178.712          estimate D2E/DX2                !
 ! D23   D(4,3,7,8)           -179.4626         estimate D2E/DX2                !
 ! D24   D(4,3,7,12)             0.7731         estimate D2E/DX2                !
 ! D25   D(3,4,5,19)             0.3343         estimate D2E/DX2                !
 ! D26   D(3,4,5,21)          -179.7799         estimate D2E/DX2                !
 ! D27   D(14,4,5,19)         -179.3729         estimate D2E/DX2                !
 ! D28   D(14,4,5,21)            0.5129         estimate D2E/DX2                !
 ! D29   D(3,4,14,13)           -0.4559         estimate D2E/DX2                !
 ! D30   D(3,4,14,15)         -179.9937         estimate D2E/DX2                !
 ! D31   D(5,4,14,13)          179.252          estimate D2E/DX2                !
 ! D32   D(5,4,14,15)           -0.2858         estimate D2E/DX2                !
 ! D33   D(4,5,19,1)            -0.1141         estimate D2E/DX2                !
 ! D34   D(4,5,19,28)          179.9364         estimate D2E/DX2                !
 ! D35   D(21,5,19,1)          179.9992         estimate D2E/DX2                !
 ! D36   D(21,5,19,28)           0.0496         estimate D2E/DX2                !
 ! D37   D(2,6,9,8)              2.5984         estimate D2E/DX2                !
 ! D38   D(2,6,9,32)          -176.0103         estimate D2E/DX2                !
 ! D39   D(17,6,9,8)           179.77           estimate D2E/DX2                !
 ! D40   D(17,6,9,32)            1.1613         estimate D2E/DX2                !
 ! D41   D(3,7,8,9)              1.3551         estimate D2E/DX2                !
 ! D42   D(3,7,8,10)          -174.5099         estimate D2E/DX2                !
 ! D43   D(12,7,8,9)          -178.8921         estimate D2E/DX2                !
 ! D44   D(12,7,8,10)            5.2428         estimate D2E/DX2                !
 ! D45   D(3,7,12,11)          178.0768         estimate D2E/DX2                !
 ! D46   D(3,7,12,13)           -0.9621         estimate D2E/DX2                !
 ! D47   D(8,7,12,11)           -1.685          estimate D2E/DX2                !
 ! D48   D(8,7,12,13)          179.2761         estimate D2E/DX2                !
 ! D49   D(7,8,9,6)             -3.0809         estimate D2E/DX2                !
 ! D50   D(7,8,9,32)           175.3285         estimate D2E/DX2                !
 ! D51   D(10,8,9,6)           172.5381         estimate D2E/DX2                !
 ! D52   D(10,8,9,32)           -9.0525         estimate D2E/DX2                !
 ! D53   D(7,8,10,18)           -4.7549         estimate D2E/DX2                !
 ! D54   D(7,8,10,23)          174.4235         estimate D2E/DX2                !
 ! D55   D(9,8,10,18)          179.5335         estimate D2E/DX2                !
 ! D56   D(9,8,10,23)           -1.2882         estimate D2E/DX2                !
 ! D57   D(6,9,32,33)          113.4466         estimate D2E/DX2                !
 ! D58   D(6,9,32,34)          -60.0946         estimate D2E/DX2                !
 ! D59   D(8,9,32,33)          -64.9949         Frozen                          !
 ! D60   D(8,9,32,34)          121.4639         estimate D2E/DX2                !
 ! D61   D(8,10,18,11)           0.7189         estimate D2E/DX2                !
 ! D62   D(8,10,18,24)        -179.4089         estimate D2E/DX2                !
 ! D63   D(23,10,18,11)       -178.5188         estimate D2E/DX2                !
 ! D64   D(23,10,18,24)          1.3535         estimate D2E/DX2                !
 ! D65   D(18,11,12,7)          -2.3856         estimate D2E/DX2                !
 ! D66   D(18,11,12,13)        176.6833         estimate D2E/DX2                !
 ! D67   D(22,11,12,7)         178.4862         estimate D2E/DX2                !
 ! D68   D(22,11,12,13)         -2.445          estimate D2E/DX2                !
 ! D69   D(12,11,18,10)          2.8444         estimate D2E/DX2                !
 ! D70   D(12,11,18,24)       -177.0251         estimate D2E/DX2                !
 ! D71   D(22,11,18,10)       -178.0181         estimate D2E/DX2                !
 ! D72   D(22,11,18,24)          2.1124         estimate D2E/DX2                !
 ! D73   D(7,12,13,14)           0.461          estimate D2E/DX2                !
 ! D74   D(7,12,13,16)        -179.8781         estimate D2E/DX2                !
 ! D75   D(11,12,13,14)       -178.6049         estimate D2E/DX2                !
 ! D76   D(11,12,13,16)          1.056          estimate D2E/DX2                !
 ! D77   D(12,13,14,4)           0.2708         estimate D2E/DX2                !
 ! D78   D(12,13,14,15)        179.7958         estimate D2E/DX2                !
 ! D79   D(16,13,14,4)        -179.3788         estimate D2E/DX2                !
 ! D80   D(16,13,14,15)          0.1463         estimate D2E/DX2                !
 ! D81   D(10,18,24,25)        -59.609          estimate D2E/DX2                !
 ! D82   D(10,18,24,26)         59.2209         estimate D2E/DX2                !
 ! D83   D(10,18,24,27)        179.6858         estimate D2E/DX2                !
 ! D84   D(11,18,24,25)        120.2739         estimate D2E/DX2                !
 ! D85   D(11,18,24,26)       -120.8962         estimate D2E/DX2                !
 ! D86   D(11,18,24,27)         -0.4313         estimate D2E/DX2                !
 ! D87   D(1,19,28,29)         -58.1407         estimate D2E/DX2                !
 ! D88   D(1,19,28,30)          60.7668         estimate D2E/DX2                !
 ! D89   D(1,19,28,31)        -178.7139         estimate D2E/DX2                !
 ! D90   D(5,19,28,29)         121.8132         estimate D2E/DX2                !
 ! D91   D(5,19,28,30)        -119.2792         estimate D2E/DX2                !
 ! D92   D(5,19,28,31)           1.2401         estimate D2E/DX2                !
 ! D93   D(9,32,33,35)        -174.2255         estimate D2E/DX2                !
 ! D94   D(9,32,33,36)           6.2996         estimate D2E/DX2                !
 ! D95   D(34,32,33,35)         -0.2487         estimate D2E/DX2                !
 ! D96   D(34,32,33,36)       -179.7235         estimate D2E/DX2                !
 ! D97   D(9,32,34,37)         175.3685         estimate D2E/DX2                !
 ! D98   D(33,32,34,37)          0.5616         estimate D2E/DX2                !
 ! D99   D(32,33,35,37)         -0.3153         estimate D2E/DX2                !
 ! D100  D(32,33,35,38)        179.7326         estimate D2E/DX2                !
 ! D101  D(36,33,35,37)        179.1548         estimate D2E/DX2                !
 ! D102  D(36,33,35,38)         -0.7973         estimate D2E/DX2                !
 ! D103  D(32,34,37,35)         -0.7229         estimate D2E/DX2                !
 ! D104  D(32,34,37,39)        177.9401         estimate D2E/DX2                !
 ! D105  D(33,35,37,34)          0.7247         estimate D2E/DX2                !
 ! D106  D(33,35,37,39)       -177.857          estimate D2E/DX2                !
 ! D107  D(38,35,37,34)       -179.3193         estimate D2E/DX2                !
 ! D108  D(38,35,37,39)          2.0991         estimate D2E/DX2                !
 ! D109  D(33,35,38,40)          6.5207         estimate D2E/DX2                !
 ! D110  D(37,35,38,40)       -173.4294         estimate D2E/DX2                !
 ! D111  D(34,37,39,41)          2.8179         estimate D2E/DX2                !
 ! D112  D(34,37,39,42)       -177.2109         estimate D2E/DX2                !
 ! D113  D(35,37,39,41)       -178.7757         estimate D2E/DX2                !
 ! D114  D(35,37,39,42)          1.1956         estimate D2E/DX2                !
 ! D115  D(35,38,40,43)        175.4911         estimate D2E/DX2                !
 ! D116  D(35,38,40,44)        -65.8534         estimate D2E/DX2                !
 ! D117  D(35,38,40,45)         56.3334         estimate D2E/DX2                !
 ! D118  D(37,39,41,46)       -179.9831         estimate D2E/DX2                !
 ! D119  D(37,39,41,47)         -0.1405         estimate D2E/DX2                !
 ! D120  D(42,39,41,46)          0.0425         estimate D2E/DX2                !
 ! D121  D(42,39,41,47)        179.885          estimate D2E/DX2                !
 ! D122  D(37,39,42,48)        179.9963         estimate D2E/DX2                !
 ! D123  D(41,39,42,48)         -0.0278         estimate D2E/DX2                !
 ! D124  D(39,41,46,48)         -0.0386         estimate D2E/DX2                !
 ! D125  D(39,41,46,49)       -179.9481         estimate D2E/DX2                !
 ! D126  D(47,41,46,48)       -179.8675         estimate D2E/DX2                !
 ! D127  D(47,41,46,49)          0.223          estimate D2E/DX2                !
 ! D128  D(39,41,47,50)        178.3929         estimate D2E/DX2                !
 ! D129  D(46,41,47,50)         -1.786          estimate D2E/DX2                !
 ! D130  D(39,42,48,46)          0.0069         estimate D2E/DX2                !
 ! D131  D(39,42,48,51)        179.8781         estimate D2E/DX2                !
 ! D132  D(41,46,48,42)          0.0159         estimate D2E/DX2                !
 ! D133  D(41,46,48,51)       -179.8431         estimate D2E/DX2                !
 ! D134  D(49,46,48,42)        179.9263         estimate D2E/DX2                !
 ! D135  D(49,46,48,51)          0.0673         estimate D2E/DX2                !
 ! D136  D(41,47,50,52)         62.0194         estimate D2E/DX2                !
 ! D137  D(41,47,50,53)       -179.1921         estimate D2E/DX2                !
 ! D138  D(41,47,50,54)        -60.3133         estimate D2E/DX2                !
 --------------------------------------------------------------------------------
 Trust Radius=3.00D-01 FncErr=1.00D-07 GrdErr=1.00D-06 EigMax=2.50D+02 EigMin=1.00D-04
 Number of steps in this run=    307 maximum allowed number of steps=    324.
 GradGradGradGradGradGradGradGradGradGradGradGradGradGradGradGradGradGrad

 Stoichiometry    C26H18N2O6S2(2-)
 Framework group  C1[X(C26H18N2O6S2)]
 Deg. of freedom   156
 Full point group                 C1      NOp   1
 Largest Abelian subgroup         C1      NOp   1
 Largest concise Abelian subgroup C1      NOp   1
                         Standard orientation:                         
 ---------------------------------------------------------------------
 Center     Atomic      Atomic             Coordinates (Angstroms)
 Number     Number       Type             X           Y           Z
 ---------------------------------------------------------------------
      1          6           0        2.796534   -2.914364    0.590782
      2          6           0        2.382810   -1.506558    0.351987
      3          6           0        3.348759   -0.509637    0.079876
      4          6           0        4.721121   -0.839594    0.030246
      5          6           0        5.170433   -2.236962    0.269812
      6          6           0        1.053135   -1.175690    0.421513
      7          6           0        2.906967    0.824388   -0.152469
      8          6           0        1.517038    1.160854   -0.090878
      9          6           0        0.565805    0.155786    0.234870
     10          6           0        1.132970    2.547982   -0.469255
     11          6           0        3.532317    3.193296   -0.747008
     12          6           0        3.901858    1.792737   -0.450133
     13          6           0        5.247462    1.451435   -0.491088
     14          6           0        5.665636    0.137438   -0.249146
     15          1           0        6.712448   -0.139983   -0.281869
     16          1           0        5.961644    2.234126   -0.721851
     17          1           0        0.359417   -1.968859    0.674490
     18          7           0        2.162647    3.463690   -0.762347
     19          7           0        4.168813   -3.186464    0.534712
     20          8           0        1.998367   -3.810773    0.826458
     21          8           0        6.350310   -2.552680    0.237570
     22          8           0        4.363467    4.061854   -0.981458
     23          8           0       -0.020454    2.949178   -0.558548
     24          6           0        1.728162    4.819700   -1.116069
     25          1           0        1.088028    4.785289   -1.998908
     26          1           0        1.150955    5.251577   -0.294478
     27          1           0        2.620142    5.409552   -1.308343
     28          6           0        4.565637   -4.578206    0.775811
     29          1           0        4.212496   -4.896476    1.758954
     30          1           0        4.114564   -5.227298    0.022956
     31          1           0        5.649918   -4.627409    0.722764
     32          6           0       -0.872913    0.322052    0.437730
     33          6           0       -1.575799    1.015392    1.403762
     34         16           0       -1.986306   -0.592317   -0.580948
     35          6           0       -2.969603    0.827392    1.331015
     36          1           0       -1.096080    1.646170    2.135499
     37          6           0       -3.385224   -0.016374    0.295792
     38          8           0       -3.905059    1.376818    2.149990
     39          6           0       -4.729715   -0.368226   -0.063178
     40          6           0       -3.460314    2.341368    3.100560
     41          6           0       -5.141964   -1.227863   -1.080632
     42         16           0       -6.145493    0.265569    0.772200
     43          1           0       -4.358767    2.712883    3.592866
     44          1           0       -2.799154    1.886042    3.848175
     45          1           0       -2.938068    3.170372    2.609010
     46          6           0       -6.554098   -1.371673   -1.185786
     47          8           0       -4.206048   -1.831271   -1.859273
     48          6           0       -7.215492   -0.624032   -0.250147
     49          1           0       -7.053041   -1.996536   -1.914445
     50          6           0       -4.655281   -2.729956   -2.866656
     51          1           0       -8.284090   -0.548613   -0.103383
     52          1           0       -5.284163   -2.217832   -3.605962
     53          1           0       -3.757272   -3.106337   -3.355627
     54          1           0       -5.212521   -3.568410   -2.432230
 ---------------------------------------------------------------------
 Rotational constants (GHZ):           0.1552718           0.0562317           0.0460044
 Standard basis: 6-311+G(d,p) (5D, 7F)
 There are   952 symmetry adapted cartesian basis functions of A   symmetry.
 There are   916 symmetry adapted basis functions of A   symmetry.
   916 basis functions,  1468 primitive gaussians,   952 cartesian basis functions
   135 alpha electrons      135 beta electrons
       nuclear repulsion energy      4075.9955785753 Hartrees.
 NAtoms=   54 NActive=   54 NUniq=   54 SFac= 1.00D+00 NAtFMM=   60 NAOKFM=F Big=F
 Integral buffers will be    131072 words long.
 Raffenetti 2 integral format.
 Two-electron integral symmetry is turned on.
 One-electron integrals computed using PRISM.
 NBasis=   916 RedAO= T EigKep=  1.08D-06  NBF=   916
 NBsUse=   902 1.00D-06 EigRej=  6.48D-07 NBFU=   902
 ExpMin= 4.05D-02 ExpMax= 9.34D+04 ExpMxC= 3.17D+03 IAcc=3 IRadAn=         5 AccDes= 0.00D+00
 Harris functional with IExCor=  402 and IRadAn=       5 diagonalized for initial guess.
 HarFok:  IExCor=  402 AccDes= 0.00D+00 IRadAn=         5 IDoV= 1 UseB2=F ITyADJ=14
 ICtDFT=  3500011 ScaDFX=  1.000000  1.000000  1.000000  1.000000
 FoFCou: FMM=F IPFlag=           0 FMFlag=      100000 FMFlg1=           0
         NFxFlg=           0 DoJE=T BraDBF=F KetDBF=T FulRan=T
         wScrn=  0.000000 ICntrl=       500 IOpCl=  0 I1Cent=   200000004 NGrid=           0
         NMat0=    1 NMatS0=      1 NMatT0=    0 NMatD0=    1 NMtDS0=    0 NMtDT0=    0
 Petite list used in FoFCou.
 Requested convergence on RMS density matrix=1.00D-08 within 128 cycles.
 Requested convergence on MAX density matrix=1.00D-06.
 Requested convergence on             energy=1.00D-06.
 No special actions if energy rises.
 EnCoef did     9 forward-backward iterations
 EnCoef did     6 forward-backward iterations
 EnCoef did     2 forward-backward iterations
 Restarting incremental Fock formation.
 SCF Done:  E(RB3LYP) =  -2359.37619418     A.U. after   23 cycles
            NFock= 23  Conv=0.73D-08     -V/T= 2.0030

 **********************************************************************

            Population analysis using the SCF Density.

 **********************************************************************

 Orbital symmetries:
       Occupied  (A) (A) (A) (A) (A) (A) (A) (A) (A) (A) (A) (A)
                 (A) (A) (A) (A) (A) (A) (A) (A) (A) (A) (A) (A)
                 (A) (A) (A) (A) (A) (A) (A) (A) (A) (A) (A) (A)
                 (A) (A) (A) (A) (A) (A) (A) (A) (A) (A) (A) (A)
                 (A) (A) (A) (A) (A) (A) (A) (A) (A) (A) (A) (A)
                 (A) (A) (A) (A) (A) (A) (A) (A) (A) (A) (A) (A)
                 (A) (A) (A) (A) (A) (A) (A) (A) (A) (A) (A) (A)
                 (A) (A) (A) (A) (A) (A) (A) (A) (A) (A) (A) (A)
                 (A) (A) (A) (A) (A) (A) (A) (A) (A) (A) (A) (A)
                 (A) (A) (A) (A) (A) (A) (A) (A) (A) (A) (A) (A)
                 (A) (A) (A) (A) (A) (A) (A) (A) (A) (A) (A) (A)
                 (A) (A) (A)
       Virtual   (A) (A) (A) (A) (A) (A) (A) (A) (A) (A) (A) (A)
                 (A) (A) (A) (A) (A) (A) (A) (A) (A) (A) (A) (A)
                 (A) (A) (A) (A) (A) (A) (A) (A) (A) (A) (A) (A)
                 (A) (A) (A) (A) (A) (A) (A) (A) (A) (A) (A) (A)
                 (A) (A) (A) (A) (A) (A) (A) (A) (A) (A) (A) (A)
                 (A) (A) (A) (A) (A) (A) (A) (A) (A) (A) (A) (A)
                 (A) (A) (A) (A) (A) (A) (A) (A) (A) (A) (A) (A)
                 (A) (A) (A) (A) (A) (A) (A) (A) (A) (A) (A) (A)
                 (A) (A) (A) (A) (A) (A) (A) (A) (A) (A) (A) (A)
                 (A) (A) (A) (A) (A) (A) (A) (A) (A) (A) (A) (A)
                 (A) (A) (A) (A) (A) (A) (A) (A) (A) (A) (A) (A)
                 (A) (A) (A) (A) (A) (A) (A) (A) (A) (A) (A) (A)
                 (A) (A) (A) (A) (A) (A) (A) (A) (A) (A) (A) (A)
                 (A) (A) (A) (A) (A) (A) (A) (A) (A) (A) (A) (A)
                 (A) (A) (A) (A) (A) (A) (A) (A) (A) (A) (A) (A)
                 (A) (A) (A) (A) (A) (A) (A) (A) (A) (A) (A) (A)
                 (A) (A) (A) (A) (A) (A) (A) (A) (A) (A) (A) (A)
                 (A) (A) (A) (A) (A) (A) (A) (A) (A) (A) (A) (A)
                 (A) (A) (A) (A) (A) (A) (A) (A) (A) (A) (A) (A)
                 (A) (A) (A) (A) (A) (A) (A) (A) (A) (A) (A) (A)
                 (A) (A) (A) (A) (A) (A) (A) (A) (A) (A) (A) (A)
                 (A) (A) (A) (A) (A) (A) (A) (A) (A) (A) (A) (A)
                 (A) (A) (A) (A) (A) (A) (A) (A) (A) (A) (A) (A)
                 (A) (A) (A) (A) (A) (A) (A) (A) (A) (A) (A) (A)
                 (A) (A) (A) (A) (A) (A) (A) (A) (A) (A) (A) (A)
                 (A) (A) (A) (A) (A) (A) (A) (A) (A) (A) (A) (A)
                 (A) (A) (A) (A) (A) (A) (A) (A) (A) (A) (A) (A)
                 (A) (A) (A) (A) (A) (A) (A) (A) (A) (A) (A) (A)
                 (A) (A) (A) (A) (A) (A) (A) (A) (A) (A) (A) (A)
                 (A) (A) (A) (A) (A) (A) (A) (A) (A) (A) (A) (A)
                 (A) (A) (A) (A) (A) (A) (A) (A) (A) (A) (A) (A)
                 (A) (A) (A) (A) (A) (A) (A) (A) (A) (A) (A) (A)
                 (A) (A) (A) (A) (A) (A) (A) (A) (A) (A) (A) (A)
                 (A) (A) (A) (A) (A) (A) (A) (A) (A) (A) (A) (A)
                 (A) (A) (A) (A) (A) (A) (A) (A) (A) (A) (A) (A)
                 (A) (A) (A) (A) (A) (A) (A) (A) (A) (A) (A) (A)
                 (A) (A) (A) (A) (A) (A) (A) (A) (A) (A) (A) (A)
                 (A) (A) (A) (A) (A) (A) (A) (A) (A) (A) (A) (A)
                 (A) (A) (A) (A) (A) (A) (A) (A) (A) (A) (A) (A)
                 (A) (A) (A) (A) (A) (A) (A) (A) (A) (A) (A) (A)
                 (A) (A) (A) (A) (A) (A) (A) (A) (A) (A) (A) (A)
                 (A) (A) (A) (A) (A) (A) (A) (A) (A) (A) (A) (A)
                 (A) (A) (A) (A) (A) (A) (A) (A) (A) (A) (A) (A)
                 (A) (A) (A) (A) (A) (A) (A) (A) (A) (A) (A) (A)
                 (A) (A) (A) (A) (A) (A) (A) (A) (A) (A) (A) (A)
                 (A) (A) (A) (A) (A) (A) (A) (A) (A) (A) (A) (A)
                 (A) (A) (A) (A) (A) (A) (A) (A) (A) (A) (A) (A)
                 (A) (A) (A) (A) (A) (A) (A) (A) (A) (A) (A) (A)
                 (A) (A) (A) (A) (A) (A) (A) (A) (A) (A) (A) (A)
                 (A) (A) (A) (A) (A) (A) (A) (A) (A) (A) (A) (A)
                 (A) (A) (A) (A) (A) (A) (A) (A) (A) (A) (A) (A)
                 (A) (A) (A) (A) (A) (A) (A) (A) (A) (A) (A) (A)
                 (A) (A) (A) (A) (A) (A) (A) (A) (A) (A) (A) (A)
                 (A) (A) (A) (A) (A) (A) (A) (A) (A) (A) (A) (A)
                 (A) (A) (A) (A) (A) (A) (A) (A) (A) (A) (A) (A)
                 (A) (A) (A) (A) (A) (A) (A) (A) (A) (A) (A) (A)
                 (A) (A) (A) (A) (A) (A) (A) (A) (A) (A) (A) (A)
                 (A) (A) (A) (A) (A) (A) (A) (A) (A) (A) (A) (A)
                 (A) (A) (A) (A) (A) (A) (A) (A) (A) (A) (A) (A)
                 (A) (A) (A) (A) (A) (A) (A) (A) (A) (A) (A) (A)
                 (A) (A) (A) (A) (A) (A) (A) (A) (A) (A) (A) (A)
                 (A) (A) (A) (A) (A) (A) (A) (A) (A) (A) (A) (A)
                 (A) (A) (A) (A) (A) (A) (A) (A) (A) (A) (A) (A)
                 (A) (A) (A) (A) (A) (A) (A) (A) (A) (A) (A)
 The electronic state is 1-A.
 Alpha  occ. eigenvalues --  -88.71233 -88.67597 -19.00140 -18.99469 -18.87369
 Alpha  occ. eigenvalues --  -18.87003 -18.86564 -18.85897 -14.15082 -14.14280
 Alpha  occ. eigenvalues --  -10.08878 -10.07699 -10.06653 -10.05533 -10.05209
 Alpha  occ. eigenvalues --  -10.05196 -10.04687 -10.04530 -10.04224 -10.03424
 Alpha  occ. eigenvalues --  -10.02513 -10.01403 -10.01324 -10.00997 -10.00175
 Alpha  occ. eigenvalues --   -9.97992  -9.97127  -9.97046  -9.96829  -9.95456
 Alpha  occ. eigenvalues --   -9.95394  -9.94959  -9.94676  -9.94671  -9.94551
 Alpha  occ. eigenvalues --   -9.94533  -7.79812  -7.76168  -5.76121  -5.75749
 Alpha  occ. eigenvalues --   -5.75370  -5.72495  -5.72101  -5.71703  -0.91849
 Alpha  occ. eigenvalues --   -0.90943  -0.83948  -0.83171  -0.81858  -0.80972
 Alpha  occ. eigenvalues --   -0.72231  -0.72140  -0.71287  -0.68854  -0.66085
 Alpha  occ. eigenvalues --   -0.61467  -0.60229  -0.59159  -0.58363  -0.57651
 Alpha  occ. eigenvalues --   -0.55136  -0.53778  -0.52797  -0.52500  -0.51933
 Alpha  occ. eigenvalues --   -0.50158  -0.49333  -0.45784  -0.43407  -0.42541
 Alpha  occ. eigenvalues --   -0.41763  -0.41370  -0.40201  -0.39632  -0.39233
 Alpha  occ. eigenvalues --   -0.36822  -0.36494  -0.33286  -0.33201  -0.32944
 Alpha  occ. eigenvalues --   -0.32060  -0.31729  -0.30943  -0.30766  -0.29548
 Alpha  occ. eigenvalues --   -0.29166  -0.28690  -0.27367  -0.26610  -0.26599
 Alpha  occ. eigenvalues --   -0.25910  -0.25405  -0.24867  -0.24553  -0.24280
 Alpha  occ. eigenvalues --   -0.23984  -0.23017  -0.22204  -0.21874  -0.21074
 Alpha  occ. eigenvalues --   -0.20811  -0.20687  -0.20424  -0.20210  -0.20041
 Alpha  occ. eigenvalues --   -0.19508  -0.19304  -0.19193  -0.18546  -0.18244
 Alpha  occ. eigenvalues --   -0.17604  -0.17482  -0.16882  -0.16524  -0.16225
 Alpha  occ. eigenvalues --   -0.15307  -0.14881  -0.14336  -0.14108  -0.11920
 Alpha  occ. eigenvalues --   -0.10584  -0.09619  -0.07799  -0.06552  -0.06490
 Alpha  occ. eigenvalues --   -0.06083  -0.05481  -0.05283  -0.05003  -0.04385
 Alpha  occ. eigenvalues --   -0.03403  -0.03192  -0.00856   0.00231   0.08803
 Alpha virt. eigenvalues --    0.12074   0.12678   0.13271   0.13898   0.15503
 Alpha virt. eigenvalues --    0.16472   0.16772   0.16866   0.17014   0.17225
 Alpha virt. eigenvalues --    0.17426   0.17952   0.18277   0.18444   0.18935
 Alpha virt. eigenvalues --    0.19296   0.19482   0.19780   0.19972   0.20026
 Alpha virt. eigenvalues --    0.20603   0.20707   0.20848   0.21092   0.21385
 Alpha virt. eigenvalues --    0.21459   0.21806   0.22082   0.22182   0.22572
 Alpha virt. eigenvalues --    0.22819   0.23306   0.23690   0.23994   0.24300
 Alpha virt. eigenvalues --    0.24526   0.25073   0.25219   0.25370   0.25435
 Alpha virt. eigenvalues --    0.25745   0.26119   0.26292   0.26449   0.26459
 Alpha virt. eigenvalues --    0.26724   0.26894   0.27016   0.27553   0.27807
 Alpha virt. eigenvalues --    0.27884   0.28277   0.28685   0.28860   0.28993
 Alpha virt. eigenvalues --    0.29215   0.29487   0.29860   0.29981   0.30491
 Alpha virt. eigenvalues --    0.30889   0.31039   0.31350   0.31736   0.31993
 Alpha virt. eigenvalues --    0.32107   0.32322   0.32576   0.32868   0.33136
 Alpha virt. eigenvalues --    0.33249   0.33306   0.33667   0.33843   0.34149
 Alpha virt. eigenvalues --    0.34189   0.34522   0.34750   0.34999   0.35266
 Alpha virt. eigenvalues --    0.35619   0.35731   0.35903   0.36022   0.36416
 Alpha virt. eigenvalues --    0.36705   0.36995   0.37044   0.37191   0.37433
 Alpha virt. eigenvalues --    0.37711   0.38081   0.38174   0.38387   0.38485
 Alpha virt. eigenvalues --    0.38830   0.39153   0.39456   0.39472   0.39881
 Alpha virt. eigenvalues --    0.40085   0.40379   0.40643   0.40972   0.41230
 Alpha virt. eigenvalues --    0.41414   0.41741   0.41995   0.42297   0.42428
 Alpha virt. eigenvalues --    0.42488   0.42886   0.43000   0.43232   0.43291
 Alpha virt. eigenvalues --    0.43410   0.43976   0.44143   0.44421   0.44685
 Alpha virt. eigenvalues --    0.45019   0.45216   0.45267   0.45601   0.45697
 Alpha virt. eigenvalues --    0.45901   0.46087   0.46198   0.46383   0.46822
 Alpha virt. eigenvalues --    0.46870   0.47140   0.47708   0.47883   0.48097
 Alpha virt. eigenvalues --    0.48214   0.48394   0.48590   0.48606   0.48966
 Alpha virt. eigenvalues --    0.49028   0.49375   0.49473   0.49747   0.49816
 Alpha virt. eigenvalues --    0.50126   0.50273   0.50466   0.50782   0.51189
 Alpha virt. eigenvalues --    0.51375   0.51674   0.51712   0.51887   0.52290
 Alpha virt. eigenvalues --    0.52497   0.52621   0.52870   0.53113   0.53412
 Alpha virt. eigenvalues --    0.53891   0.54139   0.54514   0.54615   0.55106
 Alpha virt. eigenvalues --    0.55536   0.56025   0.56078   0.56995   0.57226
 Alpha virt. eigenvalues --    0.57589   0.57913   0.58176   0.58563   0.59168
 Alpha virt. eigenvalues --    0.59393   0.59768   0.60203   0.60294   0.60558
 Alpha virt. eigenvalues --    0.60884   0.61109   0.61387   0.61735   0.62383
 Alpha virt. eigenvalues --    0.62541   0.63209   0.63567   0.63972   0.64272
 Alpha virt. eigenvalues --    0.64709   0.64925   0.65059   0.65577   0.65887
 Alpha virt. eigenvalues --    0.66010   0.66944   0.67204   0.68112   0.68311
 Alpha virt. eigenvalues --    0.68626   0.69774   0.70244   0.70815   0.71037
 Alpha virt. eigenvalues --    0.72087   0.72284   0.72725   0.72924   0.73076
 Alpha virt. eigenvalues --    0.73477   0.74225   0.74571   0.75392   0.75822
 Alpha virt. eigenvalues --    0.76340   0.76734   0.77125   0.77713   0.78105
 Alpha virt. eigenvalues --    0.78313   0.78611   0.78731   0.79094   0.79246
 Alpha virt. eigenvalues --    0.79733   0.79829   0.80499   0.80950   0.81192
 Alpha virt. eigenvalues --    0.81842   0.82424   0.83090   0.83293   0.83433
 Alpha virt. eigenvalues --    0.83775   0.83994   0.84338   0.85355   0.85485
 Alpha virt. eigenvalues --    0.85888   0.86218   0.86624   0.87223   0.87328
 Alpha virt. eigenvalues --    0.87806   0.88413   0.88744   0.88896   0.89241
 Alpha virt. eigenvalues --    0.89893   0.89995   0.90519   0.90833   0.91081
 Alpha virt. eigenvalues --    0.91147   0.91984   0.92197   0.92416   0.93076
 Alpha virt. eigenvalues --    0.93163   0.93516   0.93541   0.94087   0.94638
 Alpha virt. eigenvalues --    0.95197   0.95654   0.95756   0.96082   0.96230
 Alpha virt. eigenvalues --    0.96824   0.96918   0.97707   0.98146   0.98499
 Alpha virt. eigenvalues --    0.98526   0.98854   0.99414   0.99961   1.00010
 Alpha virt. eigenvalues --    1.00416   1.00967   1.01787   1.01895   1.02030
 Alpha virt. eigenvalues --    1.02636   1.03255   1.04490   1.05066   1.06005
 Alpha virt. eigenvalues --    1.06409   1.07276   1.08215   1.08514   1.08729
 Alpha virt. eigenvalues --    1.09860   1.10600   1.10781   1.11432   1.11853
 Alpha virt. eigenvalues --    1.12428   1.12776   1.13451   1.13956   1.15458
 Alpha virt. eigenvalues --    1.15862   1.16205   1.16649   1.16773   1.17502
 Alpha virt. eigenvalues --    1.17572   1.18097   1.18514   1.18776   1.19255
 Alpha virt. eigenvalues --    1.19611   1.20178   1.20642   1.20760   1.21223
 Alpha virt. eigenvalues --    1.21433   1.21983   1.22211   1.22616   1.23232
 Alpha virt. eigenvalues --    1.23563   1.23907   1.24347   1.24548   1.25176
 Alpha virt. eigenvalues --    1.25739   1.26176   1.26420   1.27079   1.27226
 Alpha virt. eigenvalues --    1.27795   1.28120   1.28441   1.29497   1.29820
 Alpha virt. eigenvalues --    1.30654   1.31173   1.31931   1.32040   1.32490
 Alpha virt. eigenvalues --    1.33458   1.34759   1.35052   1.35544   1.36496
 Alpha virt. eigenvalues --    1.36714   1.37844   1.38203   1.39184   1.39831
 Alpha virt. eigenvalues --    1.40206   1.41428   1.41519   1.42352   1.42664
 Alpha virt. eigenvalues --    1.43131   1.43687   1.44087   1.44346   1.46296
 Alpha virt. eigenvalues --    1.47179   1.47673   1.48489   1.49223   1.50188
 Alpha virt. eigenvalues --    1.50540   1.50867   1.51221   1.51338   1.51570
 Alpha virt. eigenvalues --    1.52649   1.53034   1.54280   1.55876   1.56399
 Alpha virt. eigenvalues --    1.56657   1.56865   1.57201   1.58334   1.59085
 Alpha virt. eigenvalues --    1.59668   1.59950   1.61143   1.61798   1.61889
 Alpha virt. eigenvalues --    1.63292   1.63530   1.64328   1.65063   1.65684
 Alpha virt. eigenvalues --    1.65980   1.66204   1.67261   1.67993   1.68562
 Alpha virt. eigenvalues --    1.68819   1.69423   1.70139   1.70354   1.70822
 Alpha virt. eigenvalues --    1.71165   1.71710   1.72778   1.73177   1.74302
 Alpha virt. eigenvalues --    1.74685   1.75052   1.75337   1.75773   1.76231
 Alpha virt. eigenvalues --    1.76487   1.76872   1.77415   1.78361   1.78728
 Alpha virt. eigenvalues --    1.78827   1.79179   1.79960   1.81078   1.81667
 Alpha virt. eigenvalues --    1.81959   1.82459   1.83234   1.83863   1.84072
 Alpha virt. eigenvalues --    1.84159   1.84512   1.84923   1.86859   1.87403
 Alpha virt. eigenvalues --    1.87993   1.88275   1.89251   1.90342   1.90713
 Alpha virt. eigenvalues --    1.91876   1.92233   1.92850   1.93192   1.93909
 Alpha virt. eigenvalues --    1.94255   1.94649   1.94980   1.95849   1.96264
 Alpha virt. eigenvalues --    1.97136   1.97608   1.98158   1.99142   1.99448
 Alpha virt. eigenvalues --    2.00307   2.00747   2.01289   2.02222   2.03274
 Alpha virt. eigenvalues --    2.03879   2.05057   2.05947   2.06440   2.07728
 Alpha virt. eigenvalues --    2.08548   2.09429   2.09810   2.10978   2.11858
 Alpha virt. eigenvalues --    2.11888   2.12500   2.13187   2.13562   2.14213
 Alpha virt. eigenvalues --    2.14641   2.14851   2.15825   2.16093   2.17283
 Alpha virt. eigenvalues --    2.17737   2.17842   2.18573   2.19708   2.20697
 Alpha virt. eigenvalues --    2.21253   2.21674   2.22155   2.22798   2.23230
 Alpha virt. eigenvalues --    2.23704   2.24327   2.24461   2.24967   2.25613
 Alpha virt. eigenvalues --    2.26113   2.26371   2.27112   2.27453   2.27750
 Alpha virt. eigenvalues --    2.28288   2.28917   2.29111   2.30910   2.31676
 Alpha virt. eigenvalues --    2.31832   2.33257   2.34032   2.34875   2.35652
 Alpha virt. eigenvalues --    2.36281   2.37693   2.38482   2.38855   2.40194
 Alpha virt. eigenvalues --    2.40778   2.41942   2.42333   2.42908   2.44987
 Alpha virt. eigenvalues --    2.45835   2.48043   2.49082   2.50310   2.52050
 Alpha virt. eigenvalues --    2.55799   2.56421   2.57010   2.57258   2.58165
 Alpha virt. eigenvalues --    2.59058   2.59329   2.60281   2.60991   2.61252
 Alpha virt. eigenvalues --    2.61783   2.63552   2.64173   2.64878   2.65370
 Alpha virt. eigenvalues --    2.66319   2.66916   2.67459   2.68126   2.68564
 Alpha virt. eigenvalues --    2.69519   2.70006   2.71093   2.71778   2.72258
 Alpha virt. eigenvalues --    2.72353   2.73788   2.74323   2.75648   2.76064
 Alpha virt. eigenvalues --    2.76388   2.78245   2.80266   2.80410   2.80939
 Alpha virt. eigenvalues --    2.81762   2.83191   2.84434   2.85133   2.86194
 Alpha virt. eigenvalues --    2.87497   2.88146   2.89185   2.89500   2.89771
 Alpha virt. eigenvalues --    2.90621   2.91919   2.92531   2.93175   2.94156
 Alpha virt. eigenvalues --    2.94921   2.95802   2.95902   2.96180   2.96719
 Alpha virt. eigenvalues --    2.97246   2.98287   2.99220   3.00447   3.01006
 Alpha virt. eigenvalues --    3.02936   3.03339   3.03658   3.06627   3.07328
 Alpha virt. eigenvalues --    3.07886   3.08799   3.09489   3.10295   3.10805
 Alpha virt. eigenvalues --    3.11595   3.12279   3.13068   3.13628   3.14048
 Alpha virt. eigenvalues --    3.14375   3.14645   3.15843   3.16216   3.16897
 Alpha virt. eigenvalues --    3.16996   3.17818   3.19148   3.19702   3.20112
 Alpha virt. eigenvalues --    3.20711   3.22532   3.22841   3.23721   3.26494
 Alpha virt. eigenvalues --    3.27477   3.28379   3.29643   3.31347   3.31976
 Alpha virt. eigenvalues --    3.32741   3.34557   3.35818   3.37734   3.38281
 Alpha virt. eigenvalues --    3.38969   3.39741   3.40458   3.40959   3.41318
 Alpha virt. eigenvalues --    3.42979   3.44544   3.45723   3.47821   3.48844
 Alpha virt. eigenvalues --    3.50268   3.51976   3.53539   3.54282   3.56889
 Alpha virt. eigenvalues --    3.57620   3.58383   3.59116   3.59301   3.59606
 Alpha virt. eigenvalues --    3.61195   3.62780   3.62886   3.65004   3.66713
 Alpha virt. eigenvalues --    3.67213   3.69057   3.69416   3.70976   3.72495
 Alpha virt. eigenvalues --    3.73810   3.75262   3.79212   3.82452   3.83501
 Alpha virt. eigenvalues --    3.84690   3.86286   3.88570   3.89496   3.90897
 Alpha virt. eigenvalues --    3.91008   3.92323   3.92470   3.93052   3.93562
 Alpha virt. eigenvalues --    3.93689   3.95934   3.97644   4.00750   4.05662
 Alpha virt. eigenvalues --    4.06885   4.08171   4.14495   4.15628   4.16188
 Alpha virt. eigenvalues --    4.17490   4.17710   4.20017   4.22285   4.25367
 Alpha virt. eigenvalues --    4.25749   4.27009   4.28931   4.31084   4.37396
 Alpha virt. eigenvalues --    4.38952   4.42470   4.49300   4.51082   4.60648
 Alpha virt. eigenvalues --    4.61961   4.65643   4.73699   4.87631   5.10160
 Alpha virt. eigenvalues --    5.10312   5.12691   5.13789   5.18398   5.20194
 Alpha virt. eigenvalues --    5.28247   5.29874   5.30182   5.33732   5.35695
 Alpha virt. eigenvalues --    5.37440   5.49198   5.51238   5.53197   5.55574
 Alpha virt. eigenvalues --    5.59564   5.61094   5.93652   5.97390   6.00092
 Alpha virt. eigenvalues --    6.04581   6.06322   6.10065   8.19168   8.25272
 Alpha virt. eigenvalues --   17.46136  17.54310  17.66805  17.69858  17.77934
 Alpha virt. eigenvalues --   17.82786  23.71509  23.78875  23.91645  23.99780
 Alpha virt. eigenvalues --   24.04973  24.05458  24.06563  24.07869  24.09288
 Alpha virt. eigenvalues --   24.10094  24.12221  24.12706  24.13783  24.15378
 Alpha virt. eigenvalues --   24.16491  24.20027  24.20485  24.21547  24.22340
 Alpha virt. eigenvalues --   24.24945  24.26365  24.31261  24.31628  24.33471
 Alpha virt. eigenvalues --   24.39438  24.40529  35.79535  35.82475  50.13007
 Alpha virt. eigenvalues --   50.14780  50.26982  50.28993  50.30894  50.32671
 Alpha virt. eigenvalues --  189.36489 189.43233
          Condensed to atoms (all electrons):
 Mulliken charges:
               1
     1  C    0.282670
     2  C   -0.149232
     3  C    0.082497
     4  C    0.172824
     5  C    0.133460
     6  C   -0.730949
     7  C    0.206195
     8  C    0.145192
     9  C    0.629191
    10  C   -0.495528
    11  C    0.255708
    12  C    0.075174
    13  C   -0.535189
    14  C   -0.649635
    15  H    0.098292
    16  H    0.102881
    17  H    0.133490
    18  N   -0.142048
    19  N   -0.137344
    20  O   -0.408686
    21  O   -0.397382
    22  O   -0.407984
    23  O   -0.284386
    24  C   -0.179706
    25  H    0.139903
    26  H    0.133798
    27  H    0.154930
    28  C   -0.183385
    29  H    0.136810
    30  H    0.135014
    31  H    0.155525
    32  C    0.105575
    33  C   -0.335614
    34  S   -0.519899
    35  C   -0.358953
    36  H    0.093223
    37  C    0.581783
    38  O   -0.123320
    39  C    0.872755
    40  C   -0.247930
    41  C   -0.050505
    42  S   -0.313330
    43  H    0.130721
    44  H    0.131944
    45  H    0.156850
    46  C   -0.513492
    47  O   -0.104872
    48  C   -0.344009
    49  H    0.096375
    50  C   -0.243674
    51  H    0.116279
    52  H    0.119001
    53  H    0.158701
    54  H    0.120287
 Sum of Mulliken charges =  -2.00000
 Mulliken charges with hydrogens summed into heavy atoms:
               1
     1  C    0.282670
     2  C   -0.149232
     3  C    0.082497
     4  C    0.172824
     5  C    0.133460
     6  C   -0.597459
     7  C    0.206195
     8  C    0.145192
     9  C    0.629191
    10  C   -0.495528
    11  C    0.255708
    12  C    0.075174
    13  C   -0.432307
    14  C   -0.551343
    18  N   -0.142048
    19  N   -0.137344
    20  O   -0.408686
    21  O   -0.397382
    22  O   -0.407984
    23  O   -0.284386
    24  C    0.248926
    28  C    0.243965
    32  C    0.105575
    33  C   -0.242391
    34  S   -0.519899
    35  C   -0.358953
    37  C    0.581783
    38  O   -0.123320
    39  C    0.872755
    40  C    0.171585
    41  C   -0.050505
    42  S   -0.313330
    46  C   -0.417116
    47  O   -0.104872
    48  C   -0.227730
    50  C    0.154315
 Electronic spatial extent (au):  <R**2>=          22657.2039
 Charge=             -2.0000 electrons
 Dipole moment (field-independent basis, Debye):
    X=            -16.8544    Y=             -1.0277    Z=              0.8530  Tot=             16.9073
 Quadrupole moment (field-independent basis, Debye-Ang):
   XX=           -422.3017   YY=           -303.8205   ZZ=           -229.3013
   XY=              0.8683   XZ=              8.7814   YZ=             24.7115
 Traceless Quadrupole moment (field-independent basis, Debye-Ang):
   XX=           -103.8271   YY=             14.6540   ZZ=             89.1732
   XY=              0.8683   XZ=              8.7814   YZ=             24.7115
 Octapole moment (field-independent basis, Debye-Ang**2):
  XXX=           -549.4750  YYY=            -43.4117  ZZZ=              2.2580  XYY=           -261.2286
  XXY=             13.0699  XXZ=             -3.2926  XZZ=            -40.8107  YZZ=             -4.4408
  YYZ=             10.7274  XYZ=             10.4619
 Hexadecapole moment (field-independent basis, Debye-Ang**3):
 XXXX=         -29261.6002 YYYY=          -8368.1091 ZZZZ=          -1918.2030 XXXY=            436.8597
 XXXZ=            249.4051 YYYX=           -342.2743 YYYZ=            335.0088 ZZZX=             40.0119
 ZZZY=            112.0551 XXYY=          -6210.7066 XXZZ=          -4190.6539 YYZZ=          -1518.4190
 XXYZ=            373.4872 YYXZ=            126.3540 ZZXY=            -32.2334
 N-N= 4.075995578575D+03 E-N=-1.375096034082D+04  KE= 2.352429875953D+03
 Calling FoFJK, ICntrl=      2127 FMM=F ISym2X=0 I1Cent= 0 IOpClX= 0 NMat=1 NMatS=1 NMatT=0.
 ***** Axes restored to original set *****
 -------------------------------------------------------------------
 Center     Atomic                   Forces (Hartrees/Bohr)
 Number     Number              X              Y              Z
 -------------------------------------------------------------------
      1        6          -0.001545319    0.044966226    0.005276933
      2        6          -0.027494264   -0.030924418   -0.004088241
      3        6          -0.003232245   -0.008033431   -0.000829151
      4        6           0.013944058   -0.036461551   -0.005372073
      5        6           0.025090345    0.038217273    0.004934242
      6        6           0.036927544    0.030749705    0.006084418
      7        6           0.001382097    0.008014220   -0.000672947
      8        6          -0.012411613    0.037869667    0.005953959
      9        6           0.000691033   -0.043622774   -0.002723449
     10        6          -0.015235154   -0.037804430   -0.009273340
     11        6           0.008309349   -0.042880044   -0.006926960
     12        6           0.025319306    0.028923942    0.004595324
     13        6          -0.029843661   -0.028849862   -0.003740087
     14        6          -0.015102632    0.038856738    0.005856009
     15        1          -0.000140580    0.000858234    0.000143541
     16        1          -0.000071924   -0.000950048   -0.000064560
     17        1           0.001541101    0.001654508    0.000263686
     18        7          -0.002546949    0.004297160    0.000331330
     19        7          -0.002403452   -0.004288209   -0.000446222
     20        8           0.016196505   -0.026059438   -0.003751891
     21        8          -0.028889401   -0.017195664   -0.001975200
     22        8          -0.019013180    0.025974101    0.004136635
     23        8           0.028069027    0.011833245    0.002246601
     24        6          -0.001310130   -0.005132482   -0.002087871
     25        1           0.001192501    0.000611852    0.000266146
     26        1           0.000662655    0.000374566    0.000807845
     27        1          -0.000988262   -0.000320396   -0.000051539
     28        6           0.000680888    0.006146608    0.000347624
     29        1           0.000569660   -0.001031723    0.000220117
     30        1           0.000708172   -0.001258489   -0.000077389
     31        1          -0.000673606    0.000734948    0.000195230
     32        6           0.000548149   -0.001403854    0.000280870
     33        6           0.000793586    0.004465033    0.001922633
     34       16          -0.011711498    0.002188774   -0.003172890
     35        6          -0.008296773   -0.006117765    0.013310377
     36        1          -0.002676492   -0.000040352    0.000256175
     37        6           0.011999616    0.002635553   -0.004453546
     38        8           0.006081295    0.007964294   -0.011428973
     39        6          -0.009222603   -0.000984849   -0.002565137
     40        6           0.000894352   -0.003188402    0.004091659
     41        6           0.011983695    0.004286668   -0.004735442
     42       16          -0.001966689    0.000395416   -0.001194127
     43        1           0.000688311    0.000251410   -0.000274925
     44        1          -0.000214331    0.000345969    0.000619462
     45        1           0.000017006   -0.000815423   -0.000104805
     46        6          -0.006208829   -0.000730854    0.000146321
     47        8          -0.004158886   -0.009601131    0.012238098
     48        6           0.013889331    0.000165500    0.001561840
     49        1           0.000094645    0.000198197   -0.000153234
     50        6          -0.002749514    0.005069750   -0.006076742
     51        1          -0.001061317    0.000018099    0.000371715
     52        1           0.000430362    0.000000132    0.000144108
     53        1          -0.000161904    0.000097121   -0.000267079
     54        1           0.000626622   -0.000469321   -0.000095076
 -------------------------------------------------------------------
 Cartesian Forces:  Max     0.044966226 RMS     0.013180428

 GradGradGradGradGradGradGradGradGradGradGradGradGradGradGradGradGradGrad
 Berny optimization.
 FormGI is forming the generalized inverse of G from B-inverse, IUseBI=4.
 Internal  Forces:  Max     0.032917993 RMS     0.006420335
 Search for a local minimum.
 Step number   1 out of a maximum of  307
 All quantities printed in internal units (Hartrees-Bohrs-Radians)
 Mixed Optimization -- RFO/linear search
 Second derivative matrix not updated -- first step.
 ITU=  0
     Eigenvalues ---    0.00803   0.00803   0.01176   0.01203   0.01245
     Eigenvalues ---    0.01292   0.01308   0.01311   0.01356   0.01391
     Eigenvalues ---    0.01419   0.01429   0.01456   0.01496   0.01515
     Eigenvalues ---    0.01568   0.01572   0.01577   0.01621   0.01651
     Eigenvalues ---    0.01692   0.01711   0.01712   0.01719   0.01754
     Eigenvalues ---    0.01783   0.01803   0.01847   0.01966   0.02040
     Eigenvalues ---    0.02048   0.02071   0.02079   0.02085   0.02135
     Eigenvalues ---    0.02149   0.02163   0.02181   0.02197   0.02230
     Eigenvalues ---    0.02237   0.02256   0.07556   0.07572   0.07690
     Eigenvalues ---    0.07700   0.10059   0.10067   0.10635   0.10639
     Eigenvalues ---    0.15983   0.15999   0.15999   0.16000   0.16000
     Eigenvalues ---    0.16000   0.16000   0.16000   0.16000   0.16000
     Eigenvalues ---    0.16000   0.16000   0.16000   0.16000   0.16000
     Eigenvalues ---    0.16000   0.16000   0.16000   0.22530   0.22583
     Eigenvalues ---    0.23518   0.23581   0.24516   0.24747   0.24865
     Eigenvalues ---    0.24931   0.24952   0.24985   0.24987   0.24988
     Eigenvalues ---    0.24991   0.24994   0.24997   0.24997   0.24998
     Eigenvalues ---    0.24998   0.25000   0.25000   0.25000   0.25000
     Eigenvalues ---    0.25000   0.25000   0.25000   0.25000   0.25000
     Eigenvalues ---    0.25000   0.28773   0.28877   0.30085   0.32106
     Eigenvalues ---    0.32582   0.32774   0.33111   0.33787   0.33969
     Eigenvalues ---    0.34017   0.34075   0.34108   0.34354   0.34466
     Eigenvalues ---    0.34577   0.34629   0.34693   0.34839   0.34862
     Eigenvalues ---    0.35198   0.35218   0.35468   0.35553   0.35582
     Eigenvalues ---    0.35775   0.35842   0.36078   0.36083   0.36160
     Eigenvalues ---    0.36396   0.36662   0.39352   0.40194   0.40226
     Eigenvalues ---    0.40651   0.40775   0.41524   0.41659   0.42046
     Eigenvalues ---    0.42300   0.42784   0.43455   0.43892   0.44092
     Eigenvalues ---    0.44526   0.44594   0.45014   0.45406   0.46251
     Eigenvalues ---    0.47305   0.47605   0.49310   0.49684   0.53092
     Eigenvalues ---    0.53192   0.93281   0.93432   0.93989   0.94585
     Eigenvalues --- 1000.000001000.000001000.000001000.000001000.00000
     Eigenvalues --- 1000.000001000.000001000.000001000.000001000.00000
     Eigenvalues --- 1000.000001000.000001000.000001000.000001000.00000
     Eigenvalues --- 1000.000001000.000001000.000001000.000001000.00000
     Eigenvalues --- 1000.000001000.000001000.000001000.000001000.00000
     Eigenvalues --- 1000.000001000.000001000.000001000.000001000.00000
     Eigenvalues --- 1000.000001000.000001000.000001000.000001000.00000
     Eigenvalues --- 1000.000001000.000001000.000001000.000001000.00000
     Eigenvalues --- 1000.000001000.000001000.000001000.000001000.00000
     Eigenvalues --- 1000.000001000.000001000.000001000.000001000.00000
     Eigenvalues --- 1000.000001000.000001000.000001000.000001000.00000
     Eigenvalues --- 1000.000001000.000001000.000001000.000001000.00000
     Eigenvalues --- 1000.000001000.000001000.000001000.000001000.00000
     Eigenvalues --- 1000.000001000.000001000.000001000.000001000.00000
     Eigenvalues --- 1000.000001000.000001000.000001000.000001000.00000
     Eigenvalues --- 1000.000001000.000001000.000001000.000001000.00000
     Eigenvalues --- 1000.000001000.000001000.000001000.000001000.00000
     Eigenvalues --- 1000.000001000.000001000.000001000.000001000.00000
     Eigenvalues --- 1000.000001000.000001000.000001000.000001000.00000
     Eigenvalues --- 1000.000001000.000001000.000001000.000001000.00000
     Eigenvalues --- 1000.000001000.000001000.000001000.000001000.00000
     Eigenvalues --- 1000.000001000.000001000.000001000.000001000.00000
     Eigenvalues --- 1000.000001000.000001000.000001000.000001000.00000
     Eigenvalues --- 1000.000001000.000001000.000001000.000001000.00000
     Eigenvalues --- 1000.000001000.000001000.000001000.000001000.00000
     Eigenvalues --- 1000.000001000.000001000.000001000.000001000.00000
     Eigenvalues --- 1000.000001000.000001000.000001000.000001000.00000
     Eigenvalues --- 1000.000001000.000001000.000001000.000001000.00000
     Eigenvalues --- 1000.000001000.00000
 RFO step:  Lambda=-2.58421552D-02 EMin= 8.02933640D-03
 Linear search not attempted -- first point.
 Iteration  1 RMS(Cart)=  0.09771121 RMS(Int)=  0.00091841
 Iteration  2 RMS(Cart)=  0.00440891 RMS(Int)=  0.00013115
 Iteration  3 RMS(Cart)=  0.00000443 RMS(Int)=  0.00013115
 Iteration  4 RMS(Cart)=  0.00000000 RMS(Int)=  0.00013115
 Iteration  1 RMS(Cart)=  0.00003027 RMS(Int)=  0.00000484
 Iteration  2 RMS(Cart)=  0.00001727 RMS(Int)=  0.00000540
 Iteration  3 RMS(Cart)=  0.00000986 RMS(Int)=  0.00000613
 Iteration  4 RMS(Cart)=  0.00000563 RMS(Int)=  0.00000664
 Iteration  5 RMS(Cart)=  0.00000321 RMS(Int)=  0.00000695
 Iteration  6 RMS(Cart)=  0.00000183 RMS(Int)=  0.00000714
 Iteration  7 RMS(Cart)=  0.00000105 RMS(Int)=  0.00000724
 Iteration  8 RMS(Cart)=  0.00000060 RMS(Int)=  0.00000730
 Variable       Old X    -DE/DX   Delta X   Delta X   Delta X     New X
                                 (Linear)    (Quad)   (Total)
    R1        2.80935  -0.02146   0.00000  -0.05853  -0.05853   2.75082
    R2        2.64584   0.00616   0.00000   0.01244   0.01246   2.65830
    R3        2.31147   0.03004   0.00000   0.03111   0.03111   2.34258
    R4        2.67311   0.01014   0.00000   0.02484   0.02471   2.69783
    R5        2.59267   0.02982   0.00000   0.05715   0.05704   2.64971
    R6        2.66894   0.00370   0.00000   0.00893   0.00893   2.67787
    R7        2.69164   0.00851   0.00000   0.02046   0.02050   2.71214
    R8        2.81049  -0.02012   0.00000  -0.05576  -0.05576   2.75473
    R9        2.62173   0.02875   0.00000   0.05721   0.05719   2.67892
   R10        2.65570   0.00492   0.00000   0.00977   0.00978   2.66548
   R11        2.30889   0.03292   0.00000   0.03388   0.03388   2.34277
   R12        2.70248  -0.02791   0.00000  -0.06484  -0.06483   2.63764
   R13        2.04786  -0.00012   0.00000  -0.00030  -0.00030   2.04755
   R14        2.70495   0.00007   0.00000  -0.00186  -0.00166   2.70329
   R15        2.68322   0.00439   0.00000   0.00938   0.00946   2.69267
   R16        2.68655   0.01519   0.00000   0.03180   0.03189   2.71844
   R17        2.81233  -0.02652   0.00000  -0.07389  -0.07386   2.73847
   R18        2.76359   0.00040   0.00000   0.00103   0.00103   2.76462
   R19        2.66221   0.00693   0.00000   0.01503   0.01497   2.67718
   R20        2.31391   0.03051   0.00000   0.03177   0.03177   2.34568
   R21        2.79415  -0.01722   0.00000  -0.04555  -0.04558   2.74857
   R22        2.63842   0.00627   0.00000   0.01349   0.01341   2.65183
   R23        2.31456   0.03182   0.00000   0.03319   0.03319   2.34775
   R24        2.62448   0.02634   0.00000   0.05203   0.05201   2.67650
   R25        2.64561  -0.02087   0.00000  -0.04373  -0.04377   2.60184
   R26        2.04921  -0.00061   0.00000  -0.00160  -0.00160   2.04761
   R27        2.04741  -0.00014   0.00000  -0.00037  -0.00037   2.04704
   R28        2.77259  -0.00458   0.00000  -0.01184  -0.01184   2.76076
   R29        2.77252  -0.00480   0.00000  -0.01242  -0.01242   2.76010
   R30        2.06176   0.00088   0.00000   0.00237   0.00237   2.06413
   R31        2.06551  -0.00008   0.00000  -0.00021  -0.00021   2.06531
   R32        2.05322   0.00069   0.00000   0.00183   0.00183   2.05505
   R33        2.06368   0.00037   0.00000   0.00100   0.00100   2.06468
   R34        2.06281   0.00089   0.00000   0.00238   0.00238   2.06519
   R35        2.05355   0.00059   0.00000   0.00155   0.00155   2.05510
   R36        2.61028  -0.00185   0.00000  -0.00375  -0.00374   2.60654
   R37        3.33440  -0.00463   0.00000  -0.01452  -0.01453   3.31987
   R38        2.66131   0.00193   0.00000   0.00392   0.00394   2.66525
   R39        2.03832   0.00093   0.00000   0.00240   0.00240   2.04072
   R40        3.30424   0.00997   0.00000   0.03032   0.03030   3.33454
   R41        2.64316  -0.00244   0.00000  -0.00503  -0.00503   2.63813
   R42        2.56868   0.01124   0.00000   0.02018   0.02018   2.58886
   R43        2.71248   0.00144   0.00000   0.00337   0.00337   2.71584
   R44        2.69360  -0.00567   0.00000  -0.01281  -0.01281   2.68079
   R45        2.63489   0.00347   0.00000   0.00676   0.00675   2.64164
   R46        3.32934   0.00367   0.00000   0.01136   0.01135   3.34069
   R47        2.05937   0.00078   0.00000   0.00208   0.00208   2.06146
   R48        2.07301  -0.00049   0.00000  -0.00134  -0.00134   2.07167
   R49        2.07148  -0.00066   0.00000  -0.00179  -0.00179   2.06969
   R50        2.68970   0.00029   0.00000   0.00049   0.00049   2.69019
   R51        2.56775   0.00971   0.00000   0.01741   0.01741   2.58515
   R52        3.26298   0.00496   0.00000   0.01439   0.01440   3.27738
   R53        2.58543   0.00302   0.00000   0.00579   0.00579   2.59122
   R54        2.04435  -0.00017   0.00000  -0.00045  -0.00045   2.04390
   R55        2.68864  -0.00805   0.00000  -0.01804  -0.01804   2.67060
   R56        2.04329  -0.00107   0.00000  -0.00279  -0.00279   2.04050
   R57        2.07383   0.00031   0.00000   0.00085   0.00085   2.07467
   R58        2.05900  -0.00001   0.00000  -0.00003  -0.00003   2.05897
   R59        2.07203   0.00075   0.00000   0.00204   0.00204   2.07407
    A1        2.03797  -0.00427   0.00000  -0.01425  -0.01424   2.02372
    A2        2.14521   0.01054   0.00000   0.03758   0.03758   2.18279
    A3        2.10001  -0.00627   0.00000  -0.02334  -0.02334   2.07667
    A4        2.10395  -0.00236   0.00000  -0.00864  -0.00857   2.09538
    A5        2.08282   0.00233   0.00000   0.00384   0.00394   2.08676
    A6        2.09624   0.00003   0.00000   0.00485   0.00468   2.10092
    A7        2.10093   0.00510   0.00000   0.01761   0.01756   2.11849
    A8        2.07104  -0.00121   0.00000  -0.00160  -0.00168   2.06936
    A9        2.11118  -0.00389   0.00000  -0.01600  -0.01587   2.09530
   A10        2.10296  -0.00266   0.00000  -0.00914  -0.00918   2.09378
   A11        2.09911   0.00087   0.00000   0.00427   0.00430   2.10341
   A12        2.08110   0.00179   0.00000   0.00487   0.00488   2.08598
   A13        2.03739  -0.00292   0.00000  -0.01099  -0.01099   2.02640
   A14        2.12972   0.00967   0.00000   0.03526   0.03527   2.16499
   A15        2.11607  -0.00675   0.00000  -0.02427  -0.02427   2.09180
   A16        2.15098  -0.00446   0.00000  -0.01667  -0.01673   2.13425
   A17        2.04399   0.00454   0.00000   0.02071   0.02073   2.06472
   A18        2.08722  -0.00010   0.00000  -0.00443  -0.00443   2.08279
   A19        2.11101  -0.00436   0.00000  -0.01582  -0.01577   2.09524
   A20        2.04385   0.00281   0.00000   0.01233   0.01225   2.05609
   A21        2.12832   0.00155   0.00000   0.00348   0.00351   2.13183
   A22        2.08678   0.00342   0.00000   0.00867   0.00876   2.09555
   A23        2.04738   0.00563   0.00000   0.02111   0.02108   2.06846
   A24        2.14662  -0.00900   0.00000  -0.02820  -0.02852   2.11809
   A25        2.04892   0.00660   0.00000   0.02008   0.02010   2.06902
   A26        2.00754   0.00704   0.00000   0.02780   0.02762   2.03516
   A27        2.22643  -0.01366   0.00000  -0.04724  -0.04742   2.17901
   A28        2.06022  -0.00638   0.00000  -0.02390  -0.02393   2.03629
   A29        2.17370   0.00259   0.00000   0.00987   0.00983   2.18353
   A30        2.04919   0.00379   0.00000   0.01423   0.01419   2.06337
   A31        2.01621  -0.00234   0.00000  -0.00657  -0.00668   2.00953
   A32        2.14188   0.00858   0.00000   0.03020   0.03023   2.17211
   A33        2.12500  -0.00623   0.00000  -0.02348  -0.02345   2.10154
   A34        2.10943  -0.00308   0.00000  -0.01054  -0.01051   2.09892
   A35        2.11468  -0.00119   0.00000  -0.00506  -0.00507   2.10961
   A36        2.05896   0.00428   0.00000   0.01565   0.01562   2.07458
   A37        2.11176   0.00010   0.00000  -0.00088  -0.00092   2.11084
   A38        2.05670   0.00070   0.00000   0.00448   0.00449   2.06119
   A39        2.11471  -0.00080   0.00000  -0.00358  -0.00357   2.11115
   A40        2.08567   0.00131   0.00000   0.00537   0.00534   2.09101
   A41        2.07549   0.00024   0.00000   0.00211   0.00212   2.07761
   A42        2.12199  -0.00154   0.00000  -0.00747  -0.00745   2.11454
   A43        2.20043   0.00472   0.00000   0.01839   0.01828   2.21871
   A44        2.02023  -0.00213   0.00000  -0.00835  -0.00830   2.01193
   A45        2.06252  -0.00259   0.00000  -0.01003  -0.00998   2.05254
   A46        2.18316   0.00711   0.00000   0.02542   0.02543   2.20859
   A47        2.02959  -0.00281   0.00000  -0.01002  -0.01002   2.01956
   A48        2.07044  -0.00430   0.00000  -0.01540  -0.01541   2.05503
   A49        1.91737   0.00086   0.00000   0.00429   0.00430   1.92167
   A50        1.91808   0.00106   0.00000   0.00554   0.00554   1.92362
[...]
 Alpha  occ. eigenvalues --   -0.31798  -0.31478  -0.31069  -0.31009  -0.30134
 Alpha  occ. eigenvalues --   -0.29472  -0.28859  -0.27014  -0.26957  -0.26493
 Alpha  occ. eigenvalues --   -0.26300  -0.25723  -0.25038  -0.24737  -0.24639
 Alpha  occ. eigenvalues --   -0.23645  -0.23048  -0.22306  -0.22243  -0.21570
 Alpha  occ. eigenvalues --   -0.20910  -0.20773  -0.20608  -0.20361  -0.20179
 Alpha  occ. eigenvalues --   -0.19433  -0.19188  -0.18917  -0.18696  -0.17893
 Alpha  occ. eigenvalues --   -0.17853  -0.17215  -0.17023  -0.16289  -0.16084
 Alpha  occ. eigenvalues --   -0.15438  -0.14854  -0.14766  -0.12616  -0.12085
 Alpha  occ. eigenvalues --   -0.11274  -0.10077  -0.09261  -0.06719  -0.06563
 Alpha  occ. eigenvalues --   -0.06210  -0.05954  -0.05422  -0.05284  -0.04384
 Alpha  occ. eigenvalues --   -0.04204  -0.03480  -0.01514  -0.00465   0.06883
 Alpha virt. eigenvalues --    0.11749   0.12575   0.13597   0.14148   0.15547
 Alpha virt. eigenvalues --    0.16069   0.16502   0.16850   0.16948   0.17040
 Alpha virt. eigenvalues --    0.17205   0.17777   0.18318   0.18410   0.18702
 Alpha virt. eigenvalues --    0.18864   0.19286   0.19507   0.19700   0.19993
 Alpha virt. eigenvalues --    0.20172   0.20837   0.20992   0.21030   0.21331
 Alpha virt. eigenvalues --    0.21469   0.21703   0.21903   0.22514   0.22583
 Alpha virt. eigenvalues --    0.22730   0.23006   0.23661   0.23980   0.24164
 Alpha virt. eigenvalues --    0.24270   0.24430   0.24679   0.25057   0.25448
 Alpha virt. eigenvalues --    0.25616   0.25782   0.26154   0.26231   0.26355
 Alpha virt. eigenvalues --    0.26588   0.26708   0.27090   0.27161   0.27425
 Alpha virt. eigenvalues --    0.27897   0.27988   0.28389   0.28672   0.28863
 Alpha virt. eigenvalues --    0.29265   0.29491   0.29681   0.30013   0.30347
 Alpha virt. eigenvalues --    0.30676   0.30948   0.31186   0.31414   0.31780
 Alpha virt. eigenvalues --    0.31943   0.32173   0.32455   0.32668   0.32912
 Alpha virt. eigenvalues --    0.33000   0.33182   0.33415   0.33757   0.33924
 Alpha virt. eigenvalues --    0.34016   0.34246   0.34587   0.34736   0.34880
 Alpha virt. eigenvalues --    0.35367   0.35565   0.35761   0.35905   0.36205
 Alpha virt. eigenvalues --    0.36492   0.36695   0.37117   0.37475   0.37659
 Alpha virt. eigenvalues --    0.37766   0.37969   0.38256   0.38353   0.38635
 Alpha virt. eigenvalues --    0.38998   0.39140   0.39378   0.39706   0.39752
 Alpha virt. eigenvalues --    0.40080   0.40170   0.40531   0.40620   0.41011
 Alpha virt. eigenvalues --    0.41098   0.41378   0.41710   0.41894   0.42100
 Alpha virt. eigenvalues --    0.42212   0.42552   0.42586   0.42816   0.43095
 Alpha virt. eigenvalues --    0.43451   0.44013   0.44056   0.44272   0.44369
 Alpha virt. eigenvalues --    0.44787   0.44928   0.45088   0.45368   0.45449
 Alpha virt. eigenvalues --    0.45694   0.45727   0.45890   0.46286   0.46548
 Alpha virt. eigenvalues --    0.46686   0.46811   0.47109   0.47249   0.47421
 Alpha virt. eigenvalues --    0.47721   0.47904   0.48166   0.48296   0.48472
 Alpha virt. eigenvalues --    0.48710   0.48950   0.48972   0.49219   0.49340
 Alpha virt. eigenvalues --    0.49526   0.49888   0.50137   0.50202   0.50472
 Alpha virt. eigenvalues --    0.50791   0.51145   0.51507   0.51543   0.51865
 Alpha virt. eigenvalues --    0.52008   0.52242   0.52449   0.52549   0.53105
 Alpha virt. eigenvalues --    0.53307   0.53513   0.53856   0.54049   0.54385
 Alpha virt. eigenvalues --    0.55018   0.55118   0.55810   0.55866   0.56277
 Alpha virt. eigenvalues --    0.56443   0.57305   0.57505   0.57869   0.58264
 Alpha virt. eigenvalues --    0.58505   0.59121   0.59584   0.60005   0.60328
 Alpha virt. eigenvalues --    0.60655   0.60763   0.61019   0.61368   0.61576
 Alpha virt. eigenvalues --    0.62177   0.62387   0.62857   0.63135   0.63600
 Alpha virt. eigenvalues --    0.64100   0.64266   0.64760   0.65081   0.65425
 Alpha virt. eigenvalues --    0.65793   0.66046   0.66984   0.67174   0.67549
 Alpha virt. eigenvalues --    0.67799   0.69266   0.69538   0.70356   0.70746
 Alpha virt. eigenvalues --    0.71037   0.71182   0.71669   0.71944   0.72503
 Alpha virt. eigenvalues --    0.72794   0.73333   0.73555   0.74314   0.74786
 Alpha virt. eigenvalues --    0.75865   0.75964   0.76664   0.77096   0.77461
 Alpha virt. eigenvalues --    0.77721   0.78102   0.78301   0.78728   0.79068
 Alpha virt. eigenvalues --    0.79284   0.80122   0.80510   0.80578   0.80912
 Alpha virt. eigenvalues --    0.81054   0.82260   0.82689   0.82974   0.83056
 Alpha virt. eigenvalues --    0.83347   0.83819   0.84140   0.84738   0.85063
 Alpha virt. eigenvalues --    0.85590   0.85641   0.86033   0.86243   0.86811
 Alpha virt. eigenvalues --    0.87250   0.87532   0.87713   0.88112   0.88385
 Alpha virt. eigenvalues --    0.88679   0.89007   0.89687   0.89954   0.90059
 Alpha virt. eigenvalues --    0.90678   0.91071   0.91153   0.91595   0.92066
 Alpha virt. eigenvalues --    0.92184   0.92844   0.93070   0.93380   0.93674
 Alpha virt. eigenvalues --    0.94210   0.94464   0.94722   0.95264   0.95651
 Alpha virt. eigenvalues --    0.96090   0.96303   0.96589   0.96955   0.97146
 Alpha virt. eigenvalues --    0.97608   0.97874   0.98512   0.98825   0.99283
 Alpha virt. eigenvalues --    0.99629   1.00080   1.00701   1.01136   1.01667
 Alpha virt. eigenvalues --    1.02590   1.02891   1.03358   1.04304   1.04534
 Alpha virt. eigenvalues --    1.05296   1.06015   1.06277   1.08003   1.08304
 Alpha virt. eigenvalues --    1.08849   1.09023   1.09182   1.09699   1.10415
 Alpha virt. eigenvalues --    1.10611   1.11619   1.12206   1.13260   1.13512
 Alpha virt. eigenvalues --    1.14872   1.15485   1.15577   1.15948   1.16499
 Alpha virt. eigenvalues --    1.16754   1.17232   1.17452   1.17892   1.18086
 Alpha virt. eigenvalues --    1.18942   1.19479   1.19670   1.19943   1.20400
 Alpha virt. eigenvalues --    1.20897   1.21421   1.21585   1.21875   1.22588
 Alpha virt. eigenvalues --    1.22957   1.23687   1.23940   1.24471   1.24865
 Alpha virt. eigenvalues --    1.25166   1.25659   1.26046   1.26117   1.26561
 Alpha virt. eigenvalues --    1.26879   1.27395   1.28059   1.28265   1.29367
 Alpha virt. eigenvalues --    1.29616   1.30068   1.30558   1.31233   1.31619
 Alpha virt. eigenvalues --    1.32173   1.32689   1.33514   1.33894   1.35490
 Alpha virt. eigenvalues --    1.36080   1.36446   1.37478   1.38257   1.39121
 Alpha virt. eigenvalues --    1.39326   1.40016   1.41009   1.41321   1.41964
 Alpha virt. eigenvalues --    1.42281   1.43190   1.43812   1.43885   1.44740
 Alpha virt. eigenvalues --    1.45687   1.46394   1.46918   1.48301   1.48574
 Alpha virt. eigenvalues --    1.49596   1.50283   1.50763   1.51009   1.51511
 Alpha virt. eigenvalues --    1.52106   1.52236   1.52750   1.53949   1.54758
 Alpha virt. eigenvalues --    1.55519   1.56491   1.57266   1.57568   1.58742
 Alpha virt. eigenvalues --    1.59746   1.60389   1.61035   1.62228   1.62807
 Alpha virt. eigenvalues --    1.63868   1.64045   1.64253   1.65220   1.65733
 Alpha virt. eigenvalues --    1.65877   1.66219   1.66888   1.67005   1.68233
 Alpha virt. eigenvalues --    1.68782   1.69556   1.69899   1.70636   1.71053
 Alpha virt. eigenvalues --    1.71067   1.71473   1.72178   1.72820   1.73492
 Alpha virt. eigenvalues --    1.73795   1.74123   1.74753   1.75131   1.75565
 Alpha virt. eigenvalues --    1.76165   1.76223   1.76464   1.77038   1.78064
 Alpha virt. eigenvalues --    1.78223   1.78545   1.78918   1.79310   1.79715
 Alpha virt. eigenvalues --    1.81617   1.81913   1.82401   1.82717   1.83327
 Alpha virt. eigenvalues --    1.83738   1.84147   1.84601   1.85730   1.86862
 Alpha virt. eigenvalues --    1.87260   1.87766   1.88224   1.89714   1.90235
 Alpha virt. eigenvalues --    1.91161   1.91758   1.91856   1.92254   1.92495
 Alpha virt. eigenvalues --    1.93104   1.93324   1.94099   1.94184   1.95275
 Alpha virt. eigenvalues --    1.96492   1.96782   1.97298   1.97658   1.98789
 Alpha virt. eigenvalues --    1.99502   1.99918   2.00545   2.00989   2.01668
 Alpha virt. eigenvalues --    2.02740   2.03108   2.04202   2.04918   2.06842
 Alpha virt. eigenvalues --    2.07772   2.08902   2.09277   2.09877   2.10297
 Alpha virt. eigenvalues --    2.10596   2.10966   2.11444   2.12099   2.13119
 Alpha virt. eigenvalues --    2.13468   2.14077   2.14290   2.14597   2.15757
 Alpha virt. eigenvalues --    2.16135   2.17420   2.17825   2.18755   2.19603
 Alpha virt. eigenvalues --    2.20146   2.20358   2.21277   2.22306   2.22494
 Alpha virt. eigenvalues --    2.22996   2.23612   2.23709   2.24464   2.25000
 Alpha virt. eigenvalues --    2.25092   2.26022   2.26289   2.26541   2.26931
 Alpha virt. eigenvalues --    2.27511   2.28197   2.28799   2.29894   2.30201
 Alpha virt. eigenvalues --    2.31154   2.31975   2.32891   2.33610   2.34110
 Alpha virt. eigenvalues --    2.35722   2.36053   2.37959   2.38576   2.39619
 Alpha virt. eigenvalues --    2.40259   2.40527   2.42321   2.43044   2.43495
 Alpha virt. eigenvalues --    2.44698   2.46584   2.47672   2.48236   2.50888
 Alpha virt. eigenvalues --    2.52335   2.55906   2.56333   2.56740   2.57564
 Alpha virt. eigenvalues --    2.58051   2.58904   2.59188   2.59521   2.60550
 Alpha virt. eigenvalues --    2.61464   2.62078   2.63498   2.64149   2.65090
 Alpha virt. eigenvalues --    2.66410   2.66779   2.67287   2.68023   2.68474
 Alpha virt. eigenvalues --    2.69562   2.70106   2.71278   2.71929   2.72113
 Alpha virt. eigenvalues --    2.73040   2.74035   2.74166   2.74965   2.75811
 Alpha virt. eigenvalues --    2.76004   2.76770   2.78432   2.80518   2.81240
 Alpha virt. eigenvalues --    2.81342   2.82006   2.82393   2.84329   2.85345
 Alpha virt. eigenvalues --    2.86732   2.87385   2.87892   2.88309   2.88687
 Alpha virt. eigenvalues --    2.89673   2.90057   2.90222   2.91046   2.92215
 Alpha virt. eigenvalues --    2.93345   2.94536   2.95029   2.95525   2.96095
 Alpha virt. eigenvalues --    2.96238   2.96490   2.98116   2.98404   3.00316
 Alpha virt. eigenvalues --    3.00432   3.01620   3.02308   3.03521   3.06003
 Alpha virt. eigenvalues --    3.06872   3.07384   3.07666   3.08808   3.09883
 Alpha virt. eigenvalues --    3.10670   3.11364   3.12050   3.12544   3.13501
 Alpha virt. eigenvalues --    3.13614   3.13822   3.14208   3.15049   3.15273
 Alpha virt. eigenvalues --    3.15566   3.16954   3.17442   3.18433   3.18732
 Alpha virt. eigenvalues --    3.19752   3.21047   3.21962   3.23464   3.26008
 Alpha virt. eigenvalues --    3.27381   3.27599   3.28779   3.30144   3.30974
 Alpha virt. eigenvalues --    3.31967   3.33199   3.34847   3.36022   3.37301
 Alpha virt. eigenvalues --    3.37897   3.39632   3.40362   3.40852   3.42084
 Alpha virt. eigenvalues --    3.42650   3.43188   3.45323   3.45483   3.46996
 Alpha virt. eigenvalues --    3.48013   3.48989   3.51355   3.52803   3.53474
 Alpha virt. eigenvalues --    3.55943   3.56125   3.56448   3.56764   3.56923
 Alpha virt. eigenvalues --    3.58057   3.59675   3.60402   3.62120   3.62890
 Alpha virt. eigenvalues --    3.63425   3.64619   3.65984   3.66826   3.69174
 Alpha virt. eigenvalues --    3.70909   3.72889   3.73182   3.75723   3.80847
 Alpha virt. eigenvalues --    3.82225   3.83249   3.84581   3.87689   3.88860
 Alpha virt. eigenvalues --    3.89379   3.91715   3.91912   3.92606   3.92766
 Alpha virt. eigenvalues --    3.93399   3.94990   3.95367   3.97302   3.99694
 Alpha virt. eigenvalues --    4.04700   4.07449   4.09145   4.13255   4.15153
 Alpha virt. eigenvalues --    4.15749   4.16703   4.16940   4.17420   4.19005
 Alpha virt. eigenvalues --    4.21513   4.25373   4.26052   4.29227   4.30623
 Alpha virt. eigenvalues --    4.36530   4.38321   4.41614   4.49438   4.51604
 Alpha virt. eigenvalues --    4.60599   4.61405   4.66675   4.71801   4.83970
 Alpha virt. eigenvalues --    5.06576   5.10247   5.10861   5.14417   5.20544
 Alpha virt. eigenvalues --    5.28340   5.29896   5.30261   5.33408   5.34572
 Alpha virt. eigenvalues --    5.36445   5.38449   5.48848   5.51098   5.53127
 Alpha virt. eigenvalues --    5.54872   5.56725   5.60181   5.90347   5.95036
 Alpha virt. eigenvalues --    5.98987   6.03821   6.05409   6.09506   8.17066
 Alpha virt. eigenvalues --    8.23595  17.45781  17.54523  17.65406  17.68797
 Alpha virt. eigenvalues --   17.78199  17.80823  23.69117  23.77977  23.89387
 Alpha virt. eigenvalues --   23.99375  24.03283  24.06254  24.06386  24.06684
 Alpha virt. eigenvalues --   24.08487  24.10831  24.12232  24.13784  24.14721
 Alpha virt. eigenvalues --   24.14825  24.16476  24.17259  24.19798  24.20057
 Alpha virt. eigenvalues --   24.21825  24.23301  24.24939  24.26097  24.31371
 Alpha virt. eigenvalues --   24.31835  24.37174  24.42781  35.79034  35.82123
 Alpha virt. eigenvalues --   50.11757  50.13569  50.25982  50.28023  50.29375
 Alpha virt. eigenvalues --   50.31356 189.34340 189.41697
          Condensed to atoms (all electrons):
 Mulliken charges:
               1
     1  C    0.295877
     2  C   -0.109518
     3  C    0.048237
     4  C    0.228825
     5  C    0.126345
     6  C   -0.764950
     7  C    0.209343
     8  C    0.112880
     9  C    0.618330
    10  C   -0.347280
    11  C    0.233995
    12  C    0.164071
    13  C   -0.548013
    14  C   -0.633469
    15  H    0.102481
    16  H    0.105530
    17  H    0.139552
    18  N   -0.152206
    19  N   -0.137052
    20  O   -0.430460
    21  O   -0.415603
    22  O   -0.424790
    23  O   -0.313623
    24  C   -0.191863
    25  H    0.140070
    26  H    0.129168
    27  H    0.158187
    28  C   -0.180010
    29  H    0.132045
    30  H    0.134816
    31  H    0.157336
    32  C   -0.011648
    33  C   -0.343088
    34  S   -0.444334
    35  C   -0.528464
    36  H    0.113132
    37  C    0.477416
    38  O   -0.127714
    39  C    0.449461
    40  C   -0.266062
    41  C    0.146029
    42  S   -0.357234
    43  H    0.129801
    44  H    0.129097
    45  H    0.164688
    46  C   -0.136072
    47  O   -0.136086
    48  C   -0.180696
    49  H    0.095332
    50  C   -0.311740
    51  H    0.121500
    52  H    0.106437
    53  H    0.150797
    54  H    0.171196
 Sum of Mulliken charges =  -2.00000
 Mulliken charges with hydrogens summed into heavy atoms:
               1
     1  C    0.295877
     2  C   -0.109518
     3  C    0.048237
     4  C    0.228825
     5  C    0.126345
     6  C   -0.625398
     7  C    0.209343
     8  C    0.112880
     9  C    0.618330
    10  C   -0.347280
    11  C    0.233995
    12  C    0.164071
    13  C   -0.442482
    14  C   -0.530988
    18  N   -0.152206
    19  N   -0.137052
    20  O   -0.430460
    21  O   -0.415603
    22  O   -0.424790
    23  O   -0.313623
    24  C    0.235562
    28  C    0.244186
    32  C   -0.011648
    33  C   -0.229955
    34  S   -0.444334
    35  C   -0.528464
    37  C    0.477416
    38  O   -0.127714
    39  C    0.449461
    40  C    0.157523
    41  C    0.146029
    42  S   -0.357234
    46  C   -0.040740
    47  O   -0.136086
    48  C   -0.059196
    50  C    0.116691
 Electronic spatial extent (au):  <R**2>=          22415.3689
 Charge=             -2.0000 electrons
 Dipole moment (field-independent basis, Debye):
    X=            -16.7436    Y=             -0.4790    Z=              2.6256  Tot=             16.9550
 Quadrupole moment (field-independent basis, Debye-Ang):
   XX=           -425.2715   YY=           -308.6289   ZZ=           -237.4989
   XY=             -0.0281   XZ=             -3.0828   YZ=             17.9165
 Traceless Quadrupole moment (field-independent basis, Debye-Ang):
   XX=           -101.4717   YY=             15.1709   ZZ=             86.3008
   XY=             -0.0281   XZ=             -3.0828   YZ=             17.9165
 Octapole moment (field-independent basis, Debye-Ang**2):
  XXX=           -553.8449  YYY=            -44.3131  ZZZ=             22.3861  XYY=           -289.7471
  XXY=             36.3148  XXZ=             32.8496  XZZ=             -0.1159  YZZ=             13.8528
  YYZ=             21.0229  XYZ=             35.4165
 Hexadecapole moment (field-independent basis, Debye-Ang**3):
 XXXX=         -28913.2996 YYYY=          -8919.8231 ZZZZ=          -1351.0230 XXXY=            408.6639
 XXXZ=            -20.7834 YYYX=           -324.1900 YYYZ=            302.8761 ZZZX=            -64.3249
 ZZZY=             36.8981 XXYY=          -6383.5563 XXZZ=          -4224.2864 YYZZ=          -1524.3427
 XXYZ=            257.4252 YYXZ=             44.3409 ZZXY=            -97.8659
 N-N= 4.090331978742D+03 E-N=-1.377873619890D+04  KE= 2.352084557614D+03
 Unable to Open any file for archive entry.
 1\1\GINC-CX3-4-21\FOpt\RB3LYP\6-311+G(d,p)\C26H18N2O6S2(2-)\NS5018\08-
 Oct-2021\0\\# opt=modredundant b3lyp/6-311+g(d,p)\\NDI_-65.pdb\\-2,1\C
 ,-2.4116088236,-2.9711000969,0.0014049457\C,-2.1607965155,-1.555645083
 6,0.0565866985\C,-3.2409963983,-0.6306647748,0.0317450521\C,-4.5810472
 007,-1.075901025,-0.0322729748\C,-4.8802827915,-2.4860656718,-0.082730
 596\C,-0.827974202,-1.0839232427,0.1182726683\C,-2.9482624226,0.785762
 2835,0.0785227201\C,-1.5937567064,1.2394176445,0.1321361831\C,-0.51388
 38143,0.2601301477,0.107144401\C,-1.3390066713,2.650070411,0.225836670
 1\C,-3.8186417093,3.1106078998,0.1567571737\C,-4.0419792984,1.69190238
 54,0.0826081339\C,-5.3865348218,1.2079605331,0.0193311022\C,-5.6524280
 056,-0.1282460796,-0.0405737497\H,-6.665517987,-0.5087927292,-0.088636
 4276\H,-6.1794818451,1.9463502092,0.023813728\H,-0.0407393724,-1.82714
 99208,0.109994866\N,-2.4710575775,3.5033520298,0.2428345489\N,-3.76778
 53764,-3.3574956258,-0.0598924443\O,-1.5391650869,-3.8635394184,0.0057
 744121\O,-6.0331847106,-2.9610413067,-0.144047685\O,-4.7226639736,3.97
 50596929,0.1551559021\O,-0.216303155,3.1938481156,0.3011475075\C,-2.18
 16743535,4.928654978,0.3514016767\H,-1.5730500358,5.1200389604,1.23814
 72187\H,-1.6075850219,5.270015891,-0.5152791671\H,-3.1341762455,5.4499
 809207,0.4067538645\C,-4.0189212875,-4.7929103189,-0.1092414416\H,-3.5
 579478505,-5.2287238318,-1.00024421\H,-3.5723962335,-5.2825804127,0.75
 99883515\H,-5.0965937468,-4.9356124413,-0.1256931034\C,0.9124476474,0.
 6063288289,0.1062193797\C,1.6617145968,1.2689786208,-0.8452185811\S,1.
 9720483377,-0.1242534832,1.2968033883\C,3.0485103266,1.2043190873,-0.6
 189387273\H,1.1940006862,1.8028875928,-1.6573337856\C,3.4366380121,0.4
 635286493,0.4959417074\O,4.013638493,1.7758639639,-1.4130172276\C,4.75
 95070448,0.1986393194,0.9756894968\C,3.5731687791,2.707339324,-2.38764
 77412\C,5.1753653912,-0.6590095458,1.9915170396\S,6.1888272279,1.02173
 45775,0.3253542976\H,4.4755916989,3.1424915593,-2.8202537548\H,2.99501
 35393,2.2152255216,-3.1787362002\H,2.9601905925,3.4938213166,-1.935322
 4605\C,6.5713427799,-0.6456665623,2.2519381656\O,4.3022947354,-1.43135
 19334,2.7318217588\C,7.2593893604,0.2093980168,1.4391877174\H,7.023006
 5709,-1.2549845915,3.0255175352\C,4.0636862579,-2.7353740601,2.1958084
 318\H,8.3191815009,0.4112759459,1.4121260917\H,4.9872894326,-3.3290990
 329,2.1919084469\H,3.3243531366,-3.2079696343,2.843320129\H,3.66123709
 26,-2.6778836036,1.1805688674\\Version=ES64L-G16RevC.01\State=1-A\HF=-
 2359.397723\RMSD=9.815e-09\RMSF=1.313e-03\Dipole=6.6557506,0.1616482,-
 0.4147069\Quadrupole=-73.5204036,8.1588443,65.3615593,-5.9677664,-14.2
 157145,-6.385018\PG=C01 [X(C26H18N2O6S2)]\\@
 The archive entry for this job was punched.



 IN THIS SHORT LIFE

 THAT ONLY LASTS AN HOUR

 HOW MUCH, HOW LITTLE, IS WITHIN OUR POWER....


 EMILY DICKINSON BOLTS OF MELODY NO. 521
 Job cpu time:       5 days 10 hours 49 minutes 30.7 seconds.
 Elapsed time:       0 days 16 hours 34 minutes 50.0 seconds.
 File lengths (MBytes):  RWF=    531 Int=      0 D2E=      0 Chk=     77 Scr=      1
 Normal termination of Gaussian 16 at Fri Oct  8 02:59:32 2021.
