 Entering Gaussian System, Link 0=g16
 Input=NDI_35.gjf
 Output=NDI_35.log
 Initial command:
 /apps/gaussian/g16-c01-avx/g16/l1.exe "/tmp/pbs.4643763[210].pbs/Gau-50688.inp" -scrdir="/tmp/pbs.4643763[210].pbs/"
 Entering Link 1 = /apps/gaussian/g16-c01-avx/g16/l1.exe PID=     50689.
  
 Copyright (c) 1988-2019, Gaussian, Inc.  All Rights Reserved.
  
 This is part of the Gaussian(R) 16 program.  It is based on
 the Gaussian(R) 09 system (copyright 2009, Gaussian, Inc.),
 the Gaussian(R) 03 system (copyright 2003, Gaussian, Inc.),
 the Gaussian(R) 98 system (copyright 1998, Gaussian, Inc.),
 the Gaussian(R) 94 system (copyright 1995, Gaussian, Inc.),
 the Gaussian 92(TM) system (copyright 1992, Gaussian, Inc.),
 the Gaussian 90(TM) system (copyright 1990, Gaussian, Inc.),
 the Gaussian 88(TM) system (copyright 1988, Gaussian, Inc.),
 the Gaussian 86(TM) system (copyright 1986, Carnegie Mellon
 University), and the Gaussian 82(TM) system (copyright 1983,
 Carnegie Mellon University). Gaussian is a federally registered
 trademark of Gaussian, Inc.
  
 This software contains proprietary and confidential information,
 including trade secrets, belonging to Gaussian, Inc.
  
 This software is provided under written license and may be
 used, copied, transmitted, or stored only in accord with that
 written license.
  
 The following legend is applicable only to US Government
 contracts under FAR:
  
                    RESTRICTED RIGHTS LEGEND
  
 Use, reproduction and disclosure by the US Government is
 subject to restrictions as set forth in subparagraphs (a)
 and (c) of the Commercial Computer Software - Restricted
 Rights clause in FAR 52.227-19.
  
 Gaussian, Inc.
 340 Quinnipiac St., Bldg. 40, Wallingford CT 06492
  
  
 ---------------------------------------------------------------
 Warning -- This program may not be used in any manner that
 competes with the business of Gaussian, Inc. or will provide
 assistance to any competitor of Gaussian, Inc.  The licensee
 of this program is prohibited from giving any competitor of
 Gaussian, Inc. access to this program.  By using this program,
 the user acknowledges that Gaussian, Inc. is engaged in the
 business of creating and licensing software in the field of
 computational chemistry and represents and warrants to the
 licensee that it is not a competitor of Gaussian, Inc. and that
 it will not use this program in any manner prohibited above.
 ---------------------------------------------------------------
  

 Cite this work as:
 Gaussian 16, Revision C.01,
 M. J. Frisch, G. W. Trucks, H. B. Schlegel, G. E. Scuseria, 
 M. A. Robb, J. R. Cheeseman, G. Scalmani, V. Barone, 
 G. A. Petersson, H. Nakatsuji, X. Li, M. Caricato, A. V. Marenich, 
 J. Bloino, B. G. Janesko, R. Gomperts, B. Mennucci, H. P. Hratchian, 
 J. V. Ortiz, A. F. Izmaylov, J. L. Sonnenberg, D. Williams-Young, 
 F. Ding, F. Lipparini, F. Egidi, J. Goings, B. Peng, A. Petrone, 
 T. Henderson, D. Ranasinghe, V. G. Zakrzewski, J. Gao, N. Rega, 
 G. Zheng, W. Liang, M. Hada, M. Ehara, K. Toyota, R. Fukuda, 
 J. Hasegawa, M. Ishida, T. Nakajima, Y. Honda, O. Kitao, H. Nakai, 
 T. Vreven, K. Throssell, J. A. Montgomery, Jr., J. E. Peralta, 
 F. Ogliaro, M. J. Bearpark, J. J. Heyd, E. N. Brothers, K. N. Kudin, 
 V. N. Staroverov, T. A. Keith, R. Kobayashi, J. Normand, 
 K. Raghavachari, A. P. Rendell, J. C. Burant, S. S. Iyengar, 
 J. Tomasi, M. Cossi, J. M. Millam, M. Klene, C. Adamo, R. Cammi, 
 J. W. Ochterski, R. L. Martin, K. Morokuma, O. Farkas, 
 J. B. Foresman, and D. J. Fox, Gaussian, Inc., Wallingford CT, 2019.
 
 ******************************************
 Gaussian 16:  ES64L-G16RevC.01  3-Jul-2019
                 7-Oct-2021 
 ******************************************
 %mem=10GB
 %nprocshared=8
 Will use up to    8 processors via shared memory.
 -------------------------------------
 # opt=modredundant b3lyp/6-311+g(d,p)
 -------------------------------------
 1/18=120,19=15,26=3,38=1/1,3;
 2/9=110,12=2,17=6,18=5,40=1/2;
 3/5=4,6=6,7=111,11=2,25=1,30=1,71=1,74=-5/1,2,3;
 4//1;
 5/5=2,38=5/2;
 6/7=2,8=2,9=2,10=2,28=1/1;
 7//1,2,3,16;
 1/18=20,19=15,26=3/3(2);
 2/9=110/2;
 99//99;
 2/9=110/2;
 3/5=4,6=6,7=111,11=2,25=1,30=1,71=1,74=-5/1,2,3;
 4/5=5,16=3,69=1/1;
 5/5=2,38=5/2;
 7//1,2,3,16;
 1/18=20,19=15,26=3/3(-5);
 2/9=110/2;
 6/7=2,8=2,9=2,10=2,19=2,28=1/1;
 99/9=1/99;
 ----------
 NDI_35.pdb
 ----------
 Symbolic Z-matrix:
 Charge = -2 Multiplicity = 1
 C                    -2.563    -2.994    -0.409 
 C                    -2.257    -1.551    -0.224 
 C                    -3.301    -0.607    -0.083 
 C                    -4.65     -1.024    -0.115 
 C                    -4.992    -2.459    -0.304 
 C                    -0.949    -1.137    -0.215 
 C                    -2.962     0.764     0.102 
 C                    -1.595     1.188     0.123 
 C                    -0.561     0.232    -0.072 
 C                    -1.328     2.616     0.446 
 C                    -3.777     3.115     0.508 
 C                    -4.035     1.679     0.268 
 C                    -5.356     1.252     0.23 
 C                    -5.672    -0.098     0.036 
 H                    -6.699    -0.442     0.008 
 H                    -6.133     1.997     0.361 
 H                    -0.19     -1.895    -0.369 
 N                    -2.432     3.476     0.608 
 N                    -3.916    -3.353    -0.438 
 O                    -1.695    -3.847    -0.532 
 O                    -6.149    -2.85     -0.34 
 O                    -4.676     3.938     0.629 
 O                    -0.212     3.097     0.596 
 C                    -2.111     4.875     0.912 
 H                    -1.54      4.931     1.84 
 H                    -1.5       5.299     0.111 
 H                    -3.05      5.414     1.003 
 C                    -4.206    -4.779    -0.625 
 H                    -3.759    -5.126    -1.559 
 H                    -3.775    -5.355     0.196 
 H                    -5.286    -4.897    -0.649 
 C                     0.876     0.482    -0.178 
 C                     1.68      1.413     0.45 
 S                     1.805    -0.402    -1.389 
 C                     3.009     1.417    -0.019 
 H                     1.321     2.064     1.231 
 C                     3.27      0.48     -1.024 
 O                     4.015     2.225     0.409 
 C                     4.524     0.213    -1.67 
 C                     3.752     3.066     1.529 
 C                     4.777    -0.705    -2.688 
 S                     6.017     1.05     -1.254 
 H                     4.695     3.562     1.759 
 H                     2.994     3.821     1.288 
 H                     3.422     2.481     2.395 
 C                     6.133    -0.735    -3.121 
 O                     3.758    -1.467    -3.163 
 C                     6.909     0.159    -2.434 
 H                     6.513    -1.383    -3.899 
 C                     4.04     -2.371    -4.226 
 H                     7.967     0.345    -2.56 
 H                     4.779    -3.124    -3.923 
 H                     3.097    -2.863    -4.461 
 H                     4.405    -1.839    -5.113 
 
 The following ModRedundant input section has been read:
 D       8       9      32      33 F                                           
 

 GradGradGradGradGradGradGradGradGradGradGradGradGradGradGradGradGradGrad
 Berny optimization.
 Initialization pass.
                           ----------------------------
                           !    Initial Parameters    !
                           ! (Angstroms and Degrees)  !
 --------------------------                            --------------------------
 ! Name  Definition              Value          Derivative Info.                !
 --------------------------------------------------------------------------------
 ! R1    R(1,2)                  1.4866         estimate D2E/DX2                !
 ! R2    R(1,19)                 1.4001         estimate D2E/DX2                !
 ! R3    R(1,20)                 1.2232         estimate D2E/DX2                !
 ! R4    R(2,3)                  1.4146         estimate D2E/DX2                !
 ! R5    R(2,6)                  1.372          estimate D2E/DX2                !
 ! R6    R(3,4)                  1.4123         estimate D2E/DX2                !
 ! R7    R(3,7)                  1.4244         estimate D2E/DX2                !
 ! R8    R(4,5)                  1.4872         estimate D2E/DX2                !
 ! R9    R(4,14)                 1.3874         estimate D2E/DX2                !
 ! R10   R(5,19)                 1.4053         estimate D2E/DX2                !
 ! R11   R(5,21)                 1.2218         estimate D2E/DX2                !
 ! R12   R(6,9)                  1.4301         estimate D2E/DX2                !
 ! R13   R(6,17)                 1.0837         estimate D2E/DX2                !
 ! R14   R(7,8)                  1.4314         estimate D2E/DX2                !
 ! R15   R(7,12)                 1.4199         estimate D2E/DX2                !
 ! R16   R(8,9)                  1.4217         estimate D2E/DX2                !
 ! R17   R(8,10)                 1.4882         estimate D2E/DX2                !
 ! R18   R(9,32)                 1.4624         estimate D2E/DX2                !
 ! R19   R(10,18)                1.4088         estimate D2E/DX2                !
 ! R20   R(10,23)                1.2245         estimate D2E/DX2                !
 ! R21   R(11,12)                1.4786         estimate D2E/DX2                !
 ! R22   R(11,18)                1.3962         estimate D2E/DX2                !
 ! R23   R(11,22)                1.2248         estimate D2E/DX2                !
 ! R24   R(12,13)                1.3888         estimate D2E/DX2                !
 ! R25   R(13,14)                1.4            estimate D2E/DX2                !
 ! R26   R(13,16)                1.0844         estimate D2E/DX2                !
 ! R27   R(14,15)                1.0834         estimate D2E/DX2                !
 ! R28   R(18,24)                1.4672         estimate D2E/DX2                !
 ! R29   R(19,28)                1.4672         estimate D2E/DX2                !
 ! R30   R(24,25)                1.091          estimate D2E/DX2                !
 ! R31   R(24,26)                1.093          estimate D2E/DX2                !
 ! R32   R(24,27)                1.0865         estimate D2E/DX2                !
 ! R33   R(28,29)                1.0921         estimate D2E/DX2                !
 ! R34   R(28,30)                1.0916         estimate D2E/DX2                !
 ! R35   R(28,31)                1.0867         estimate D2E/DX2                !
 ! R36   R(32,33)                1.3811         estimate D2E/DX2                !
 ! R37   R(32,34)                1.7638         estimate D2E/DX2                !
 ! R38   R(33,35)                1.4093         estimate D2E/DX2                !
 ! R39   R(33,36)                1.0783         estimate D2E/DX2                !
 ! R40   R(34,37)                1.7485         estimate D2E/DX2                !
 ! R41   R(35,37)                1.3986         estimate D2E/DX2                !
 ! R42   R(35,38)                1.3594         estimate D2E/DX2                !
 ! R43   R(37,39)                1.4357         estimate D2E/DX2                !
 ! R44   R(38,40)                1.4251         estimate D2E/DX2                !
 ! R45   R(39,41)                1.3939         estimate D2E/DX2                !
 ! R46   R(39,42)                1.7614         estimate D2E/DX2                !
 ! R47   R(40,43)                1.09           estimate D2E/DX2                !
 ! R48   R(40,44)                1.0967         estimate D2E/DX2                !
 ! R49   R(40,45)                1.0959         estimate D2E/DX2                !
 ! R50   R(41,46)                1.4238         estimate D2E/DX2                !
 ! R51   R(41,47)                1.3582         estimate D2E/DX2                !
 ! R52   R(42,48)                1.7268         estimate D2E/DX2                !
 ! R53   R(46,48)                1.3687         estimate D2E/DX2                !
 ! R54   R(46,49)                1.0815         estimate D2E/DX2                !
 ! R55   R(47,50)                1.4236         estimate D2E/DX2                !
 ! R56   R(48,51)                1.0816         estimate D2E/DX2                !
 ! R57   R(50,52)                1.0977         estimate D2E/DX2                !
 ! R58   R(50,53)                1.0893         estimate D2E/DX2                !
 ! R59   R(50,54)                1.0968         estimate D2E/DX2                !
 ! A1    A(2,1,19)             116.767          estimate D2E/DX2                !
 ! A2    A(2,1,20)             122.9113         estimate D2E/DX2                !
 ! A3    A(19,1,20)            120.3217         estimate D2E/DX2                !
 ! A4    A(1,2,3)              120.5473         estimate D2E/DX2                !
 ! A5    A(1,2,6)              119.3369         estimate D2E/DX2                !
 ! A6    A(3,2,6)              120.1056         estimate D2E/DX2                !
 ! A7    A(2,3,4)              120.3743         estimate D2E/DX2                !
 ! A8    A(2,3,7)              118.662          estimate D2E/DX2                !
 ! A9    A(4,3,7)              120.9617         estimate D2E/DX2                !
 ! A10   A(3,4,5)              120.4909         estimate D2E/DX2                !
 ! A11   A(3,4,14)             120.2702         estimate D2E/DX2                !
 ! A12   A(5,4,14)             119.2382         estimate D2E/DX2                !
 ! A13   A(4,5,19)             116.7341         estimate D2E/DX2                !
 ! A14   A(4,5,21)             122.024          estimate D2E/DX2                !
 ! A15   A(19,5,21)            121.2418         estimate D2E/DX2                !
 ! A16   A(2,6,9)              123.2421         estimate D2E/DX2                !
 ! A17   A(2,6,17)             117.1119         estimate D2E/DX2                !
 ! A18   A(9,6,17)             119.589          estimate D2E/DX2                !
 ! A19   A(3,7,8)              120.9519         estimate D2E/DX2                !
 ! A20   A(3,7,12)             117.1037         estimate D2E/DX2                !
 ! A21   A(8,7,12)             121.944          estimate D2E/DX2                !
 ! A22   A(7,8,9)              119.5639         estimate D2E/DX2                !
 ! A23   A(7,8,10)             117.3064         estimate D2E/DX2                !
 ! A24   A(9,8,10)             122.9922         estimate D2E/DX2                !
 ! A25   A(6,9,8)              117.3944         estimate D2E/DX2                !
 ! A26   A(6,9,32)             115.0236         estimate D2E/DX2                !
 ! A27   A(8,9,32)             127.5648         estimate D2E/DX2                !
 ! A28   A(8,10,18)            118.042          estimate D2E/DX2                !
 ! A29   A(8,10,23)            124.5436         estimate D2E/DX2                !
 ! A30   A(18,10,23)           117.4097         estimate D2E/DX2                !
 ! A31   A(12,11,18)           115.5202         estimate D2E/DX2                !
 ! A32   A(12,11,22)           122.7205         estimate D2E/DX2                !
 ! A33   A(18,11,22)           121.7534         estimate D2E/DX2                !
 ! A34   A(7,12,11)            120.8614         estimate D2E/DX2                !
 ! A35   A(7,12,13)            121.162          estimate D2E/DX2                !
 ! A36   A(11,12,13)           117.9699         estimate D2E/DX2                !
 ! A37   A(12,13,14)           120.9948         estimate D2E/DX2                !
 ! A38   A(12,13,16)           117.8401         estimate D2E/DX2                !
 ! A39   A(14,13,16)           121.1642         estimate D2E/DX2                !
 ! A40   A(4,14,13)            119.5003         estimate D2E/DX2                !
 ! A41   A(4,14,15)            118.9169         estimate D2E/DX2                !
 ! A42   A(13,14,15)           121.5811         estimate D2E/DX2                !
 ! A43   A(10,18,11)           126.0753         estimate D2E/DX2                !
 ! A44   A(10,18,24)           115.7508         estimate D2E/DX2                !
 ! A45   A(11,18,24)           118.1737         estimate D2E/DX2                !
 ! A46   A(1,19,5)             125.0856         estimate D2E/DX2                !
 ! A47   A(1,19,28)            116.2868         estimate D2E/DX2                !
 ! A48   A(5,19,28)            118.6276         estimate D2E/DX2                !
 ! A49   A(18,24,25)           109.8574         estimate D2E/DX2                !
 ! A50   A(18,24,26)           109.8979         estimate D2E/DX2                !
 ! A51   A(18,24,27)           107.5355         estimate D2E/DX2                !
 ! A52   A(25,24,26)           108.1108         estimate D2E/DX2                !
 ! A53   A(25,24,27)           110.8301         estimate D2E/DX2                !
 ! A54   A(26,24,27)           110.6124         estimate D2E/DX2                !
 ! A55   A(19,28,29)           109.6906         estimate D2E/DX2                !
 ! A56   A(19,28,30)           109.8136         estimate D2E/DX2                !
 ! A57   A(19,28,31)           107.7461         estimate D2E/DX2                !
 ! A58   A(29,28,30)           108.2991         estimate D2E/DX2                !
 ! A59   A(29,28,31)           110.6959         estimate D2E/DX2                !
 ! A60   A(30,28,31)           110.5924         estimate D2E/DX2                !
 ! A61   A(9,32,33)            130.8649         estimate D2E/DX2                !
 ! A62   A(9,32,34)            118.7919         estimate D2E/DX2                !
 ! A63   A(33,32,34)           110.0854         estimate D2E/DX2                !
 ! A64   A(32,33,35)           113.5496         estimate D2E/DX2                !
 ! A65   A(32,33,36)           122.8542         estimate D2E/DX2                !
 ! A66   A(35,33,36)           123.5931         estimate D2E/DX2                !
 ! A67   A(32,34,37)            92.5885         estimate D2E/DX2                !
 ! A68   A(33,35,37)           114.4061         estimate D2E/DX2                !
 ! A69   A(33,35,38)           126.4944         estimate D2E/DX2                !
 ! A70   A(37,35,38)           119.0995         estimate D2E/DX2                !
 ! A71   A(34,37,35)           109.3649         estimate D2E/DX2                !
 ! A72   A(34,37,39)           122.9624         estimate D2E/DX2                !
 ! A73   A(35,37,39)           127.6567         estimate D2E/DX2                !
 ! A74   A(35,38,40)           117.4919         estimate D2E/DX2                !
 ! A75   A(37,39,41)           127.5625         estimate D2E/DX2                !
 ! A76   A(37,39,42)           123.0732         estimate D2E/DX2                !
 ! A77   A(41,39,42)           109.3643         estimate D2E/DX2                !
 ! A78   A(38,40,43)           105.9447         estimate D2E/DX2                !
 ! A79   A(38,40,44)           111.1698         estimate D2E/DX2                !
 ! A80   A(38,40,45)           111.1976         estimate D2E/DX2                !
 ! A81   A(43,40,44)           109.3329         estimate D2E/DX2                !
 ! A82   A(43,40,45)           109.6732         estimate D2E/DX2                !
 ! A83   A(44,40,45)           109.4518         estimate D2E/DX2                !
 ! A84   A(39,41,46)           114.132          estimate D2E/DX2                !
 ! A85   A(39,41,47)           119.2569         estimate D2E/DX2                !
 ! A86   A(46,41,47)           126.6108         estimate D2E/DX2                !
 ! A87   A(39,42,48)            91.7918         estimate D2E/DX2                !
 ! A88   A(41,46,48)           111.9352         estimate D2E/DX2                !
 ! A89   A(41,46,49)           124.4755         estimate D2E/DX2                !
 ! A90   A(48,46,49)           123.5893         estimate D2E/DX2                !
 ! A91   A(41,47,50)           117.9557         estimate D2E/DX2                !
 ! A92   A(42,48,46)           112.7767         estimate D2E/DX2                !
 ! A93   A(42,48,51)           119.7463         estimate D2E/DX2                !
 ! A94   A(46,48,51)           127.4769         estimate D2E/DX2                !
 ! A95   A(47,50,52)           111.275          estimate D2E/DX2                !
 ! A96   A(47,50,53)           106.0464         estimate D2E/DX2                !
 ! A97   A(47,50,54)           111.2086         estimate D2E/DX2                !
 ! A98   A(52,50,53)           109.4223         estimate D2E/DX2                !
 ! A99   A(52,50,54)           109.3852         estimate D2E/DX2                !
 ! A100  A(53,50,54)           109.4328         estimate D2E/DX2                !
 ! D1    D(19,1,2,3)             0.1578         estimate D2E/DX2                !
 ! D2    D(19,1,2,6)          -178.6792         estimate D2E/DX2                !
 ! D3    D(20,1,2,3)          -179.8231         estimate D2E/DX2                !
 ! D4    D(20,1,2,6)             1.3399         estimate D2E/DX2                !
 ! D5    D(2,1,19,5)            -0.124          estimate D2E/DX2                !
 ! D6    D(2,1,19,28)          179.8267         estimate D2E/DX2                !
 ! D7    D(20,1,19,5)          179.8575         estimate D2E/DX2                !
 ! D8    D(20,1,19,28)          -0.1919         estimate D2E/DX2                !
 ! D9    D(1,2,3,4)              0.0571         estimate D2E/DX2                !
 ! D10   D(1,2,3,7)            179.5453         estimate D2E/DX2                !
 ! D11   D(6,2,3,4)            178.8851         estimate D2E/DX2                !
 ! D12   D(6,2,3,7)             -1.6266         estimate D2E/DX2                !
 ! D13   D(1,2,6,9)            178.625          estimate D2E/DX2                !
 ! D14   D(1,2,6,17)             1.3881         estimate D2E/DX2                !
 ! D15   D(3,2,6,9)             -0.2173         estimate D2E/DX2                !
 ! D16   D(3,2,6,17)          -177.4541         estimate D2E/DX2                !
 ! D17   D(2,3,4,5)             -0.3074         estimate D2E/DX2                !
 ! D18   D(2,3,4,14)           179.3968         estimate D2E/DX2                !
 ! D19   D(7,3,4,5)           -179.7837         estimate D2E/DX2                !
 ! D20   D(7,3,4,14)            -0.0795         estimate D2E/DX2                !
 ! D21   D(2,3,7,8)              1.0523         estimate D2E/DX2                !
 ! D22   D(2,3,7,12)          -178.712          estimate D2E/DX2                !
 ! D23   D(4,3,7,8)           -179.4626         estimate D2E/DX2                !
 ! D24   D(4,3,7,12)             0.7731         estimate D2E/DX2                !
 ! D25   D(3,4,5,19)             0.3343         estimate D2E/DX2                !
 ! D26   D(3,4,5,21)          -179.7799         estimate D2E/DX2                !
 ! D27   D(14,4,5,19)         -179.3729         estimate D2E/DX2                !
 ! D28   D(14,4,5,21)            0.5129         estimate D2E/DX2                !
 ! D29   D(3,4,14,13)           -0.4559         estimate D2E/DX2                !
 ! D30   D(3,4,14,15)         -179.9937         estimate D2E/DX2                !
 ! D31   D(5,4,14,13)          179.252          estimate D2E/DX2                !
 ! D32   D(5,4,14,15)           -0.2858         estimate D2E/DX2                !
 ! D33   D(4,5,19,1)            -0.1141         estimate D2E/DX2                !
 ! D34   D(4,5,19,28)          179.9364         estimate D2E/DX2                !
 ! D35   D(21,5,19,1)          179.9992         estimate D2E/DX2                !
 ! D36   D(21,5,19,28)           0.0496         estimate D2E/DX2                !
 ! D37   D(2,6,9,8)              2.5984         estimate D2E/DX2                !
 ! D38   D(2,6,9,32)          -176.0103         estimate D2E/DX2                !
 ! D39   D(17,6,9,8)           179.77           estimate D2E/DX2                !
 ! D40   D(17,6,9,32)            1.1613         estimate D2E/DX2                !
 ! D41   D(3,7,8,9)              1.3551         estimate D2E/DX2                !
 ! D42   D(3,7,8,10)          -174.5099         estimate D2E/DX2                !
 ! D43   D(12,7,8,9)          -178.8921         estimate D2E/DX2                !
 ! D44   D(12,7,8,10)            5.2428         estimate D2E/DX2                !
 ! D45   D(3,7,12,11)          178.0768         estimate D2E/DX2                !
 ! D46   D(3,7,12,13)           -0.9621         estimate D2E/DX2                !
 ! D47   D(8,7,12,11)           -1.685          estimate D2E/DX2                !
 ! D48   D(8,7,12,13)          179.2761         estimate D2E/DX2                !
 ! D49   D(7,8,9,6)             -3.0809         estimate D2E/DX2                !
 ! D50   D(7,8,9,32)           175.3285         estimate D2E/DX2                !
 ! D51   D(10,8,9,6)           172.5381         estimate D2E/DX2                !
 ! D52   D(10,8,9,32)           -9.0525         estimate D2E/DX2                !
 ! D53   D(7,8,10,18)           -4.7549         estimate D2E/DX2                !
 ! D54   D(7,8,10,23)          174.4235         estimate D2E/DX2                !
 ! D55   D(9,8,10,18)          179.5335         estimate D2E/DX2                !
 ! D56   D(9,8,10,23)           -1.2882         estimate D2E/DX2                !
 ! D57   D(6,9,32,33)         -146.5757         estimate D2E/DX2                !
 ! D58   D(6,9,32,34)           39.8952         estimate D2E/DX2                !
 ! D59   D(8,9,32,33)           34.9827         Frozen                          !
 ! D60   D(8,9,32,34)         -138.5464         estimate D2E/DX2                !
 ! D61   D(8,10,18,11)           0.7189         estimate D2E/DX2                !
 ! D62   D(8,10,18,24)        -179.4089         estimate D2E/DX2                !
 ! D63   D(23,10,18,11)       -178.5188         estimate D2E/DX2                !
 ! D64   D(23,10,18,24)          1.3535         estimate D2E/DX2                !
 ! D65   D(18,11,12,7)          -2.3856         estimate D2E/DX2                !
 ! D66   D(18,11,12,13)        176.6833         estimate D2E/DX2                !
 ! D67   D(22,11,12,7)         178.4862         estimate D2E/DX2                !
 ! D68   D(22,11,12,13)         -2.445          estimate D2E/DX2                !
 ! D69   D(12,11,18,10)          2.8444         estimate D2E/DX2                !
 ! D70   D(12,11,18,24)       -177.0251         estimate D2E/DX2                !
 ! D71   D(22,11,18,10)       -178.0181         estimate D2E/DX2                !
 ! D72   D(22,11,18,24)          2.1124         estimate D2E/DX2                !
 ! D73   D(7,12,13,14)           0.461          estimate D2E/DX2                !
 ! D74   D(7,12,13,16)        -179.8781         estimate D2E/DX2                !
 ! D75   D(11,12,13,14)       -178.6049         estimate D2E/DX2                !
 ! D76   D(11,12,13,16)          1.056          estimate D2E/DX2                !
 ! D77   D(12,13,14,4)           0.2708         estimate D2E/DX2                !
 ! D78   D(12,13,14,15)        179.7958         estimate D2E/DX2                !
 ! D79   D(16,13,14,4)        -179.3788         estimate D2E/DX2                !
 ! D80   D(16,13,14,15)          0.1463         estimate D2E/DX2                !
 ! D81   D(10,18,24,25)        -59.609          estimate D2E/DX2                !
 ! D82   D(10,18,24,26)         59.2209         estimate D2E/DX2                !
 ! D83   D(10,18,24,27)        179.6858         estimate D2E/DX2                !
 ! D84   D(11,18,24,25)        120.2739         estimate D2E/DX2                !
 ! D85   D(11,18,24,26)       -120.8962         estimate D2E/DX2                !
 ! D86   D(11,18,24,27)         -0.4313         estimate D2E/DX2                !
 ! D87   D(1,19,28,29)         -58.1407         estimate D2E/DX2                !
 ! D88   D(1,19,28,30)          60.7668         estimate D2E/DX2                !
 ! D89   D(1,19,28,31)        -178.7139         estimate D2E/DX2                !
 ! D90   D(5,19,28,29)         121.8132         estimate D2E/DX2                !
 ! D91   D(5,19,28,30)        -119.2792         estimate D2E/DX2                !
 ! D92   D(5,19,28,31)           1.2401         estimate D2E/DX2                !
 ! D93   D(9,32,33,35)        -174.2615         estimate D2E/DX2                !
 ! D94   D(9,32,33,36)           6.3538         estimate D2E/DX2                !
 ! D95   D(34,32,33,35)         -0.2979         estimate D2E/DX2                !
 ! D96   D(34,32,33,36)       -179.6827         estimate D2E/DX2                !
 ! D97   D(9,32,34,37)         175.3695         estimate D2E/DX2                !
 ! D98   D(33,32,34,37)          0.5762         estimate D2E/DX2                !
 ! D99   D(32,33,35,37)         -0.245          estimate D2E/DX2                !
 ! D100  D(32,33,35,38)        179.7335         estimate D2E/DX2                !
 ! D101  D(36,33,35,37)        179.1346         estimate D2E/DX2                !
 ! D102  D(36,33,35,38)         -0.8869         estimate D2E/DX2                !
 ! D103  D(32,34,37,35)         -0.6993         estimate D2E/DX2                !
 ! D104  D(32,34,37,39)        177.9449         estimate D2E/DX2                !
 ! D105  D(33,35,37,34)          0.668          estimate D2E/DX2                !
 ! D106  D(33,35,37,39)       -177.8952         estimate D2E/DX2                !
 ! D107  D(38,35,37,34)       -179.3122         estimate D2E/DX2                !
 ! D108  D(38,35,37,39)          2.1246         estimate D2E/DX2                !
 ! D109  D(33,35,38,40)          6.5737         estimate D2E/DX2                !
 ! D110  D(37,35,38,40)       -173.4487         estimate D2E/DX2                !
 ! D111  D(34,37,39,41)          2.8489         estimate D2E/DX2                !
 ! D112  D(34,37,39,42)       -177.1834         estimate D2E/DX2                !
 ! D113  D(35,37,39,41)       -178.7667         estimate D2E/DX2                !
 ! D114  D(35,37,39,42)          1.201          estimate D2E/DX2                !
 ! D115  D(35,38,40,43)        175.4551         estimate D2E/DX2                !
 ! D116  D(35,38,40,44)        -65.8685         estimate D2E/DX2                !
 ! D117  D(35,38,40,45)         56.355          estimate D2E/DX2                !
 ! D118  D(37,39,41,46)        179.9934         estimate D2E/DX2                !
 ! D119  D(37,39,41,47)         -0.1879         estimate D2E/DX2                !
 ! D120  D(42,39,41,46)          0.0222         estimate D2E/DX2                !
 ! D121  D(42,39,41,47)        179.8409         estimate D2E/DX2                !
 ! D122  D(37,39,42,48)       -179.9761         estimate D2E/DX2                !
 ! D123  D(41,39,42,48)         -0.0033         estimate D2E/DX2                !
 ! D124  D(39,41,46,48)         -0.0355         estimate D2E/DX2                !
 ! D125  D(39,41,46,49)        179.9857         estimate D2E/DX2                !
 ! D126  D(47,41,46,48)       -179.8384         estimate D2E/DX2                !
 ! D127  D(47,41,46,49)          0.1827         estimate D2E/DX2                !
 ! D128  D(39,41,47,50)        178.424          estimate D2E/DX2                !
 ! D129  D(46,41,47,50)         -1.7821         estimate D2E/DX2                !
 ! D130  D(39,42,48,46)         -0.0169         estimate D2E/DX2                !
 ! D131  D(39,42,48,51)        179.8877         estimate D2E/DX2                !
 ! D132  D(41,46,48,42)          0.0322         estimate D2E/DX2                !
 ! D133  D(41,46,48,51)       -179.8634         estimate D2E/DX2                !
 ! D134  D(49,46,48,42)       -179.9887         estimate D2E/DX2                !
 ! D135  D(49,46,48,51)          0.1157         estimate D2E/DX2                !
 ! D136  D(41,47,50,52)         61.965          estimate D2E/DX2                !
 ! D137  D(41,47,50,53)       -179.1331         estimate D2E/DX2                !
 ! D138  D(41,47,50,54)        -60.2548         estimate D2E/DX2                !
 --------------------------------------------------------------------------------
 Trust Radius=3.00D-01 FncErr=1.00D-07 GrdErr=1.00D-06 EigMax=2.50D+02 EigMin=1.00D-04
 Number of steps in this run=    307 maximum allowed number of steps=    324.
 GradGradGradGradGradGradGradGradGradGradGradGradGradGradGradGradGradGrad

 Stoichiometry    C26H18N2O6S2(2-)
 Framework group  C1[X(C26H18N2O6S2)]
 Deg. of freedom   156
 Full point group                 C1      NOp   1
 Largest Abelian subgroup         C1      NOp   1
 Largest concise Abelian subgroup C1      NOp   1
                         Standard orientation:                         
 ---------------------------------------------------------------------
 Center     Atomic      Atomic             Coordinates (Angstroms)
 Number     Number       Type             X           Y           Z
 ---------------------------------------------------------------------
      1          6           0       -2.709913   -2.917218    0.692177
      2          6           0       -2.333785   -1.500053    0.446649
      3          6           0       -3.310506   -0.554290    0.056136
      4          6           0       -4.658313   -0.944497   -0.104700
      5          6           0       -5.068364   -2.355149    0.127308
      6          6           0       -1.022136   -1.120081    0.579080
      7          6           0       -2.907555    0.794835   -0.158993
      8          6           0       -1.539545    1.187722   -0.007026
      9          6           0       -0.563574    0.212442    0.335651
     10          6           0       -1.228249    2.637977   -0.128088
     11          6           0       -3.601116    3.151783   -0.724705
     12          6           0       -3.919525    1.722081   -0.522643
     13          6           0       -5.239554    1.320164   -0.680118
     14          6           0       -5.616701   -0.012481   -0.475645
     15          1           0       -6.644152   -0.335742   -0.592670
     16          1           0       -5.968044    2.072801   -0.960752
     17          1           0       -0.308033   -1.892578    0.839206
     18          7           0       -2.274065    3.512428   -0.483425
     19          7           0       -4.057754   -3.251813    0.514128
     20          8           0       -1.902000   -3.769596    1.034071
     21          8           0       -6.225315   -2.724092   -0.007497
     22          8           0       -4.441331    3.975560   -1.064709
     23          8           0       -0.125624    3.130651    0.073920
     24          6           0       -1.908572    4.928443   -0.601644
     25          1           0       -1.516079    5.290564    0.349765
     26          1           0       -1.129601    5.049620   -1.358756
     27          1           0       -2.804179    5.475287   -0.883375
     28          6           0       -4.416534   -4.653818    0.755382
     29          1           0       -3.832719   -5.301421    0.097853
     30          1           0       -4.189841   -4.921138    1.789175
     31          1           0       -5.479357   -4.762636    0.556724
     32          6           0        0.883147    0.397897    0.441994
     33          6           0        1.626282    1.479032    0.873804
     34         16           0        1.949268   -0.853418   -0.197237
     35          6           0        3.015351    1.310949    0.705126
     36          1           0        1.180199    2.359823    1.307230
     37          6           0        3.384864    0.086066    0.140115
     38          8           0        3.983912    2.206591    1.033455
     39          6           0        4.712373   -0.396270   -0.117165
     40          6           0        3.583866    3.380217    1.735890
     41          6           0        5.077901   -1.607616   -0.702047
     42         16           0        6.162548    0.517925    0.287699
     43          1           0        4.503362    3.915800    1.972201
     44          1           0        2.943418    4.015846    1.112615
     45          1           0        3.055910    3.126972    2.662286
     46          6           0        6.484179   -1.795722   -0.820886
     47          8           0        4.108798   -2.475814   -1.091536
     48          6           0        7.186157   -0.729102   -0.328007
     49          1           0        6.950515   -2.672875   -1.248346
     50          6           0        4.512118   -3.689539   -1.716768
     51          1           0        8.260314   -0.607012   -0.294586
     52          1           0        5.122659   -4.302066   -1.040758
     53          1           0        3.593851   -4.223056   -1.959013
     54          1           0        5.074188   -3.493607   -2.638020
 ---------------------------------------------------------------------
 Rotational constants (GHZ):           0.1526804           0.0592490           0.0446945
 Standard basis: 6-311+G(d,p) (5D, 7F)
 There are   952 symmetry adapted cartesian basis functions of A   symmetry.
 There are   916 symmetry adapted basis functions of A   symmetry.
   916 basis functions,  1468 primitive gaussians,   952 cartesian basis functions
   135 alpha electrons      135 beta electrons
       nuclear repulsion energy      4087.9842804510 Hartrees.
 NAtoms=   54 NActive=   54 NUniq=   54 SFac= 1.00D+00 NAtFMM=   60 NAOKFM=F Big=F
 Integral buffers will be    131072 words long.
 Raffenetti 2 integral format.
 Two-electron integral symmetry is turned on.
 One-electron integrals computed using PRISM.
 NBasis=   916 RedAO= T EigKep=  1.45D-06  NBF=   916
 NBsUse=   901 1.00D-06 EigRej=  9.60D-07 NBFU=   901
 ExpMin= 4.05D-02 ExpMax= 9.34D+04 ExpMxC= 3.17D+03 IAcc=3 IRadAn=         5 AccDes= 0.00D+00
 Harris functional with IExCor=  402 and IRadAn=       5 diagonalized for initial guess.
 HarFok:  IExCor=  402 AccDes= 0.00D+00 IRadAn=         5 IDoV= 1 UseB2=F ITyADJ=14
 ICtDFT=  3500011 ScaDFX=  1.000000  1.000000  1.000000  1.000000
 FoFCou: FMM=F IPFlag=           0 FMFlag=      100000 FMFlg1=           0
         NFxFlg=           0 DoJE=T BraDBF=F KetDBF=T FulRan=T
         wScrn=  0.000000 ICntrl=       500 IOpCl=  0 I1Cent=   200000004 NGrid=           0
         NMat0=    1 NMatS0=      1 NMatT0=    0 NMatD0=    1 NMtDS0=    0 NMtDT0=    0
 Petite list used in FoFCou.
 Requested convergence on RMS density matrix=1.00D-08 within 128 cycles.
 Requested convergence on MAX density matrix=1.00D-06.
 Requested convergence on             energy=1.00D-06.
 No special actions if energy rises.
 EnCoef did     8 forward-backward iterations
 EnCoef did   100 forward-backward iterations
 EnCoef did     5 forward-backward iterations
 EnCoef did     3 forward-backward iterations
 Restarting incremental Fock formation.
 SCF Done:  E(RB3LYP) =  -2359.37453619     A.U. after   23 cycles
            NFock= 23  Conv=0.68D-08     -V/T= 2.0029

 **********************************************************************

            Population analysis using the SCF Density.

 **********************************************************************

 Orbital symmetries:
       Occupied  (A) (A) (A) (A) (A) (A) (A) (A) (A) (A) (A) (A)
                 (A) (A) (A) (A) (A) (A) (A) (A) (A) (A) (A) (A)
                 (A) (A) (A) (A) (A) (A) (A) (A) (A) (A) (A) (A)
                 (A) (A) (A) (A) (A) (A) (A) (A) (A) (A) (A) (A)
                 (A) (A) (A) (A) (A) (A) (A) (A) (A) (A) (A) (A)
                 (A) (A) (A) (A) (A) (A) (A) (A) (A) (A) (A) (A)
                 (A) (A) (A) (A) (A) (A) (A) (A) (A) (A) (A) (A)
                 (A) (A) (A) (A) (A) (A) (A) (A) (A) (A) (A) (A)
                 (A) (A) (A) (A) (A) (A) (A) (A) (A) (A) (A) (A)
                 (A) (A) (A) (A) (A) (A) (A) (A) (A) (A) (A) (A)
                 (A) (A) (A) (A) (A) (A) (A) (A) (A) (A) (A) (A)
                 (A) (A) (A)
       Virtual   (A) (A) (A) (A) (A) (A) (A) (A) (A) (A) (A) (A)
                 (A) (A) (A) (A) (A) (A) (A) (A) (A) (A) (A) (A)
                 (A) (A) (A) (A) (A) (A) (A) (A) (A) (A) (A) (A)
                 (A) (A) (A) (A) (A) (A) (A) (A) (A) (A) (A) (A)
                 (A) (A) (A) (A) (A) (A) (A) (A) (A) (A) (A) (A)
                 (A) (A) (A) (A) (A) (A) (A) (A) (A) (A) (A) (A)
                 (A) (A) (A) (A) (A) (A) (A) (A) (A) (A) (A) (A)
                 (A) (A) (A) (A) (A) (A) (A) (A) (A) (A) (A) (A)
                 (A) (A) (A) (A) (A) (A) (A) (A) (A) (A) (A) (A)
                 (A) (A) (A) (A) (A) (A) (A) (A) (A) (A) (A) (A)
                 (A) (A) (A) (A) (A) (A) (A) (A) (A) (A) (A) (A)
                 (A) (A) (A) (A) (A) (A) (A) (A) (A) (A) (A) (A)
                 (A) (A) (A) (A) (A) (A) (A) (A) (A) (A) (A) (A)
                 (A) (A) (A) (A) (A) (A) (A) (A) (A) (A) (A) (A)
                 (A) (A) (A) (A) (A) (A) (A) (A) (A) (A) (A) (A)
                 (A) (A) (A) (A) (A) (A) (A) (A) (A) (A) (A) (A)
                 (A) (A) (A) (A) (A) (A) (A) (A) (A) (A) (A) (A)
                 (A) (A) (A) (A) (A) (A) (A) (A) (A) (A) (A) (A)
                 (A) (A) (A) (A) (A) (A) (A) (A) (A) (A) (A) (A)
                 (A) (A) (A) (A) (A) (A) (A) (A) (A) (A) (A) (A)
                 (A) (A) (A) (A) (A) (A) (A) (A) (A) (A) (A) (A)
                 (A) (A) (A) (A) (A) (A) (A) (A) (A) (A) (A) (A)
                 (A) (A) (A) (A) (A) (A) (A) (A) (A) (A) (A) (A)
                 (A) (A) (A) (A) (A) (A) (A) (A) (A) (A) (A) (A)
                 (A) (A) (A) (A) (A) (A) (A) (A) (A) (A) (A) (A)
                 (A) (A) (A) (A) (A) (A) (A) (A) (A) (A) (A) (A)
                 (A) (A) (A) (A) (A) (A) (A) (A) (A) (A) (A) (A)
                 (A) (A) (A) (A) (A) (A) (A) (A) (A) (A) (A) (A)
                 (A) (A) (A) (A) (A) (A) (A) (A) (A) (A) (A) (A)
                 (A) (A) (A) (A) (A) (A) (A) (A) (A) (A) (A) (A)
                 (A) (A) (A) (A) (A) (A) (A) (A) (A) (A) (A) (A)
                 (A) (A) (A) (A) (A) (A) (A) (A) (A) (A) (A) (A)
                 (A) (A) (A) (A) (A) (A) (A) (A) (A) (A) (A) (A)
                 (A) (A) (A) (A) (A) (A) (A) (A) (A) (A) (A) (A)
                 (A) (A) (A) (A) (A) (A) (A) (A) (A) (A) (A) (A)
                 (A) (A) (A) (A) (A) (A) (A) (A) (A) (A) (A) (A)
                 (A) (A) (A) (A) (A) (A) (A) (A) (A) (A) (A) (A)
                 (A) (A) (A) (A) (A) (A) (A) (A) (A) (A) (A) (A)
                 (A) (A) (A) (A) (A) (A) (A) (A) (A) (A) (A) (A)
                 (A) (A) (A) (A) (A) (A) (A) (A) (A) (A) (A) (A)
                 (A) (A) (A) (A) (A) (A) (A) (A) (A) (A) (A) (A)
                 (A) (A) (A) (A) (A) (A) (A) (A) (A) (A) (A) (A)
                 (A) (A) (A) (A) (A) (A) (A) (A) (A) (A) (A) (A)
                 (A) (A) (A) (A) (A) (A) (A) (A) (A) (A) (A) (A)
                 (A) (A) (A) (A) (A) (A) (A) (A) (A) (A) (A) (A)
                 (A) (A) (A) (A) (A) (A) (A) (A) (A) (A) (A) (A)
                 (A) (A) (A) (A) (A) (A) (A) (A) (A) (A) (A) (A)
                 (A) (A) (A) (A) (A) (A) (A) (A) (A) (A) (A) (A)
                 (A) (A) (A) (A) (A) (A) (A) (A) (A) (A) (A) (A)
                 (A) (A) (A) (A) (A) (A) (A) (A) (A) (A) (A) (A)
                 (A) (A) (A) (A) (A) (A) (A) (A) (A) (A) (A) (A)
                 (A) (A) (A) (A) (A) (A) (A) (A) (A) (A) (A) (A)
                 (A) (A) (A) (A) (A) (A) (A) (A) (A) (A) (A) (A)
                 (A) (A) (A) (A) (A) (A) (A) (A) (A) (A) (A) (A)
                 (A) (A) (A) (A) (A) (A) (A) (A) (A) (A) (A) (A)
                 (A) (A) (A) (A) (A) (A) (A) (A) (A) (A) (A) (A)
                 (A) (A) (A) (A) (A) (A) (A) (A) (A) (A) (A) (A)
                 (A) (A) (A) (A) (A) (A) (A) (A) (A) (A) (A) (A)
                 (A) (A) (A) (A) (A) (A) (A) (A) (A) (A) (A) (A)
                 (A) (A) (A) (A) (A) (A) (A) (A) (A) (A) (A) (A)
                 (A) (A) (A) (A) (A) (A) (A) (A) (A) (A) (A) (A)
                 (A) (A) (A) (A) (A) (A) (A) (A) (A) (A) (A) (A)
                 (A) (A) (A) (A) (A) (A) (A) (A) (A) (A) (A) (A)
                 (A) (A) (A) (A) (A) (A) (A) (A) (A) (A)
 The electronic state is 1-A.
 Alpha  occ. eigenvalues --  -88.70766 -88.66981 -18.99708 -18.98701 -18.87731
 Alpha  occ. eigenvalues --  -18.87350 -18.86773 -18.86220 -14.15381 -14.14610
 Alpha  occ. eigenvalues --  -10.08514 -10.06787 -10.06150 -10.05896 -10.05553
 Alpha  occ. eigenvalues --  -10.04995 -10.04929 -10.04365 -10.03738 -10.02933
 Alpha  occ. eigenvalues --  -10.02094 -10.01230 -10.00840 -10.00511 -10.00494
 Alpha  occ. eigenvalues --   -9.97317  -9.97264  -9.97072  -9.96451  -9.95644
 Alpha  occ. eigenvalues --   -9.95561  -9.95312  -9.95061  -9.94957  -9.94817
 Alpha  occ. eigenvalues --   -9.94783  -7.79347  -7.75576  -5.75657  -5.75285
 Alpha  occ. eigenvalues --   -5.74903  -5.71907  -5.71516  -5.71096  -0.91417
 Alpha  occ. eigenvalues --   -0.90159  -0.84278  -0.83618  -0.82193  -0.81489
 Alpha  occ. eigenvalues --   -0.72544  -0.71711  -0.71660  -0.68310  -0.66299
 Alpha  occ. eigenvalues --   -0.61420  -0.59886  -0.58959  -0.58438  -0.57006
 Alpha  occ. eigenvalues --   -0.54737  -0.53695  -0.52674  -0.52358  -0.51979
 Alpha  occ. eigenvalues --   -0.50429  -0.49040  -0.45961  -0.43523  -0.42113
 Alpha  occ. eigenvalues --   -0.41891  -0.41527  -0.40104  -0.39709  -0.38726
 Alpha  occ. eigenvalues --   -0.36464  -0.35829  -0.33563  -0.33379  -0.32549
 Alpha  occ. eigenvalues --   -0.31618  -0.30895  -0.30864  -0.30528  -0.29458
 Alpha  occ. eigenvalues --   -0.28735  -0.28319  -0.27635  -0.26949  -0.26570
 Alpha  occ. eigenvalues --   -0.25845  -0.25247  -0.25113  -0.24811  -0.23840
 Alpha  occ. eigenvalues --   -0.23540  -0.23224  -0.22281  -0.22147  -0.21190
 Alpha  occ. eigenvalues --   -0.21019  -0.20757  -0.20356  -0.20229  -0.19574
 Alpha  occ. eigenvalues --   -0.19515  -0.19065  -0.18735  -0.18498  -0.18331
 Alpha  occ. eigenvalues --   -0.17770  -0.17210  -0.17090  -0.16989  -0.15660
 Alpha  occ. eigenvalues --   -0.15417  -0.14659  -0.14556  -0.13522  -0.12025
 Alpha  occ. eigenvalues --   -0.10891  -0.09401  -0.07554  -0.06879  -0.06774
 Alpha  occ. eigenvalues --   -0.06403  -0.05765  -0.05574  -0.04899  -0.04482
 Alpha  occ. eigenvalues --   -0.03789  -0.02922  -0.01213   0.00801   0.08557
 Alpha virt. eigenvalues --    0.12339   0.12930   0.13586   0.14447   0.15836
 Alpha virt. eigenvalues --    0.16609   0.16717   0.16873   0.16976   0.17450
 Alpha virt. eigenvalues --    0.17646   0.17758   0.18548   0.19024   0.19310
 Alpha virt. eigenvalues --    0.19394   0.19550   0.20045   0.20267   0.20323
 Alpha virt. eigenvalues --    0.20693   0.20903   0.21077   0.21081   0.21167
 Alpha virt. eigenvalues --    0.21480   0.22233   0.22395   0.22599   0.23001
 Alpha virt. eigenvalues --    0.23052   0.23611   0.23870   0.24194   0.24377
 Alpha virt. eigenvalues --    0.24760   0.24915   0.25017   0.25602   0.25754
 Alpha virt. eigenvalues --    0.25966   0.26253   0.26297   0.26412   0.26922
 Alpha virt. eigenvalues --    0.26970   0.27203   0.27432   0.28069   0.28230
 Alpha virt. eigenvalues --    0.28354   0.28700   0.28777   0.29010   0.29217
 Alpha virt. eigenvalues --    0.29674   0.29804   0.30153   0.30401   0.30505
 Alpha virt. eigenvalues --    0.30963   0.31386   0.31540   0.31776   0.31937
 Alpha virt. eigenvalues --    0.32381   0.32586   0.32711   0.33047   0.33363
 Alpha virt. eigenvalues --    0.33537   0.33706   0.33963   0.34011   0.34383
 Alpha virt. eigenvalues --    0.34828   0.35049   0.35181   0.35264   0.35471
 Alpha virt. eigenvalues --    0.35623   0.35720   0.35892   0.36420   0.36611
 Alpha virt. eigenvalues --    0.36807   0.36968   0.37333   0.37558   0.37646
 Alpha virt. eigenvalues --    0.37869   0.38084   0.38375   0.38539   0.38823
 Alpha virt. eigenvalues --    0.39223   0.39390   0.39582   0.39619   0.39923
 Alpha virt. eigenvalues --    0.40175   0.40533   0.40971   0.41049   0.41108
 Alpha virt. eigenvalues --    0.41526   0.41864   0.41927   0.42050   0.42465
 Alpha virt. eigenvalues --    0.42657   0.42908   0.43169   0.43617   0.43671
 Alpha virt. eigenvalues --    0.44194   0.44229   0.44566   0.44722   0.44965
 Alpha virt. eigenvalues --    0.45064   0.45198   0.45543   0.45832   0.45984
 Alpha virt. eigenvalues --    0.46048   0.46182   0.46401   0.46766   0.46828
 Alpha virt. eigenvalues --    0.47179   0.47401   0.47653   0.47674   0.48045
 Alpha virt. eigenvalues --    0.48173   0.48365   0.48747   0.48933   0.48956
 Alpha virt. eigenvalues --    0.49136   0.49597   0.49698   0.49751   0.49939
 Alpha virt. eigenvalues --    0.50327   0.50626   0.50982   0.51367   0.51598
 Alpha virt. eigenvalues --    0.51755   0.51968   0.52051   0.52215   0.52559
 Alpha virt. eigenvalues --    0.52652   0.53014   0.53242   0.53869   0.54076
 Alpha virt. eigenvalues --    0.54370   0.54505   0.54866   0.55269   0.55494
 Alpha virt. eigenvalues --    0.55642   0.56158   0.57069   0.57093   0.57232
 Alpha virt. eigenvalues --    0.57527   0.58738   0.58927   0.59343   0.59428
 Alpha virt. eigenvalues --    0.59543   0.59957   0.60314   0.60406   0.60662
 Alpha virt. eigenvalues --    0.61061   0.61252   0.61720   0.61954   0.62551
 Alpha virt. eigenvalues --    0.62903   0.63267   0.63829   0.64208   0.64656
 Alpha virt. eigenvalues --    0.64898   0.64966   0.65166   0.65934   0.65984
 Alpha virt. eigenvalues --    0.66693   0.66927   0.67131   0.68281   0.68863
 Alpha virt. eigenvalues --    0.70080   0.70512   0.71201   0.71610   0.72069
 Alpha virt. eigenvalues --    0.72334   0.72770   0.73390   0.73688   0.73972
 Alpha virt. eigenvalues --    0.74451   0.74796   0.75359   0.75849   0.76294
 Alpha virt. eigenvalues --    0.76617   0.76895   0.77435   0.77682   0.77998
 Alpha virt. eigenvalues --    0.78511   0.78740   0.78900   0.79354   0.79667
 Alpha virt. eigenvalues --    0.80112   0.80563   0.80771   0.81310   0.81459
 Alpha virt. eigenvalues --    0.82021   0.82668   0.82896   0.83261   0.83829
 Alpha virt. eigenvalues --    0.83946   0.84183   0.84968   0.85219   0.85776
 Alpha virt. eigenvalues --    0.86040   0.86155   0.86874   0.87169   0.87304
 Alpha virt. eigenvalues --    0.87543   0.88180   0.88869   0.89210   0.89452
 Alpha virt. eigenvalues --    0.90074   0.90207   0.90581   0.90903   0.91444
 Alpha virt. eigenvalues --    0.91861   0.92459   0.92646   0.93025   0.93452
 Alpha virt. eigenvalues --    0.93672   0.93887   0.94504   0.94721   0.95277
 Alpha virt. eigenvalues --    0.95527   0.96127   0.96280   0.96600   0.97013
 Alpha virt. eigenvalues --    0.97132   0.97755   0.98153   0.98527   0.99228
 Alpha virt. eigenvalues --    0.99383   0.99577   1.00067   1.00491   1.01138
 Alpha virt. eigenvalues --    1.01354   1.01814   1.01907   1.02391   1.02573
 Alpha virt. eigenvalues --    1.04517   1.04780   1.05707   1.06482   1.07143
 Alpha virt. eigenvalues --    1.07598   1.08262   1.08535   1.10032   1.10366
 Alpha virt. eigenvalues --    1.10477   1.11065   1.11317   1.11728   1.12505
 Alpha virt. eigenvalues --    1.13208   1.13804   1.14925   1.14998   1.15653
 Alpha virt. eigenvalues --    1.15914   1.16441   1.16634   1.17166   1.17558
 Alpha virt. eigenvalues --    1.18227   1.18412   1.18846   1.19035   1.19412
 Alpha virt. eigenvalues --    1.19943   1.20267   1.20322   1.21004   1.21325
 Alpha virt. eigenvalues --    1.21861   1.22375   1.22651   1.23257   1.23913
 Alpha virt. eigenvalues --    1.24049   1.24435   1.24586   1.24989   1.25357
 Alpha virt. eigenvalues --    1.26117   1.26335   1.26673   1.27419   1.27664
 Alpha virt. eigenvalues --    1.27755   1.27991   1.29223   1.29536   1.30837
 Alpha virt. eigenvalues --    1.31433   1.31511   1.32070   1.33265   1.33714
 Alpha virt. eigenvalues --    1.34301   1.34932   1.35948   1.36085   1.36522
 Alpha virt. eigenvalues --    1.37589   1.38039   1.38660   1.39866   1.40229
 Alpha virt. eigenvalues --    1.40922   1.41259   1.41956   1.42811   1.42973
 Alpha virt. eigenvalues --    1.43959   1.44116   1.44562   1.45667   1.46368
 Alpha virt. eigenvalues --    1.47906   1.48492   1.49196   1.49868   1.50256
 Alpha virt. eigenvalues --    1.50660   1.51017   1.51652   1.52116   1.52542
 Alpha virt. eigenvalues --    1.53321   1.54378   1.55357   1.55710   1.56499
 Alpha virt. eigenvalues --    1.57091   1.57314   1.58886   1.59628   1.60448
 Alpha virt. eigenvalues --    1.61308   1.61776   1.62199   1.62813   1.63108
 Alpha virt. eigenvalues --    1.63602   1.64511   1.64826   1.65338   1.65733
 Alpha virt. eigenvalues --    1.66289   1.67169   1.67713   1.68755   1.69162
 Alpha virt. eigenvalues --    1.69213   1.70042   1.70818   1.70891   1.71563
 Alpha virt. eigenvalues --    1.71881   1.72731   1.74060   1.74114   1.74684
 Alpha virt. eigenvalues --    1.75022   1.75317   1.75487   1.76122   1.76575
 Alpha virt. eigenvalues --    1.77163   1.77856   1.78407   1.79040   1.79206
 Alpha virt. eigenvalues --    1.80259   1.80341   1.80860   1.81552   1.82625
 Alpha virt. eigenvalues --    1.83226   1.83340   1.84050   1.84352   1.84625
 Alpha virt. eigenvalues --    1.84807   1.86396   1.86668   1.87216   1.88075
 Alpha virt. eigenvalues --    1.88968   1.89346   1.90298   1.91262   1.91546
 Alpha virt. eigenvalues --    1.91823   1.92911   1.93445   1.93874   1.94584
 Alpha virt. eigenvalues --    1.94975   1.95486   1.96002   1.96408   1.97146
 Alpha virt. eigenvalues --    1.97655   1.98904   1.99034   2.00266   2.00341
 Alpha virt. eigenvalues --    2.01040   2.01144   2.02558   2.03398   2.04227
 Alpha virt. eigenvalues --    2.04819   2.05144   2.07397   2.08048   2.08452
 Alpha virt. eigenvalues --    2.09043   2.09700   2.10959   2.11394   2.11630
 Alpha virt. eigenvalues --    2.12688   2.13328   2.13729   2.14170   2.14561
 Alpha virt. eigenvalues --    2.15045   2.16171   2.16658   2.16855   2.17898
 Alpha virt. eigenvalues --    2.18340   2.19559   2.20031   2.20891   2.21536
 Alpha virt. eigenvalues --    2.21650   2.22205   2.22764   2.23485   2.23895
 Alpha virt. eigenvalues --    2.24541   2.24925   2.25142   2.25544   2.26163
 Alpha virt. eigenvalues --    2.26814   2.27640   2.27968   2.28245   2.28827
 Alpha virt. eigenvalues --    2.29352   2.29947   2.31664   2.31938   2.32896
 Alpha virt. eigenvalues --    2.33099   2.34013   2.35518   2.36276   2.37244
 Alpha virt. eigenvalues --    2.37981   2.38630   2.39763   2.40360   2.41064
 Alpha virt. eigenvalues --    2.42171   2.43082   2.43402   2.44847   2.46233
 Alpha virt. eigenvalues --    2.47944   2.50359   2.50706   2.52872   2.55221
 Alpha virt. eigenvalues --    2.55944   2.56610   2.57502   2.58827   2.59041
 Alpha virt. eigenvalues --    2.59989   2.60515   2.61358   2.61628   2.61815
 Alpha virt. eigenvalues --    2.63807   2.64192   2.65730   2.65912   2.66084
 Alpha virt. eigenvalues --    2.66831   2.67493   2.68485   2.69852   2.70159
 Alpha virt. eigenvalues --    2.70570   2.70931   2.71804   2.72157   2.72590
 Alpha virt. eigenvalues --    2.73312   2.73769   2.75541   2.76208   2.77302
 Alpha virt. eigenvalues --    2.78458   2.80037   2.80424   2.80693   2.81364
 Alpha virt. eigenvalues --    2.83637   2.85302   2.85763   2.86482   2.87198
 Alpha virt. eigenvalues --    2.88319   2.88865   2.89864   2.90315   2.90615
 Alpha virt. eigenvalues --    2.91675   2.93267   2.93391   2.94031   2.94599
 Alpha virt. eigenvalues --    2.94950   2.95609   2.95918   2.96346   2.96631
 Alpha virt. eigenvalues --    2.99494   2.99607   3.00354   3.00991   3.01812
 Alpha virt. eigenvalues --    3.03213   3.04619   3.06666   3.07072   3.07489
 Alpha virt. eigenvalues --    3.08174   3.09818   3.10350   3.10461   3.11755
 Alpha virt. eigenvalues --    3.12234   3.13069   3.13385   3.14253   3.14379
 Alpha virt. eigenvalues --    3.14712   3.15659   3.16382   3.17292   3.17328
 Alpha virt. eigenvalues --    3.18446   3.18922   3.20114   3.20459   3.21938
 Alpha virt. eigenvalues --    3.22403   3.23767   3.23942   3.27637   3.28972
 Alpha virt. eigenvalues --    3.29585   3.31312   3.31566   3.32161   3.32479
 Alpha virt. eigenvalues --    3.34326   3.36353   3.37737   3.38662   3.38902
 Alpha virt. eigenvalues --    3.40071   3.40728   3.41304   3.41939   3.42476
 Alpha virt. eigenvalues --    3.44755   3.46087   3.48304   3.49340   3.49988
 Alpha virt. eigenvalues --    3.51637   3.53260   3.54427   3.56859   3.58048
 Alpha virt. eigenvalues --    3.58804   3.58945   3.59083   3.59711   3.60787
 Alpha virt. eigenvalues --    3.62648   3.63239   3.65063   3.67027   3.67716
 Alpha virt. eigenvalues --    3.68463   3.69151   3.70604   3.72824   3.73706
 Alpha virt. eigenvalues --    3.75522   3.78682   3.82179   3.83277   3.84181
 Alpha virt. eigenvalues --    3.85703   3.88572   3.89502   3.91042   3.91209
 Alpha virt. eigenvalues --    3.92246   3.93022   3.93198   3.93531   3.93941
 Alpha virt. eigenvalues --    3.94960   3.98062   4.01595   4.05316   4.06755
 Alpha virt. eigenvalues --    4.07823   4.14437   4.15244   4.15756   4.16995
 Alpha virt. eigenvalues --    4.17417   4.20287   4.21735   4.25382   4.25757
 Alpha virt. eigenvalues --    4.27265   4.29071   4.31700   4.37366   4.40087
 Alpha virt. eigenvalues --    4.43325   4.49592   4.51196   4.60367   4.64303
 Alpha virt. eigenvalues --    4.65458   4.74338   4.91602   5.09947   5.10211
 Alpha virt. eigenvalues --    5.11604   5.13526   5.18646   5.21012   5.27946
 Alpha virt. eigenvalues --    5.29743   5.29843   5.33312   5.35462   5.37668
 Alpha virt. eigenvalues --    5.48941   5.51145   5.53304   5.59177   5.59686
 Alpha virt. eigenvalues --    5.61072   5.94181   5.97994   6.00190   6.04639
 Alpha virt. eigenvalues --    6.06018   6.09928   8.19683   8.25143  17.46601
 Alpha virt. eigenvalues --   17.53428  17.67162  17.70129  17.78240  17.83191
 Alpha virt. eigenvalues --   23.71658  23.79079  23.91975  24.00292  24.04802
 Alpha virt. eigenvalues --   24.05531  24.07472  24.07552  24.09293  24.10138
 Alpha virt. eigenvalues --   24.11932  24.12248  24.13531  24.15070  24.16195
 Alpha virt. eigenvalues --   24.20163  24.20565  24.21621  24.22236  24.24355
 Alpha virt. eigenvalues --   24.26172  24.31348  24.31540  24.34454  24.39324
 Alpha virt. eigenvalues --   24.40250  35.79433  35.82578  50.13473  50.15738
 Alpha virt. eigenvalues --   50.26737  50.28958  50.30591  50.32490 189.36989
 Alpha virt. eigenvalues --  189.43112
          Condensed to atoms (all electrons):
 Mulliken charges:
               1
     1  C    0.267765
     2  C   -0.196978
     3  C    0.121023
     4  C    0.196667
     5  C    0.147556
     6  C   -0.816866
     7  C    0.193018
     8  C    0.092257
     9  C    0.797179
    10  C   -0.395172
    11  C    0.111971
    12  C    0.166925
    13  C   -0.490014
    14  C   -0.612969
    15  H    0.098802
    16  H    0.103559
    17  H    0.132593
    18  N   -0.154634
    19  N   -0.131460
    20  O   -0.404919
    21  O   -0.397710
    22  O   -0.403486
    23  O   -0.336684
    24  C   -0.199801
    25  H    0.133872
    26  H    0.137216
    27  H    0.156431
    28  C   -0.185933
    29  H    0.138519
    30  H    0.135195
    31  H    0.155405
    32  C   -0.106867
    33  C   -0.414716
    34  S   -0.621416
    35  C   -0.178082
    36  H    0.139728
    37  C    0.766011
    38  O   -0.131069
    39  C    0.806985
    40  C   -0.242468
    41  C    0.032748
    42  S   -0.333447
    43  H    0.125720
    44  H    0.161405
    45  H    0.137074
    46  C   -0.631903
    47  O   -0.101841
    48  C   -0.330239
    49  H    0.094958
    50  C   -0.243622
    51  H    0.114483
    52  H    0.118064
    53  H    0.160998
    54  H    0.118170
 Sum of Mulliken charges =  -2.00000
 Mulliken charges with hydrogens summed into heavy atoms:
               1
     1  C    0.267765
     2  C   -0.196978
     3  C    0.121023
     4  C    0.196667
     5  C    0.147556
     6  C   -0.684273
     7  C    0.193018
     8  C    0.092257
     9  C    0.797179
    10  C   -0.395172
    11  C    0.111971
    12  C    0.166925
    13  C   -0.386456
    14  C   -0.514167
    18  N   -0.154634
    19  N   -0.131460
    20  O   -0.404919
    21  O   -0.397710
    22  O   -0.403486
    23  O   -0.336684
    24  C    0.227718
    28  C    0.243185
    32  C   -0.106867
    33  C   -0.274988
    34  S   -0.621416
    35  C   -0.178082
    37  C    0.766011
    38  O   -0.131069
    39  C    0.806985
    40  C    0.181730
    41  C    0.032748
    42  S   -0.333447
    46  C   -0.536945
    47  O   -0.101841
    48  C   -0.215755
    50  C    0.153610
 Electronic spatial extent (au):  <R**2>=          22583.5352
 Charge=             -2.0000 electrons
 Dipole moment (field-independent basis, Debye):
    X=             15.5685    Y=             -0.7833    Z=              0.5936  Tot=             15.5994
 Quadrupole moment (field-independent basis, Debye-Ang):
   XX=           -422.5029   YY=           -296.6363   ZZ=           -236.8204
   XY=             -1.9385   XZ=            -10.7897   YZ=             20.8727
 Traceless Quadrupole moment (field-independent basis, Debye-Ang):
   XX=           -103.8497   YY=             22.0169   ZZ=             81.8328
   XY=             -1.9385   XZ=            -10.7897   YZ=             20.8727
 Octapole moment (field-independent basis, Debye-Ang**2):
  XXX=            479.2202  YYY=            -43.6099  ZZZ=              5.4389  XYY=            280.0384
  XXY=             13.9376  XXZ=             51.1415  XZZ=             20.7122  YZZ=             -1.3763
  YYZ=              2.2081  XYZ=            -19.5099
 Hexadecapole moment (field-independent basis, Debye-Ang**3):
 XXXX=         -28948.4423 YYYY=          -9284.8972 ZZZZ=          -1030.0109 XXXY=           -447.7419
 XXXZ=           -322.4790 YYYX=            256.8243 YYYZ=            362.6942 ZZZX=            -25.5651
 ZZZY=             48.8441 XXYY=          -6267.9798 XXZZ=          -4108.5158 YYZZ=          -1592.8754
 XXYZ=            299.1008 YYXZ=           -169.4462 ZZXY=             58.3370
 N-N= 4.087984280451D+03 E-N=-1.377525773157D+04  KE= 2.352538348409D+03
 Calling FoFJK, ICntrl=      2127 FMM=F ISym2X=0 I1Cent= 0 IOpClX= 0 NMat=1 NMatS=1 NMatT=0.
 ***** Axes restored to original set *****
 -------------------------------------------------------------------
 Center     Atomic                   Forces (Hartrees/Bohr)
 Number     Number              X              Y              Z
 -------------------------------------------------------------------
      1        6          -0.001221833    0.042795068    0.007267445
      2        6          -0.023442923   -0.030399254   -0.003308895
      3        6          -0.005061942   -0.007286652   -0.001434595
      4        6           0.014967110   -0.035248907   -0.005183044
      5        6           0.024237850    0.037220021    0.004600426
      6        6           0.030012885    0.030189834   -0.004581085
      7        6           0.002262632    0.007849288    0.001331051
      8        6          -0.013084610    0.041366412    0.015695904
      9        6           0.014017767   -0.045611698   -0.004311048
     10        6          -0.025279028   -0.041498475   -0.010609573
     11        6           0.007724548   -0.042888880   -0.006968075
     12        6           0.025213672    0.028937008    0.004812068
     13        6          -0.029475671   -0.028759736   -0.004094273
     14        6          -0.015260886    0.038648566    0.006043659
     15        1          -0.000110207    0.000879600    0.000148510
     16        1          -0.000055097   -0.000929496   -0.000297131
     17        1           0.000875554    0.000893549    0.001983735
     18        7          -0.001496041    0.004039364   -0.000251886
     19        7          -0.002321184   -0.004336831   -0.000967673
     20        8           0.015249756   -0.024981576   -0.003668832
     21        8          -0.027761660   -0.016717233   -0.001777850
     22        8          -0.018846985    0.025946490    0.004338485
     23        8           0.018081523    0.025449927    0.002733350
     24        6          -0.001365657   -0.004970086   -0.002576435
     25        1           0.001092118    0.000715499    0.000513445
     26        1           0.000512242    0.000302181    0.000861609
     27        1          -0.000959909   -0.000336313    0.000003156
     28        6           0.000659544    0.005990467    0.000235785
     29        1           0.000532112   -0.000982819    0.000259254
     30        1           0.000687830   -0.001226715   -0.000074491
     31        1          -0.000631165    0.000703044    0.000167177
     32        6          -0.009968120    0.004218545   -0.001159515
     33        6           0.017422651   -0.001649415    0.006645327
     34       16          -0.008041308   -0.000648099   -0.000149474
     35        6          -0.013167536   -0.012607512   -0.005888908
     36        1           0.001321664   -0.003412099   -0.004367851
     37        6           0.015343089    0.003419610    0.000006158
     38        8           0.007830979    0.007938656    0.008202335
     39        6          -0.012065114    0.000997083    0.004361722
     40        6          -0.000750749   -0.001056578   -0.004421479
     41        6           0.014408375    0.004565551    0.001132872
     42       16          -0.001643984    0.001119628    0.001576647
     43        1           0.001053012    0.000008234    0.000159426
     44        1          -0.000443422   -0.001822990    0.000681849
     45        1          -0.000231401    0.000298307   -0.000354845
     46        6          -0.006780195   -0.000926639    0.001760470
     47        8          -0.006205500   -0.012037596   -0.011200772
     48        6           0.014375260   -0.000031530   -0.004090594
     49        1           0.000200184    0.000027541   -0.000104348
     50        6          -0.001582171    0.005652485    0.007018105
     51        1          -0.001315585    0.000021221   -0.000314241
     52        1           0.000215302   -0.000020441   -0.000171651
     53        1          -0.000265462    0.000033397    0.000373745
     54        1           0.000537688    0.000160992   -0.000585151
 -------------------------------------------------------------------
 Cartesian Forces:  Max     0.045611698 RMS     0.013427658

 GradGradGradGradGradGradGradGradGradGradGradGradGradGradGradGradGradGrad
 Berny optimization.
 FormGI is forming the generalized inverse of G from B-inverse, IUseBI=4.
 Internal  Forces:  Max     0.048090174 RMS     0.007822451
 Search for a local minimum.
 Step number   1 out of a maximum of  307
 All quantities printed in internal units (Hartrees-Bohrs-Radians)
 Mixed Optimization -- RFO/linear search
 Second derivative matrix not updated -- first step.
 ITU=  0
     Eigenvalues ---    0.00803   0.00803   0.01176   0.01203   0.01245
     Eigenvalues ---    0.01292   0.01308   0.01311   0.01360   0.01379
     Eigenvalues ---    0.01419   0.01429   0.01457   0.01496   0.01515
     Eigenvalues ---    0.01568   0.01574   0.01577   0.01617   0.01652
     Eigenvalues ---    0.01692   0.01709   0.01711   0.01719   0.01754
     Eigenvalues ---    0.01783   0.01803   0.01847   0.01964   0.02040
     Eigenvalues ---    0.02043   0.02066   0.02076   0.02082   0.02135
     Eigenvalues ---    0.02149   0.02163   0.02177   0.02197   0.02228
     Eigenvalues ---    0.02245   0.02250   0.07556   0.07572   0.07690
     Eigenvalues ---    0.07700   0.10065   0.10069   0.10631   0.10638
     Eigenvalues ---    0.15983   0.15999   0.15999   0.16000   0.16000
     Eigenvalues ---    0.16000   0.16000   0.16000   0.16000   0.16000
     Eigenvalues ---    0.16000   0.16000   0.16000   0.16000   0.16000
     Eigenvalues ---    0.16000   0.16000   0.16000   0.22530   0.22583
     Eigenvalues ---    0.23518   0.23582   0.24516   0.24747   0.24864
     Eigenvalues ---    0.24931   0.24952   0.24986   0.24987   0.24988
     Eigenvalues ---    0.24991   0.24994   0.24997   0.24997   0.24998
     Eigenvalues ---    0.24998   0.25000   0.25000   0.25000   0.25000
     Eigenvalues ---    0.25000   0.25000   0.25000   0.25000   0.25000
     Eigenvalues ---    0.25000   0.28830   0.28908   0.30085   0.32093
     Eigenvalues ---    0.32582   0.32774   0.33111   0.33787   0.33938
     Eigenvalues ---    0.34036   0.34054   0.34135   0.34354   0.34466
     Eigenvalues ---    0.34577   0.34629   0.34693   0.34809   0.34896
     Eigenvalues ---    0.35198   0.35218   0.35468   0.35553   0.35582
     Eigenvalues ---    0.35803   0.35817   0.36078   0.36083   0.36205
     Eigenvalues ---    0.36396   0.36662   0.39352   0.40187   0.40194
     Eigenvalues ---    0.40651   0.40716   0.41524   0.41705   0.41919
     Eigenvalues ---    0.42300   0.42649   0.43455   0.43896   0.44092
     Eigenvalues ---    0.44570   0.44594   0.45014   0.45406   0.46251
     Eigenvalues ---    0.47305   0.47626   0.49310   0.49597   0.53060
     Eigenvalues ---    0.53319   0.93281   0.93432   0.93989   0.94585
     Eigenvalues --- 1000.000001000.000001000.000001000.000001000.00000
     Eigenvalues --- 1000.000001000.000001000.000001000.000001000.00000
     Eigenvalues --- 1000.000001000.000001000.000001000.000001000.00000
     Eigenvalues --- 1000.000001000.000001000.000001000.000001000.00000
     Eigenvalues --- 1000.000001000.000001000.000001000.000001000.00000
     Eigenvalues --- 1000.000001000.000001000.000001000.000001000.00000
     Eigenvalues --- 1000.000001000.000001000.000001000.000001000.00000
     Eigenvalues --- 1000.000001000.000001000.000001000.000001000.00000
     Eigenvalues --- 1000.000001000.000001000.000001000.000001000.00000
     Eigenvalues --- 1000.000001000.000001000.000001000.000001000.00000
     Eigenvalues --- 1000.000001000.000001000.000001000.000001000.00000
     Eigenvalues --- 1000.000001000.000001000.000001000.000001000.00000
     Eigenvalues --- 1000.000001000.000001000.000001000.000001000.00000
     Eigenvalues --- 1000.000001000.000001000.000001000.000001000.00000
     Eigenvalues --- 1000.000001000.000001000.000001000.000001000.00000
     Eigenvalues --- 1000.000001000.000001000.000001000.000001000.00000
     Eigenvalues --- 1000.000001000.000001000.000001000.000001000.00000
     Eigenvalues --- 1000.000001000.000001000.000001000.000001000.00000
     Eigenvalues --- 1000.000001000.000001000.000001000.000001000.00000
     Eigenvalues --- 1000.000001000.000001000.000001000.000001000.00000
     Eigenvalues --- 1000.000001000.000001000.000001000.000001000.00000
     Eigenvalues --- 1000.000001000.000001000.000001000.000001000.00000
     Eigenvalues --- 1000.000001000.000001000.000001000.000001000.00000
     Eigenvalues --- 1000.000001000.000001000.000001000.000001000.00000
     Eigenvalues --- 1000.000001000.000001000.000001000.000001000.00000
     Eigenvalues --- 1000.000001000.000001000.000001000.000001000.00000
     Eigenvalues --- 1000.000001000.000001000.000001000.000001000.00000
     Eigenvalues --- 1000.000001000.000001000.000001000.000001000.00000
     Eigenvalues --- 1000.000001000.00000
 RFO step:  Lambda=-4.51065113D-02 EMin= 8.02933640D-03
 Linear search not attempted -- first point.
 Maximum step size (   0.300) exceeded in Quadratic search.
    -- Step size scaled by   0.885
 Iteration  1 RMS(Cart)=  0.24206578 RMS(Int)=  0.00468031
 Iteration  2 RMS(Cart)=  0.02804054 RMS(Int)=  0.00037498
 Iteration  3 RMS(Cart)=  0.00022635 RMS(Int)=  0.00037074
 Iteration  4 RMS(Cart)=  0.00000029 RMS(Int)=  0.00037074
 Iteration  1 RMS(Cart)=  0.00005348 RMS(Int)=  0.00000925
 Iteration  2 RMS(Cart)=  0.00003040 RMS(Int)=  0.00001032
 Iteration  3 RMS(Cart)=  0.00001728 RMS(Int)=  0.00001171
 Iteration  4 RMS(Cart)=  0.00000982 RMS(Int)=  0.00001267
 Iteration  5 RMS(Cart)=  0.00000558 RMS(Int)=  0.00001326
 Iteration  6 RMS(Cart)=  0.00000317 RMS(Int)=  0.00001361
 Iteration  7 RMS(Cart)=  0.00000180 RMS(Int)=  0.00001381
 Iteration  8 RMS(Cart)=  0.00000102 RMS(Int)=  0.00001392
 Iteration  9 RMS(Cart)=  0.00000058 RMS(Int)=  0.00001399
 Variable       Old X    -DE/DX   Delta X   Delta X   Delta X     New X
                                 (Linear)    (Quad)   (Total)
    R1        2.80935  -0.02028   0.00000  -0.04699  -0.04699   2.76236
    R2        2.64584   0.00394   0.00000   0.00651   0.00650   2.65234
    R3        2.31147   0.02861   0.00000   0.02569   0.02569   2.33716
    R4        2.67311   0.00480   0.00000   0.00846   0.00844   2.68156
    R5        2.59267   0.01954   0.00000   0.02947   0.02939   2.62206
    R6        2.66894   0.00531   0.00000   0.01061   0.01063   2.67957
    R7        2.69164   0.01197   0.00000   0.02593   0.02600   2.71764
    R8        2.81049  -0.01963   0.00000  -0.04517  -0.04518   2.76532
    R9        2.62173   0.02485   0.00000   0.04102   0.04097   2.66269
   R10        2.65570   0.00270   0.00000   0.00453   0.00451   2.66021
   R11        2.30889   0.03169   0.00000   0.02829   0.02829   2.33718
   R12        2.70248  -0.02430   0.00000  -0.04890  -0.04894   2.65354
   R13        2.04786  -0.00029   0.00000  -0.00065  -0.00065   2.04721
   R14        2.70495   0.01529   0.00000   0.03402   0.03414   2.73909
   R15        2.68322   0.00961   0.00000   0.02023   0.02021   2.70343
   R16        2.68655   0.04809   0.00000   0.09181   0.09189   2.77844
   R17        2.81233  -0.01356   0.00000  -0.03069  -0.03057   2.78176
   R18        2.76359   0.00915   0.00000   0.01966   0.01966   2.78325
   R19        2.66221   0.00452   0.00000   0.00712   0.00719   2.66940
   R20        2.31391   0.02681   0.00000   0.02421   0.02421   2.33812
   R21        2.79415  -0.02455   0.00000  -0.05614  -0.05628   2.73787
   R22        2.63842  -0.00213   0.00000  -0.00530  -0.00534   2.63307
   R23        2.31456   0.03170   0.00000   0.02867   0.02867   2.34323
   R24        2.62448   0.02520   0.00000   0.04244   0.04243   2.66692
   R25        2.64561  -0.02547   0.00000  -0.04638  -0.04644   2.59917
   R26        2.04921  -0.00063   0.00000  -0.00140  -0.00140   2.04781
   R27        2.04741  -0.00018   0.00000  -0.00039  -0.00039   2.04702
   R28        2.77259  -0.00449   0.00000  -0.00980  -0.00980   2.76280
   R29        2.77252  -0.00468   0.00000  -0.01020  -0.01020   2.76232
   R30        2.06176   0.00104   0.00000   0.00236   0.00236   2.06412
   R31        2.06551  -0.00023   0.00000  -0.00052  -0.00052   2.06500
   R32        2.05322   0.00066   0.00000   0.00148   0.00148   2.05470
   R33        2.06368   0.00031   0.00000   0.00070   0.00070   2.06437
   R34        2.06281   0.00086   0.00000   0.00195   0.00195   2.06477
   R35        2.05355   0.00055   0.00000   0.00122   0.00122   2.05477
   R36        2.60999   0.00606   0.00000   0.01030   0.01035   2.62033
   R37        3.33311   0.00365   0.00000   0.01028   0.01030   3.34341
   R38        2.66325  -0.00087   0.00000  -0.00183  -0.00181   2.66144
   R39        2.03761  -0.00566   0.00000  -0.01230  -0.01230   2.02531
   R40        3.30425   0.00765   0.00000   0.01908   0.01904   3.32329
   R41        2.64299  -0.00318   0.00000  -0.00608  -0.00610   2.63689
   R42        2.56897   0.01005   0.00000   0.01544   0.01544   2.58442
   R43        2.71301   0.00008   0.00000   0.00017   0.00017   2.71317
   R44        2.69301  -0.00454   0.00000  -0.00870  -0.00870   2.68431
   R45        2.63416   0.00513   0.00000   0.00871   0.00870   2.64286
   R46        3.32864   0.00428   0.00000   0.01116   0.01116   3.33980
   R47        2.05986   0.00095   0.00000   0.00213   0.00213   2.06199
   R48        2.07239  -0.00110   0.00000  -0.00252  -0.00252   2.06987
   R49        2.07102  -0.00037   0.00000  -0.00085  -0.00085   2.07018
   R50        2.69054  -0.00017   0.00000  -0.00045  -0.00045   2.69009
   R51        2.56657   0.01056   0.00000   0.01615   0.01615   2.58272
   R52        3.26324   0.00557   0.00000   0.01342   0.01343   3.27667
   R53        2.58650   0.00310   0.00000   0.00499   0.00500   2.59149
   R54        2.04369   0.00013   0.00000   0.00028   0.00028   2.04397
   R55        2.69026  -0.00887   0.00000  -0.01690  -0.01690   2.67336
   R56        2.04391  -0.00125   0.00000  -0.00274  -0.00274   2.04117
   R57        2.07435   0.00011   0.00000   0.00026   0.00026   2.07460
   R58        2.05845   0.00013   0.00000   0.00030   0.00030   2.05875
   R59        2.07269   0.00073   0.00000   0.00167   0.00167   2.07437
    A1        2.03797  -0.00362   0.00000  -0.01149  -0.01149   2.02648
    A2        2.14521   0.01010   0.00000   0.03058   0.03058   2.17578
    A3        2.10001  -0.00648   0.00000  -0.01910  -0.01910   2.08091
    A4        2.10395   0.00079   0.00000   0.00472   0.00475   2.10869
    A5        2.08282  -0.00159   0.00000  -0.00351  -0.00354   2.07928
    A6        2.09624   0.00080   0.00000  -0.00114  -0.00114   2.09510
    A7        2.10093   0.00060   0.00000  -0.00040  -0.00045   2.10048
    A8        2.07104  -0.00077   0.00000  -0.00304  -0.00299   2.06805
    A9        2.11118   0.00017   0.00000   0.00346   0.00346   2.11464
   A10        2.10296  -0.00027   0.00000   0.00032   0.00035   2.10332
   A11        2.09911   0.00250   0.00000   0.00753   0.00749   2.10660
   A12        2.08110  -0.00223   0.00000  -0.00784  -0.00784   2.07326
   A13        2.03739  -0.00271   0.00000  -0.00794  -0.00795   2.02944
   A14        2.12972   0.00943   0.00000   0.02819   0.02820   2.15792
   A15        2.11607  -0.00673   0.00000  -0.02025  -0.02024   2.09583
   A16        2.15098   0.00845   0.00000   0.02349   0.02337   2.17435
   A17        2.04399  -0.00276   0.00000  -0.00498  -0.00515   2.03883
   A18        2.08722  -0.00557   0.00000  -0.01721  -0.01735   2.06987
   A19        2.11101   0.00165   0.00000   0.00584   0.00592   2.11693
   A20        2.04385  -0.00759   0.00000  -0.02362  -0.02365   2.02020
   A21        2.12832   0.00595   0.00000   0.01781   0.01773   2.14605
   A22        2.08678  -0.00826   0.00000  -0.02087  -0.02106   2.06573
   A23        2.04738  -0.01248   0.00000  -0.03381  -0.03404   2.01335
   A24        2.14662   0.02094   0.00000   0.05776   0.05718   2.20380
   A25        2.04892  -0.00181   0.00000  -0.00428  -0.00420   2.04472
   A26        2.00754  -0.03465   0.00000  -0.10405  -0.10433   1.90321
   A27        2.22643   0.03645   0.00000   0.10914   0.10881   2.33523
   A28        2.06022   0.00174   0.00000   0.00658   0.00671   2.06693
   A29        2.17370   0.01746   0.00000   0.05177   0.05150   2.22520
   A30        2.04919  -0.01918   0.00000  -0.05799  -0.05824   1.99095
   A31        2.01621  -0.00491   0.00000  -0.01664  -0.01682   1.99939
   A32        2.14188   0.01000   0.00000   0.03103   0.03108   2.17296
   A33        2.12500  -0.00508   0.00000  -0.01420  -0.01415   2.11084
   A34        2.10943   0.00092   0.00000   0.00409   0.00391   2.11334
   A35        2.11468   0.00413   0.00000   0.01409   0.01422   2.12889
   A36        2.05896  -0.00504   0.00000  -0.01806  -0.01804   2.04092
   A37        2.11176   0.00146   0.00000   0.00353   0.00348   2.11524
   A38        2.05670   0.00001   0.00000   0.00144   0.00146   2.05816
   A39        2.11471  -0.00147   0.00000  -0.00496  -0.00494   2.10978
   A40        2.08567  -0.00064   0.00000  -0.00480  -0.00490   2.08077
   A41        2.07549   0.00123   0.00000   0.00631   0.00636   2.08185
   A42        2.12199  -0.00058   0.00000  -0.00147  -0.00143   2.12056
   A43        2.20043   0.00898   0.00000   0.02458   0.02467   2.22510
   A44        2.02023  -0.00374   0.00000  -0.01003  -0.01008   2.01015
   A45        2.06252  -0.00524   0.00000  -0.01454  -0.01459   2.04794
   A46        2.18316   0.00520   0.00000   0.01478   0.01476   2.19791
   A47        2.02959  -0.00189   0.00000  -0.00527  -0.00525   2.02433
[...]
 Alpha  occ. eigenvalues --   -0.37172  -0.36462  -0.34200  -0.33846  -0.31818
 Alpha  occ. eigenvalues --   -0.31524  -0.31367  -0.30863  -0.30668  -0.30045
 Alpha  occ. eigenvalues --   -0.29150  -0.28569  -0.27453  -0.27130  -0.26702
 Alpha  occ. eigenvalues --   -0.26326  -0.25512  -0.25303  -0.24985  -0.24441
 Alpha  occ. eigenvalues --   -0.23341  -0.23242  -0.22412  -0.22264  -0.21605
 Alpha  occ. eigenvalues --   -0.21207  -0.20930  -0.20677  -0.20383  -0.19892
 Alpha  occ. eigenvalues --   -0.19569  -0.19286  -0.19124  -0.18685  -0.18345
 Alpha  occ. eigenvalues --   -0.18003  -0.17639  -0.16843  -0.16362  -0.15964
 Alpha  occ. eigenvalues --   -0.15390  -0.15059  -0.14885  -0.12699  -0.11970
 Alpha  occ. eigenvalues --   -0.11649  -0.09880  -0.08896  -0.07065  -0.06946
 Alpha  occ. eigenvalues --   -0.06400  -0.06249  -0.05620  -0.05416  -0.04751
 Alpha  occ. eigenvalues --   -0.04680  -0.03473  -0.01724  -0.00151   0.06494
 Alpha virt. eigenvalues --    0.11941   0.12805   0.13910   0.14433   0.15713
 Alpha virt. eigenvalues --    0.15826   0.16599   0.16743   0.16853   0.17159
 Alpha virt. eigenvalues --    0.17377   0.17965   0.18512   0.18768   0.19039
 Alpha virt. eigenvalues --    0.19091   0.19152   0.19382   0.20042   0.20078
 Alpha virt. eigenvalues --    0.20592   0.20740   0.20933   0.21225   0.21316
 Alpha virt. eigenvalues --    0.21611   0.21710   0.21879   0.22595   0.22744
 Alpha virt. eigenvalues --    0.23041   0.23580   0.23641   0.23961   0.24032
 Alpha virt. eigenvalues --    0.24249   0.24514   0.24846   0.25177   0.25332
 Alpha virt. eigenvalues --    0.25646   0.25841   0.26142   0.26450   0.26665
 Alpha virt. eigenvalues --    0.26847   0.27004   0.27085   0.27345   0.27630
 Alpha virt. eigenvalues --    0.27705   0.28333   0.28488   0.28895   0.29130
 Alpha virt. eigenvalues --    0.29290   0.29616   0.30001   0.30136   0.30280
 Alpha virt. eigenvalues --    0.30677   0.30840   0.31400   0.31498   0.31818
 Alpha virt. eigenvalues --    0.32382   0.32461   0.32616   0.32793   0.32941
 Alpha virt. eigenvalues --    0.33235   0.33333   0.33584   0.33763   0.33911
 Alpha virt. eigenvalues --    0.34055   0.34402   0.34575   0.34883   0.35062
 Alpha virt. eigenvalues --    0.35285   0.35643   0.35767   0.36068   0.36268
 Alpha virt. eigenvalues --    0.36592   0.36960   0.37087   0.37335   0.37591
 Alpha virt. eigenvalues --    0.37828   0.38156   0.38374   0.38592   0.38859
 Alpha virt. eigenvalues --    0.38870   0.39140   0.39387   0.39709   0.40009
 Alpha virt. eigenvalues --    0.40106   0.40232   0.40664   0.40766   0.40963
 Alpha virt. eigenvalues --    0.41304   0.41514   0.41791   0.42047   0.42341
 Alpha virt. eigenvalues --    0.42517   0.42629   0.42816   0.43042   0.43477
 Alpha virt. eigenvalues --    0.43804   0.44026   0.44065   0.44466   0.44569
 Alpha virt. eigenvalues --    0.44791   0.44880   0.44951   0.45094   0.45405
 Alpha virt. eigenvalues --    0.45822   0.45979   0.46063   0.46257   0.46482
 Alpha virt. eigenvalues --    0.46696   0.46850   0.47015   0.47270   0.47406
 Alpha virt. eigenvalues --    0.47759   0.47993   0.48280   0.48446   0.48572
 Alpha virt. eigenvalues --    0.48594   0.49012   0.49274   0.49388   0.49432
 Alpha virt. eigenvalues --    0.49838   0.50069   0.50469   0.50692   0.50902
 Alpha virt. eigenvalues --    0.51067   0.51227   0.51560   0.51827   0.51955
 Alpha virt. eigenvalues --    0.52149   0.52365   0.52907   0.53056   0.53367
 Alpha virt. eigenvalues --    0.53510   0.53844   0.54004   0.54654   0.54740
 Alpha virt. eigenvalues --    0.55317   0.55621   0.55925   0.56289   0.56680
 Alpha virt. eigenvalues --    0.57008   0.57331   0.57763   0.57885   0.58494
 Alpha virt. eigenvalues --    0.59084   0.59284   0.59910   0.60105   0.60540
 Alpha virt. eigenvalues --    0.60688   0.61086   0.61322   0.61886   0.61960
 Alpha virt. eigenvalues --    0.62352   0.62962   0.63019   0.63281   0.63953
 Alpha virt. eigenvalues --    0.64426   0.64577   0.64865   0.65258   0.65742
 Alpha virt. eigenvalues --    0.66188   0.66496   0.67618   0.67695   0.67984
 Alpha virt. eigenvalues --    0.68471   0.69308   0.70156   0.70386   0.70900
 Alpha virt. eigenvalues --    0.71302   0.71688   0.72192   0.72573   0.73037
 Alpha virt. eigenvalues --    0.73260   0.73465   0.74388   0.74912   0.75383
 Alpha virt. eigenvalues --    0.75591   0.76081   0.76779   0.77076   0.77318
 Alpha virt. eigenvalues --    0.77757   0.78408   0.78772   0.78988   0.79116
 Alpha virt. eigenvalues --    0.79714   0.80472   0.80605   0.81208   0.81572
 Alpha virt. eigenvalues --    0.82027   0.82163   0.82461   0.82691   0.82999
 Alpha virt. eigenvalues --    0.83720   0.83774   0.84262   0.84798   0.84860
 Alpha virt. eigenvalues --    0.85467   0.85756   0.86063   0.86709   0.87026
 Alpha virt. eigenvalues --    0.87326   0.87435   0.87737   0.88280   0.88637
 Alpha virt. eigenvalues --    0.88870   0.89531   0.89712   0.90155   0.90400
 Alpha virt. eigenvalues --    0.90745   0.91349   0.91593   0.92046   0.92321
 Alpha virt. eigenvalues --    0.92696   0.93107   0.93414   0.93695   0.93915
 Alpha virt. eigenvalues --    0.94666   0.94912   0.95085   0.95626   0.95919
 Alpha virt. eigenvalues --    0.96396   0.96446   0.96978   0.97144   0.97733
 Alpha virt. eigenvalues --    0.98093   0.98290   0.98428   0.99066   0.99823
 Alpha virt. eigenvalues --    1.00105   1.00622   1.01323   1.01648   1.01951
 Alpha virt. eigenvalues --    1.02500   1.04018   1.04267   1.04639   1.05481
 Alpha virt. eigenvalues --    1.06084   1.06312   1.07078   1.07865   1.08289
 Alpha virt. eigenvalues --    1.08694   1.09455   1.09752   1.10607   1.11137
 Alpha virt. eigenvalues --    1.11876   1.12149   1.13049   1.13766   1.14585
 Alpha virt. eigenvalues --    1.15007   1.15608   1.15963   1.16166   1.16319
 Alpha virt. eigenvalues --    1.16691   1.16907   1.17908   1.18017   1.18319
 Alpha virt. eigenvalues --    1.18852   1.19080   1.19882   1.20077   1.20499
 Alpha virt. eigenvalues --    1.20838   1.21391   1.21470   1.22184   1.22724
 Alpha virt. eigenvalues --    1.23095   1.23612   1.23904   1.24778   1.25014
 Alpha virt. eigenvalues --    1.25482   1.25665   1.26123   1.26248   1.26908
 Alpha virt. eigenvalues --    1.27141   1.27674   1.27841   1.29004   1.29235
 Alpha virt. eigenvalues --    1.29674   1.30462   1.30985   1.31200   1.31932
 Alpha virt. eigenvalues --    1.32322   1.33580   1.34303   1.35239   1.35798
 Alpha virt. eigenvalues --    1.36445   1.36852   1.37842   1.38352   1.39435
 Alpha virt. eigenvalues --    1.40106   1.40911   1.41414   1.41957   1.42583
 Alpha virt. eigenvalues --    1.43765   1.43909   1.44636   1.45177   1.45718
 Alpha virt. eigenvalues --    1.46358   1.47401   1.47796   1.48160   1.49399
 Alpha virt. eigenvalues --    1.49605   1.50397   1.50797   1.51565   1.51833
 Alpha virt. eigenvalues --    1.52350   1.52788   1.53179   1.54844   1.55125
 Alpha virt. eigenvalues --    1.55996   1.56826   1.57300   1.58244   1.59194
 Alpha virt. eigenvalues --    1.60605   1.60955   1.61167   1.62629   1.63311
 Alpha virt. eigenvalues --    1.63625   1.64004   1.64831   1.64997   1.65563
 Alpha virt. eigenvalues --    1.65633   1.66659   1.67075   1.67780   1.68602
 Alpha virt. eigenvalues --    1.69199   1.69608   1.70306   1.71116   1.71143
 Alpha virt. eigenvalues --    1.71496   1.72054   1.72505   1.73094   1.73813
 Alpha virt. eigenvalues --    1.74031   1.74690   1.74794   1.75315   1.75543
 Alpha virt. eigenvalues --    1.75722   1.75902   1.76364   1.77045   1.78036
 Alpha virt. eigenvalues --    1.78354   1.79278   1.79893   1.80006   1.81183
 Alpha virt. eigenvalues --    1.81559   1.81904   1.82614   1.83329   1.83897
 Alpha virt. eigenvalues --    1.83987   1.84694   1.85584   1.86322   1.87463
 Alpha virt. eigenvalues --    1.87754   1.88043   1.89386   1.89949   1.90960
 Alpha virt. eigenvalues --    1.91659   1.91943   1.92310   1.92691   1.93628
 Alpha virt. eigenvalues --    1.93866   1.94177   1.94345   1.95522   1.95821
 Alpha virt. eigenvalues --    1.96042   1.96903   1.97152   1.98121   1.99380
 Alpha virt. eigenvalues --    1.99616   2.00343   2.01132   2.01740   2.02242
 Alpha virt. eigenvalues --    2.03025   2.03509   2.04588   2.05960   2.06408
 Alpha virt. eigenvalues --    2.08405   2.09043   2.09567   2.10076   2.10669
 Alpha virt. eigenvalues --    2.10953   2.11389   2.11953   2.12966   2.13544
 Alpha virt. eigenvalues --    2.13694   2.13846   2.14650   2.15314   2.16644
 Alpha virt. eigenvalues --    2.17270   2.18117   2.18827   2.19734   2.20376
 Alpha virt. eigenvalues --    2.20564   2.21357   2.21826   2.22374   2.22888
 Alpha virt. eigenvalues --    2.23704   2.23966   2.24322   2.24967   2.25385
 Alpha virt. eigenvalues --    2.25640   2.26126   2.26533   2.27451   2.28021
 Alpha virt. eigenvalues --    2.28731   2.28955   2.29840   2.30667   2.31553
 Alpha virt. eigenvalues --    2.31956   2.32420   2.33607   2.35612   2.35878
 Alpha virt. eigenvalues --    2.36395   2.37728   2.39284   2.39534   2.39779
 Alpha virt. eigenvalues --    2.41177   2.41932   2.42540   2.43794   2.44150
 Alpha virt. eigenvalues --    2.46530   2.46856   2.49503   2.51030   2.51850
 Alpha virt. eigenvalues --    2.54594   2.55925   2.56161   2.58184   2.58459
 Alpha virt. eigenvalues --    2.59002   2.59440   2.59904   2.60470   2.61266
 Alpha virt. eigenvalues --    2.62027   2.63097   2.64064   2.65237   2.65798
 Alpha virt. eigenvalues --    2.66648   2.67321   2.67794   2.68624   2.69779
 Alpha virt. eigenvalues --    2.70473   2.70713   2.71320   2.72082   2.72686
 Alpha virt. eigenvalues --    2.73596   2.74091   2.75293   2.75610   2.75797
 Alpha virt. eigenvalues --    2.76910   2.78444   2.80421   2.80742   2.81108
 Alpha virt. eigenvalues --    2.82249   2.82799   2.84717   2.85522   2.85894
 Alpha virt. eigenvalues --    2.87581   2.87704   2.88194   2.88560   2.89784
 Alpha virt. eigenvalues --    2.90046   2.90450   2.91049   2.92516   2.93344
 Alpha virt. eigenvalues --    2.93617   2.94379   2.95414   2.95992   2.96030
 Alpha virt. eigenvalues --    2.96621   2.98790   2.99205   3.00050   3.00485
 Alpha virt. eigenvalues --    3.02118   3.02783   3.03408   3.05930   3.06545
 Alpha virt. eigenvalues --    3.06648   3.07211   3.07896   3.08823   3.10406
 Alpha virt. eigenvalues --    3.10892   3.11498   3.12410   3.13115   3.13359
 Alpha virt. eigenvalues --    3.13596   3.14052   3.14913   3.15223   3.15536
 Alpha virt. eigenvalues --    3.15632   3.17170   3.18044   3.18979   3.19575
 Alpha virt. eigenvalues --    3.19991   3.21606   3.23879   3.26605   3.27048
 Alpha virt. eigenvalues --    3.27799   3.29803   3.30237   3.30816   3.31842
 Alpha virt. eigenvalues --    3.33019   3.35536   3.36175   3.37379   3.37990
 Alpha virt. eigenvalues --    3.39246   3.40475   3.41150   3.41588   3.42265
 Alpha virt. eigenvalues --    3.43587   3.44632   3.45626   3.46694   3.47782
 Alpha virt. eigenvalues --    3.49319   3.51309   3.51818   3.52729   3.55574
 Alpha virt. eigenvalues --    3.55730   3.56448   3.56598   3.56900   3.58425
 Alpha virt. eigenvalues --    3.59580   3.60675   3.61387   3.62660   3.62874
 Alpha virt. eigenvalues --    3.64042   3.65481   3.66509   3.68860   3.70745
 Alpha virt. eigenvalues --    3.72792   3.73094   3.75498   3.80464   3.81927
 Alpha virt. eigenvalues --    3.82867   3.84235   3.87252   3.88479   3.89020
 Alpha virt. eigenvalues --    3.91570   3.91734   3.92372   3.92831   3.93437
 Alpha virt. eigenvalues --    3.93788   3.95311   3.97580   4.00078   4.03909
 Alpha virt. eigenvalues --    4.07010   4.08671   4.12400   4.14697   4.15327
 Alpha virt. eigenvalues --    4.16287   4.17193   4.17694   4.19266   4.21137
 Alpha virt. eigenvalues --    4.25576   4.25874   4.28569   4.31104   4.36149
 Alpha virt. eigenvalues --    4.38661   4.42096   4.49254   4.51382   4.60516
 Alpha virt. eigenvalues --    4.63746   4.65873   4.71519   4.87818   5.05857
 Alpha virt. eigenvalues --    5.08268   5.10519   5.13772   5.20722   5.27799
 Alpha virt. eigenvalues --    5.29649   5.30050   5.33690   5.35163   5.35972
 Alpha virt. eigenvalues --    5.37691   5.48268   5.50574   5.52494   5.54087
 Alpha virt. eigenvalues --    5.55701   5.60238   5.90686   5.95579   5.98603
 Alpha virt. eigenvalues --    6.03195   6.05030   6.07465   8.17676   8.23332
 Alpha virt. eigenvalues --   17.46207  17.53952  17.65872  17.69339  17.78113
 Alpha virt. eigenvalues --   17.81719  23.69438  23.78134  23.89751  23.99651
 Alpha virt. eigenvalues --   24.03190  24.05923  24.06845  24.06999  24.08886
 Alpha virt. eigenvalues --   24.10287  24.11744  24.13316  24.14325  24.14617
 Alpha virt. eigenvalues --   24.16143  24.16650  24.19278  24.20092  24.21983
 Alpha virt. eigenvalues --   24.22883  24.24346  24.25713  24.31656  24.32199
 Alpha virt. eigenvalues --   24.35375  24.42319  35.78505  35.81387  50.12081
 Alpha virt. eigenvalues --   50.14080  50.25572  50.27722  50.29034  50.30784
 Alpha virt. eigenvalues --  189.35020 189.41493
          Condensed to atoms (all electrons):
 Mulliken charges:
               1
     1  C    0.213765
     2  C   -0.112450
     3  C    0.118910
     4  C    0.241026
     5  C    0.096931
     6  C   -0.196994
     7  C    0.258373
     8  C    0.330946
     9  C    0.324064
    10  C   -0.607878
    11  C    0.082185
    12  C    0.205887
    13  C   -0.458604
    14  C   -0.602408
    15  H    0.103170
    16  H    0.106924
    17  H    0.144430
    18  N   -0.093342
    19  N   -0.135783
    20  O   -0.426341
    21  O   -0.407629
    22  O   -0.418277
    23  O   -0.354730
    24  C   -0.175218
    25  H    0.129131
    26  H    0.137631
    27  H    0.155597
    28  C   -0.180273
    29  H    0.136412
    30  H    0.133684
    31  H    0.156295
    32  C   -0.029613
    33  C   -0.472483
    34  S   -0.717181
    35  C   -0.498834
    36  H    0.129068
    37  C    0.479251
    38  O   -0.126433
    39  C    0.511952
    40  C   -0.257989
    41  C    0.168278
    42  S   -0.386558
    43  H    0.128612
    44  H    0.168498
    45  H    0.130130
    46  C   -0.153912
    47  O   -0.137362
    48  C   -0.177789
    49  H    0.093697
    50  C   -0.302522
    51  H    0.119614
    52  H    0.169469
    53  H    0.150952
    54  H    0.105722
 Sum of Mulliken charges =  -2.00000
 Mulliken charges with hydrogens summed into heavy atoms:
               1
     1  C    0.213765
     2  C   -0.112450
     3  C    0.118910
     4  C    0.241026
     5  C    0.096931
     6  C   -0.052564
     7  C    0.258373
     8  C    0.330946
     9  C    0.324064
    10  C   -0.607878
    11  C    0.082185
    12  C    0.205887
    13  C   -0.351681
    14  C   -0.499239
    18  N   -0.093342
    19  N   -0.135783
    20  O   -0.426341
    21  O   -0.407629
    22  O   -0.418277
    23  O   -0.354730
    24  C    0.247141
    28  C    0.246119
    32  C   -0.029613
    33  C   -0.343414
    34  S   -0.717181
    35  C   -0.498834
    37  C    0.479251
    38  O   -0.126433
    39  C    0.511952
    40  C    0.169250
    41  C    0.168278
    42  S   -0.386558
    46  C   -0.060215
    47  O   -0.137362
    48  C   -0.058175
    50  C    0.123621
 Electronic spatial extent (au):  <R**2>=          22510.6603
 Charge=             -2.0000 electrons
 Dipole moment (field-independent basis, Debye):
    X=             15.0695    Y=             -0.0926    Z=              2.5014  Tot=             15.2759
 Quadrupole moment (field-independent basis, Debye-Ang):
   XX=           -426.6780   YY=           -307.0751   ZZ=           -238.6306
   XY=              3.1010   XZ=              9.6581   YZ=              9.8617
 Traceless Quadrupole moment (field-independent basis, Debye-Ang):
   XX=           -102.5501   YY=             17.0528   ZZ=             85.4973
   XY=              3.1010   XZ=              9.6581   YZ=              9.8617
 Octapole moment (field-independent basis, Debye-Ang**2):
  XXX=            489.1357  YYY=            -26.4120  ZZZ=              7.2634  XYY=            288.4498
  XXY=             30.6030  XXZ=            -13.3202  XZZ=            -11.4775  YZZ=              6.2364
  YYZ=             27.8303  XYZ=            -25.1740
 Hexadecapole moment (field-independent basis, Debye-Ang**3):
 XXXX=         -29108.3565 YYYY=          -9426.2918 ZZZZ=           -811.6515 XXXY=           -334.6940
 XXXZ=            249.4101 YYYX=            375.4891 YYYZ=            161.0028 ZZZX=             37.5272
 ZZZY=              8.1292 XXYY=          -6505.7703 XXZZ=          -4160.8669 YYZZ=          -1527.3346
 XXYZ=            141.3201 YYXZ=             70.0578 ZZXY=             62.7274
 N-N= 4.091061321341D+03 E-N=-1.378015777135D+04  KE= 2.352092084491D+03
 Unable to Open any file for archive entry.
 1\1\GINC-CX3-2-4\FOpt\RB3LYP\6-311+G(d,p)\C26H18N2O6S2(2-)\NS5018\08-O
 ct-2021\0\\# opt=modredundant b3lyp/6-311+g(d,p)\\NDI_35.pdb\\-2,1\C,-
 2.5998522898,-2.8091867753,-1.0483598708\C,-2.2946534442,-1.4378503964
 ,-0.7283922479\C,-3.2756486074,-0.6006229452,-0.1249583143\C,-4.568640
 995,-1.0882613495,0.1614562933\C,-4.9221018568,-2.4546122459,-0.151051
 3835\C,-0.993582236,-0.9463790923,-0.95222691\C,-2.9253609265,0.768784
 925,0.1845308806\C,-1.6142465208,1.2660128166,-0.104541858\C,-0.604083
 8427,0.3439109541,-0.632833335\C,-1.3771180643,2.6763327195,0.04161696
 35\C,-3.6790094636,2.9803676375,1.0315454463\C,-3.9354177206,1.5922245
 893,0.7504952916\C,-5.232654839,1.0664715151,1.0351064805\C,-5.5453151
 748,-0.2317596686,0.7562404668\H,-6.5258702569,-0.6431183674,0.9620325
 595\H,-5.9554911512,1.7446607351,1.4727282399\H,-0.2645996684,-1.65907
 66004,-1.316880903\N,-2.4131440352,3.4424860823,0.6423659598\N,-3.9104
 103717,-3.2382084898,-0.7478048942\O,-1.8108726594,-3.6267824667,-1.55
 99846798\O,-6.0400685467,-2.9587501192,0.072569996\O,-4.4988113301,3.7
 615511593,1.5615889084\O,-0.3556925903,3.3027367751,-0.312454219\C,-2.
 1233520355,4.8613997329,0.8164002812\H,-1.2246340737,4.992082155,1.424
 9423495\H,-1.9289321469,5.3306198479,-0.151650084\H,-2.987229759,5.311
 9874818,1.2988489035\C,-4.2200715114,-4.6235067191,-1.0823587245\H,-4.
 0381457898,-4.8017914416,-2.1450294727\H,-3.5721884085,-5.3037993418,-
 0.5223212047\H,-5.2636681652,-4.7954999545,-0.8311104698\C,0.817507109
 ,0.6388118073,-0.7213327256\C,1.6227900566,1.3770582451,0.1301369301\S
 ,1.8062747068,-0.0839801039,-1.9921660222\C,2.9868975728,1.33120417,-0
 .198893195\H,1.2101303522,1.9426997034,0.9478564445\C,3.3123696458,0.5
 610299635,-1.314715825\O,3.9917582763,1.9607053653,0.4938662895\C,4.60
 00293963,0.304891942,-1.8783620053\C,3.5991421664,2.8825171818,1.49896
 11407\C,4.9598726229,-0.5542840153,-2.9168383445\S,6.06365332,1.140459
 7313,-1.3213351553\H,4.5168723126,3.3616648437,1.8440136834\H,2.911590
 2337,3.6348943796,1.0997051378\H,3.1177852699,2.3725704045,2.341718993
 7\C,6.3365308977,-0.533373568,-3.2616737115\O,4.0477712913,-1.33448913
 81,-3.601664781\C,7.0697504584,0.3278110831,-2.4956664429\H,6.74313209
 98,-1.1422765934,-4.0604053661\C,3.8668345665,-2.6459236959,-3.0633082
 126\H,8.1276995813,0.5368736591,-2.5357633948\H,3.5342023604,-2.602779
 5662,-2.0222611783\H,3.0917138986,-3.1252280519,-3.6624850179\H,4.7975
 60286,-3.2252808999,-3.1278976908\\Version=ES64L-G16RevC.01\State=1-A\
 HF=-2359.4013882\RMSD=9.543e-09\RMSF=1.990e-04\Dipole=5.9974722,0.0726
 914,-0.3812427\Quadrupole=-65.8923605,13.8397835,52.052577,-9.7776793,
 36.2236054,-9.4150074\PG=C01 [X(C26H18N2O6S2)]\\@
 The archive entry for this job was punched.


 ON A TOMBSTONE, "HERE LIES LESTER MOORE,
 FOUR SLUGS FROM A 44, NO LES, NO MORE".
 Job cpu time:       3 days 22 hours 18 minutes 38.6 seconds.
 Elapsed time:       0 days 11 hours 52 minutes 31.6 seconds.
 File lengths (MBytes):  RWF=    531 Int=      0 D2E=      0 Chk=     83 Scr=      1
 Normal termination of Gaussian 16 at Fri Oct  8 08:28:08 2021.
