 Entering Gaussian System, Link 0=g16
 Input=NDI_170.gjf
 Output=NDI_170.log
 Initial command:
 /apps/gaussian/g16-c01-avx/g16/l1.exe "/tmp/pbs.4643763[345].pbs/Gau-995314.inp" -scrdir="/tmp/pbs.4643763[345].pbs/"
 Entering Link 1 = /apps/gaussian/g16-c01-avx/g16/l1.exe PID=    995315.
  
 Copyright (c) 1988-2019, Gaussian, Inc.  All Rights Reserved.
  
 This is part of the Gaussian(R) 16 program.  It is based on
 the Gaussian(R) 09 system (copyright 2009, Gaussian, Inc.),
 the Gaussian(R) 03 system (copyright 2003, Gaussian, Inc.),
 the Gaussian(R) 98 system (copyright 1998, Gaussian, Inc.),
 the Gaussian(R) 94 system (copyright 1995, Gaussian, Inc.),
 the Gaussian 92(TM) system (copyright 1992, Gaussian, Inc.),
 the Gaussian 90(TM) system (copyright 1990, Gaussian, Inc.),
 the Gaussian 88(TM) system (copyright 1988, Gaussian, Inc.),
 the Gaussian 86(TM) system (copyright 1986, Carnegie Mellon
 University), and the Gaussian 82(TM) system (copyright 1983,
 Carnegie Mellon University). Gaussian is a federally registered
 trademark of Gaussian, Inc.
  
 This software contains proprietary and confidential information,
 including trade secrets, belonging to Gaussian, Inc.
  
 This software is provided under written license and may be
 used, copied, transmitted, or stored only in accord with that
 written license.
  
 The following legend is applicable only to US Government
 contracts under FAR:
  
                    RESTRICTED RIGHTS LEGEND
  
 Use, reproduction and disclosure by the US Government is
 subject to restrictions as set forth in subparagraphs (a)
 and (c) of the Commercial Computer Software - Restricted
 Rights clause in FAR 52.227-19.
  
 Gaussian, Inc.
 340 Quinnipiac St., Bldg. 40, Wallingford CT 06492
  
  
 ---------------------------------------------------------------
 Warning -- This program may not be used in any manner that
 competes with the business of Gaussian, Inc. or will provide
 assistance to any competitor of Gaussian, Inc.  The licensee
 of this program is prohibited from giving any competitor of
 Gaussian, Inc. access to this program.  By using this program,
 the user acknowledges that Gaussian, Inc. is engaged in the
 business of creating and licensing software in the field of
 computational chemistry and represents and warrants to the
 licensee that it is not a competitor of Gaussian, Inc. and that
 it will not use this program in any manner prohibited above.
 ---------------------------------------------------------------
  

 Cite this work as:
 Gaussian 16, Revision C.01,
 M. J. Frisch, G. W. Trucks, H. B. Schlegel, G. E. Scuseria, 
 M. A. Robb, J. R. Cheeseman, G. Scalmani, V. Barone, 
 G. A. Petersson, H. Nakatsuji, X. Li, M. Caricato, A. V. Marenich, 
 J. Bloino, B. G. Janesko, R. Gomperts, B. Mennucci, H. P. Hratchian, 
 J. V. Ortiz, A. F. Izmaylov, J. L. Sonnenberg, D. Williams-Young, 
 F. Ding, F. Lipparini, F. Egidi, J. Goings, B. Peng, A. Petrone, 
 T. Henderson, D. Ranasinghe, V. G. Zakrzewski, J. Gao, N. Rega, 
 G. Zheng, W. Liang, M. Hada, M. Ehara, K. Toyota, R. Fukuda, 
 J. Hasegawa, M. Ishida, T. Nakajima, Y. Honda, O. Kitao, H. Nakai, 
 T. Vreven, K. Throssell, J. A. Montgomery, Jr., J. E. Peralta, 
 F. Ogliaro, M. J. Bearpark, J. J. Heyd, E. N. Brothers, K. N. Kudin, 
 V. N. Staroverov, T. A. Keith, R. Kobayashi, J. Normand, 
 K. Raghavachari, A. P. Rendell, J. C. Burant, S. S. Iyengar, 
 J. Tomasi, M. Cossi, J. M. Millam, M. Klene, C. Adamo, R. Cammi, 
 J. W. Ochterski, R. L. Martin, K. Morokuma, O. Farkas, 
 J. B. Foresman, and D. J. Fox, Gaussian, Inc., Wallingford CT, 2019.
 
 ******************************************
 Gaussian 16:  ES64L-G16RevC.01  3-Jul-2019
                 8-Oct-2021 
 ******************************************
 %mem=10GB
 %nprocshared=8
 Will use up to    8 processors via shared memory.
 -------------------------------------
 # opt=modredundant b3lyp/6-311+g(d,p)
 -------------------------------------
 1/18=120,19=15,26=3,38=1/1,3;
 2/9=110,12=2,17=6,18=5,40=1/2;
 3/5=4,6=6,7=111,11=2,25=1,30=1,71=1,74=-5/1,2,3;
 4//1;
 5/5=2,38=5/2;
 6/7=2,8=2,9=2,10=2,28=1/1;
 7//1,2,3,16;
 1/18=20,19=15,26=3/3(2);
 2/9=110/2;
 99//99;
 2/9=110/2;
 3/5=4,6=6,7=111,11=2,25=1,30=1,71=1,74=-5/1,2,3;
 4/5=5,16=3,69=1/1;
 5/5=2,38=5/2;
 7//1,2,3,16;
 1/18=20,19=15,26=3/3(-5);
 2/9=110/2;
 6/7=2,8=2,9=2,10=2,19=2,28=1/1;
 99/9=1/99;
 -----------
 NDI_170.pdb
 -----------
 Symbolic Z-matrix:
 Charge = -2 Multiplicity = 1
 C                    -2.563    -2.994    -0.409 
 C                    -2.257    -1.551    -0.224 
 C                    -3.301    -0.607    -0.083 
 C                    -4.65     -1.024    -0.115 
 C                    -4.992    -2.459    -0.304 
 C                    -0.949    -1.137    -0.215 
 C                    -2.962     0.764     0.102 
 C                    -1.595     1.188     0.123 
 C                    -0.561     0.232    -0.072 
 C                    -1.328     2.616     0.446 
 C                    -3.777     3.115     0.508 
 C                    -4.035     1.679     0.268 
 C                    -5.356     1.252     0.23 
 C                    -5.672    -0.098     0.036 
 H                    -6.699    -0.442     0.008 
 H                    -6.133     1.997     0.361 
 H                    -0.19     -1.895    -0.369 
 N                    -2.432     3.476     0.608 
 N                    -3.916    -3.353    -0.438 
 O                    -1.695    -3.847    -0.532 
 O                    -6.149    -2.85     -0.34 
 O                    -4.676     3.938     0.629 
 O                    -0.212     3.097     0.596 
 C                    -2.111     4.875     0.912 
 H                    -1.54      4.931     1.84 
 H                    -1.5       5.299     0.111 
 H                    -3.05      5.414     1.003 
 C                    -4.206    -4.779    -0.625 
 H                    -3.759    -5.126    -1.559 
 H                    -3.775    -5.355     0.196 
 H                    -5.286    -4.897    -0.649 
 C                     0.876     0.482    -0.178 
 C                     1.947    -0.39     -0.185 
 S                     1.453     2.149    -0.153 
 C                     3.199     0.256    -0.176 
 H                     1.828    -1.461    -0.204 
 C                     3.129     1.653    -0.169 
 O                     4.419    -0.345    -0.174 
 C                     4.219     2.586    -0.202 
 C                     4.455    -1.761    -0.326 
 C                     4.148     3.978    -0.171 
 S                     5.907     2.09     -0.29 
 H                     5.51     -2.03     -0.381 
 H                     3.997    -2.264     0.534 
 H                     3.946    -2.074    -1.245 
 C                     5.415     4.627    -0.218 
 O                     2.932     4.579    -0.106 
 C                     6.447     3.73     -0.284 
 H                     5.554     5.699    -0.203 
 C                     2.893     6.       -0.041 
 H                     7.505     3.948    -0.327 
 H                     3.333     6.452    -0.939 
 H                     1.839     6.27      0.02 
 H                     3.416     6.372     0.848 
 
 The following ModRedundant input section has been read:
 D       8       9      32      33 F                                           
 

 GradGradGradGradGradGradGradGradGradGradGradGradGradGradGradGradGradGrad
 Berny optimization.
 Initialization pass.
                           ----------------------------
                           !    Initial Parameters    !
                           ! (Angstroms and Degrees)  !
 --------------------------                            --------------------------
 ! Name  Definition              Value          Derivative Info.                !
 --------------------------------------------------------------------------------
 ! R1    R(1,2)                  1.4866         estimate D2E/DX2                !
 ! R2    R(1,19)                 1.4001         estimate D2E/DX2                !
 ! R3    R(1,20)                 1.2232         estimate D2E/DX2                !
 ! R4    R(2,3)                  1.4146         estimate D2E/DX2                !
 ! R5    R(2,6)                  1.372          estimate D2E/DX2                !
 ! R6    R(3,4)                  1.4123         estimate D2E/DX2                !
 ! R7    R(3,7)                  1.4244         estimate D2E/DX2                !
 ! R8    R(4,5)                  1.4872         estimate D2E/DX2                !
 ! R9    R(4,14)                 1.3874         estimate D2E/DX2                !
 ! R10   R(5,19)                 1.4053         estimate D2E/DX2                !
 ! R11   R(5,21)                 1.2218         estimate D2E/DX2                !
 ! R12   R(6,9)                  1.4301         estimate D2E/DX2                !
 ! R13   R(6,17)                 1.0837         estimate D2E/DX2                !
 ! R14   R(7,8)                  1.4314         estimate D2E/DX2                !
 ! R15   R(7,12)                 1.4199         estimate D2E/DX2                !
 ! R16   R(8,9)                  1.4217         estimate D2E/DX2                !
 ! R17   R(8,10)                 1.4882         estimate D2E/DX2                !
 ! R18   R(9,32)                 1.4624         estimate D2E/DX2                !
 ! R19   R(10,18)                1.4088         estimate D2E/DX2                !
 ! R20   R(10,23)                1.2245         estimate D2E/DX2                !
 ! R21   R(11,12)                1.4786         estimate D2E/DX2                !
 ! R22   R(11,18)                1.3962         estimate D2E/DX2                !
 ! R23   R(11,22)                1.2248         estimate D2E/DX2                !
 ! R24   R(12,13)                1.3888         estimate D2E/DX2                !
 ! R25   R(13,14)                1.4            estimate D2E/DX2                !
 ! R26   R(13,16)                1.0844         estimate D2E/DX2                !
 ! R27   R(14,15)                1.0834         estimate D2E/DX2                !
 ! R28   R(18,24)                1.4672         estimate D2E/DX2                !
 ! R29   R(19,28)                1.4672         estimate D2E/DX2                !
 ! R30   R(24,25)                1.091          estimate D2E/DX2                !
 ! R31   R(24,26)                1.093          estimate D2E/DX2                !
 ! R32   R(24,27)                1.0865         estimate D2E/DX2                !
 ! R33   R(28,29)                1.0921         estimate D2E/DX2                !
 ! R34   R(28,30)                1.0916         estimate D2E/DX2                !
 ! R35   R(28,31)                1.0867         estimate D2E/DX2                !
 ! R36   R(32,33)                1.3811         estimate D2E/DX2                !
 ! R37   R(32,34)                1.7642         estimate D2E/DX2                !
 ! R38   R(33,35)                1.4089         estimate D2E/DX2                !
 ! R39   R(33,36)                1.0778         estimate D2E/DX2                !
 ! R40   R(34,37)                1.7479         estimate D2E/DX2                !
 ! R41   R(35,37)                1.3988         estimate D2E/DX2                !
 ! R42   R(35,38)                1.36           estimate D2E/DX2                !
 ! R43   R(37,39)                1.4352         estimate D2E/DX2                !
 ! R44   R(38,40)                1.4246         estimate D2E/DX2                !
 ! R45   R(39,41)                1.3942         estimate D2E/DX2                !
 ! R46   R(39,42)                1.7616         estimate D2E/DX2                !
 ! R47   R(40,43)                1.0901         estimate D2E/DX2                !
 ! R48   R(40,44)                1.0965         estimate D2E/DX2                !
 ! R49   R(40,45)                1.0962         estimate D2E/DX2                !
 ! R50   R(41,46)                1.4243         estimate D2E/DX2                !
 ! R51   R(41,47)                1.358          estimate D2E/DX2                !
 ! R52   R(42,48)                1.7266         estimate D2E/DX2                !
 ! R53   R(46,48)                1.3689         estimate D2E/DX2                !
 ! R54   R(46,49)                1.0811         estimate D2E/DX2                !
 ! R55   R(47,50)                1.423          estimate D2E/DX2                !
 ! R56   R(48,51)                1.0811         estimate D2E/DX2                !
 ! R57   R(50,52)                1.0974         estimate D2E/DX2                !
 ! R58   R(50,53)                1.0897         estimate D2E/DX2                !
 ! R59   R(50,54)                1.0965         estimate D2E/DX2                !
 ! A1    A(2,1,19)             116.767          estimate D2E/DX2                !
 ! A2    A(2,1,20)             122.9113         estimate D2E/DX2                !
 ! A3    A(19,1,20)            120.3217         estimate D2E/DX2                !
 ! A4    A(1,2,3)              120.5473         estimate D2E/DX2                !
 ! A5    A(1,2,6)              119.3369         estimate D2E/DX2                !
 ! A6    A(3,2,6)              120.1056         estimate D2E/DX2                !
 ! A7    A(2,3,4)              120.3743         estimate D2E/DX2                !
 ! A8    A(2,3,7)              118.662          estimate D2E/DX2                !
 ! A9    A(4,3,7)              120.9617         estimate D2E/DX2                !
 ! A10   A(3,4,5)              120.4909         estimate D2E/DX2                !
 ! A11   A(3,4,14)             120.2702         estimate D2E/DX2                !
 ! A12   A(5,4,14)             119.2382         estimate D2E/DX2                !
 ! A13   A(4,5,19)             116.7341         estimate D2E/DX2                !
 ! A14   A(4,5,21)             122.024          estimate D2E/DX2                !
 ! A15   A(19,5,21)            121.2418         estimate D2E/DX2                !
 ! A16   A(2,6,9)              123.2421         estimate D2E/DX2                !
 ! A17   A(2,6,17)             117.1119         estimate D2E/DX2                !
 ! A18   A(9,6,17)             119.589          estimate D2E/DX2                !
 ! A19   A(3,7,8)              120.9519         estimate D2E/DX2                !
 ! A20   A(3,7,12)             117.1037         estimate D2E/DX2                !
 ! A21   A(8,7,12)             121.944          estimate D2E/DX2                !
 ! A22   A(7,8,9)              119.5639         estimate D2E/DX2                !
 ! A23   A(7,8,10)             117.3064         estimate D2E/DX2                !
 ! A24   A(9,8,10)             122.9922         estimate D2E/DX2                !
 ! A25   A(6,9,8)              117.3944         estimate D2E/DX2                !
 ! A26   A(6,9,32)             115.0236         estimate D2E/DX2                !
 ! A27   A(8,9,32)             127.5648         estimate D2E/DX2                !
 ! A28   A(8,10,18)            118.042          estimate D2E/DX2                !
 ! A29   A(8,10,23)            124.5436         estimate D2E/DX2                !
 ! A30   A(18,10,23)           117.4097         estimate D2E/DX2                !
 ! A31   A(12,11,18)           115.5202         estimate D2E/DX2                !
 ! A32   A(12,11,22)           122.7205         estimate D2E/DX2                !
 ! A33   A(18,11,22)           121.7534         estimate D2E/DX2                !
 ! A34   A(7,12,11)            120.8614         estimate D2E/DX2                !
 ! A35   A(7,12,13)            121.162          estimate D2E/DX2                !
 ! A36   A(11,12,13)           117.9699         estimate D2E/DX2                !
 ! A37   A(12,13,14)           120.9948         estimate D2E/DX2                !
 ! A38   A(12,13,16)           117.8401         estimate D2E/DX2                !
 ! A39   A(14,13,16)           121.1642         estimate D2E/DX2                !
 ! A40   A(4,14,13)            119.5003         estimate D2E/DX2                !
 ! A41   A(4,14,15)            118.9169         estimate D2E/DX2                !
 ! A42   A(13,14,15)           121.5811         estimate D2E/DX2                !
 ! A43   A(10,18,11)           126.0753         estimate D2E/DX2                !
 ! A44   A(10,18,24)           115.7508         estimate D2E/DX2                !
 ! A45   A(11,18,24)           118.1737         estimate D2E/DX2                !
 ! A46   A(1,19,5)             125.0856         estimate D2E/DX2                !
 ! A47   A(1,19,28)            116.2868         estimate D2E/DX2                !
 ! A48   A(5,19,28)            118.6276         estimate D2E/DX2                !
 ! A49   A(18,24,25)           109.8574         estimate D2E/DX2                !
 ! A50   A(18,24,26)           109.8979         estimate D2E/DX2                !
 ! A51   A(18,24,27)           107.5355         estimate D2E/DX2                !
 ! A52   A(25,24,26)           108.1108         estimate D2E/DX2                !
 ! A53   A(25,24,27)           110.8301         estimate D2E/DX2                !
 ! A54   A(26,24,27)           110.6124         estimate D2E/DX2                !
 ! A55   A(19,28,29)           109.6906         estimate D2E/DX2                !
 ! A56   A(19,28,30)           109.8136         estimate D2E/DX2                !
 ! A57   A(19,28,31)           107.7461         estimate D2E/DX2                !
 ! A58   A(29,28,30)           108.2991         estimate D2E/DX2                !
 ! A59   A(29,28,31)           110.6959         estimate D2E/DX2                !
 ! A60   A(30,28,31)           110.5924         estimate D2E/DX2                !
 ! A61   A(9,32,33)            130.875          estimate D2E/DX2                !
 ! A62   A(9,32,34)            118.8078         estimate D2E/DX2                !
 ! A63   A(33,32,34)           110.0619         estimate D2E/DX2                !
 ! A64   A(32,33,35)           113.5524         estimate D2E/DX2                !
 ! A65   A(32,33,36)           122.8119         estimate D2E/DX2                !
 ! A66   A(35,33,36)           123.6338         estimate D2E/DX2                !
 ! A67   A(32,34,37)            92.5988         estimate D2E/DX2                !
 ! A68   A(33,35,37)           114.4252         estimate D2E/DX2                !
 ! A69   A(33,35,38)           126.4813         estimate D2E/DX2                !
 ! A70   A(37,35,38)           119.0935         estimate D2E/DX2                !
 ! A71   A(34,37,35)           109.356          estimate D2E/DX2                !
 ! A72   A(34,37,39)           122.9549         estimate D2E/DX2                !
 ! A73   A(35,37,39)           127.6732         estimate D2E/DX2                !
 ! A74   A(35,38,40)           117.5007         estimate D2E/DX2                !
 ! A75   A(37,39,41)           127.5828         estimate D2E/DX2                !
 ! A76   A(37,39,42)           123.085          estimate D2E/DX2                !
 ! A77   A(41,39,42)           109.3322         estimate D2E/DX2                !
 ! A78   A(38,40,43)           105.9684         estimate D2E/DX2                !
 ! A79   A(38,40,44)           111.2057         estimate D2E/DX2                !
 ! A80   A(38,40,45)           111.1944         estimate D2E/DX2                !
 ! A81   A(43,40,44)           109.3048         estimate D2E/DX2                !
 ! A82   A(43,40,45)           109.6708         estimate D2E/DX2                !
 ! A83   A(44,40,45)           109.4265         estimate D2E/DX2                !
 ! A84   A(39,41,46)           114.1367         estimate D2E/DX2                !
 ! A85   A(39,41,47)           119.2457         estimate D2E/DX2                !
 ! A86   A(46,41,47)           126.6172         estimate D2E/DX2                !
 ! A87   A(39,42,48)            91.838          estimate D2E/DX2                !
 ! A88   A(41,46,48)           111.9392         estimate D2E/DX2                !
 ! A89   A(41,46,49)           124.454          estimate D2E/DX2                !
 ! A90   A(48,46,49)           123.6068         estimate D2E/DX2                !
 ! A91   A(41,47,50)           117.9481         estimate D2E/DX2                !
 ! A92   A(42,48,46)           112.7539         estimate D2E/DX2                !
 ! A93   A(42,48,51)           119.8325         estimate D2E/DX2                !
 ! A94   A(46,48,51)           127.4133         estimate D2E/DX2                !
 ! A95   A(47,50,52)           111.2801         estimate D2E/DX2                !
 ! A96   A(47,50,53)           106.0501         estimate D2E/DX2                !
 ! A97   A(47,50,54)           111.2694         estimate D2E/DX2                !
 ! A98   A(52,50,53)           109.3629         estimate D2E/DX2                !
 ! A99   A(52,50,54)           109.4191         estimate D2E/DX2                !
 ! A100  A(53,50,54)           109.384          estimate D2E/DX2                !
 ! D1    D(19,1,2,3)             0.1578         estimate D2E/DX2                !
 ! D2    D(19,1,2,6)          -178.6792         estimate D2E/DX2                !
 ! D3    D(20,1,2,3)          -179.8231         estimate D2E/DX2                !
 ! D4    D(20,1,2,6)             1.3399         estimate D2E/DX2                !
 ! D5    D(2,1,19,5)            -0.124          estimate D2E/DX2                !
 ! D6    D(2,1,19,28)          179.8267         estimate D2E/DX2                !
 ! D7    D(20,1,19,5)          179.8575         estimate D2E/DX2                !
 ! D8    D(20,1,19,28)          -0.1919         estimate D2E/DX2                !
 ! D9    D(1,2,3,4)              0.0571         estimate D2E/DX2                !
 ! D10   D(1,2,3,7)            179.5453         estimate D2E/DX2                !
 ! D11   D(6,2,3,4)            178.8851         estimate D2E/DX2                !
 ! D12   D(6,2,3,7)             -1.6266         estimate D2E/DX2                !
 ! D13   D(1,2,6,9)            178.625          estimate D2E/DX2                !
 ! D14   D(1,2,6,17)             1.3881         estimate D2E/DX2                !
 ! D15   D(3,2,6,9)             -0.2173         estimate D2E/DX2                !
 ! D16   D(3,2,6,17)          -177.4541         estimate D2E/DX2                !
 ! D17   D(2,3,4,5)             -0.3074         estimate D2E/DX2                !
 ! D18   D(2,3,4,14)           179.3968         estimate D2E/DX2                !
 ! D19   D(7,3,4,5)           -179.7837         estimate D2E/DX2                !
 ! D20   D(7,3,4,14)            -0.0795         estimate D2E/DX2                !
 ! D21   D(2,3,7,8)              1.0523         estimate D2E/DX2                !
 ! D22   D(2,3,7,12)          -178.712          estimate D2E/DX2                !
 ! D23   D(4,3,7,8)           -179.4626         estimate D2E/DX2                !
 ! D24   D(4,3,7,12)             0.7731         estimate D2E/DX2                !
 ! D25   D(3,4,5,19)             0.3343         estimate D2E/DX2                !
 ! D26   D(3,4,5,21)          -179.7799         estimate D2E/DX2                !
 ! D27   D(14,4,5,19)         -179.3729         estimate D2E/DX2                !
 ! D28   D(14,4,5,21)            0.5129         estimate D2E/DX2                !
 ! D29   D(3,4,14,13)           -0.4559         estimate D2E/DX2                !
 ! D30   D(3,4,14,15)         -179.9937         estimate D2E/DX2                !
 ! D31   D(5,4,14,13)          179.252          estimate D2E/DX2                !
 ! D32   D(5,4,14,15)           -0.2858         estimate D2E/DX2                !
 ! D33   D(4,5,19,1)            -0.1141         estimate D2E/DX2                !
 ! D34   D(4,5,19,28)          179.9364         estimate D2E/DX2                !
 ! D35   D(21,5,19,1)          179.9992         estimate D2E/DX2                !
 ! D36   D(21,5,19,28)           0.0496         estimate D2E/DX2                !
 ! D37   D(2,6,9,8)              2.5984         estimate D2E/DX2                !
 ! D38   D(2,6,9,32)          -176.0103         estimate D2E/DX2                !
 ! D39   D(17,6,9,8)           179.77           estimate D2E/DX2                !
 ! D40   D(17,6,9,32)            1.1613         estimate D2E/DX2                !
 ! D41   D(3,7,8,9)              1.3551         estimate D2E/DX2                !
 ! D42   D(3,7,8,10)          -174.5099         estimate D2E/DX2                !
 ! D43   D(12,7,8,9)          -178.8921         estimate D2E/DX2                !
 ! D44   D(12,7,8,10)            5.2428         estimate D2E/DX2                !
 ! D45   D(3,7,12,11)          178.0768         estimate D2E/DX2                !
 ! D46   D(3,7,12,13)           -0.9621         estimate D2E/DX2                !
 ! D47   D(8,7,12,11)           -1.685          estimate D2E/DX2                !
 ! D48   D(8,7,12,13)          179.2761         estimate D2E/DX2                !
 ! D49   D(7,8,9,6)             -3.0809         estimate D2E/DX2                !
 ! D50   D(7,8,9,32)           175.3285         estimate D2E/DX2                !
 ! D51   D(10,8,9,6)           172.5381         estimate D2E/DX2                !
 ! D52   D(10,8,9,32)           -9.0525         estimate D2E/DX2                !
 ! D53   D(7,8,10,18)           -4.7549         estimate D2E/DX2                !
 ! D54   D(7,8,10,23)          174.4235         estimate D2E/DX2                !
 ! D55   D(9,8,10,18)          179.5335         estimate D2E/DX2                !
 ! D56   D(9,8,10,23)           -1.2882         estimate D2E/DX2                !
 ! D57   D(6,9,32,33)          -11.5326         estimate D2E/DX2                !
 ! D58   D(6,9,32,34)          174.9083         estimate D2E/DX2                !
 ! D59   D(8,9,32,33)          170.0259         Frozen                          !
 ! D60   D(8,9,32,34)           -3.5332         estimate D2E/DX2                !
 ! D61   D(8,10,18,11)           0.7189         estimate D2E/DX2                !
 ! D62   D(8,10,18,24)        -179.4089         estimate D2E/DX2                !
 ! D63   D(23,10,18,11)       -178.5188         estimate D2E/DX2                !
 ! D64   D(23,10,18,24)          1.3535         estimate D2E/DX2                !
 ! D65   D(18,11,12,7)          -2.3856         estimate D2E/DX2                !
 ! D66   D(18,11,12,13)        176.6833         estimate D2E/DX2                !
 ! D67   D(22,11,12,7)         178.4862         estimate D2E/DX2                !
 ! D68   D(22,11,12,13)         -2.445          estimate D2E/DX2                !
 ! D69   D(12,11,18,10)          2.8444         estimate D2E/DX2                !
 ! D70   D(12,11,18,24)       -177.0251         estimate D2E/DX2                !
 ! D71   D(22,11,18,10)       -178.0181         estimate D2E/DX2                !
 ! D72   D(22,11,18,24)          2.1124         estimate D2E/DX2                !
 ! D73   D(7,12,13,14)           0.461          estimate D2E/DX2                !
 ! D74   D(7,12,13,16)        -179.8781         estimate D2E/DX2                !
 ! D75   D(11,12,13,14)       -178.6049         estimate D2E/DX2                !
 ! D76   D(11,12,13,16)          1.056          estimate D2E/DX2                !
 ! D77   D(12,13,14,4)           0.2708         estimate D2E/DX2                !
 ! D78   D(12,13,14,15)        179.7958         estimate D2E/DX2                !
 ! D79   D(16,13,14,4)        -179.3788         estimate D2E/DX2                !
 ! D80   D(16,13,14,15)          0.1463         estimate D2E/DX2                !
 ! D81   D(10,18,24,25)        -59.609          estimate D2E/DX2                !
 ! D82   D(10,18,24,26)         59.2209         estimate D2E/DX2                !
 ! D83   D(10,18,24,27)        179.6858         estimate D2E/DX2                !
 ! D84   D(11,18,24,25)        120.2739         estimate D2E/DX2                !
 ! D85   D(11,18,24,26)       -120.8962         estimate D2E/DX2                !
 ! D86   D(11,18,24,27)         -0.4313         estimate D2E/DX2                !
 ! D87   D(1,19,28,29)         -58.1407         estimate D2E/DX2                !
 ! D88   D(1,19,28,30)          60.7668         estimate D2E/DX2                !
 ! D89   D(1,19,28,31)        -178.7139         estimate D2E/DX2                !
 ! D90   D(5,19,28,29)         121.8132         estimate D2E/DX2                !
 ! D91   D(5,19,28,30)        -119.2792         estimate D2E/DX2                !
 ! D92   D(5,19,28,31)           1.2401         estimate D2E/DX2                !
 ! D93   D(9,32,33,35)        -174.2258         estimate D2E/DX2                !
 ! D94   D(9,32,33,36)           6.263          estimate D2E/DX2                !
 ! D95   D(34,32,33,35)         -0.2325         estimate D2E/DX2                !
 ! D96   D(34,32,33,36)       -179.7437         estimate D2E/DX2                !
 ! D97   D(9,32,34,37)         175.3683         estimate D2E/DX2                !
 ! D98   D(33,32,34,37)          0.5493         estimate D2E/DX2                !
 ! D99   D(32,33,35,37)         -0.3277         estimate D2E/DX2                !
 ! D100  D(32,33,35,38)        179.6895         estimate D2E/DX2                !
 ! D101  D(36,33,35,37)        179.1789         estimate D2E/DX2                !
 ! D102  D(36,33,35,38)         -0.8039         estimate D2E/DX2                !
 ! D103  D(32,34,37,35)         -0.717          estimate D2E/DX2                !
 ! D104  D(32,34,37,39)        177.9332         estimate D2E/DX2                !
 ! D105  D(33,35,37,34)          0.7269         estimate D2E/DX2                !
 ! D106  D(33,35,37,39)       -177.842          estimate D2E/DX2                !
 ! D107  D(38,35,37,34)       -179.2888         estimate D2E/DX2                !
 ! D108  D(38,35,37,39)          2.1422         estimate D2E/DX2                !
 ! D109  D(33,35,38,40)          6.5601         estimate D2E/DX2                !
 ! D110  D(37,35,38,40)       -173.422          estimate D2E/DX2                !
 ! D111  D(34,37,39,41)          2.8523         estimate D2E/DX2                !
 ! D112  D(34,37,39,42)       -177.2116         estimate D2E/DX2                !
 ! D113  D(35,37,39,41)       -178.7568         estimate D2E/DX2                !
 ! D114  D(35,37,39,42)          1.1793         estimate D2E/DX2                !
 ! D115  D(35,38,40,43)        175.4372         estimate D2E/DX2                !
 ! D116  D(35,38,40,44)        -65.8865         estimate D2E/DX2                !
 ! D117  D(35,38,40,45)         56.3274         estimate D2E/DX2                !
 ! D118  D(37,39,41,46)        179.9997         estimate D2E/DX2                !
 ! D119  D(37,39,41,47)         -0.2135         estimate D2E/DX2                !
 ! D120  D(42,39,41,46)          0.0564         estimate D2E/DX2                !
 ! D121  D(42,39,41,47)        179.8433         estimate D2E/DX2                !
 ! D122  D(37,39,42,48)        179.9987         estimate D2E/DX2                !
 ! D123  D(41,39,42,48)         -0.055          estimate D2E/DX2                !
 ! D124  D(39,41,46,48)         -0.0268         estimate D2E/DX2                !
 ! D125  D(39,41,46,49)       -179.9819         estimate D2E/DX2                !
 ! D126  D(47,41,46,48)       -179.7951         estimate D2E/DX2                !
 ! D127  D(47,41,46,49)          0.2497         estimate D2E/DX2                !
 ! D128  D(39,41,47,50)        178.4149         estimate D2E/DX2                !
 ! D129  D(46,41,47,50)         -1.8274         estimate D2E/DX2                !
 ! D130  D(39,42,48,46)          0.0419         estimate D2E/DX2                !
 ! D131  D(39,42,48,51)        179.871          estimate D2E/DX2                !
 ! D132  D(41,46,48,42)         -0.0171         estimate D2E/DX2                !
 ! D133  D(41,46,48,51)       -179.8304         estimate D2E/DX2                !
 ! D134  D(49,46,48,42)        179.9385         estimate D2E/DX2                !
 ! D135  D(49,46,48,51)          0.1252         estimate D2E/DX2                !
 ! D136  D(41,47,50,52)         62.0346         estimate D2E/DX2                !
 ! D137  D(41,47,50,53)       -179.1302         estimate D2E/DX2                !
 ! D138  D(41,47,50,54)        -60.2753         estimate D2E/DX2                !
 --------------------------------------------------------------------------------
 Trust Radius=3.00D-01 FncErr=1.00D-07 GrdErr=1.00D-06 EigMax=2.50D+02 EigMin=1.00D-04
 Number of steps in this run=    307 maximum allowed number of steps=    324.
 GradGradGradGradGradGradGradGradGradGradGradGradGradGradGradGradGradGrad

 Stoichiometry    C26H18N2O6S2(2-)
 Framework group  C1[X(C26H18N2O6S2)]
 Deg. of freedom   156
 Full point group                 C1      NOp   1
 Largest Abelian subgroup         C1      NOp   1
 Largest concise Abelian subgroup C1      NOp   1
                         Standard orientation:                         
 ---------------------------------------------------------------------
 Center     Atomic      Atomic             Coordinates (Angstroms)
 Number     Number       Type             X           Y           Z
 ---------------------------------------------------------------------
      1          6           0       -3.886211   -2.536764   -0.043291
      2          6           0       -2.978326   -1.360135   -0.005904
      3          6           0       -3.502273   -0.046539   -0.035841
      4          6           0       -4.897243    0.164613   -0.100542
      5          6           0       -5.833945   -0.989738   -0.144954
      6          6           0       -1.621425   -1.559079    0.033884
      7          6           0       -2.596355    1.051568    0.011714
      8          6           0       -1.182099    0.837410    0.065783
      9          6           0       -0.672211   -0.489469    0.042937
     10          6           0       -0.316337    2.035372    0.239407
     11          6           0       -2.297691    3.553491    0.098008
     12          6           0       -3.159180    2.355150    0.008143
     13          6           0       -4.533364    2.544437   -0.059700
     14          6           0       -5.409365    1.453883   -0.117199
     15          1           0       -6.483001    1.590518   -0.167043
     16          1           0       -4.904778    3.563243   -0.060967
     17          1           0       -1.271808   -2.584595    0.012749
     18          7           0       -0.931150    3.302910    0.236284
     19          7           0       -5.259318   -2.271798   -0.111861
     20          8           0       -3.480493   -3.690380   -0.016364
     21          8           0       -7.044986   -0.839460   -0.205132
     22          8           0       -2.744427    4.693601    0.070665
     23          8           0        0.896978    1.997787    0.399945
     24          6           0       -0.029538    4.449093    0.397589
     25          1           0        0.504707    4.369832    1.345566
     26          1           0        0.708472    4.458209   -0.408610
     27          1           0       -0.636809    5.349653    0.370450
     28          6           0       -6.145356   -3.440495   -0.152213
     29          1           0       -5.892762   -4.064226   -1.012288
     30          1           0       -6.014022   -4.035828    0.753275
     31          1           0       -7.167385   -3.078879   -0.226987
     32          6           0        0.728988   -0.905467   -0.004950
     33          6           0        1.308325   -2.149426    0.151285
     34         16           0        1.979284    0.332328   -0.135582
     35          6           0        2.716787   -2.117251    0.161314
     36          1           0        0.731195   -3.054558    0.247310
     37          6           0        3.267307   -0.840909    0.004991
     38          8           0        3.548955   -3.183365    0.304500
     39          6           0        4.656399   -0.487882   -0.068977
     40          6           0        2.960069   -4.480480    0.317161
     41          6           0        5.203739    0.787523   -0.200988
     42         16           0        5.955463   -1.675592    0.000910
     43          1           0        3.789987   -5.186260    0.356171
     44          1           0        2.324616   -4.618982    1.199992
     45          1           0        2.368643   -4.656071   -0.588926
     46          6           0        6.627197    0.808650   -0.245942
     47          8           0        4.374922    1.860506   -0.277492
     48          6           0        7.160730   -0.448203   -0.147696
     49          1           0        7.222749    1.705457   -0.344855
     50          6           0        4.963623    3.152203   -0.377180
     51          1           0        8.207146   -0.719738   -0.152066
     52          1           0        5.560647    3.248202   -1.292961
     53          1           0        4.135021    3.859210   -0.410294
     54          1           0        5.593642    3.370428    0.493273
 ---------------------------------------------------------------------
 Rotational constants (GHZ):           0.1753624           0.0587370           0.0441868
 Standard basis: 6-311+G(d,p) (5D, 7F)
 There are   952 symmetry adapted cartesian basis functions of A   symmetry.
 There are   916 symmetry adapted basis functions of A   symmetry.
   916 basis functions,  1468 primitive gaussians,   952 cartesian basis functions
   135 alpha electrons      135 beta electrons
       nuclear repulsion energy      4130.7521512043 Hartrees.
 NAtoms=   54 NActive=   54 NUniq=   54 SFac= 1.00D+00 NAtFMM=   60 NAOKFM=F Big=F
 Integral buffers will be    131072 words long.
 Raffenetti 2 integral format.
 Two-electron integral symmetry is turned on.
 One-electron integrals computed using PRISM.
 NBasis=   916 RedAO= T EigKep=  1.48D-06  NBF=   916
 NBsUse=   900 1.00D-06 EigRej=  8.43D-07 NBFU=   900
 ExpMin= 4.05D-02 ExpMax= 9.34D+04 ExpMxC= 3.17D+03 IAcc=3 IRadAn=         5 AccDes= 0.00D+00
 Harris functional with IExCor=  402 and IRadAn=       5 diagonalized for initial guess.
 HarFok:  IExCor=  402 AccDes= 0.00D+00 IRadAn=         5 IDoV= 1 UseB2=F ITyADJ=14
 ICtDFT=  3500011 ScaDFX=  1.000000  1.000000  1.000000  1.000000
 FoFCou: FMM=F IPFlag=           0 FMFlag=      100000 FMFlg1=           0
         NFxFlg=           0 DoJE=T BraDBF=F KetDBF=T FulRan=T
         wScrn=  0.000000 ICntrl=       500 IOpCl=  0 I1Cent=   200000004 NGrid=           0
         NMat0=    1 NMatS0=      1 NMatT0=    0 NMatD0=    1 NMtDS0=    0 NMtDT0=    0
 Petite list used in FoFCou.
 Requested convergence on RMS density matrix=1.00D-08 within 128 cycles.
 Requested convergence on MAX density matrix=1.00D-06.
 Requested convergence on             energy=1.00D-06.
 No special actions if energy rises.
 EnCoef did     9 forward-backward iterations
 EnCoef did   100 forward-backward iterations
 EnCoef did     5 forward-backward iterations
 Restarting incremental Fock formation.
 SCF Done:  E(RB3LYP) =  -2359.33663559     A.U. after   23 cycles
            NFock= 23  Conv=0.64D-08     -V/T= 2.0028

 **********************************************************************

            Population analysis using the SCF Density.

 **********************************************************************

 Orbital symmetries:
       Occupied  (A) (A) (A) (A) (A) (A) (A) (A) (A) (A) (A) (A)
                 (A) (A) (A) (A) (A) (A) (A) (A) (A) (A) (A) (A)
                 (A) (A) (A) (A) (A) (A) (A) (A) (A) (A) (A) (A)
                 (A) (A) (A) (A) (A) (A) (A) (A) (A) (A) (A) (A)
                 (A) (A) (A) (A) (A) (A) (A) (A) (A) (A) (A) (A)
                 (A) (A) (A) (A) (A) (A) (A) (A) (A) (A) (A) (A)
                 (A) (A) (A) (A) (A) (A) (A) (A) (A) (A) (A) (A)
                 (A) (A) (A) (A) (A) (A) (A) (A) (A) (A) (A) (A)
                 (A) (A) (A) (A) (A) (A) (A) (A) (A) (A) (A) (A)
                 (A) (A) (A) (A) (A) (A) (A) (A) (A) (A) (A) (A)
                 (A) (A) (A) (A) (A) (A) (A) (A) (A) (A) (A) (A)
                 (A) (A) (A)
       Virtual   (A) (A) (A) (A) (A) (A) (A) (A) (A) (A) (A) (A)
                 (A) (A) (A) (A) (A) (A) (A) (A) (A) (A) (A) (A)
                 (A) (A) (A) (A) (A) (A) (A) (A) (A) (A) (A) (A)
                 (A) (A) (A) (A) (A) (A) (A) (A) (A) (A) (A) (A)
                 (A) (A) (A) (A) (A) (A) (A) (A) (A) (A) (A) (A)
                 (A) (A) (A) (A) (A) (A) (A) (A) (A) (A) (A) (A)
                 (A) (A) (A) (A) (A) (A) (A) (A) (A) (A) (A) (A)
                 (A) (A) (A) (A) (A) (A) (A) (A) (A) (A) (A) (A)
                 (A) (A) (A) (A) (A) (A) (A) (A) (A) (A) (A) (A)
                 (A) (A) (A) (A) (A) (A) (A) (A) (A) (A) (A) (A)
                 (A) (A) (A) (A) (A) (A) (A) (A) (A) (A) (A) (A)
                 (A) (A) (A) (A) (A) (A) (A) (A) (A) (A) (A) (A)
                 (A) (A) (A) (A) (A) (A) (A) (A) (A) (A) (A) (A)
                 (A) (A) (A) (A) (A) (A) (A) (A) (A) (A) (A) (A)
                 (A) (A) (A) (A) (A) (A) (A) (A) (A) (A) (A) (A)
                 (A) (A) (A) (A) (A) (A) (A) (A) (A) (A) (A) (A)
                 (A) (A) (A) (A) (A) (A) (A) (A) (A) (A) (A) (A)
                 (A) (A) (A) (A) (A) (A) (A) (A) (A) (A) (A) (A)
                 (A) (A) (A) (A) (A) (A) (A) (A) (A) (A) (A) (A)
                 (A) (A) (A) (A) (A) (A) (A) (A) (A) (A) (A) (A)
                 (A) (A) (A) (A) (A) (A) (A) (A) (A) (A) (A) (A)
                 (A) (A) (A) (A) (A) (A) (A) (A) (A) (A) (A) (A)
                 (A) (A) (A) (A) (A) (A) (A) (A) (A) (A) (A) (A)
                 (A) (A) (A) (A) (A) (A) (A) (A) (A) (A) (A) (A)
                 (A) (A) (A) (A) (A) (A) (A) (A) (A) (A) (A) (A)
                 (A) (A) (A) (A) (A) (A) (A) (A) (A) (A) (A) (A)
                 (A) (A) (A) (A) (A) (A) (A) (A) (A) (A) (A) (A)
                 (A) (A) (A) (A) (A) (A) (A) (A) (A) (A) (A) (A)
                 (A) (A) (A) (A) (A) (A) (A) (A) (A) (A) (A) (A)
                 (A) (A) (A) (A) (A) (A) (A) (A) (A) (A) (A) (A)
                 (A) (A) (A) (A) (A) (A) (A) (A) (A) (A) (A) (A)
                 (A) (A) (A) (A) (A) (A) (A) (A) (A) (A) (A) (A)
                 (A) (A) (A) (A) (A) (A) (A) (A) (A) (A) (A) (A)
                 (A) (A) (A) (A) (A) (A) (A) (A) (A) (A) (A) (A)
                 (A) (A) (A) (A) (A) (A) (A) (A) (A) (A) (A) (A)
                 (A) (A) (A) (A) (A) (A) (A) (A) (A) (A) (A) (A)
                 (A) (A) (A) (A) (A) (A) (A) (A) (A) (A) (A) (A)
                 (A) (A) (A) (A) (A) (A) (A) (A) (A) (A) (A) (A)
                 (A) (A) (A) (A) (A) (A) (A) (A) (A) (A) (A) (A)
                 (A) (A) (A) (A) (A) (A) (A) (A) (A) (A) (A) (A)
                 (A) (A) (A) (A) (A) (A) (A) (A) (A) (A) (A) (A)
                 (A) (A) (A) (A) (A) (A) (A) (A) (A) (A) (A) (A)
                 (A) (A) (A) (A) (A) (A) (A) (A) (A) (A) (A) (A)
                 (A) (A) (A) (A) (A) (A) (A) (A) (A) (A) (A) (A)
                 (A) (A) (A) (A) (A) (A) (A) (A) (A) (A) (A) (A)
                 (A) (A) (A) (A) (A) (A) (A) (A) (A) (A) (A) (A)
                 (A) (A) (A) (A) (A) (A) (A) (A) (A) (A) (A) (A)
                 (A) (A) (A) (A) (A) (A) (A) (A) (A) (A) (A) (A)
                 (A) (A) (A) (A) (A) (A) (A) (A) (A) (A) (A) (A)
                 (A) (A) (A) (A) (A) (A) (A) (A) (A) (A) (A) (A)
                 (A) (A) (A) (A) (A) (A) (A) (A) (A) (A) (A) (A)
                 (A) (A) (A) (A) (A) (A) (A) (A) (A) (A) (A) (A)
                 (A) (A) (A) (A) (A) (A) (A) (A) (A) (A) (A) (A)
                 (A) (A) (A) (A) (A) (A) (A) (A) (A) (A) (A) (A)
                 (A) (A) (A) (A) (A) (A) (A) (A) (A) (A) (A) (A)
                 (A) (A) (A) (A) (A) (A) (A) (A) (A) (A) (A) (A)
                 (A) (A) (A) (A) (A) (A) (A) (A) (A) (A) (A) (A)
                 (A) (A) (A) (A) (A) (A) (A) (A) (A) (A) (A) (A)
                 (A) (A) (A) (A) (A) (A) (A) (A) (A) (A) (A) (A)
                 (A) (A) (A) (A) (A) (A) (A) (A) (A) (A) (A) (A)
                 (A) (A) (A) (A) (A) (A) (A) (A) (A) (A) (A) (A)
                 (A) (A) (A) (A) (A) (A) (A) (A) (A) (A) (A) (A)
                 (A) (A) (A) (A) (A) (A) (A) (A) (A) (A) (A) (A)
                 (A) (A) (A) (A) (A) (A) (A) (A) (A)
 The electronic state is 1-A.
 Alpha  occ. eigenvalues --  -88.70059 -88.65048 -18.98503 -18.98211 -18.87799
 Alpha  occ. eigenvalues --  -18.87747 -18.87482 -18.87015 -14.15488 -14.15199
 Alpha  occ. eigenvalues --  -10.07442 -10.06933 -10.05926 -10.05761 -10.05627
 Alpha  occ. eigenvalues --  -10.05336 -10.05197 -10.03557 -10.02812 -10.02345
 Alpha  occ. eigenvalues --  -10.01414 -10.01353 -10.00858 -10.00138  -9.98168
 Alpha  occ. eigenvalues --   -9.97591  -9.97396  -9.97180  -9.96959  -9.96014
 Alpha  occ. eigenvalues --   -9.95668  -9.95401  -9.95154  -9.95118  -9.95058
 Alpha  occ. eigenvalues --   -9.94999  -7.78647  -7.73508  -5.74951  -5.74583
 Alpha  occ. eigenvalues --   -5.74211  -5.69862  -5.69403  -5.69013  -0.90266
 Alpha  occ. eigenvalues --   -0.89726  -0.85180  -0.84360  -0.82393  -0.82286
 Alpha  occ. eigenvalues --   -0.72643  -0.72542  -0.70842  -0.67457  -0.66272
 Alpha  occ. eigenvalues --   -0.61363  -0.59187  -0.58877  -0.58075  -0.56523
 Alpha  occ. eigenvalues --   -0.54412  -0.53309  -0.52846  -0.52354  -0.51621
 Alpha  occ. eigenvalues --   -0.50655  -0.48850  -0.46035  -0.43377  -0.42696
 Alpha  occ. eigenvalues --   -0.41768  -0.41218  -0.40160  -0.39077  -0.37993
 Alpha  occ. eigenvalues --   -0.36429  -0.35480  -0.33918  -0.33510  -0.31517
 Alpha  occ. eigenvalues --   -0.31409  -0.30903  -0.30849  -0.30141  -0.29184
 Alpha  occ. eigenvalues --   -0.28583  -0.27987  -0.27751  -0.27472  -0.26838
 Alpha  occ. eigenvalues --   -0.26715  -0.25444  -0.25334  -0.24917  -0.23551
 Alpha  occ. eigenvalues --   -0.23069  -0.22997  -0.22783  -0.22114  -0.21445
 Alpha  occ. eigenvalues --   -0.21318  -0.21217  -0.20350  -0.20288  -0.19933
 Alpha  occ. eigenvalues --   -0.19700  -0.19023  -0.18588  -0.18461  -0.18026
 Alpha  occ. eigenvalues --   -0.17804  -0.17302  -0.16638  -0.16299  -0.16081
 Alpha  occ. eigenvalues --   -0.15374  -0.15147  -0.14167  -0.12358  -0.11337
 Alpha  occ. eigenvalues --   -0.10228  -0.09067  -0.07486  -0.07050  -0.06634
 Alpha  occ. eigenvalues --   -0.06536  -0.06063  -0.05570  -0.04819  -0.04412
 Alpha  occ. eigenvalues --   -0.03723  -0.01446  -0.00592   0.01587   0.08481
 Alpha virt. eigenvalues --    0.12806   0.13636   0.13814   0.14444   0.15992
 Alpha virt. eigenvalues --    0.16489   0.16863   0.17078   0.17239   0.17521
 Alpha virt. eigenvalues --    0.17872   0.18336   0.18678   0.19121   0.19217
 Alpha virt. eigenvalues --    0.19405   0.19823   0.20137   0.20496   0.20618
 Alpha virt. eigenvalues --    0.20866   0.20969   0.21018   0.21295   0.21548
 Alpha virt. eigenvalues --    0.21796   0.22670   0.22835   0.23194   0.23421
 Alpha virt. eigenvalues --    0.23729   0.23868   0.24067   0.24354   0.24630
 Alpha virt. eigenvalues --    0.24821   0.25442   0.25695   0.25910   0.26152
 Alpha virt. eigenvalues --    0.26311   0.26674   0.26814   0.26963   0.27235
 Alpha virt. eigenvalues --    0.27338   0.27635   0.27930   0.28311   0.28523
 Alpha virt. eigenvalues --    0.28631   0.28930   0.29234   0.29805   0.29876
 Alpha virt. eigenvalues --    0.30038   0.30218   0.30366   0.30883   0.30949
 Alpha virt. eigenvalues --    0.31373   0.31666   0.31835   0.32022   0.32361
 Alpha virt. eigenvalues --    0.32627   0.32901   0.33414   0.33627   0.33693
 Alpha virt. eigenvalues --    0.34009   0.34086   0.34285   0.34840   0.34924
 Alpha virt. eigenvalues --    0.35075   0.35086   0.35400   0.35506   0.35680
 Alpha virt. eigenvalues --    0.35991   0.36365   0.36476   0.36499   0.36831
 Alpha virt. eigenvalues --    0.36989   0.37282   0.37381   0.37743   0.38017
 Alpha virt. eigenvalues --    0.38248   0.38488   0.38744   0.38839   0.39016
 Alpha virt. eigenvalues --    0.39358   0.39688   0.39869   0.39934   0.40188
 Alpha virt. eigenvalues --    0.40383   0.40780   0.41313   0.41375   0.41592
 Alpha virt. eigenvalues --    0.41621   0.42027   0.42359   0.42670   0.42851
 Alpha virt. eigenvalues --    0.42950   0.43127   0.43471   0.43790   0.43925
 Alpha virt. eigenvalues --    0.44182   0.44431   0.44603   0.44953   0.45103
 Alpha virt. eigenvalues --    0.45286   0.45390   0.45608   0.45842   0.45868
 Alpha virt. eigenvalues --    0.46129   0.46172   0.46472   0.46647   0.46877
 Alpha virt. eigenvalues --    0.47067   0.47420   0.47841   0.47893   0.48192
 Alpha virt. eigenvalues --    0.48467   0.48573   0.49003   0.49267   0.49341
 Alpha virt. eigenvalues --    0.49657   0.50049   0.50192   0.50258   0.50316
 Alpha virt. eigenvalues --    0.50624   0.50856   0.51378   0.51597   0.51623
 Alpha virt. eigenvalues --    0.51761   0.52008   0.52273   0.52452   0.52927
 Alpha virt. eigenvalues --    0.53162   0.53455   0.53750   0.54116   0.54563
 Alpha virt. eigenvalues --    0.55071   0.55398   0.56012   0.56123   0.56518
 Alpha virt. eigenvalues --    0.56795   0.57137   0.57793   0.58388   0.58577
 Alpha virt. eigenvalues --    0.58789   0.59043   0.59308   0.59889   0.60258
 Alpha virt. eigenvalues --    0.60621   0.60936   0.61199   0.61442   0.61798
 Alpha virt. eigenvalues --    0.62675   0.63028   0.63212   0.63367   0.63982
 Alpha virt. eigenvalues --    0.64083   0.64289   0.64400   0.64960   0.65253
 Alpha virt. eigenvalues --    0.65909   0.66443   0.66514   0.66777   0.67396
 Alpha virt. eigenvalues --    0.68576   0.68593   0.68795   0.69426   0.70931
 Alpha virt. eigenvalues --    0.71114   0.71976   0.72198   0.72525   0.72899
 Alpha virt. eigenvalues --    0.73157   0.73420   0.74280   0.74829   0.75034
 Alpha virt. eigenvalues --    0.75446   0.75722   0.75917   0.76503   0.76814
 Alpha virt. eigenvalues --    0.77389   0.77517   0.77886   0.78338   0.78609
 Alpha virt. eigenvalues --    0.78918   0.79314   0.79557   0.79677   0.80113
 Alpha virt. eigenvalues --    0.80215   0.80661   0.81443   0.81642   0.82115
 Alpha virt. eigenvalues --    0.82298   0.83056   0.83302   0.83720   0.83917
 Alpha virt. eigenvalues --    0.84424   0.84776   0.85175   0.85390   0.85765
 Alpha virt. eigenvalues --    0.85910   0.86646   0.87013   0.87580   0.88113
 Alpha virt. eigenvalues --    0.88526   0.88897   0.89077   0.89473   0.89792
 Alpha virt. eigenvalues --    0.90010   0.90306   0.90840   0.91466   0.91804
 Alpha virt. eigenvalues --    0.92305   0.92614   0.92723   0.93309   0.93553
 Alpha virt. eigenvalues --    0.94194   0.94482   0.94750   0.95014   0.95521
 Alpha virt. eigenvalues --    0.95937   0.96304   0.96557   0.96939   0.97182
 Alpha virt. eigenvalues --    0.97616   0.98051   0.98391   0.99014   0.99217
 Alpha virt. eigenvalues --    0.99812   1.00663   1.00961   1.01250   1.01670
 Alpha virt. eigenvalues --    1.02003   1.02099   1.02685   1.03679   1.04964
 Alpha virt. eigenvalues --    1.05691   1.06548   1.07087   1.07734   1.08579
 Alpha virt. eigenvalues --    1.08969   1.09426   1.10384   1.10718   1.11225
 Alpha virt. eigenvalues --    1.11800   1.12701   1.12999   1.13259   1.14050
 Alpha virt. eigenvalues --    1.15029   1.15524   1.15671   1.16041   1.16348
 Alpha virt. eigenvalues --    1.17022   1.17515   1.17631   1.18455   1.18688
 Alpha virt. eigenvalues --    1.19023   1.19081   1.19502   1.19818   1.20033
 Alpha virt. eigenvalues --    1.20411   1.20761   1.21117   1.22234   1.22526
 Alpha virt. eigenvalues --    1.22948   1.23616   1.24137   1.24412   1.24557
 Alpha virt. eigenvalues --    1.25075   1.25553   1.25886   1.26233   1.26799
 Alpha virt. eigenvalues --    1.27087   1.27268   1.27737   1.28360   1.28563
 Alpha virt. eigenvalues --    1.29109   1.30284   1.30418   1.31910   1.32068
 Alpha virt. eigenvalues --    1.32316   1.33154   1.33478   1.34580   1.35427
 Alpha virt. eigenvalues --    1.35797   1.36102   1.36862   1.37680   1.38726
 Alpha virt. eigenvalues --    1.38843   1.40076   1.40843   1.41121   1.41777
 Alpha virt. eigenvalues --    1.41796   1.42700   1.43328   1.43763   1.43793
 Alpha virt. eigenvalues --    1.44423   1.45607   1.46722   1.48097   1.48230
 Alpha virt. eigenvalues --    1.48532   1.49519   1.50256   1.50832   1.51807
 Alpha virt. eigenvalues --    1.51894   1.51989   1.52791   1.53311   1.54135
 Alpha virt. eigenvalues --    1.54583   1.55496   1.56547   1.57620   1.58331
 Alpha virt. eigenvalues --    1.58951   1.59063   1.59353   1.60657   1.60954
 Alpha virt. eigenvalues --    1.61916   1.62937   1.62946   1.64030   1.64469
 Alpha virt. eigenvalues --    1.64832   1.65380   1.65713   1.66224   1.66921
 Alpha virt. eigenvalues --    1.67152   1.67613   1.69091   1.69695   1.70127
 Alpha virt. eigenvalues --    1.70222   1.70544   1.71220   1.71789   1.72262
 Alpha virt. eigenvalues --    1.73010   1.73936   1.74162   1.74415   1.74712
 Alpha virt. eigenvalues --    1.75406   1.75483   1.76334   1.76886   1.77510
 Alpha virt. eigenvalues --    1.77721   1.78285   1.79104   1.79467   1.79937
 Alpha virt. eigenvalues --    1.80705   1.81246   1.81561   1.82045   1.82905
 Alpha virt. eigenvalues --    1.83125   1.83535   1.84839   1.85702   1.86248
 Alpha virt. eigenvalues --    1.86704   1.87212   1.87672   1.87771   1.89150
 Alpha virt. eigenvalues --    1.89457   1.89915   1.91146   1.91806   1.91972
 Alpha virt. eigenvalues --    1.93026   1.93757   1.93884   1.94567   1.94809
 Alpha virt. eigenvalues --    1.95720   1.95921   1.96962   1.97289   1.98502
 Alpha virt. eigenvalues --    1.98995   1.99274   2.00450   2.00791   2.01463
 Alpha virt. eigenvalues --    2.02176   2.02787   2.03980   2.04459   2.04932
 Alpha virt. eigenvalues --    2.05420   2.07055   2.08269   2.08545   2.09891
 Alpha virt. eigenvalues --    2.10782   2.10991   2.11651   2.11817   2.12539
 Alpha virt. eigenvalues --    2.13217   2.13445   2.14256   2.15045   2.15381
 Alpha virt. eigenvalues --    2.15440   2.16395   2.17426   2.18901   2.18926
 Alpha virt. eigenvalues --    2.19373   2.20368   2.20569   2.21929   2.22271
 Alpha virt. eigenvalues --    2.22686   2.22999   2.23654   2.24111   2.24530
 Alpha virt. eigenvalues --    2.25025   2.25192   2.26046   2.26313   2.27322
 Alpha virt. eigenvalues --    2.27707   2.28170   2.28930   2.29471   2.30382
 Alpha virt. eigenvalues --    2.31759   2.32005   2.32665   2.33185   2.34128
 Alpha virt. eigenvalues --    2.34677   2.36062   2.37160   2.37972   2.38369
 Alpha virt. eigenvalues --    2.39624   2.40422   2.41574   2.41850   2.41911
 Alpha virt. eigenvalues --    2.43989   2.44260   2.45933   2.47245   2.47473
 Alpha virt. eigenvalues --    2.48609   2.50431   2.52650   2.55968   2.56591
 Alpha virt. eigenvalues --    2.58391   2.58725   2.59046   2.59438   2.60070
 Alpha virt. eigenvalues --    2.60719   2.60947   2.62357   2.63078   2.63489
 Alpha virt. eigenvalues --    2.64003   2.64388   2.65876   2.66759   2.67349
 Alpha virt. eigenvalues --    2.68023   2.68282   2.69332   2.70059   2.70550
 Alpha virt. eigenvalues --    2.71756   2.71804   2.71978   2.72634   2.73098
 Alpha virt. eigenvalues --    2.74344   2.75885   2.76699   2.77983   2.78259
 Alpha virt. eigenvalues --    2.79914   2.80837   2.81634   2.82203   2.84982
 Alpha virt. eigenvalues --    2.85410   2.86062   2.86443   2.87170   2.87650
 Alpha virt. eigenvalues --    2.88787   2.90199   2.90793   2.90997   2.91433
 Alpha virt. eigenvalues --    2.92125   2.93758   2.94219   2.94668   2.95068
 Alpha virt. eigenvalues --    2.95349   2.95807   2.96298   2.97524   2.98827
 Alpha virt. eigenvalues --    2.99774   3.00682   3.00738   3.00989   3.02343
 Alpha virt. eigenvalues --    3.03827   3.05324   3.06013   3.06978   3.07951
 Alpha virt. eigenvalues --    3.08640   3.09341   3.10378   3.10814   3.12179
 Alpha virt. eigenvalues --    3.12370   3.12979   3.13552   3.14251   3.14928
 Alpha virt. eigenvalues --    3.15761   3.15979   3.17322   3.17630   3.18347
 Alpha virt. eigenvalues --    3.19223   3.19596   3.21030   3.21757   3.22167
 Alpha virt. eigenvalues --    3.23662   3.24673   3.25216   3.27463   3.28577
 Alpha virt. eigenvalues --    3.29384   3.31274   3.31687   3.33819   3.34077
 Alpha virt. eigenvalues --    3.37153   3.37798   3.38081   3.39144   3.39806
 Alpha virt. eigenvalues --    3.41707   3.42051   3.42505   3.42637   3.44930
 Alpha virt. eigenvalues --    3.47523   3.49392   3.50002   3.50622   3.52078
 Alpha virt. eigenvalues --    3.53568   3.55007   3.57008   3.57993   3.58391
 Alpha virt. eigenvalues --    3.58733   3.58883   3.60003   3.62528   3.63129
 Alpha virt. eigenvalues --    3.64649   3.65179   3.66695   3.66850   3.68982
 Alpha virt. eigenvalues --    3.69785   3.70598   3.73436   3.73493   3.75971
 Alpha virt. eigenvalues --    3.78855   3.82119   3.83064   3.83959   3.85811
 Alpha virt. eigenvalues --    3.88473   3.89382   3.91086   3.92038   3.92329
 Alpha virt. eigenvalues --    3.92750   3.93016   3.93205   3.94023   3.95962
 Alpha virt. eigenvalues --    3.98775   4.02117   4.04423   4.06361   4.07576
 Alpha virt. eigenvalues --    4.13395   4.14796   4.15481   4.17141   4.17317
 Alpha virt. eigenvalues --    4.20839   4.22632   4.25481   4.27084   4.28807
 Alpha virt. eigenvalues --    4.29067   4.32986   4.37718   4.41057   4.45063
 Alpha virt. eigenvalues --    4.49792   4.51714   4.60335   4.64969   4.66034
 Alpha virt. eigenvalues --    4.75374   4.94891   5.09915   5.10134   5.12492
 Alpha virt. eigenvalues --    5.13664   5.20212   5.20926   5.27857   5.29500
 Alpha virt. eigenvalues --    5.30034   5.31678   5.35288   5.37438   5.48823
 Alpha virt. eigenvalues --    5.51113   5.53595   5.59083   5.61187   5.62325
 Alpha virt. eigenvalues --    5.95144   5.98977   6.00013   6.04688   6.06060
 Alpha virt. eigenvalues --    6.09404   8.21202   8.32115  17.47292  17.56219
 Alpha virt. eigenvalues --   17.68487  17.71701  17.84194  17.93790  23.72899
 Alpha virt. eigenvalues --   23.79349  23.92482  24.01210  24.04431  24.06587
 Alpha virt. eigenvalues --   24.07254  24.07386  24.09732  24.11585  24.11851
 Alpha virt. eigenvalues --   24.12266  24.13464  24.14918  24.15998  24.19913
 Alpha virt. eigenvalues --   24.21253  24.21624  24.23951  24.24434  24.26175
 Alpha virt. eigenvalues --   24.31237  24.32119  24.34237  24.39638  24.40127
 Alpha virt. eigenvalues --   35.79433  35.82271  50.14795  50.16573  50.26760
 Alpha virt. eigenvalues --   50.28896  50.30435  50.31912 189.38760 189.50413
          Condensed to atoms (all electrons):
 Mulliken charges:
               1
     1  C    0.318281
     2  C   -0.284285
     3  C    0.096514
     4  C    0.212313
     5  C    0.192746
     6  C   -0.250349
     7  C    0.093301
     8  C   -0.212933
     9  C    0.459424
    10  C    0.006707
    11  C    0.055689
    12  C    0.092936
    13  C   -0.506469
    14  C   -0.641930
    15  H    0.099894
    16  H    0.103372
    17  H    0.116854
    18  N   -0.130890
    19  N   -0.135877
    20  O   -0.417603
    21  O   -0.394926
    22  O   -0.397770
    23  O   -0.171513
    24  C   -0.166742
    25  H    0.141989
    26  H    0.138444
    27  H    0.159534
    28  C   -0.190229
    29  H    0.137037
    30  H    0.135386
    31  H    0.155231
    32  C   -0.028338
    33  C   -0.246133
    34  S   -0.254094
    35  C   -0.419975
    36  H    0.100017
    37  C    0.443520
    38  O   -0.145944
    39  C    0.721653
    40  C   -0.234554
    41  C   -0.092868
    42  S   -0.383979
    43  H    0.128579
    44  H    0.131106
    45  H    0.142050
    46  C   -0.562582
    47  O   -0.054688
    48  C   -0.401413
    49  H    0.094090
    50  C   -0.255265
    51  H    0.111752
    52  H    0.111585
    53  H    0.166653
    54  H    0.114692
 Sum of Mulliken charges =  -2.00000
 Mulliken charges with hydrogens summed into heavy atoms:
               1
     1  C    0.318281
     2  C   -0.284285
     3  C    0.096514
     4  C    0.212313
     5  C    0.192746
     6  C   -0.133496
     7  C    0.093301
     8  C   -0.212933
     9  C    0.459424
    10  C    0.006707
    11  C    0.055689
    12  C    0.092936
    13  C   -0.403097
    14  C   -0.542037
    18  N   -0.130890
    19  N   -0.135877
    20  O   -0.417603
    21  O   -0.394926
    22  O   -0.397770
    23  O   -0.171513
    24  C    0.273225
    28  C    0.237424
    32  C   -0.028338
    33  C   -0.146116
    34  S   -0.254094
    35  C   -0.419975
    37  C    0.443520
    38  O   -0.145944
    39  C    0.721653
    40  C    0.167181
    41  C   -0.092868
    42  S   -0.383979
    46  C   -0.468492
    47  O   -0.054688
    48  C   -0.289662
    50  C    0.137665
 Electronic spatial extent (au):  <R**2>=          22377.4536
 Charge=             -2.0000 electrons
 Dipole moment (field-independent basis, Debye):
    X=             14.3742    Y=             -1.8115    Z=              0.0740  Tot=             14.4881
 Quadrupole moment (field-independent basis, Debye-Ang):
   XX=           -428.3306   YY=           -294.1728   ZZ=           -236.0852
   XY=             18.2937   XZ=             -3.1811   YZ=             -1.8339
 Traceless Quadrupole moment (field-independent basis, Debye-Ang):
   XX=           -108.8010   YY=             25.3568   ZZ=             83.4443
   XY=             18.2937   XZ=             -3.1811   YZ=             -1.8339
 Octapole moment (field-independent basis, Debye-Ang**2):
  XXX=            527.7014  YYY=           -122.4550  ZZZ=              4.1693  XYY=            243.1682
  XXY=             82.0549  XXZ=             18.8834  XZZ=             -8.3382  YZZ=             -0.5916
  YYZ=             -2.1181  XYZ=             -2.8675
 Hexadecapole moment (field-independent basis, Debye-Ang**3):
 XXXX=         -30747.6556 YYYY=          -9207.3898 ZZZZ=           -360.9641 XXXY=            303.3501
 XXXZ=           -145.4010 YYYX=            424.1750 YYYZ=            -26.5663 ZZZX=             11.1235
 ZZZY=              2.9763 XXYY=          -5851.0126 XXZZ=          -4137.3605 YYZZ=          -1394.3128
 XXYZ=            -33.9837 YYXZ=             -2.6730 ZZXY=             62.7767
 N-N= 4.130752151204D+03 E-N=-1.386145703560D+04  KE= 2.352790705497D+03
 Calling FoFJK, ICntrl=      2127 FMM=F ISym2X=0 I1Cent= 0 IOpClX= 0 NMat=1 NMatS=1 NMatT=0.
 ***** Axes restored to original set *****
 -------------------------------------------------------------------
 Center     Atomic                   Forces (Hartrees/Bohr)
 Number     Number              X              Y              Z
 -------------------------------------------------------------------
      1        6          -0.002748829    0.045008298    0.006570752
      2        6          -0.023629267   -0.031440386   -0.002901109
      3        6          -0.003825366   -0.007051397   -0.000864610
      4        6           0.014067205   -0.035864157   -0.005394241
      5        6           0.024519735    0.037862022    0.004652367
      6        6           0.031419643    0.032055164    0.000024551
      7        6          -0.000521081    0.008685971    0.000242366
      8        6          -0.011340135    0.046670247    0.011225935
      9        6           0.018104116   -0.052288960   -0.008454867
     10        6          -0.053231708   -0.050090825   -0.011139287
     11        6           0.006329023   -0.043850024   -0.007644008
     12        6           0.026997785    0.028726239    0.004954584
     13        6          -0.030698983   -0.029105820   -0.003956412
     14        6          -0.014508396    0.038975750    0.005967930
     15        1          -0.000113384    0.000867226    0.000133784
     16        1          -0.000023522   -0.000988121   -0.000182946
     17        1          -0.000925141    0.001174205    0.000326663
     18        7           0.003581419    0.002825674   -0.001367814
     19        7          -0.001965699   -0.004259134   -0.000766237
     20        8           0.016967314   -0.026432867   -0.003822983
     21        8          -0.028458326   -0.017049794   -0.001811648
     22        8          -0.018198836    0.025989167    0.004675871
     23        8          -0.017151531    0.037931040    0.026547059
     24        6          -0.000934294   -0.004378359   -0.001970931
     25        1           0.000950967    0.000670675    0.000471070
     26        1           0.000292779    0.000329210    0.000711293
     27        1          -0.000855556   -0.000372779   -0.000071909
     28        6           0.000619512    0.006052646    0.000281459
     29        1           0.000523297   -0.000997404    0.000227003
     30        1           0.000679244   -0.001233166   -0.000058857
     31        1          -0.000639163    0.000719671    0.000177374
     32        6          -0.018066061    0.030783314    0.012459615
     33        6           0.011467975   -0.007306583   -0.003243794
     34       16           0.051234795   -0.012581580   -0.015878903
     35        6          -0.010633407    0.011417981   -0.002139362
     36        1          -0.000101282   -0.001931575    0.001882590
     37        6           0.015134192   -0.018779285   -0.012522381
     38        8           0.013825580   -0.017259361    0.000547214
     39        6          -0.010771590   -0.007814603    0.001219155
     40        6           0.000352792    0.007144334    0.001776878
     41        6           0.012550679   -0.000052194   -0.001139885
     42       16          -0.000473047   -0.001358544    0.000442417
     43        1           0.000781712   -0.000536912   -0.000176580
     44        1          -0.000750663   -0.000403358   -0.000572877
     45        1          -0.000387521   -0.000121389    0.000409877
     46        6          -0.006322788   -0.002959933    0.000211237
     47        8          -0.007307741    0.015002181    0.000637975
     48        6           0.013381664    0.006214016   -0.000594956
     49        1           0.000246799    0.000412001    0.000012925
     50        6          -0.000183448   -0.009487010   -0.000570193
     51        1          -0.000701006    0.000066749    0.000020621
     52        1           0.000666184    0.000593089   -0.000309538
     53        1          -0.000021463   -0.000928597    0.000110251
     54        1           0.000794823    0.000747246    0.000635517
 -------------------------------------------------------------------
 Cartesian Forces:  Max     0.053231708 RMS     0.015797530

 GradGradGradGradGradGradGradGradGradGradGradGradGradGradGradGradGradGrad
 Berny optimization.
 FormGI is forming the generalized inverse of G from B-inverse, IUseBI=4.
 Internal  Forces:  Max     0.207817352 RMS     0.025730195
 Search for a local minimum.
 Step number   1 out of a maximum of  307
 All quantities printed in internal units (Hartrees-Bohrs-Radians)
 Mixed Optimization -- RFO/linear search
 Second derivative matrix not updated -- first step.
 ITU=  0
     Eigenvalues ---    0.00803   0.00803   0.01176   0.01203   0.01245
     Eigenvalues ---    0.01292   0.01308   0.01311   0.01367   0.01387
     Eigenvalues ---    0.01419   0.01429   0.01458   0.01496   0.01515
     Eigenvalues ---    0.01568   0.01572   0.01577   0.01624   0.01652
     Eigenvalues ---    0.01692   0.01711   0.01713   0.01719   0.01754
     Eigenvalues ---    0.01783   0.01803   0.01847   0.01959   0.02040
     Eigenvalues ---    0.02045   0.02067   0.02072   0.02079   0.02135
     Eigenvalues ---    0.02149   0.02163   0.02179   0.02197   0.02221
     Eigenvalues ---    0.02247   0.02248   0.07556   0.07572   0.07690
     Eigenvalues ---    0.07700   0.10060   0.10069   0.10634   0.10637
     Eigenvalues ---    0.15983   0.15999   0.15999   0.16000   0.16000
     Eigenvalues ---    0.16000   0.16000   0.16000   0.16000   0.16000
     Eigenvalues ---    0.16000   0.16000   0.16000   0.16000   0.16000
     Eigenvalues ---    0.16000   0.16000   0.16000   0.22530   0.22583
     Eigenvalues ---    0.23518   0.23582   0.24516   0.24747   0.24866
     Eigenvalues ---    0.24931   0.24952   0.24985   0.24987   0.24988
     Eigenvalues ---    0.24991   0.24994   0.24997   0.24997   0.24998
     Eigenvalues ---    0.24998   0.25000   0.25000   0.25000   0.25000
     Eigenvalues ---    0.25000   0.25000   0.25000   0.25000   0.25000
     Eigenvalues ---    0.25000   0.28796   0.28898   0.30139   0.32113
     Eigenvalues ---    0.32582   0.32774   0.33111   0.33787   0.33970
     Eigenvalues ---    0.34069   0.34076   0.34108   0.34354   0.34466
     Eigenvalues ---    0.34577   0.34629   0.34693   0.34796   0.34843
     Eigenvalues ---    0.35198   0.35218   0.35468   0.35553   0.35582
     Eigenvalues ---    0.35864   0.35864   0.36078   0.36083   0.36267
     Eigenvalues ---    0.36396   0.36662   0.39352   0.40194   0.40257
     Eigenvalues ---    0.40641   0.40651   0.41524   0.41777   0.42009
     Eigenvalues ---    0.42300   0.42708   0.43455   0.43883   0.44092
     Eigenvalues ---    0.44538   0.44594   0.45014   0.45406   0.46251
     Eigenvalues ---    0.47305   0.47629   0.49310   0.49556   0.52947
     Eigenvalues ---    0.53360   0.93281   0.93432   0.93989   0.94585
     Eigenvalues --- 1000.000001000.000001000.000001000.000001000.00000
     Eigenvalues --- 1000.000001000.000001000.000001000.000001000.00000
     Eigenvalues --- 1000.000001000.000001000.000001000.000001000.00000
     Eigenvalues --- 1000.000001000.000001000.000001000.000001000.00000
     Eigenvalues --- 1000.000001000.000001000.000001000.000001000.00000
     Eigenvalues --- 1000.000001000.000001000.000001000.000001000.00000
     Eigenvalues --- 1000.000001000.000001000.000001000.000001000.00000
     Eigenvalues --- 1000.000001000.000001000.000001000.000001000.00000
     Eigenvalues --- 1000.000001000.000001000.000001000.000001000.00000
     Eigenvalues --- 1000.000001000.000001000.000001000.000001000.00000
     Eigenvalues --- 1000.000001000.000001000.000001000.000001000.00000
     Eigenvalues --- 1000.000001000.000001000.000001000.000001000.00000
     Eigenvalues --- 1000.000001000.000001000.000001000.000001000.00000
     Eigenvalues --- 1000.000001000.000001000.000001000.000001000.00000
     Eigenvalues --- 1000.000001000.000001000.000001000.000001000.00000
     Eigenvalues --- 1000.000001000.000001000.000001000.000001000.00000
     Eigenvalues --- 1000.000001000.000001000.000001000.000001000.00000
     Eigenvalues --- 1000.000001000.000001000.000001000.000001000.00000
     Eigenvalues --- 1000.000001000.000001000.000001000.000001000.00000
     Eigenvalues --- 1000.000001000.000001000.000001000.000001000.00000
     Eigenvalues --- 1000.000001000.000001000.000001000.000001000.00000
     Eigenvalues --- 1000.000001000.000001000.000001000.000001000.00000
     Eigenvalues --- 1000.000001000.000001000.000001000.000001000.00000
     Eigenvalues --- 1000.000001000.000001000.000001000.000001000.00000
     Eigenvalues --- 1000.000001000.000001000.000001000.000001000.00000
     Eigenvalues --- 1000.000001000.000001000.000001000.000001000.00000
     Eigenvalues --- 1000.000001000.000001000.000001000.000001000.00000
     Eigenvalues --- 1000.000001000.000001000.000001000.000001000.00000
     Eigenvalues --- 1000.000001000.00000
 RFO step:  Lambda=-3.29193893D-01 EMin= 8.02933640D-03
 Linear search not attempted -- first point.
 Maximum step size (   0.300) exceeded in Quadratic search.
    -- Step size scaled by   0.411
 Iteration  1 RMS(Cart)=  0.31433438 RMS(Int)=  0.00780644
 Iteration  2 RMS(Cart)=  0.13578112 RMS(Int)=  0.00113118
 Iteration  3 RMS(Cart)=  0.00394065 RMS(Int)=  0.00014258
 Iteration  4 RMS(Cart)=  0.00000088 RMS(Int)=  0.00014258
 Iteration  1 RMS(Cart)=  0.00004023 RMS(Int)=  0.00000659
 Iteration  2 RMS(Cart)=  0.00002263 RMS(Int)=  0.00000736
 Iteration  3 RMS(Cart)=  0.00001273 RMS(Int)=  0.00000834
 Iteration  4 RMS(Cart)=  0.00000716 RMS(Int)=  0.00000901
 Iteration  5 RMS(Cart)=  0.00000403 RMS(Int)=  0.00000941
 Iteration  6 RMS(Cart)=  0.00000227 RMS(Int)=  0.00000965
 Iteration  7 RMS(Cart)=  0.00000127 RMS(Int)=  0.00000979
 Iteration  8 RMS(Cart)=  0.00000072 RMS(Int)=  0.00000986
 Variable       Old X    -DE/DX   Delta X   Delta X   Delta X     New X
                                 (Linear)    (Quad)   (Total)
    R1        2.80935  -0.02028   0.00000  -0.01273  -0.01272   2.79663
    R2        2.64584  -0.00031   0.00000  -0.00028  -0.00027   2.64557
    R3        2.31147   0.03086   0.00000   0.00999   0.00999   2.32146
    R4        2.67311  -0.01343   0.00000  -0.00848  -0.00853   2.66458
    R5        2.59267   0.00209   0.00000  -0.00048  -0.00047   2.59220
    R6        2.66894   0.01163   0.00000   0.00639   0.00637   2.67532
    R7        2.69164   0.01712   0.00000   0.01063   0.01059   2.70223
    R8        2.81049  -0.02061   0.00000  -0.01245  -0.01245   2.79804
    R9        2.62173   0.01556   0.00000   0.00729   0.00727   2.62900
   R10        2.65570  -0.00200   0.00000  -0.00099  -0.00098   2.65472
   R11        2.30889   0.03246   0.00000   0.01046   0.01046   2.31935
   R12        2.70248  -0.02216   0.00000  -0.01292  -0.01287   2.68961
   R13        2.04786  -0.00152   0.00000  -0.00091  -0.00091   2.04695
   R14        2.70495   0.05541   0.00000   0.03385   0.03389   2.73884
   R15        2.68322   0.02151   0.00000   0.01311   0.01308   2.69630
   R16        2.68655   0.12137   0.00000   0.06753   0.06757   2.75411
   R17        2.81233   0.00076   0.00000   0.00100   0.00109   2.81342
   R18        2.76359   0.06325   0.00000   0.03733   0.03733   2.80093
   R19        2.66221  -0.00510   0.00000  -0.00348  -0.00343   2.65877
   R20        2.31391   0.00252   0.00000   0.00082   0.00082   2.31472
   R21        2.79415  -0.04224   0.00000  -0.02618  -0.02627   2.76788
   R22        2.63842  -0.02256   0.00000  -0.01287  -0.01291   2.62551
   R23        2.31456   0.03128   0.00000   0.01018   0.01018   2.32474
   R24        2.62448   0.02432   0.00000   0.01239   0.01239   2.63688
   R25        2.64561  -0.03640   0.00000  -0.01970  -0.01971   2.62590
   R26        2.04921  -0.00068   0.00000  -0.00041  -0.00041   2.04880
   R27        2.04741  -0.00017   0.00000  -0.00010  -0.00010   2.04731
   R28        2.77259  -0.00387   0.00000  -0.00231  -0.00231   2.77029
   R29        2.77252  -0.00473   0.00000  -0.00281  -0.00281   2.76971
   R30        2.06176   0.00093   0.00000   0.00057   0.00057   2.06233
   R31        2.06551  -0.00023   0.00000  -0.00014  -0.00014   2.06537
   R32        2.05322   0.00055   0.00000   0.00033   0.00033   2.05355
   R33        2.06368   0.00034   0.00000   0.00021   0.00021   2.06388
   R34        2.06281   0.00087   0.00000   0.00053   0.00053   2.06335
   R35        2.05355   0.00055   0.00000   0.00033   0.00033   2.05388
   R36        2.60993   0.02806   0.00000   0.01433   0.01439   2.62432
   R37        3.33388   0.01488   0.00000   0.01044   0.01049   3.34437
   R38        2.66237  -0.01053   0.00000  -0.00589  -0.00589   2.65648
   R39        2.03667   0.00190   0.00000   0.00113   0.00113   2.03779
   R40        3.30310   0.01884   0.00000   0.01207   0.01203   3.31513
   R41        2.64329  -0.02189   0.00000  -0.01190  -0.01196   2.63133
   R42        2.57003   0.01734   0.00000   0.00829   0.00829   2.57833
   R43        2.71206   0.00168   0.00000   0.00094   0.00094   2.71300
   R44        2.69208  -0.00620   0.00000  -0.00341  -0.00341   2.68868
   R45        2.63457   0.00630   0.00000   0.00326   0.00326   2.63783
   R46        3.32887   0.00528   0.00000   0.00349   0.00349   3.33236
   R47        2.06007   0.00090   0.00000   0.00054   0.00054   2.06062
   R48        2.07214   0.00005   0.00000   0.00003   0.00003   2.07217
   R49        2.07148  -0.00013   0.00000  -0.00008  -0.00008   2.07140
   R50        2.69158   0.00049   0.00000   0.00026   0.00026   2.69184
   R51        2.56619   0.00807   0.00000   0.00384   0.00384   2.57003
   R52        3.26285   0.00482   0.00000   0.00301   0.00301   3.26586
   R53        2.58692   0.00252   0.00000   0.00122   0.00122   2.58814
   R54        2.04294   0.00044   0.00000   0.00026   0.00026   2.04320
   R55        2.68912  -0.00910   0.00000  -0.00499  -0.00499   2.68413
   R56        2.04295  -0.00067   0.00000  -0.00040  -0.00040   2.04255
   R57        2.07380   0.00076   0.00000   0.00047   0.00047   2.07427
   R58        2.05931  -0.00020   0.00000  -0.00012  -0.00012   2.05919
   R59        2.07202   0.00115   0.00000   0.00070   0.00070   2.07272
    A1        2.03797  -0.00225   0.00000  -0.00224  -0.00225   2.03572
    A2        2.14521   0.00921   0.00000   0.00685   0.00686   2.15206
    A3        2.10001  -0.00696   0.00000  -0.00461  -0.00461   2.09540
    A4        2.10395   0.00821   0.00000   0.00683   0.00683   2.11078
    A5        2.08282  -0.01104   0.00000  -0.00596  -0.00593   2.07689
    A6        2.09624   0.00279   0.00000  -0.00092  -0.00096   2.09528
    A7        2.10093  -0.00848   0.00000  -0.00679  -0.00676   2.09417
    A8        2.07104  -0.00231   0.00000  -0.00272  -0.00280   2.06824
    A9        2.11118   0.01078   0.00000   0.00951   0.00955   2.12073
   A10        2.10296   0.00490   0.00000   0.00387   0.00386   2.10683
   A11        2.09911   0.00546   0.00000   0.00355   0.00351   2.10262
   A12        2.08110  -0.01036   0.00000  -0.00742  -0.00737   2.07373
   A13        2.03739  -0.00381   0.00000  -0.00245  -0.00247   2.03492
   A14        2.12972   0.01009   0.00000   0.00703   0.00704   2.13676
   A15        2.11607  -0.00629   0.00000  -0.00458  -0.00457   2.11150
   A16        2.15098   0.04392   0.00000   0.03039   0.03045   2.18143
   A17        2.04399  -0.02198   0.00000  -0.01527  -0.01529   2.02870
   A18        2.08722  -0.02207   0.00000  -0.01531  -0.01535   2.07187
   A19        2.11101   0.01462   0.00000   0.01075   0.01070   2.12171
   A20        2.04385  -0.03233   0.00000  -0.02394  -0.02390   2.01994
   A21        2.12832   0.01771   0.00000   0.01318   0.01320   2.14152
   A22        2.08678  -0.02962   0.00000  -0.01833  -0.01837   2.06841
   A23        2.04738  -0.06083   0.00000  -0.04211  -0.04196   2.00542
   A24        2.14662   0.09029   0.00000   0.06025   0.06015   2.20677
   A25        2.04892  -0.02979   0.00000  -0.01961  -0.01951   2.02941
   A26        2.00754  -0.17816   0.00000  -0.12715  -0.12718   1.88036
   A27        2.22643   0.20782   0.00000   0.14660   0.14652   2.37294
   A28        2.06022   0.02954   0.00000   0.02150   0.02163   2.08185
   A29        2.17370   0.03821   0.00000   0.02679   0.02671   2.20041
   A30        2.04919  -0.06783   0.00000  -0.04838  -0.04846   2.00073
   A31        2.01621  -0.01337   0.00000  -0.01092  -0.01108   2.00513
   A32        2.14188   0.01479   0.00000   0.01119   0.01127   2.15314
   A33        2.12500  -0.00148   0.00000  -0.00035  -0.00027   2.12473
   A34        2.10943   0.00954   0.00000   0.00730   0.00715   2.11658
   A35        2.11468   0.01703   0.00000   0.01298   0.01304   2.12772
   A36        2.05896  -0.02658   0.00000  -0.02029  -0.02021   2.03876
   A37        2.11176   0.00418   0.00000   0.00289   0.00284   2.11460
   A38        2.05670  -0.00134   0.00000  -0.00081  -0.00079   2.05591
   A39        2.11471  -0.00285   0.00000  -0.00208  -0.00206   2.11265
   A40        2.08567  -0.00512   0.00000  -0.00500  -0.00507   2.08061
   A41        2.07549   0.00345   0.00000   0.00325   0.00328   2.07877
   A42        2.12199   0.00167   0.00000   0.00175   0.00178   2.12377
   A43        2.20043   0.01681   0.00000   0.01031   0.01030   2.21073
   A44        2.02023  -0.00766   0.00000  -0.00463  -0.00463   2.01561
   A45        2.06252  -0.00915   0.00000  -0.00569  -0.00568   2.05684
   A46        2.18316   0.00142   0.00000   0.00078   0.00078   2.18393
   A47        2.02959   0.00014   0.00000   0.00021   0.00021   2.02980
   A48        2.07044  -0.00156   0.00000  -0.00099  -0.00099   2.06945
   A49        1.91737   0.00099   0.00000   0.00083   0.00083   1.91820
[...]
 Alpha  occ. eigenvalues --   -0.31795  -0.31441  -0.30231  -0.29849  -0.29610
 Alpha  occ. eigenvalues --   -0.29043  -0.28019  -0.27729  -0.27349  -0.26714
 Alpha  occ. eigenvalues --   -0.26249  -0.25505  -0.25206  -0.25117  -0.24406
 Alpha  occ. eigenvalues --   -0.23477  -0.22962  -0.22610  -0.22050  -0.21424
 Alpha  occ. eigenvalues --   -0.21318  -0.21010  -0.20858  -0.20328  -0.19864
 Alpha  occ. eigenvalues --   -0.19518  -0.19350  -0.18796  -0.18419  -0.18315
 Alpha  occ. eigenvalues --   -0.17919  -0.17811  -0.16706  -0.16492  -0.16322
 Alpha  occ. eigenvalues --   -0.15264  -0.14921  -0.14192  -0.12594  -0.11831
 Alpha  occ. eigenvalues --   -0.11392  -0.09642  -0.08498  -0.07308  -0.07071
 Alpha  occ. eigenvalues --   -0.06645  -0.06179  -0.05803  -0.05171  -0.04967
 Alpha  occ. eigenvalues --   -0.04709  -0.03300  -0.01827   0.00148   0.06418
 Alpha virt. eigenvalues --    0.12213   0.13029   0.13844   0.14646   0.15702
 Alpha virt. eigenvalues --    0.15997   0.16551   0.16587   0.16881   0.17447
 Alpha virt. eigenvalues --    0.17542   0.18111   0.18732   0.18951   0.19112
 Alpha virt. eigenvalues --    0.19177   0.19332   0.19555   0.19610   0.20487
 Alpha virt. eigenvalues --    0.20589   0.20786   0.20933   0.21142   0.21520
 Alpha virt. eigenvalues --    0.22013   0.22354   0.22523   0.22759   0.23028
 Alpha virt. eigenvalues --    0.23493   0.23621   0.23725   0.23997   0.24224
 Alpha virt. eigenvalues --    0.24508   0.24659   0.25094   0.25136   0.25287
 Alpha virt. eigenvalues --    0.25897   0.26105   0.26139   0.26562   0.26767
 Alpha virt. eigenvalues --    0.26826   0.26980   0.27378   0.27509   0.27894
 Alpha virt. eigenvalues --    0.28150   0.28395   0.28660   0.29125   0.29306
 Alpha virt. eigenvalues --    0.29537   0.29740   0.30086   0.30376   0.30779
 Alpha virt. eigenvalues --    0.30943   0.31155   0.31329   0.31771   0.31901
 Alpha virt. eigenvalues --    0.32172   0.32622   0.32846   0.32950   0.33233
 Alpha virt. eigenvalues --    0.33380   0.33813   0.33988   0.34136   0.34373
 Alpha virt. eigenvalues --    0.34561   0.34671   0.34890   0.35148   0.35252
 Alpha virt. eigenvalues --    0.35480   0.35709   0.35875   0.36137   0.36347
 Alpha virt. eigenvalues --    0.36563   0.36765   0.37182   0.37340   0.37692
 Alpha virt. eigenvalues --    0.37913   0.38079   0.38224   0.38514   0.38633
 Alpha virt. eigenvalues --    0.38889   0.39321   0.39396   0.39930   0.40019
 Alpha virt. eigenvalues --    0.40220   0.40354   0.40699   0.40964   0.41224
 Alpha virt. eigenvalues --    0.41614   0.41686   0.42084   0.42213   0.42405
 Alpha virt. eigenvalues --    0.42597   0.42851   0.42934   0.43213   0.43508
 Alpha virt. eigenvalues --    0.43932   0.43939   0.44082   0.44128   0.44464
 Alpha virt. eigenvalues --    0.44490   0.44842   0.44965   0.45321   0.45530
 Alpha virt. eigenvalues --    0.45623   0.45940   0.46170   0.46333   0.46470
 Alpha virt. eigenvalues --    0.46880   0.46985   0.47231   0.47286   0.47590
 Alpha virt. eigenvalues --    0.47925   0.47974   0.48315   0.48408   0.48708
 Alpha virt. eigenvalues --    0.48897   0.49075   0.49166   0.49646   0.49728
 Alpha virt. eigenvalues --    0.50141   0.50227   0.50308   0.50602   0.50740
 Alpha virt. eigenvalues --    0.51080   0.51301   0.51581   0.51720   0.52109
 Alpha virt. eigenvalues --    0.52536   0.52683   0.52794   0.53143   0.53333
 Alpha virt. eigenvalues --    0.53750   0.54128   0.54293   0.54899   0.55059
 Alpha virt. eigenvalues --    0.55274   0.55760   0.56112   0.56268   0.56741
 Alpha virt. eigenvalues --    0.57068   0.57236   0.57845   0.58309   0.58548
 Alpha virt. eigenvalues --    0.59158   0.59514   0.59930   0.60125   0.60288
 Alpha virt. eigenvalues --    0.60527   0.60617   0.61057   0.61430   0.61721
 Alpha virt. eigenvalues --    0.62372   0.62624   0.63061   0.63469   0.64009
 Alpha virt. eigenvalues --    0.64226   0.64322   0.64658   0.64949   0.65969
 Alpha virt. eigenvalues --    0.66229   0.66496   0.67434   0.67838   0.67950
 Alpha virt. eigenvalues --    0.68690   0.69108   0.69905   0.70328   0.71100
 Alpha virt. eigenvalues --    0.71265   0.71415   0.72451   0.72700   0.73482
 Alpha virt. eigenvalues --    0.73622   0.73999   0.74550   0.74939   0.75124
 Alpha virt. eigenvalues --    0.75394   0.75933   0.76576   0.77115   0.77743
 Alpha virt. eigenvalues --    0.78018   0.78105   0.78507   0.78775   0.79461
 Alpha virt. eigenvalues --    0.80041   0.80339   0.80703   0.81172   0.81502
 Alpha virt. eigenvalues --    0.81570   0.82244   0.82718   0.82963   0.83517
 Alpha virt. eigenvalues --    0.83905   0.84082   0.84597   0.84927   0.85536
 Alpha virt. eigenvalues --    0.85738   0.85902   0.85996   0.86660   0.86902
 Alpha virt. eigenvalues --    0.87348   0.87439   0.88081   0.88401   0.88742
 Alpha virt. eigenvalues --    0.88916   0.89576   0.89857   0.90168   0.90770
 Alpha virt. eigenvalues --    0.90903   0.91785   0.91966   0.92161   0.92707
 Alpha virt. eigenvalues --    0.92900   0.93153   0.93659   0.94001   0.94471
 Alpha virt. eigenvalues --    0.94677   0.95281   0.95294   0.95486   0.95718
 Alpha virt. eigenvalues --    0.95938   0.96343   0.96747   0.96933   0.97452
 Alpha virt. eigenvalues --    0.97584   0.97793   0.98471   0.98758   0.99735
 Alpha virt. eigenvalues --    0.99819   1.00073   1.00674   1.01352   1.01899
 Alpha virt. eigenvalues --    1.02201   1.03716   1.04118   1.05184   1.06033
 Alpha virt. eigenvalues --    1.06383   1.06707   1.06821   1.07412   1.08034
 Alpha virt. eigenvalues --    1.09483   1.09870   1.10075   1.11435   1.11727
 Alpha virt. eigenvalues --    1.12253   1.12665   1.13531   1.13854   1.14420
 Alpha virt. eigenvalues --    1.14844   1.15241   1.15605   1.16002   1.16202
 Alpha virt. eigenvalues --    1.16801   1.17214   1.17265   1.17872   1.18532
 Alpha virt. eigenvalues --    1.18896   1.19193   1.19485   1.19649   1.20189
 Alpha virt. eigenvalues --    1.20980   1.21616   1.21678   1.22403   1.22664
 Alpha virt. eigenvalues --    1.23136   1.23661   1.23812   1.24473   1.25052
 Alpha virt. eigenvalues --    1.25236   1.25342   1.25584   1.26290   1.27131
 Alpha virt. eigenvalues --    1.27775   1.27939   1.28390   1.28869   1.29611
 Alpha virt. eigenvalues --    1.29906   1.30658   1.31414   1.32112   1.32885
 Alpha virt. eigenvalues --    1.33083   1.33279   1.34435   1.35288   1.35761
 Alpha virt. eigenvalues --    1.37033   1.37436   1.37963   1.39452   1.40071
 Alpha virt. eigenvalues --    1.40517   1.40666   1.41144   1.42417   1.43133
 Alpha virt. eigenvalues --    1.43616   1.43845   1.44350   1.44977   1.45716
 Alpha virt. eigenvalues --    1.46345   1.46399   1.47252   1.48192   1.49018
 Alpha virt. eigenvalues --    1.49769   1.49920   1.50524   1.51340   1.51826
 Alpha virt. eigenvalues --    1.51962   1.52262   1.52872   1.54053   1.56000
 Alpha virt. eigenvalues --    1.56206   1.56672   1.57659   1.58349   1.58760
 Alpha virt. eigenvalues --    1.60032   1.60308   1.61664   1.62867   1.63166
 Alpha virt. eigenvalues --    1.63478   1.64175   1.65279   1.65404   1.65714
 Alpha virt. eigenvalues --    1.65907   1.66837   1.66888   1.68425   1.68479
 Alpha virt. eigenvalues --    1.68994   1.69638   1.69902   1.70395   1.71238
 Alpha virt. eigenvalues --    1.71769   1.72298   1.72874   1.73035   1.73301
 Alpha virt. eigenvalues --    1.74375   1.74532   1.74622   1.75573   1.75675
 Alpha virt. eigenvalues --    1.76102   1.76698   1.76862   1.77543   1.78293
 Alpha virt. eigenvalues --    1.78595   1.78980   1.80331   1.80982   1.81040
 Alpha virt. eigenvalues --    1.81652   1.82009   1.82957   1.83402   1.83983
 Alpha virt. eigenvalues --    1.84574   1.85578   1.85967   1.86509   1.87432
 Alpha virt. eigenvalues --    1.88147   1.88205   1.88798   1.89467   1.89818
 Alpha virt. eigenvalues --    1.90864   1.91615   1.92732   1.92927   1.93173
 Alpha virt. eigenvalues --    1.93632   1.94450   1.94908   1.95463   1.96111
 Alpha virt. eigenvalues --    1.96289   1.96857   1.97792   1.98762   1.99317
 Alpha virt. eigenvalues --    2.00136   2.00379   2.01212   2.02023   2.02102
 Alpha virt. eigenvalues --    2.03075   2.03836   2.03911   2.06251   2.07937
 Alpha virt. eigenvalues --    2.08037   2.08235   2.08639   2.09675   2.10577
 Alpha virt. eigenvalues --    2.10795   2.11432   2.12127   2.12363   2.12591
 Alpha virt. eigenvalues --    2.13208   2.13383   2.14521   2.15860   2.16573
 Alpha virt. eigenvalues --    2.17920   2.18212   2.18769   2.18975   2.20054
 Alpha virt. eigenvalues --    2.20970   2.21584   2.21793   2.22545   2.22825
 Alpha virt. eigenvalues --    2.23364   2.23723   2.24262   2.24623   2.24979
 Alpha virt. eigenvalues --    2.25486   2.26318   2.26508   2.26967   2.27611
 Alpha virt. eigenvalues --    2.28964   2.29798   2.30396   2.31121   2.31662
 Alpha virt. eigenvalues --    2.32122   2.32564   2.34562   2.35435   2.36176
 Alpha virt. eigenvalues --    2.36733   2.37519   2.38977   2.39658   2.40145
 Alpha virt. eigenvalues --    2.40993   2.42210   2.42955   2.43553   2.44465
 Alpha virt. eigenvalues --    2.45695   2.47449   2.49301   2.51023   2.51723
 Alpha virt. eigenvalues --    2.55148   2.55311   2.56027   2.57783   2.58693
 Alpha virt. eigenvalues --    2.59129   2.59715   2.60366   2.60589   2.61261
 Alpha virt. eigenvalues --    2.61967   2.62872   2.63599   2.64467   2.65435
 Alpha virt. eigenvalues --    2.66307   2.67354   2.67997   2.68123   2.69026
 Alpha virt. eigenvalues --    2.70017   2.71057   2.71528   2.72132   2.72565
 Alpha virt. eigenvalues --    2.73044   2.74949   2.75825   2.75895   2.76061
 Alpha virt. eigenvalues --    2.78261   2.78544   2.80260   2.80538   2.82451
 Alpha virt. eigenvalues --    2.82952   2.83526   2.84598   2.85697   2.86230
 Alpha virt. eigenvalues --    2.87369   2.88019   2.88086   2.88785   2.89522
 Alpha virt. eigenvalues --    2.90009   2.90619   2.91142   2.92014   2.93216
 Alpha virt. eigenvalues --    2.94050   2.94427   2.95169   2.95477   2.96047
 Alpha virt. eigenvalues --    2.96532   2.98902   2.99637   3.00231   3.00972
 Alpha virt. eigenvalues --    3.01107   3.02751   3.03580   3.03957   3.05773
 Alpha virt. eigenvalues --    3.06237   3.06597   3.07568   3.08873   3.09567
 Alpha virt. eigenvalues --    3.10254   3.11789   3.12147   3.12557   3.13305
 Alpha virt. eigenvalues --    3.13615   3.14527   3.14855   3.14970   3.15280
 Alpha virt. eigenvalues --    3.15912   3.16724   3.17524   3.19059   3.19969
 Alpha virt. eigenvalues --    3.20281   3.20966   3.23088   3.24440   3.27423
 Alpha virt. eigenvalues --    3.28106   3.29026   3.30281   3.31096   3.31642
 Alpha virt. eigenvalues --    3.32529   3.34001   3.35534   3.37014   3.38604
 Alpha virt. eigenvalues --    3.39463   3.40297   3.41027   3.41802   3.42159
 Alpha virt. eigenvalues --    3.42710   3.44234   3.45280   3.47495   3.48145
 Alpha virt. eigenvalues --    3.49552   3.50889   3.52136   3.52793   3.54200
 Alpha virt. eigenvalues --    3.55394   3.56134   3.56476   3.56698   3.58601
 Alpha virt. eigenvalues --    3.60402   3.60878   3.61329   3.62439   3.62678
 Alpha virt. eigenvalues --    3.63917   3.64799   3.67338   3.68681   3.70574
 Alpha virt. eigenvalues --    3.72711   3.73793   3.75193   3.80327   3.81730
 Alpha virt. eigenvalues --    3.82785   3.83712   3.86913   3.87895   3.88816
 Alpha virt. eigenvalues --    3.91353   3.91714   3.91996   3.92194   3.93060
 Alpha virt. eigenvalues --    3.94304   3.96458   3.98052   4.00298   4.02837
 Alpha virt. eigenvalues --    4.06851   4.08205   4.11831   4.14429   4.15003
 Alpha virt. eigenvalues --    4.16192   4.17865   4.18444   4.19547   4.21167
 Alpha virt. eigenvalues --    4.25224   4.26438   4.28583   4.32126   4.36382
 Alpha virt. eigenvalues --    4.38848   4.42923   4.49583   4.51457   4.60072
 Alpha virt. eigenvalues --    4.63203   4.65624   4.71847   4.88748   5.05339
 Alpha virt. eigenvalues --    5.07370   5.10385   5.13472   5.19952   5.27580
 Alpha virt. eigenvalues --    5.29317   5.30294   5.33489   5.35434   5.36131
 Alpha virt. eigenvalues --    5.36836   5.47818   5.50307   5.51546   5.53353
 Alpha virt. eigenvalues --    5.55730   5.60300   5.91365   5.95872   5.98313
 Alpha virt. eigenvalues --    6.02768   6.04658   6.07238   8.18230   8.24951
 Alpha virt. eigenvalues --   17.46646  17.54808  17.66709  17.70041  17.78774
 Alpha virt. eigenvalues --   17.83595  23.69964  23.77578  23.89677  23.99653
 Alpha virt. eigenvalues --   24.02953  24.05780  24.06642  24.08064  24.08793
 Alpha virt. eigenvalues --   24.10066  24.11648  24.13143  24.14201  24.14847
 Alpha virt. eigenvalues --   24.15946  24.16793  24.19594  24.20043  24.21849
 Alpha virt. eigenvalues --   24.22467  24.24243  24.25802  24.29688  24.32426
 Alpha virt. eigenvalues --   24.34399  24.41869  35.78134  35.80893  50.12854
 Alpha virt. eigenvalues --   50.14524  50.25294  50.27406  50.28685  50.30058
 Alpha virt. eigenvalues --  189.35633 189.42869
          Condensed to atoms (all electrons):
 Mulliken charges:
               1
     1  C    0.240503
     2  C   -0.089778
     3  C    0.153288
     4  C    0.233768
     5  C    0.105654
     6  C    0.111393
     7  C    0.064444
     8  C    0.260257
     9  C    0.283267
    10  C   -0.721761
    11  C    0.171303
    12  C    0.105067
    13  C   -0.491272
    14  C   -0.583555
    15  H    0.103178
    16  H    0.107937
    17  H    0.123536
    18  N   -0.034215
    19  N   -0.137978
    20  O   -0.428135
    21  O   -0.402999
    22  O   -0.421202
    23  O   -0.351575
    24  C   -0.153520
    25  H    0.133915
    26  H    0.140901
    27  H    0.156067
    28  C   -0.180278
    29  H    0.135200
    30  H    0.134802
    31  H    0.156918
    32  C    0.159778
    33  C   -0.553119
    34  S   -0.839932
    35  C   -0.593006
    36  H    0.109904
    37  C    0.665350
    38  O   -0.129702
    39  C    0.461172
    40  C   -0.231745
    41  C    0.005433
    42  S   -0.355143
    43  H    0.132464
    44  H    0.133112
    45  H    0.142898
    46  C   -0.017569
    47  O   -0.139606
    48  C   -0.219981
    49  H    0.092632
    50  C   -0.300105
    51  H    0.118395
    52  H    0.100078
    53  H    0.145744
    54  H    0.187818
 Sum of Mulliken charges =  -2.00000
 Mulliken charges with hydrogens summed into heavy atoms:
               1
     1  C    0.240503
     2  C   -0.089778
     3  C    0.153288
     4  C    0.233768
     5  C    0.105654
     6  C    0.234930
     7  C    0.064444
     8  C    0.260257
     9  C    0.283267
    10  C   -0.721761
    11  C    0.171303
    12  C    0.105067
    13  C   -0.383336
    14  C   -0.480378
    18  N   -0.034215
    19  N   -0.137978
    20  O   -0.428135
    21  O   -0.402999
    22  O   -0.421202
    23  O   -0.351575
    24  C    0.277363
    28  C    0.246642
    32  C    0.159778
    33  C   -0.443215
    34  S   -0.839932
    35  C   -0.593006
    37  C    0.665350
    38  O   -0.129702
    39  C    0.461172
    40  C    0.176729
    41  C    0.005433
    42  S   -0.355143
    46  C    0.075063
    47  O   -0.139606
    48  C   -0.101586
    50  C    0.133535
 Electronic spatial extent (au):  <R**2>=          22205.1402
 Charge=             -2.0000 electrons
 Dipole moment (field-independent basis, Debye):
    X=             13.9732    Y=             -3.4961    Z=              1.6622  Tot=             14.4996
 Quadrupole moment (field-independent basis, Debye-Ang):
   XX=           -420.9370   YY=           -303.1348   ZZ=           -242.4458
   XY=              6.1850   XZ=             -4.4588   YZ=             -3.0782
 Traceless Quadrupole moment (field-independent basis, Debye-Ang):
   XX=            -98.7645   YY=             19.0377   ZZ=             79.7268
   XY=              6.1850   XZ=             -4.4588   YZ=             -3.0782
 Octapole moment (field-independent basis, Debye-Ang**2):
  XXX=            481.4516  YYY=           -126.6709  ZZZ=              9.8621  XYY=            244.8416
  XXY=             63.7044  XXZ=            121.7997  XZZ=             -5.9320  YZZ=            -16.1272
  YYZ=             11.5006  XYZ=             -2.2727
 Hexadecapole moment (field-independent basis, Debye-Ang**3):
 XXXX=         -29377.8196 YYYY=          -9228.8687 ZZZZ=           -862.5167 XXXY=           -163.1422
 XXXZ=           -441.7532 YYYX=            403.3365 YYYZ=              2.8210 ZZZX=             39.3005
 ZZZY=             -8.8471 XXYY=          -5932.1006 XXZZ=          -4187.1803 YYZZ=          -1471.1018
 XXYZ=            -66.2302 YYXZ=             35.9969 ZZXY=              0.4506
 N-N= 4.112545875118D+03 E-N=-1.382335608446D+04  KE= 2.352089960440D+03
 Unable to Open any file for archive entry.
 1\1\GINC-CX3-6-17\FOpt\RB3LYP\6-311+G(d,p)\C26H18N2O6S2(2-)\NS5018\08-
 Oct-2021\0\\# opt=modredundant b3lyp/6-311+g(d,p)\\NDI_170.pdb\\-2,1\C
 ,-2.3678620461,-2.8266274564,-0.4069955204\C,-2.1590192626,-1.42555270
 22,-0.1405142684\C,-3.251649393,-0.5132019126,-0.1734166049\C,-4.55890
 86581,-0.9534665764,-0.4636863818\C,-4.8152275344,-2.3502728574,-0.737
 911248\C,-0.8530307662,-0.9489561953,0.0696179868\C,-2.9926403908,0.87
 83482893,0.1154594484\C,-1.6676103968,1.3222036198,0.4181026273\C,-0.5
 466028216,0.3819695348,0.3190069961\C,-1.517093671,2.6388696059,0.9672
 097614\C,-3.9368551364,3.1474400768,0.491244579\C,-4.105138245,1.76266
 46107,0.1303394622\C,-5.4150061737,1.2900658649,-0.1816016145\C,-5.643
 3121565,-0.0236922137,-0.4750683857\H,-6.6335252,-0.3963572411,-0.7064
 443516\H,-6.2191247669,2.0161871887,-0.1642461361\H,-0.0652270028,-1.6
 776490189,-0.0615526269\N,-2.6426528847,3.5014211412,0.8982493623\N,-3
 .6956139685,-3.2112432529,-0.687871389\O,-1.4823983754,-3.7041814275,-
 0.4068711334\O,-5.9386906684,-2.817940814,-1.0040729379\O,-4.851125928
 5,3.999094215,0.4874850394\O,-0.4897081108,3.0921533221,1.5143802506\C
 ,-2.4264168254,4.8609428778,1.3803690765\H,-2.2330631795,4.8622170051,
 2.4576211967\H,-1.5503244075,5.2912774607,0.8917648885\H,-3.3247484322
 ,5.431886653,1.15854773\C,-3.9065806202,-4.6297550568,-0.9533500317\H,
 -3.3242703028,-4.9430293548,-1.8242144752\H,-3.5671469097,-5.225993746
 6,-0.1025043664\H,-4.9693581627,-4.7751626676,-1.1296757051\C,0.869671
 9147,0.7221448451,0.2470333657\C,1.9377496187,-0.1775149972,0.34923464
 49\S,1.4812094516,2.2790582455,-0.2816999649\C,3.1817316739,0.36673005
 02,0.0092261021\H,1.8000370968,-1.1953960789,0.6792892592\C,3.15443022
 ,1.7062585813,-0.3799134337\O,4.3883709895,-0.2949090794,0.0599096452\
 C,4.2550984978,2.564552528,-0.6901681802\C,4.3646643356,-1.6564182333,
 0.4422214662\C,4.2703072939,3.9351060628,-0.9550829537\S,5.9186558873,
 1.9579825109,-0.8322779677\H,5.3992562086,-2.00141771,0.4025876431\H,3
 .9787902591,-1.7809939958,1.461224857\H,3.7535727478,-2.2555943633,-0.
 2428376466\C,5.5474100456,4.4688618784,-1.2700102172\O,3.1327475747,4.
 7166093437,-0.9796356255\C,6.5443280296,3.5352761144,-1.2480039276\H,5
 .6923865725,5.5153490843,-1.5109938965\C,2.8058025363,5.3448436549,0.2
 642852328\H,7.5974543187,3.6629525956,-1.4461618985\H,3.6133819689,6.0
 183860938,0.5813583931\H,1.8932883523,5.9160899279,0.0910491925\H,2.60
 95868042,4.6033839699,1.042964682\\Version=ES64L-G16RevC.01\State=1-A\
 HF=-2359.3977059\RMSD=3.839e-09\RMSF=5.006e-04\Dipole=5.6321648,0.8423
 08,0.3335854\Quadrupole=-63.0600014,5.211587,57.8484145,-29.0404592,3.
 6469447,-7.6468206\PG=C01 [X(C26H18N2O6S2)]\\@
 The archive entry for this job was punched.


 TO BEHOLD HARMS OF OUR OWN HANDS DOING,
 WHERE NONE BESIDE US WROUGHT,
 CAUSES SHARP RUING...

                                         SOPHOCLES
 Job cpu time:       6 days 17 hours 57 minutes 46.3 seconds.
 Elapsed time:       0 days 20 hours 27 minutes 24.7 seconds.
 File lengths (MBytes):  RWF=    537 Int=      0 D2E=      0 Chk=     83 Scr=      1
 Normal termination of Gaussian 16 at Fri Oct  8 21:32:10 2021.
