 Entering Gaussian System, Link 0=g16
 Input=NDI_-165.gjf
 Output=NDI_-165.log
 Initial command:
 /apps/gaussian/g16-c01-avx/g16/l1.exe "/tmp/pbs.4643763[10].pbs/Gau-3242661.inp" -scrdir="/tmp/pbs.4643763[10].pbs/"
 Entering Link 1 = /apps/gaussian/g16-c01-avx/g16/l1.exe PID=   3242662.
  
 Copyright (c) 1988-2019, Gaussian, Inc.  All Rights Reserved.
  
 This is part of the Gaussian(R) 16 program.  It is based on
 the Gaussian(R) 09 system (copyright 2009, Gaussian, Inc.),
 the Gaussian(R) 03 system (copyright 2003, Gaussian, Inc.),
 the Gaussian(R) 98 system (copyright 1998, Gaussian, Inc.),
 the Gaussian(R) 94 system (copyright 1995, Gaussian, Inc.),
 the Gaussian 92(TM) system (copyright 1992, Gaussian, Inc.),
 the Gaussian 90(TM) system (copyright 1990, Gaussian, Inc.),
 the Gaussian 88(TM) system (copyright 1988, Gaussian, Inc.),
 the Gaussian 86(TM) system (copyright 1986, Carnegie Mellon
 University), and the Gaussian 82(TM) system (copyright 1983,
 Carnegie Mellon University). Gaussian is a federally registered
 trademark of Gaussian, Inc.
  
 This software contains proprietary and confidential information,
 including trade secrets, belonging to Gaussian, Inc.
  
 This software is provided under written license and may be
 used, copied, transmitted, or stored only in accord with that
 written license.
  
 The following legend is applicable only to US Government
 contracts under FAR:
  
                    RESTRICTED RIGHTS LEGEND
  
 Use, reproduction and disclosure by the US Government is
 subject to restrictions as set forth in subparagraphs (a)
 and (c) of the Commercial Computer Software - Restricted
 Rights clause in FAR 52.227-19.
  
 Gaussian, Inc.
 340 Quinnipiac St., Bldg. 40, Wallingford CT 06492
  
  
 ---------------------------------------------------------------
 Warning -- This program may not be used in any manner that
 competes with the business of Gaussian, Inc. or will provide
 assistance to any competitor of Gaussian, Inc.  The licensee
 of this program is prohibited from giving any competitor of
 Gaussian, Inc. access to this program.  By using this program,
 the user acknowledges that Gaussian, Inc. is engaged in the
 business of creating and licensing software in the field of
 computational chemistry and represents and warrants to the
 licensee that it is not a competitor of Gaussian, Inc. and that
 it will not use this program in any manner prohibited above.
 ---------------------------------------------------------------
  

 Cite this work as:
 Gaussian 16, Revision C.01,
 M. J. Frisch, G. W. Trucks, H. B. Schlegel, G. E. Scuseria, 
 M. A. Robb, J. R. Cheeseman, G. Scalmani, V. Barone, 
 G. A. Petersson, H. Nakatsuji, X. Li, M. Caricato, A. V. Marenich, 
 J. Bloino, B. G. Janesko, R. Gomperts, B. Mennucci, H. P. Hratchian, 
 J. V. Ortiz, A. F. Izmaylov, J. L. Sonnenberg, D. Williams-Young, 
 F. Ding, F. Lipparini, F. Egidi, J. Goings, B. Peng, A. Petrone, 
 T. Henderson, D. Ranasinghe, V. G. Zakrzewski, J. Gao, N. Rega, 
 G. Zheng, W. Liang, M. Hada, M. Ehara, K. Toyota, R. Fukuda, 
 J. Hasegawa, M. Ishida, T. Nakajima, Y. Honda, O. Kitao, H. Nakai, 
 T. Vreven, K. Throssell, J. A. Montgomery, Jr., J. E. Peralta, 
 F. Ogliaro, M. J. Bearpark, J. J. Heyd, E. N. Brothers, K. N. Kudin, 
 V. N. Staroverov, T. A. Keith, R. Kobayashi, J. Normand, 
 K. Raghavachari, A. P. Rendell, J. C. Burant, S. S. Iyengar, 
 J. Tomasi, M. Cossi, J. M. Millam, M. Klene, C. Adamo, R. Cammi, 
 J. W. Ochterski, R. L. Martin, K. Morokuma, O. Farkas, 
 J. B. Foresman, and D. J. Fox, Gaussian, Inc., Wallingford CT, 2019.
 
 ******************************************
 Gaussian 16:  ES64L-G16RevC.01  3-Jul-2019
                 5-Oct-2021 
 ******************************************
 %mem=10GB
 %nprocshared=8
 Will use up to    8 processors via shared memory.
 -------------------------------------
 # opt=modredundant b3lyp/6-311+g(d,p)
 -------------------------------------
 1/18=120,19=15,26=3,38=1/1,3;
 2/9=110,12=2,17=6,18=5,40=1/2;
 3/5=4,6=6,7=111,11=2,25=1,30=1,71=1,74=-5/1,2,3;
 4//1;
 5/5=2,38=5/2;
 6/7=2,8=2,9=2,10=2,28=1/1;
 7//1,2,3,16;
 1/18=20,19=15,26=3/3(2);
 2/9=110/2;
 99//99;
 2/9=110/2;
 3/5=4,6=6,7=111,11=2,25=1,30=1,71=1,74=-5/1,2,3;
 4/5=5,16=3,69=1/1;
 5/5=2,38=5/2;
 7//1,2,3,16;
 1/18=20,19=15,26=3/3(-5);
 2/9=110/2;
 6/7=2,8=2,9=2,10=2,19=2,28=1/1;
 99/9=1/99;
 ------------
 NDI_-165.pdb
 ------------
 Symbolic Z-matrix:
 Charge = -2 Multiplicity = 1
 C                    -2.563    -2.994    -0.409 
 C                    -2.257    -1.551    -0.224 
 C                    -3.301    -0.607    -0.083 
 C                    -4.65     -1.024    -0.115 
 C                    -4.992    -2.459    -0.304 
 C                    -0.949    -1.137    -0.215 
 C                    -2.962     0.764     0.102 
 C                    -1.595     1.188     0.123 
 C                    -0.561     0.232    -0.072 
 C                    -1.328     2.616     0.446 
 C                    -3.777     3.115     0.508 
 C                    -4.035     1.679     0.268 
 C                    -5.356     1.252     0.23 
 C                    -5.672    -0.098     0.036 
 H                    -6.699    -0.442     0.008 
 H                    -6.133     1.997     0.361 
 H                    -0.19     -1.895    -0.369 
 N                    -2.432     3.476     0.608 
 N                    -3.916    -3.353    -0.438 
 O                    -1.695    -3.847    -0.532 
 O                    -6.149    -2.85     -0.34 
 O                    -4.676     3.938     0.629 
 O                    -0.212     3.097     0.596 
 C                    -2.111     4.875     0.912 
 H                    -1.54      4.931     1.84 
 H                    -1.5       5.299     0.111 
 H                    -3.05      5.414     1.003 
 C                    -4.206    -4.779    -0.625 
 H                    -3.759    -5.126    -1.559 
 H                    -3.775    -5.355     0.196 
 H                    -5.286    -4.897    -0.649 
 C                     0.876     0.482    -0.178 
 C                     1.903    -0.324    -0.63 
 S                     1.53      1.978     0.489 
 C                     3.181     0.241    -0.453 
 H                     1.733    -1.288    -1.081 
 C                     3.177     1.509     0.137 
 O                     4.37     -0.324    -0.797 
 C                     4.304     2.355     0.408 
 C                     4.33     -1.548    -1.523 
 C                     4.3       3.608     1.017 
 S                     5.958     1.915    -0.011 
 H                     5.366    -1.786    -1.768 
 H                     3.906    -2.357    -0.915 
 H                     3.747    -1.443    -2.446 
 C                     5.59      4.199     1.144 
 O                     3.12      4.146     1.422 
 C                     6.572     3.396     0.631 
 H                     5.779     5.166     1.59 
 C                     3.151     5.411     2.073 
 H                     7.635     3.596     0.599 
 H                     3.552     6.189     1.411 
 H                     2.117     5.647     2.322 
 H                     3.749     5.371     2.991 
 
 The following ModRedundant input section has been read:
 D       8       9      32      33 F                                           
 

 GradGradGradGradGradGradGradGradGradGradGradGradGradGradGradGradGradGrad
 Berny optimization.
 Initialization pass.
                           ----------------------------
                           !    Initial Parameters    !
                           ! (Angstroms and Degrees)  !
 --------------------------                            --------------------------
 ! Name  Definition              Value          Derivative Info.                !
 --------------------------------------------------------------------------------
 ! R1    R(1,2)                  1.4866         estimate D2E/DX2                !
 ! R2    R(1,19)                 1.4001         estimate D2E/DX2                !
 ! R3    R(1,20)                 1.2232         estimate D2E/DX2                !
 ! R4    R(2,3)                  1.4146         estimate D2E/DX2                !
 ! R5    R(2,6)                  1.372          estimate D2E/DX2                !
 ! R6    R(3,4)                  1.4123         estimate D2E/DX2                !
 ! R7    R(3,7)                  1.4244         estimate D2E/DX2                !
 ! R8    R(4,5)                  1.4872         estimate D2E/DX2                !
 ! R9    R(4,14)                 1.3874         estimate D2E/DX2                !
 ! R10   R(5,19)                 1.4053         estimate D2E/DX2                !
 ! R11   R(5,21)                 1.2218         estimate D2E/DX2                !
 ! R12   R(6,9)                  1.4301         estimate D2E/DX2                !
 ! R13   R(6,17)                 1.0837         estimate D2E/DX2                !
 ! R14   R(7,8)                  1.4314         estimate D2E/DX2                !
 ! R15   R(7,12)                 1.4199         estimate D2E/DX2                !
 ! R16   R(8,9)                  1.4217         estimate D2E/DX2                !
 ! R17   R(8,10)                 1.4882         estimate D2E/DX2                !
 ! R18   R(9,32)                 1.4624         estimate D2E/DX2                !
 ! R19   R(10,18)                1.4088         estimate D2E/DX2                !
 ! R20   R(10,23)                1.2245         estimate D2E/DX2                !
 ! R21   R(11,12)                1.4786         estimate D2E/DX2                !
 ! R22   R(11,18)                1.3962         estimate D2E/DX2                !
 ! R23   R(11,22)                1.2248         estimate D2E/DX2                !
 ! R24   R(12,13)                1.3888         estimate D2E/DX2                !
 ! R25   R(13,14)                1.4            estimate D2E/DX2                !
 ! R26   R(13,16)                1.0844         estimate D2E/DX2                !
 ! R27   R(14,15)                1.0834         estimate D2E/DX2                !
 ! R28   R(18,24)                1.4672         estimate D2E/DX2                !
 ! R29   R(19,28)                1.4672         estimate D2E/DX2                !
 ! R30   R(24,25)                1.091          estimate D2E/DX2                !
 ! R31   R(24,26)                1.093          estimate D2E/DX2                !
 ! R32   R(24,27)                1.0865         estimate D2E/DX2                !
 ! R33   R(28,29)                1.0921         estimate D2E/DX2                !
 ! R34   R(28,30)                1.0916         estimate D2E/DX2                !
 ! R35   R(28,31)                1.0867         estimate D2E/DX2                !
 ! R36   R(32,33)                1.3815         estimate D2E/DX2                !
 ! R37   R(32,34)                1.7637         estimate D2E/DX2                !
 ! R38   R(33,35)                1.4085         estimate D2E/DX2                !
 ! R39   R(33,36)                1.0778         estimate D2E/DX2                !
 ! R40   R(34,37)                1.7483         estimate D2E/DX2                !
 ! R41   R(35,37)                1.3985         estimate D2E/DX2                !
 ! R42   R(35,38)                1.3606         estimate D2E/DX2                !
 ! R43   R(37,39)                1.435          estimate D2E/DX2                !
 ! R44   R(38,40)                1.4237         estimate D2E/DX2                !
 ! R45   R(39,41)                1.3932         estimate D2E/DX2                !
 ! R46   R(39,42)                1.7621         estimate D2E/DX2                !
 ! R47   R(40,43)                1.0909         estimate D2E/DX2                !
 ! R48   R(40,44)                1.0972         estimate D2E/DX2                !
 ! R49   R(40,45)                1.0967         estimate D2E/DX2                !
 ! R50   R(41,46)                1.4246         estimate D2E/DX2                !
 ! R51   R(41,47)                1.3586         estimate D2E/DX2                !
 ! R52   R(42,48)                1.727          estimate D2E/DX2                !
 ! R53   R(46,48)                1.3683         estimate D2E/DX2                !
 ! R54   R(46,49)                1.0815         estimate D2E/DX2                !
 ! R55   R(47,50)                1.423          estimate D2E/DX2                !
 ! R56   R(48,51)                1.0821         estimate D2E/DX2                !
 ! R57   R(50,52)                1.0974         estimate D2E/DX2                !
 ! R58   R(50,53)                1.0894         estimate D2E/DX2                !
 ! R59   R(50,54)                1.0963         estimate D2E/DX2                !
 ! A1    A(2,1,19)             116.767          estimate D2E/DX2                !
 ! A2    A(2,1,20)             122.9113         estimate D2E/DX2                !
 ! A3    A(19,1,20)            120.3217         estimate D2E/DX2                !
 ! A4    A(1,2,3)              120.5473         estimate D2E/DX2                !
 ! A5    A(1,2,6)              119.3369         estimate D2E/DX2                !
 ! A6    A(3,2,6)              120.1056         estimate D2E/DX2                !
 ! A7    A(2,3,4)              120.3743         estimate D2E/DX2                !
 ! A8    A(2,3,7)              118.662          estimate D2E/DX2                !
 ! A9    A(4,3,7)              120.9617         estimate D2E/DX2                !
 ! A10   A(3,4,5)              120.4909         estimate D2E/DX2                !
 ! A11   A(3,4,14)             120.2702         estimate D2E/DX2                !
 ! A12   A(5,4,14)             119.2382         estimate D2E/DX2                !
 ! A13   A(4,5,19)             116.7341         estimate D2E/DX2                !
 ! A14   A(4,5,21)             122.024          estimate D2E/DX2                !
 ! A15   A(19,5,21)            121.2418         estimate D2E/DX2                !
 ! A16   A(2,6,9)              123.2421         estimate D2E/DX2                !
 ! A17   A(2,6,17)             117.1119         estimate D2E/DX2                !
 ! A18   A(9,6,17)             119.589          estimate D2E/DX2                !
 ! A19   A(3,7,8)              120.9519         estimate D2E/DX2                !
 ! A20   A(3,7,12)             117.1037         estimate D2E/DX2                !
 ! A21   A(8,7,12)             121.944          estimate D2E/DX2                !
 ! A22   A(7,8,9)              119.5639         estimate D2E/DX2                !
 ! A23   A(7,8,10)             117.3064         estimate D2E/DX2                !
 ! A24   A(9,8,10)             122.9922         estimate D2E/DX2                !
 ! A25   A(6,9,8)              117.3944         estimate D2E/DX2                !
 ! A26   A(6,9,32)             115.0236         estimate D2E/DX2                !
 ! A27   A(8,9,32)             127.5648         estimate D2E/DX2                !
 ! A28   A(8,10,18)            118.042          estimate D2E/DX2                !
 ! A29   A(8,10,23)            124.5436         estimate D2E/DX2                !
 ! A30   A(18,10,23)           117.4097         estimate D2E/DX2                !
 ! A31   A(12,11,18)           115.5202         estimate D2E/DX2                !
 ! A32   A(12,11,22)           122.7205         estimate D2E/DX2                !
 ! A33   A(18,11,22)           121.7534         estimate D2E/DX2                !
 ! A34   A(7,12,11)            120.8614         estimate D2E/DX2                !
 ! A35   A(7,12,13)            121.162          estimate D2E/DX2                !
 ! A36   A(11,12,13)           117.9699         estimate D2E/DX2                !
 ! A37   A(12,13,14)           120.9948         estimate D2E/DX2                !
 ! A38   A(12,13,16)           117.8401         estimate D2E/DX2                !
 ! A39   A(14,13,16)           121.1642         estimate D2E/DX2                !
 ! A40   A(4,14,13)            119.5003         estimate D2E/DX2                !
 ! A41   A(4,14,15)            118.9169         estimate D2E/DX2                !
 ! A42   A(13,14,15)           121.5811         estimate D2E/DX2                !
 ! A43   A(10,18,11)           126.0753         estimate D2E/DX2                !
 ! A44   A(10,18,24)           115.7508         estimate D2E/DX2                !
 ! A45   A(11,18,24)           118.1737         estimate D2E/DX2                !
 ! A46   A(1,19,5)             125.0856         estimate D2E/DX2                !
 ! A47   A(1,19,28)            116.2868         estimate D2E/DX2                !
 ! A48   A(5,19,28)            118.6276         estimate D2E/DX2                !
 ! A49   A(18,24,25)           109.8574         estimate D2E/DX2                !
 ! A50   A(18,24,26)           109.8979         estimate D2E/DX2                !
 ! A51   A(18,24,27)           107.5355         estimate D2E/DX2                !
 ! A52   A(25,24,26)           108.1108         estimate D2E/DX2                !
 ! A53   A(25,24,27)           110.8301         estimate D2E/DX2                !
 ! A54   A(26,24,27)           110.6124         estimate D2E/DX2                !
 ! A55   A(19,28,29)           109.6906         estimate D2E/DX2                !
 ! A56   A(19,28,30)           109.8136         estimate D2E/DX2                !
 ! A57   A(19,28,31)           107.7461         estimate D2E/DX2                !
 ! A58   A(29,28,30)           108.2991         estimate D2E/DX2                !
 ! A59   A(29,28,31)           110.6959         estimate D2E/DX2                !
 ! A60   A(30,28,31)           110.5924         estimate D2E/DX2                !
 ! A61   A(9,32,33)            130.8761         estimate D2E/DX2                !
 ! A62   A(9,32,34)            118.8131         estimate D2E/DX2                !
 ! A63   A(33,32,34)           110.0557         estimate D2E/DX2                !
 ! A64   A(32,33,35)           113.5382         estimate D2E/DX2                !
 ! A65   A(32,33,36)           122.7838         estimate D2E/DX2                !
 ! A66   A(35,33,36)           123.6762         estimate D2E/DX2                !
 ! A67   A(32,34,37)            92.6159         estimate D2E/DX2                !
 ! A68   A(33,35,37)           114.4635         estimate D2E/DX2                !
 ! A69   A(33,35,38)           126.4815         estimate D2E/DX2                !
 ! A70   A(37,35,38)           119.055          estimate D2E/DX2                !
 ! A71   A(34,37,35)           109.3207         estimate D2E/DX2                !
 ! A72   A(34,37,39)           122.9348         estimate D2E/DX2                !
 ! A73   A(35,37,39)           127.7291         estimate D2E/DX2                !
 ! A74   A(35,38,40)           117.4767         estimate D2E/DX2                !
 ! A75   A(37,39,41)           127.6273         estimate D2E/DX2                !
 ! A76   A(37,39,42)           123.0295         estimate D2E/DX2                !
 ! A77   A(41,39,42)           109.3432         estimate D2E/DX2                !
 ! A78   A(38,40,43)           105.9874         estimate D2E/DX2                !
 ! A79   A(38,40,44)           111.2343         estimate D2E/DX2                !
 ! A80   A(38,40,45)           111.2101         estimate D2E/DX2                !
 ! A81   A(43,40,44)           109.3042         estimate D2E/DX2                !
 ! A82   A(43,40,45)           109.6769         estimate D2E/DX2                !
 ! A83   A(44,40,45)           109.3606         estimate D2E/DX2                !
 ! A84   A(39,41,46)           114.1723         estimate D2E/DX2                !
 ! A85   A(39,41,47)           119.2715         estimate D2E/DX2                !
 ! A86   A(46,41,47)           126.556          estimate D2E/DX2                !
 ! A87   A(39,42,48)            91.7874         estimate D2E/DX2                !
 ! A88   A(41,46,48)           111.8995         estimate D2E/DX2                !
 ! A89   A(41,46,49)           124.4661         estimate D2E/DX2                !
 ! A90   A(48,46,49)           123.6345         estimate D2E/DX2                !
 ! A91   A(41,47,50)           117.9997         estimate D2E/DX2                !
 ! A92   A(42,48,46)           112.7976         estimate D2E/DX2                !
 ! A93   A(42,48,51)           119.7852         estimate D2E/DX2                !
 ! A94   A(46,48,51)           127.4168         estimate D2E/DX2                !
 ! A95   A(47,50,52)           111.2357         estimate D2E/DX2                !
 ! A96   A(47,50,53)           106.0489         estimate D2E/DX2                !
 ! A97   A(47,50,54)           111.2547         estimate D2E/DX2                !
 ! A98   A(52,50,53)           109.3363         estimate D2E/DX2                !
 ! A99   A(52,50,54)           109.37           estimate D2E/DX2                !
 ! A100  A(53,50,54)           109.5256         estimate D2E/DX2                !
 ! D1    D(19,1,2,3)             0.1578         estimate D2E/DX2                !
 ! D2    D(19,1,2,6)          -178.6792         estimate D2E/DX2                !
 ! D3    D(20,1,2,3)          -179.8231         estimate D2E/DX2                !
 ! D4    D(20,1,2,6)             1.3399         estimate D2E/DX2                !
 ! D5    D(2,1,19,5)            -0.124          estimate D2E/DX2                !
 ! D6    D(2,1,19,28)          179.8267         estimate D2E/DX2                !
 ! D7    D(20,1,19,5)          179.8575         estimate D2E/DX2                !
 ! D8    D(20,1,19,28)          -0.1919         estimate D2E/DX2                !
 ! D9    D(1,2,3,4)              0.0571         estimate D2E/DX2                !
 ! D10   D(1,2,3,7)            179.5453         estimate D2E/DX2                !
 ! D11   D(6,2,3,4)            178.8851         estimate D2E/DX2                !
 ! D12   D(6,2,3,7)             -1.6266         estimate D2E/DX2                !
 ! D13   D(1,2,6,9)            178.625          estimate D2E/DX2                !
 ! D14   D(1,2,6,17)             1.3881         estimate D2E/DX2                !
 ! D15   D(3,2,6,9)             -0.2173         estimate D2E/DX2                !
 ! D16   D(3,2,6,17)          -177.4541         estimate D2E/DX2                !
 ! D17   D(2,3,4,5)             -0.3074         estimate D2E/DX2                !
 ! D18   D(2,3,4,14)           179.3968         estimate D2E/DX2                !
 ! D19   D(7,3,4,5)           -179.7837         estimate D2E/DX2                !
 ! D20   D(7,3,4,14)            -0.0795         estimate D2E/DX2                !
 ! D21   D(2,3,7,8)              1.0523         estimate D2E/DX2                !
 ! D22   D(2,3,7,12)          -178.712          estimate D2E/DX2                !
 ! D23   D(4,3,7,8)           -179.4626         estimate D2E/DX2                !
 ! D24   D(4,3,7,12)             0.7731         estimate D2E/DX2                !
 ! D25   D(3,4,5,19)             0.3343         estimate D2E/DX2                !
 ! D26   D(3,4,5,21)          -179.7799         estimate D2E/DX2                !
 ! D27   D(14,4,5,19)         -179.3729         estimate D2E/DX2                !
 ! D28   D(14,4,5,21)            0.5129         estimate D2E/DX2                !
 ! D29   D(3,4,14,13)           -0.4559         estimate D2E/DX2                !
 ! D30   D(3,4,14,15)         -179.9937         estimate D2E/DX2                !
 ! D31   D(5,4,14,13)          179.252          estimate D2E/DX2                !
 ! D32   D(5,4,14,15)           -0.2858         estimate D2E/DX2                !
 ! D33   D(4,5,19,1)            -0.1141         estimate D2E/DX2                !
 ! D34   D(4,5,19,28)          179.9364         estimate D2E/DX2                !
 ! D35   D(21,5,19,1)          179.9992         estimate D2E/DX2                !
 ! D36   D(21,5,19,28)           0.0496         estimate D2E/DX2                !
 ! D37   D(2,6,9,8)              2.5984         estimate D2E/DX2                !
 ! D38   D(2,6,9,32)          -176.0103         estimate D2E/DX2                !
 ! D39   D(17,6,9,8)           179.77           estimate D2E/DX2                !
 ! D40   D(17,6,9,32)            1.1613         estimate D2E/DX2                !
 ! D41   D(3,7,8,9)              1.3551         estimate D2E/DX2                !
 ! D42   D(3,7,8,10)          -174.5099         estimate D2E/DX2                !
 ! D43   D(12,7,8,9)          -178.8921         estimate D2E/DX2                !
 ! D44   D(12,7,8,10)            5.2428         estimate D2E/DX2                !
 ! D45   D(3,7,12,11)          178.0768         estimate D2E/DX2                !
 ! D46   D(3,7,12,13)           -0.9621         estimate D2E/DX2                !
 ! D47   D(8,7,12,11)           -1.685          estimate D2E/DX2                !
 ! D48   D(8,7,12,13)          179.2761         estimate D2E/DX2                !
 ! D49   D(7,8,9,6)             -3.0809         estimate D2E/DX2                !
 ! D50   D(7,8,9,32)           175.3285         estimate D2E/DX2                !
 ! D51   D(10,8,9,6)           172.5381         estimate D2E/DX2                !
 ! D52   D(10,8,9,32)           -9.0525         estimate D2E/DX2                !
 ! D53   D(7,8,10,18)           -4.7549         estimate D2E/DX2                !
 ! D54   D(7,8,10,23)          174.4235         estimate D2E/DX2                !
 ! D55   D(9,8,10,18)          179.5335         estimate D2E/DX2                !
 ! D56   D(9,8,10,23)           -1.2882         estimate D2E/DX2                !
 ! D57   D(6,9,32,33)           13.461          estimate D2E/DX2                !
 ! D58   D(6,9,32,34)         -160.1005         estimate D2E/DX2                !
 ! D59   D(8,9,32,33)         -164.9805         Frozen                          !
 ! D60   D(8,9,32,34)           21.458          estimate D2E/DX2                !
 ! D61   D(8,10,18,11)           0.7189         estimate D2E/DX2                !
 ! D62   D(8,10,18,24)        -179.4089         estimate D2E/DX2                !
 ! D63   D(23,10,18,11)       -178.5188         estimate D2E/DX2                !
 ! D64   D(23,10,18,24)          1.3535         estimate D2E/DX2                !
 ! D65   D(18,11,12,7)          -2.3856         estimate D2E/DX2                !
 ! D66   D(18,11,12,13)        176.6833         estimate D2E/DX2                !
 ! D67   D(22,11,12,7)         178.4862         estimate D2E/DX2                !
 ! D68   D(22,11,12,13)         -2.445          estimate D2E/DX2                !
 ! D69   D(12,11,18,10)          2.8444         estimate D2E/DX2                !
 ! D70   D(12,11,18,24)       -177.0251         estimate D2E/DX2                !
 ! D71   D(22,11,18,10)       -178.0181         estimate D2E/DX2                !
 ! D72   D(22,11,18,24)          2.1124         estimate D2E/DX2                !
 ! D73   D(7,12,13,14)           0.461          estimate D2E/DX2                !
 ! D74   D(7,12,13,16)        -179.8781         estimate D2E/DX2                !
 ! D75   D(11,12,13,14)       -178.6049         estimate D2E/DX2                !
 ! D76   D(11,12,13,16)          1.056          estimate D2E/DX2                !
 ! D77   D(12,13,14,4)           0.2708         estimate D2E/DX2                !
 ! D78   D(12,13,14,15)        179.7958         estimate D2E/DX2                !
 ! D79   D(16,13,14,4)        -179.3788         estimate D2E/DX2                !
 ! D80   D(16,13,14,15)          0.1463         estimate D2E/DX2                !
 ! D81   D(10,18,24,25)        -59.609          estimate D2E/DX2                !
 ! D82   D(10,18,24,26)         59.2209         estimate D2E/DX2                !
 ! D83   D(10,18,24,27)        179.6858         estimate D2E/DX2                !
 ! D84   D(11,18,24,25)        120.2739         estimate D2E/DX2                !
 ! D85   D(11,18,24,26)       -120.8962         estimate D2E/DX2                !
 ! D86   D(11,18,24,27)         -0.4313         estimate D2E/DX2                !
 ! D87   D(1,19,28,29)         -58.1407         estimate D2E/DX2                !
 ! D88   D(1,19,28,30)          60.7668         estimate D2E/DX2                !
 ! D89   D(1,19,28,31)        -178.7139         estimate D2E/DX2                !
 ! D90   D(5,19,28,29)         121.8132         estimate D2E/DX2                !
 ! D91   D(5,19,28,30)        -119.2792         estimate D2E/DX2                !
 ! D92   D(5,19,28,31)           1.2401         estimate D2E/DX2                !
 ! D93   D(9,32,33,35)        -174.2227         estimate D2E/DX2                !
 ! D94   D(9,32,33,36)           6.2496         estimate D2E/DX2                !
 ! D95   D(34,32,33,35)         -0.2266         estimate D2E/DX2                !
 ! D96   D(34,32,33,36)       -179.7544         estimate D2E/DX2                !
 ! D97   D(9,32,34,37)         175.3687         estimate D2E/DX2                !
 ! D98   D(33,32,34,37)          0.5474         estimate D2E/DX2                !
 ! D99   D(32,33,35,37)         -0.3362         estimate D2E/DX2                !
 ! D100  D(32,33,35,38)        179.7313         estimate D2E/DX2                !
 ! D101  D(36,33,35,37)        179.1868         estimate D2E/DX2                !
 ! D102  D(36,33,35,38)         -0.7457         estimate D2E/DX2                !
 ! D103  D(32,34,37,35)         -0.7194         estimate D2E/DX2                !
 ! D104  D(32,34,37,39)        177.9552         estimate D2E/DX2                !
 ! D105  D(33,35,37,34)          0.7334         estimate D2E/DX2                !
 ! D106  D(33,35,37,39)       -177.8601         estimate D2E/DX2                !
 ! D107  D(38,35,37,34)       -179.3287         estimate D2E/DX2                !
 ! D108  D(38,35,37,39)          2.0778         estimate D2E/DX2                !
 ! D109  D(33,35,38,40)          6.4907         estimate D2E/DX2                !
 ! D110  D(37,35,38,40)       -173.4391         estimate D2E/DX2                !
 ! D111  D(34,37,39,41)          2.7987         estimate D2E/DX2                !
 ! D112  D(34,37,39,42)       -177.1987         estimate D2E/DX2                !
 ! D113  D(35,37,39,41)       -178.7828         estimate D2E/DX2                !
 ! D114  D(35,37,39,42)          1.2198         estimate D2E/DX2                !
 ! D115  D(35,38,40,43)        175.4771         estimate D2E/DX2                !
 ! D116  D(35,38,40,44)        -65.8207         estimate D2E/DX2                !
 ! D117  D(35,38,40,45)         56.34           estimate D2E/DX2                !
 ! D118  D(37,39,41,46)        179.9975         estimate D2E/DX2                !
 ! D119  D(37,39,41,47)         -0.1166         estimate D2E/DX2                !
 ! D120  D(42,39,41,46)         -0.0048         estimate D2E/DX2                !
 ! D121  D(42,39,41,47)        179.881          estimate D2E/DX2                !
 ! D122  D(37,39,42,48)        179.9679         estimate D2E/DX2                !
 ! D123  D(41,39,42,48)         -0.03           estimate D2E/DX2                !
 ! D124  D(39,41,46,48)          0.0494         estimate D2E/DX2                !
 ! D125  D(39,41,46,49)        179.9904         estimate D2E/DX2                !
 ! D126  D(47,41,46,48)       -179.8266         estimate D2E/DX2                !
 ! D127  D(47,41,46,49)          0.1143         estimate D2E/DX2                !
 ! D128  D(39,41,47,50)        178.351          estimate D2E/DX2                !
 ! D129  D(46,41,47,50)         -1.7786         estimate D2E/DX2                !
 ! D130  D(39,42,48,46)          0.0595         estimate D2E/DX2                !
 ! D131  D(39,42,48,51)        179.8295         estimate D2E/DX2                !
 ! D132  D(41,46,48,42)         -0.0721         estimate D2E/DX2                !
 ! D133  D(41,46,48,51)       -179.8208         estimate D2E/DX2                !
 ! D134  D(49,46,48,42)        179.9864         estimate D2E/DX2                !
 ! D135  D(49,46,48,51)          0.2377         estimate D2E/DX2                !
 ! D136  D(41,47,50,52)         61.9904         estimate D2E/DX2                !
 ! D137  D(41,47,50,53)       -179.2311         estimate D2E/DX2                !
 ! D138  D(41,47,50,54)        -60.2147         estimate D2E/DX2                !
 --------------------------------------------------------------------------------
 Trust Radius=3.00D-01 FncErr=1.00D-07 GrdErr=1.00D-06 EigMax=2.50D+02 EigMin=1.00D-04
 Number of steps in this run=    307 maximum allowed number of steps=    324.
 GradGradGradGradGradGradGradGradGradGradGradGradGradGradGradGradGradGrad

 Stoichiometry    C26H18N2O6S2(2-)
 Framework group  C1[X(C26H18N2O6S2)]
 Deg. of freedom   156
 Full point group                 C1      NOp   1
 Largest Abelian subgroup         C1      NOp   1
 Largest concise Abelian subgroup C1      NOp   1
                         Standard orientation:                         
 ---------------------------------------------------------------------
 Center     Atomic      Atomic             Coordinates (Angstroms)
 Number     Number       Type             X           Y           Z
 ---------------------------------------------------------------------
      1          6           0       -3.825626   -2.549011    0.310315
      2          6           0       -2.944997   -1.362032    0.150058
      3          6           0       -3.500107   -0.067990    0.014916
      4          6           0       -4.900623    0.113632    0.031711
      5          6           0       -5.811011   -1.052429    0.184704
      6          6           0       -1.584531   -1.534873    0.110071
      7          6           0       -2.618879    1.042070   -0.126473
      8          6           0       -1.199835    0.856565   -0.154915
      9          6           0       -0.662264   -0.456771   -0.069574
     10          6           0       -0.351819    2.079298   -0.179348
     11          6           0       -2.372939    3.542221   -0.338649
     12          6           0       -3.210608    2.328514   -0.231478
     13          6           0       -4.590118    2.488373   -0.216943
     14          6           0       -5.442413    1.385158   -0.088476
     15          1           0       -6.519720    1.499224   -0.072747
     16          1           0       -4.984210    3.494985   -0.302611
     17          1           0       -1.213643   -2.550977    0.175902
     18          7           0       -0.994516    3.329197   -0.276060
     19          7           0       -5.205873   -2.314019    0.315719
     20          8           0       -3.392337   -3.686201    0.433693
     21          8           0       -7.026390   -0.928024    0.198949
     22          8           0       -2.846843    4.665327   -0.457890
     23          8           0        0.870489    2.078094   -0.106699
     24          6           0       -0.110446    4.499645   -0.309680
     25          1           0        0.492855    4.534611    0.598706
     26          1           0        0.566725    4.429916   -1.164826
     27          1           0       -0.738840    5.382330   -0.390361
     28          6           0       -6.065118   -3.493119    0.470533
     29          1           0       -5.861160   -4.204983   -0.332104
     30          1           0       -5.854651   -3.981745    1.423699
     31          1           0       -7.098001   -3.157504    0.432933
     32          6           0        0.741053   -0.854397   -0.175873
     33          6           0        1.316786   -2.094149   -0.376411
     34         16           0        1.991622    0.350581    0.131906
     35          6           0        2.722664   -2.081814   -0.291608
     36          1           0        0.738415   -2.979289   -0.585243
     37          6           0        3.276034   -0.824505   -0.029130
     38          8           0        3.551454   -3.150663   -0.439772
     39          6           0        4.665502   -0.480426    0.072239
     40          6           0        2.967135   -4.383538   -0.846518
     41          6           0        5.213980    0.768218    0.356785
     42         16           0        5.963764   -1.648852   -0.160511
     43          1           0        3.796829   -5.078173   -0.984563
     44          1           0        2.290151   -4.775433   -0.077082
     45          1           0        2.419066   -4.270778   -1.789782
     46          6           0        6.638144    0.786562    0.387279
     47          8           0        4.386330    1.824142    0.570999
     48          6           0        7.170155   -0.446535    0.125103
     49          1           0        7.234710    1.665319    0.591293
     50          6           0        4.974318    3.078919    0.894716
     51          1           0        8.217432   -0.716369    0.087771
     52          1           0        5.614162    3.440168    0.079592
     53          1           0        4.145889    3.771923    1.037205
     54          1           0        5.562291    3.015949    1.817890
 ---------------------------------------------------------------------
 Rotational constants (GHZ):           0.1740368           0.0584502           0.0442705
 Standard basis: 6-311+G(d,p) (5D, 7F)
 There are   952 symmetry adapted cartesian basis functions of A   symmetry.
 There are   916 symmetry adapted basis functions of A   symmetry.
   916 basis functions,  1468 primitive gaussians,   952 cartesian basis functions
   135 alpha electrons      135 beta electrons
       nuclear repulsion energy      4126.2357160499 Hartrees.
 NAtoms=   54 NActive=   54 NUniq=   54 SFac= 1.00D+00 NAtFMM=   60 NAOKFM=F Big=F
 Integral buffers will be    131072 words long.
 Raffenetti 2 integral format.
 Two-electron integral symmetry is turned on.
 One-electron integrals computed using PRISM.
 NBasis=   916 RedAO= T EigKep=  1.25D-06  NBF=   916
 NBsUse=   901 1.00D-06 EigRej=  6.66D-07 NBFU=   901
 ExpMin= 4.05D-02 ExpMax= 9.34D+04 ExpMxC= 3.17D+03 IAcc=3 IRadAn=         5 AccDes= 0.00D+00
 Harris functional with IExCor=  402 and IRadAn=       5 diagonalized for initial guess.
 HarFok:  IExCor=  402 AccDes= 0.00D+00 IRadAn=         5 IDoV= 1 UseB2=F ITyADJ=14
 ICtDFT=  3500011 ScaDFX=  1.000000  1.000000  1.000000  1.000000
 FoFCou: FMM=F IPFlag=           0 FMFlag=      100000 FMFlg1=           0
         NFxFlg=           0 DoJE=T BraDBF=F KetDBF=T FulRan=T
         wScrn=  0.000000 ICntrl=       500 IOpCl=  0 I1Cent=   200000004 NGrid=           0
         NMat0=    1 NMatS0=      1 NMatT0=    0 NMatD0=    1 NMtDS0=    0 NMtDT0=    0
 Petite list used in FoFCou.
 Requested convergence on RMS density matrix=1.00D-08 within 128 cycles.
 Requested convergence on MAX density matrix=1.00D-06.
 Requested convergence on             energy=1.00D-06.
 No special actions if energy rises.
 EnCoef did     9 forward-backward iterations
 EnCoef did   100 forward-backward iterations
 Restarting incremental Fock formation.
 SCF Done:  E(RB3LYP) =  -2359.34149605     A.U. after   23 cycles
            NFock= 23  Conv=0.27D-08     -V/T= 2.0028

 **********************************************************************

            Population analysis using the SCF Density.

 **********************************************************************

 Orbital symmetries:
       Occupied  (A) (A) (A) (A) (A) (A) (A) (A) (A) (A) (A) (A)
                 (A) (A) (A) (A) (A) (A) (A) (A) (A) (A) (A) (A)
                 (A) (A) (A) (A) (A) (A) (A) (A) (A) (A) (A) (A)
                 (A) (A) (A) (A) (A) (A) (A) (A) (A) (A) (A) (A)
                 (A) (A) (A) (A) (A) (A) (A) (A) (A) (A) (A) (A)
                 (A) (A) (A) (A) (A) (A) (A) (A) (A) (A) (A) (A)
                 (A) (A) (A) (A) (A) (A) (A) (A) (A) (A) (A) (A)
                 (A) (A) (A) (A) (A) (A) (A) (A) (A) (A) (A) (A)
                 (A) (A) (A) (A) (A) (A) (A) (A) (A) (A) (A) (A)
                 (A) (A) (A) (A) (A) (A) (A) (A) (A) (A) (A) (A)
                 (A) (A) (A) (A) (A) (A) (A) (A) (A) (A) (A) (A)
                 (A) (A) (A)
       Virtual   (A) (A) (A) (A) (A) (A) (A) (A) (A) (A) (A) (A)
                 (A) (A) (A) (A) (A) (A) (A) (A) (A) (A) (A) (A)
                 (A) (A) (A) (A) (A) (A) (A) (A) (A) (A) (A) (A)
                 (A) (A) (A) (A) (A) (A) (A) (A) (A) (A) (A) (A)
                 (A) (A) (A) (A) (A) (A) (A) (A) (A) (A) (A) (A)
                 (A) (A) (A) (A) (A) (A) (A) (A) (A) (A) (A) (A)
                 (A) (A) (A) (A) (A) (A) (A) (A) (A) (A) (A) (A)
                 (A) (A) (A) (A) (A) (A) (A) (A) (A) (A) (A) (A)
                 (A) (A) (A) (A) (A) (A) (A) (A) (A) (A) (A) (A)
                 (A) (A) (A) (A) (A) (A) (A) (A) (A) (A) (A) (A)
                 (A) (A) (A) (A) (A) (A) (A) (A) (A) (A) (A) (A)
                 (A) (A) (A) (A) (A) (A) (A) (A) (A) (A) (A) (A)
                 (A) (A) (A) (A) (A) (A) (A) (A) (A) (A) (A) (A)
                 (A) (A) (A) (A) (A) (A) (A) (A) (A) (A) (A) (A)
                 (A) (A) (A) (A) (A) (A) (A) (A) (A) (A) (A) (A)
                 (A) (A) (A) (A) (A) (A) (A) (A) (A) (A) (A) (A)
                 (A) (A) (A) (A) (A) (A) (A) (A) (A) (A) (A) (A)
                 (A) (A) (A) (A) (A) (A) (A) (A) (A) (A) (A) (A)
                 (A) (A) (A) (A) (A) (A) (A) (A) (A) (A) (A) (A)
                 (A) (A) (A) (A) (A) (A) (A) (A) (A) (A) (A) (A)
                 (A) (A) (A) (A) (A) (A) (A) (A) (A) (A) (A) (A)
                 (A) (A) (A) (A) (A) (A) (A) (A) (A) (A) (A) (A)
                 (A) (A) (A) (A) (A) (A) (A) (A) (A) (A) (A) (A)
                 (A) (A) (A) (A) (A) (A) (A) (A) (A) (A) (A) (A)
                 (A) (A) (A) (A) (A) (A) (A) (A) (A) (A) (A) (A)
                 (A) (A) (A) (A) (A) (A) (A) (A) (A) (A) (A) (A)
                 (A) (A) (A) (A) (A) (A) (A) (A) (A) (A) (A) (A)
                 (A) (A) (A) (A) (A) (A) (A) (A) (A) (A) (A) (A)
                 (A) (A) (A) (A) (A) (A) (A) (A) (A) (A) (A) (A)
                 (A) (A) (A) (A) (A) (A) (A) (A) (A) (A) (A) (A)
                 (A) (A) (A) (A) (A) (A) (A) (A) (A) (A) (A) (A)
                 (A) (A) (A) (A) (A) (A) (A) (A) (A) (A) (A) (A)
                 (A) (A) (A) (A) (A) (A) (A) (A) (A) (A) (A) (A)
                 (A) (A) (A) (A) (A) (A) (A) (A) (A) (A) (A) (A)
                 (A) (A) (A) (A) (A) (A) (A) (A) (A) (A) (A) (A)
                 (A) (A) (A) (A) (A) (A) (A) (A) (A) (A) (A) (A)
                 (A) (A) (A) (A) (A) (A) (A) (A) (A) (A) (A) (A)
                 (A) (A) (A) (A) (A) (A) (A) (A) (A) (A) (A) (A)
                 (A) (A) (A) (A) (A) (A) (A) (A) (A) (A) (A) (A)
                 (A) (A) (A) (A) (A) (A) (A) (A) (A) (A) (A) (A)
                 (A) (A) (A) (A) (A) (A) (A) (A) (A) (A) (A) (A)
                 (A) (A) (A) (A) (A) (A) (A) (A) (A) (A) (A) (A)
                 (A) (A) (A) (A) (A) (A) (A) (A) (A) (A) (A) (A)
                 (A) (A) (A) (A) (A) (A) (A) (A) (A) (A) (A) (A)
                 (A) (A) (A) (A) (A) (A) (A) (A) (A) (A) (A) (A)
                 (A) (A) (A) (A) (A) (A) (A) (A) (A) (A) (A) (A)
                 (A) (A) (A) (A) (A) (A) (A) (A) (A) (A) (A) (A)
                 (A) (A) (A) (A) (A) (A) (A) (A) (A) (A) (A) (A)
                 (A) (A) (A) (A) (A) (A) (A) (A) (A) (A) (A) (A)
                 (A) (A) (A) (A) (A) (A) (A) (A) (A) (A) (A) (A)
                 (A) (A) (A) (A) (A) (A) (A) (A) (A) (A) (A) (A)
                 (A) (A) (A) (A) (A) (A) (A) (A) (A) (A) (A) (A)
                 (A) (A) (A) (A) (A) (A) (A) (A) (A) (A) (A) (A)
                 (A) (A) (A) (A) (A) (A) (A) (A) (A) (A) (A) (A)
                 (A) (A) (A) (A) (A) (A) (A) (A) (A) (A) (A) (A)
                 (A) (A) (A) (A) (A) (A) (A) (A) (A) (A) (A) (A)
                 (A) (A) (A) (A) (A) (A) (A) (A) (A) (A) (A) (A)
                 (A) (A) (A) (A) (A) (A) (A) (A) (A) (A) (A) (A)
                 (A) (A) (A) (A) (A) (A) (A) (A) (A) (A) (A) (A)
                 (A) (A) (A) (A) (A) (A) (A) (A) (A) (A) (A) (A)
                 (A) (A) (A) (A) (A) (A) (A) (A) (A) (A) (A) (A)
                 (A) (A) (A) (A) (A) (A) (A) (A) (A) (A) (A) (A)
                 (A) (A) (A) (A) (A) (A) (A) (A) (A) (A) (A) (A)
                 (A) (A) (A) (A) (A) (A) (A) (A) (A) (A)
 The electronic state is 1-A.
 Alpha  occ. eigenvalues --  -88.70248 -88.65019 -18.98635 -18.98423 -18.87823
 Alpha  occ. eigenvalues --  -18.87537 -18.87287 -18.86928 -14.15318 -14.15145
 Alpha  occ. eigenvalues --  -10.07554 -10.07076 -10.05797 -10.05709 -10.05547
 Alpha  occ. eigenvalues --  -10.05424 -10.05099 -10.03816 -10.02971 -10.02581
 Alpha  occ. eigenvalues --  -10.01599 -10.01216 -10.00810 -10.00382  -9.98261
 Alpha  occ. eigenvalues --   -9.97492  -9.97365  -9.97194  -9.97077  -9.96008
 Alpha  occ. eigenvalues --   -9.95505  -9.95202  -9.94981  -9.94957  -9.94900
 Alpha  occ. eigenvalues --   -9.94839  -7.78834  -7.73467  -5.75138  -5.74770
 Alpha  occ. eigenvalues --   -5.74399  -5.69831  -5.69359  -5.68966  -0.90384
 Alpha  occ. eigenvalues --   -0.89936  -0.85095  -0.84170  -0.82303  -0.82092
 Alpha  occ. eigenvalues --   -0.72493  -0.72445  -0.71031  -0.67549  -0.66220
 Alpha  occ. eigenvalues --   -0.61308  -0.59233  -0.58861  -0.58182  -0.56673
 Alpha  occ. eigenvalues --   -0.54411  -0.53326  -0.52787  -0.52265  -0.51711
 Alpha  occ. eigenvalues --   -0.50573  -0.48918  -0.45940  -0.43287  -0.42695
 Alpha  occ. eigenvalues --   -0.41667  -0.41336  -0.40089  -0.39173  -0.38123
 Alpha  occ. eigenvalues --   -0.36462  -0.35588  -0.33812  -0.33422  -0.31633
 Alpha  occ. eigenvalues --   -0.31354  -0.31052  -0.30934  -0.30131  -0.29223
 Alpha  occ. eigenvalues --   -0.28668  -0.28152  -0.27603  -0.27395  -0.26887
 Alpha  occ. eigenvalues --   -0.26712  -0.25370  -0.25226  -0.24892  -0.23558
 Alpha  occ. eigenvalues --   -0.23140  -0.23013  -0.22771  -0.22137  -0.21351
 Alpha  occ. eigenvalues --   -0.21196  -0.21119  -0.20239  -0.20202  -0.19927
 Alpha  occ. eigenvalues --   -0.19742  -0.19013  -0.18689  -0.18343  -0.17997
 Alpha  occ. eigenvalues --   -0.17617  -0.17304  -0.16821  -0.16424  -0.15863
 Alpha  occ. eigenvalues --   -0.15307  -0.15298  -0.14210  -0.12237  -0.11400
 Alpha  occ. eigenvalues --   -0.10097  -0.09130  -0.07324  -0.07065  -0.06532
 Alpha  occ. eigenvalues --   -0.06425  -0.06028  -0.05491  -0.04589  -0.04018
 Alpha  occ. eigenvalues --   -0.03606  -0.01475  -0.01299   0.01275   0.08629
 Alpha virt. eigenvalues --    0.12707   0.13469   0.13729   0.14363   0.15945
 Alpha virt. eigenvalues --    0.16578   0.16941   0.16999   0.17126   0.17529
 Alpha virt. eigenvalues --    0.17821   0.18155   0.18666   0.19087   0.19309
 Alpha virt. eigenvalues --    0.19371   0.19623   0.20113   0.20478   0.20657
 Alpha virt. eigenvalues --    0.20829   0.20949   0.21006   0.21305   0.21331
 Alpha virt. eigenvalues --    0.21709   0.22550   0.22723   0.23148   0.23291
 Alpha virt. eigenvalues --    0.23756   0.23864   0.24107   0.24330   0.24617
 Alpha virt. eigenvalues --    0.24881   0.25322   0.25653   0.25892   0.26119
 Alpha virt. eigenvalues --    0.26308   0.26548   0.26685   0.26805   0.27230
 Alpha virt. eigenvalues --    0.27293   0.27714   0.27888   0.28268   0.28452
 Alpha virt. eigenvalues --    0.28733   0.28791   0.29047   0.29621   0.29693
 Alpha virt. eigenvalues --    0.29921   0.30042   0.30367   0.30691   0.30926
 Alpha virt. eigenvalues --    0.31217   0.31331   0.31793   0.32177   0.32373
 Alpha virt. eigenvalues --    0.32627   0.32897   0.33247   0.33495   0.33680
 Alpha virt. eigenvalues --    0.33762   0.33969   0.34090   0.34653   0.34805
 Alpha virt. eigenvalues --    0.35010   0.35322   0.35355   0.35473   0.35628
 Alpha virt. eigenvalues --    0.35865   0.36163   0.36434   0.36709   0.36786
 Alpha virt. eigenvalues --    0.36865   0.37097   0.37359   0.37675   0.37956
 Alpha virt. eigenvalues --    0.38320   0.38362   0.38535   0.38790   0.39032
 Alpha virt. eigenvalues --    0.39342   0.39417   0.39605   0.39918   0.40070
 Alpha virt. eigenvalues --    0.40370   0.40864   0.40945   0.41343   0.41415
 Alpha virt. eigenvalues --    0.41618   0.41979   0.42154   0.42447   0.42775
 Alpha virt. eigenvalues --    0.43120   0.43137   0.43202   0.43546   0.43907
 Alpha virt. eigenvalues --    0.44239   0.44376   0.44546   0.44847   0.44961
 Alpha virt. eigenvalues --    0.45063   0.45285   0.45492   0.45743   0.45931
 Alpha virt. eigenvalues --    0.46007   0.46332   0.46390   0.46672   0.46864
 Alpha virt. eigenvalues --    0.46963   0.47396   0.47565   0.47699   0.48078
 Alpha virt. eigenvalues --    0.48263   0.48674   0.48834   0.49008   0.49487
 Alpha virt. eigenvalues --    0.49781   0.49940   0.50078   0.50172   0.50241
 Alpha virt. eigenvalues --    0.50507   0.50714   0.51015   0.51211   0.51658
 Alpha virt. eigenvalues --    0.51809   0.52010   0.52187   0.52232   0.52740
 Alpha virt. eigenvalues --    0.53079   0.53311   0.53476   0.53799   0.54175
 Alpha virt. eigenvalues --    0.54451   0.54887   0.55459   0.55836   0.56225
 Alpha virt. eigenvalues --    0.56384   0.56726   0.56848   0.57391   0.58167
 Alpha virt. eigenvalues --    0.58601   0.59076   0.59156   0.59646   0.60262
 Alpha virt. eigenvalues --    0.60489   0.60739   0.60985   0.61125   0.61491
 Alpha virt. eigenvalues --    0.62345   0.62713   0.62876   0.63340   0.63488
 Alpha virt. eigenvalues --    0.63763   0.64237   0.64497   0.64571   0.65024
 Alpha virt. eigenvalues --    0.65202   0.65402   0.65729   0.66417   0.66670
 Alpha virt. eigenvalues --    0.67268   0.68197   0.68673   0.69336   0.70170
 Alpha virt. eigenvalues --    0.70508   0.71035   0.71280   0.71635   0.72159
 Alpha virt. eigenvalues --    0.72653   0.72962   0.73388   0.74317   0.74535
 Alpha virt. eigenvalues --    0.74738   0.75006   0.75630   0.76017   0.76771
 Alpha virt. eigenvalues --    0.77089   0.77273   0.77514   0.78095   0.78499
 Alpha virt. eigenvalues --    0.78684   0.78986   0.79202   0.79421   0.80037
 Alpha virt. eigenvalues --    0.80374   0.80462   0.80924   0.81296   0.82058
 Alpha virt. eigenvalues --    0.82312   0.82616   0.82783   0.83597   0.84161
 Alpha virt. eigenvalues --    0.84332   0.84619   0.85098   0.85404   0.85598
 Alpha virt. eigenvalues --    0.86123   0.86247   0.86792   0.87256   0.87429
 Alpha virt. eigenvalues --    0.87914   0.88521   0.88907   0.89335   0.89528
 Alpha virt. eigenvalues --    0.89827   0.89919   0.90399   0.90708   0.91188
 Alpha virt. eigenvalues --    0.91806   0.92126   0.92636   0.93028   0.93556
 Alpha virt. eigenvalues --    0.93735   0.94066   0.94472   0.94763   0.95089
 Alpha virt. eigenvalues --    0.95732   0.95828   0.96077   0.96449   0.96958
 Alpha virt. eigenvalues --    0.97376   0.97755   0.97952   0.98567   0.98935
 Alpha virt. eigenvalues --    0.99229   0.99889   1.00032   1.00407   1.01185
 Alpha virt. eigenvalues --    1.01683   1.01966   1.02464   1.03173   1.04166
 Alpha virt. eigenvalues --    1.04786   1.06250   1.06807   1.06822   1.07978
 Alpha virt. eigenvalues --    1.08452   1.08660   1.09398   1.09858   1.10499
 Alpha virt. eigenvalues --    1.10648   1.11348   1.11980   1.12310   1.13415
 Alpha virt. eigenvalues --    1.14401   1.15057   1.15449   1.15691   1.16216
 Alpha virt. eigenvalues --    1.16558   1.17020   1.17130   1.17340   1.18117
 Alpha virt. eigenvalues --    1.18429   1.18917   1.19032   1.19582   1.20040
 Alpha virt. eigenvalues --    1.20354   1.20576   1.21165   1.21416   1.21890
 Alpha virt. eigenvalues --    1.22629   1.22847   1.23354   1.23434   1.24087
 Alpha virt. eigenvalues --    1.24854   1.25306   1.25400   1.26006   1.26365
 Alpha virt. eigenvalues --    1.26711   1.27018   1.27492   1.27803   1.28237
 Alpha virt. eigenvalues --    1.28876   1.29524   1.30235   1.30647   1.31505
 Alpha virt. eigenvalues --    1.32463   1.32927   1.33321   1.33873   1.34642
 Alpha virt. eigenvalues --    1.35264   1.35759   1.35989   1.36693   1.37824
 Alpha virt. eigenvalues --    1.38124   1.39370   1.39730   1.39805   1.40735
 Alpha virt. eigenvalues --    1.41404   1.41918   1.42490   1.43117   1.43781
 Alpha virt. eigenvalues --    1.44327   1.44577   1.45302   1.46649   1.47222
 Alpha virt. eigenvalues --    1.47792   1.48332   1.49717   1.50431   1.51029
 Alpha virt. eigenvalues --    1.51069   1.51544   1.52143   1.52648   1.53336
 Alpha virt. eigenvalues --    1.53553   1.53880   1.56170   1.56855   1.57571
 Alpha virt. eigenvalues --    1.58387   1.58483   1.58590   1.59584   1.60650
 Alpha virt. eigenvalues --    1.61017   1.61757   1.63008   1.63120   1.63240
 Alpha virt. eigenvalues --    1.64428   1.64711   1.65423   1.65734   1.65850
 Alpha virt. eigenvalues --    1.66583   1.67493   1.67900   1.69012   1.69996
 Alpha virt. eigenvalues --    1.70166   1.70479   1.70754   1.71041   1.71801
 Alpha virt. eigenvalues --    1.72486   1.72773   1.73789   1.74117   1.74611
 Alpha virt. eigenvalues --    1.75048   1.75335   1.75550   1.76459   1.77147
 Alpha virt. eigenvalues --    1.77623   1.78045   1.78741   1.79160   1.79603
 Alpha virt. eigenvalues --    1.80149   1.80403   1.80995   1.81749   1.81894
 Alpha virt. eigenvalues --    1.82986   1.83216   1.83460   1.85106   1.85266
 Alpha virt. eigenvalues --    1.86349   1.86804   1.87311   1.87537   1.88654
 Alpha virt. eigenvalues --    1.89359   1.89840   1.91040   1.91469   1.91598
 Alpha virt. eigenvalues --    1.92186   1.92929   1.93564   1.94113   1.94369
 Alpha virt. eigenvalues --    1.94714   1.95732   1.95934   1.96711   1.97214
 Alpha virt. eigenvalues --    1.98059   1.98456   1.99358   1.99443   2.00898
 Alpha virt. eigenvalues --    2.01226   2.01983   2.02224   2.03865   2.04778
 Alpha virt. eigenvalues --    2.05103   2.05837   2.06776   2.08486   2.08622
 Alpha virt. eigenvalues --    2.09757   2.10628   2.11098   2.11201   2.12147
 Alpha virt. eigenvalues --    2.12671   2.12946   2.13531   2.14101   2.14666
 Alpha virt. eigenvalues --    2.15446   2.15632   2.16499   2.17325   2.18878
 Alpha virt. eigenvalues --    2.19252   2.19688   2.20299   2.20746   2.21589
 Alpha virt. eigenvalues --    2.22075   2.22631   2.22962   2.23926   2.24079
 Alpha virt. eigenvalues --    2.24562   2.25057   2.25369   2.26025   2.26360
 Alpha virt. eigenvalues --    2.26781   2.27798   2.28038   2.28843   2.29332
 Alpha virt. eigenvalues --    2.30065   2.31269   2.32746   2.33048   2.33228
 Alpha virt. eigenvalues --    2.33567   2.34040   2.35465   2.36901   2.37771
 Alpha virt. eigenvalues --    2.38422   2.39388   2.40230   2.41179   2.41704
 Alpha virt. eigenvalues --    2.41966   2.43818   2.43998   2.45854   2.46378
 Alpha virt. eigenvalues --    2.48134   2.49009   2.50798   2.52364   2.55554
 Alpha virt. eigenvalues --    2.56502   2.57895   2.58740   2.58875   2.59489
 Alpha virt. eigenvalues --    2.59873   2.60659   2.60888   2.62280   2.63007
 Alpha virt. eigenvalues --    2.63264   2.63774   2.64086   2.65848   2.66734
 Alpha virt. eigenvalues --    2.67106   2.68255   2.69025   2.69466   2.69899
 Alpha virt. eigenvalues --    2.70250   2.71540   2.71748   2.72168   2.72454
 Alpha virt. eigenvalues --    2.73008   2.73912   2.75934   2.76488   2.78441
 Alpha virt. eigenvalues --    2.78608   2.80094   2.80846   2.81123   2.82187
 Alpha virt. eigenvalues --    2.84551   2.85352   2.86242   2.86824   2.87077
 Alpha virt. eigenvalues --    2.87780   2.89293   2.90590   2.90675   2.90948
 Alpha virt. eigenvalues --    2.91774   2.92876   2.93788   2.94106   2.94472
 Alpha virt. eigenvalues --    2.95278   2.95912   2.96007   2.96679   2.97769
 Alpha virt. eigenvalues --    2.98760   2.99973   3.00715   3.01075   3.02045
 Alpha virt. eigenvalues --    3.02621   3.04453   3.05197   3.06635   3.07114
 Alpha virt. eigenvalues --    3.07882   3.08888   3.09589   3.10660   3.10906
 Alpha virt. eigenvalues --    3.11522   3.12407   3.13480   3.13785   3.14349
 Alpha virt. eigenvalues --    3.15107   3.15896   3.16287   3.16947   3.17925
 Alpha virt. eigenvalues --    3.18189   3.18249   3.19945   3.20718   3.21522
 Alpha virt. eigenvalues --    3.22348   3.23183   3.24143   3.25190   3.26970
 Alpha virt. eigenvalues --    3.28603   3.29477   3.31228   3.31890   3.33424
 Alpha virt. eigenvalues --    3.34094   3.37353   3.37961   3.38333   3.39183
 Alpha virt. eigenvalues --    3.39744   3.41724   3.42004   3.42348   3.42583
 Alpha virt. eigenvalues --    3.44749   3.47408   3.49100   3.49959   3.50377
 Alpha virt. eigenvalues --    3.52214   3.53576   3.54941   3.57001   3.57813
 Alpha virt. eigenvalues --    3.58194   3.58808   3.59018   3.59922   3.62321
 Alpha virt. eigenvalues --    3.63037   3.64540   3.65248   3.66849   3.67033
 Alpha virt. eigenvalues --    3.69168   3.69654   3.70698   3.73368   3.73820
 Alpha virt. eigenvalues --    3.75656   3.78997   3.82245   3.83242   3.84192
 Alpha virt. eigenvalues --    3.85922   3.88630   3.89713   3.90932   3.92178
 Alpha virt. eigenvalues --    3.92230   3.92707   3.92776   3.93657   3.94013
 Alpha virt. eigenvalues --    3.96414   3.98723   4.02044   4.04565   4.06554
 Alpha virt. eigenvalues --    4.07678   4.13315   4.14965   4.15707   4.16848
 Alpha virt. eigenvalues --    4.17296   4.20807   4.23141   4.25530   4.26753
 Alpha virt. eigenvalues --    4.28477   4.29207   4.32969   4.37792   4.40645
 Alpha virt. eigenvalues --    4.44484   4.49806   4.51565   4.60553   4.65038
 Alpha virt. eigenvalues --    4.66140   4.75064   4.93325   5.09996   5.10224
 Alpha virt. eigenvalues --    5.11718   5.13393   5.20206   5.20808   5.28076
 Alpha virt. eigenvalues --    5.29716   5.29811   5.30933   5.35502   5.37690
 Alpha virt. eigenvalues --    5.48978   5.51248   5.53571   5.60759   5.61243
 Alpha virt. eigenvalues --    5.62119   5.94924   5.98720   6.00195   6.04939
 Alpha virt. eigenvalues --    6.06096   6.09274   8.20820   8.33157  17.47175
 Alpha virt. eigenvalues --   17.55799  17.68204  17.71447  17.82956  17.95401
 Alpha virt. eigenvalues --   23.72992  23.79830  23.92537  24.01041  24.04593
 Alpha virt. eigenvalues --   24.06495  24.07091  24.07541  24.09749  24.11443
 Alpha virt. eigenvalues --   24.11999  24.12482  24.13629  24.15086  24.16113
 Alpha virt. eigenvalues --   24.20102  24.21351  24.21771  24.23994  24.24565
 Alpha virt. eigenvalues --   24.26238  24.31400  24.32045  24.34158  24.39539
 Alpha virt. eigenvalues --   24.40271  35.79683  35.82900  50.14599  50.16308
 Alpha virt. eigenvalues --   50.26843  50.29026  50.30502  50.32034 189.38336
 Alpha virt. eigenvalues --  189.51502
          Condensed to atoms (all electrons):
 Mulliken charges:
               1
     1  C    0.315512
     2  C   -0.164319
     3  C    0.181435
     4  C    0.149289
     5  C    0.210230
     6  C   -0.312461
     7  C    0.095343
     8  C    0.156161
     9  C    0.546191
    10  C   -0.228725
    11  C    0.012733
    12  C    0.163386
    13  C   -0.505794
    14  C   -0.679234
    15  H    0.099561
    16  H    0.102485
    17  H    0.110857
    18  N   -0.161526
    19  N   -0.134690
    20  O   -0.414921
    21  O   -0.399135
    22  O   -0.395183
    23  O   -0.138328
    24  C   -0.191317
    25  H    0.141162
    26  H    0.141555
    27  H    0.161915
    28  C   -0.187824
    29  H    0.136997
    30  H    0.134596
    31  H    0.156080
    32  C   -0.228765
    33  C   -0.430460
    34  S    0.064474
    35  C   -0.754930
    36  H    0.106068
    37  C    0.294109
    38  O   -0.126955
    39  C    0.817539
    40  C   -0.241723
    41  C   -0.061179
    42  S   -0.348918
    43  H    0.129581
    44  H    0.135653
    45  H    0.137631
    46  C   -0.511396
    47  O   -0.058789
    48  C   -0.365286
    49  H    0.094400
    50  C   -0.260266
    51  H    0.112474
    52  H    0.114017
    53  H    0.167817
    54  H    0.112873
 Sum of Mulliken charges =  -2.00000
 Mulliken charges with hydrogens summed into heavy atoms:
               1
     1  C    0.315512
     2  C   -0.164319
     3  C    0.181435
     4  C    0.149289
     5  C    0.210230
     6  C   -0.201605
     7  C    0.095343
     8  C    0.156161
     9  C    0.546191
    10  C   -0.228725
    11  C    0.012733
    12  C    0.163386
    13  C   -0.403309
    14  C   -0.579673
    18  N   -0.161526
    19  N   -0.134690
    20  O   -0.414921
    21  O   -0.399135
    22  O   -0.395183
    23  O   -0.138328
    24  C    0.253316
    28  C    0.239850
    32  C   -0.228765
    33  C   -0.324392
    34  S    0.064474
    35  C   -0.754930
    37  C    0.294109
    38  O   -0.126955
    39  C    0.817539
    40  C    0.161142
    41  C   -0.061179
    42  S   -0.348918
    46  C   -0.416996
    47  O   -0.058789
    48  C   -0.252811
    50  C    0.134441
 Electronic spatial extent (au):  <R**2>=          22417.0565
 Charge=             -2.0000 electrons
 Dipole moment (field-independent basis, Debye):
    X=             15.0273    Y=             -1.7819    Z=             -0.0509  Tot=             15.1326
 Quadrupole moment (field-independent basis, Debye-Ang):
   XX=           -428.6040   YY=           -294.7136   ZZ=           -235.6343
   XY=             17.7126   XZ=              1.5138   YZ=             11.0615
 Traceless Quadrupole moment (field-independent basis, Debye-Ang):
   XX=           -108.9533   YY=             24.9370   ZZ=             84.0163
   XY=             17.7126   XZ=              1.5138   YZ=             11.0615
 Octapole moment (field-independent basis, Debye-Ang**2):
  XXX=            549.4911  YYY=           -117.6593  ZZZ=              2.5099  XYY=            243.7176
  XXY=             80.6250  XXZ=             -4.2276  XZZ=             -1.2371  YZZ=             -1.2912
  YYZ=              5.4685  XYZ=            -10.9306
 Hexadecapole moment (field-independent basis, Debye-Ang**3):
 XXXX=         -30718.6554 YYYY=          -9136.2388 ZZZZ=           -480.7008 XXXY=            264.4735
 XXXZ=            122.1317 YYYX=            444.5459 YYYZ=            219.1901 ZZZX=            -21.2826
 ZZZY=              6.6403 XXYY=          -5872.4680 XXZZ=          -4148.1737 YYZZ=          -1407.1281
 XXYZ=            142.1199 YYXZ=            -27.6484 ZZXY=             64.8691
 N-N= 4.126235716050D+03 E-N=-1.385242572678D+04  KE= 2.352772067961D+03
 Calling FoFJK, ICntrl=      2127 FMM=F ISym2X=0 I1Cent= 0 IOpClX= 0 NMat=1 NMatS=1 NMatT=0.
 ***** Axes restored to original set *****
 -------------------------------------------------------------------
 Center     Atomic                   Forces (Hartrees/Bohr)
 Number     Number              X              Y              Z
 -------------------------------------------------------------------
      1        6          -0.003054506    0.045604286    0.007269585
      2        6          -0.024823397   -0.031770576   -0.003437132
      3        6          -0.003598111   -0.007192824   -0.001381259
      4        6           0.014267475   -0.036839753   -0.005405723
      5        6           0.025104032    0.038543808    0.004837654
      6        6           0.032804627    0.032569947   -0.002893589
      7        6          -0.000565287    0.008621175    0.001020630
      8        6          -0.011278091    0.046806797    0.014367248
      9        6           0.016815348   -0.052299952   -0.011140864
     10        6          -0.052809593   -0.049839003   -0.012811982
     11        6           0.005711328   -0.045057702   -0.007438035
     12        6           0.027610402    0.029585047    0.004768864
     13        6          -0.031427951   -0.029708754   -0.004096037
     14        6          -0.014827616    0.039880972    0.006162693
     15        1          -0.000121298    0.000870422    0.000139739
     16        1          -0.000043215   -0.000993426   -0.000218222
     17        1          -0.000281253    0.001157856    0.001986011
     18        7           0.004679488    0.002702985   -0.000237414
     19        7          -0.001897736   -0.004179130   -0.000849835
     20        8           0.017466490   -0.026844114   -0.004169320
     21        8          -0.029154733   -0.017292140   -0.001893685
     22        8          -0.018125709    0.026375708    0.004315790
     23        8          -0.014424847    0.039866649    0.006191134
     24        6          -0.000871908   -0.004341945   -0.002366331
     25        1           0.000926721    0.000657367    0.000538318
     26        1           0.000374504    0.000390819    0.000799852
     27        1          -0.000865700   -0.000397074   -0.000012551
     28        6           0.000631314    0.006142881    0.000315177
     29        1           0.000551317   -0.001021902    0.000206524
     30        1           0.000693825   -0.001247143   -0.000061627
     31        1          -0.000662471    0.000736426    0.000175011
     32        6          -0.015038958    0.025618340    0.015186316
     33        6           0.006764806   -0.006262273   -0.003212720
     34       16           0.048012459   -0.009714540   -0.001599994
     35        6          -0.006334025    0.012533520    0.007393720
     36        1          -0.000794755   -0.001714996   -0.001073053
     37        6           0.014169333   -0.022895444   -0.003471923
     38        8           0.011296653   -0.013660177   -0.010661449
     39        6          -0.010171907   -0.007554424   -0.002032962
     40        6           0.000885699    0.004702194    0.003178656
     41        6           0.011388110    0.000835140   -0.001238130
     42       16          -0.000599936   -0.000691786   -0.000266995
     43        1           0.000294617   -0.000457562   -0.000352442
     44        1          -0.000551381    0.000438757   -0.000769515
     45        1           0.000023435   -0.000445850    0.000491998
     46        6          -0.006463040   -0.002178660   -0.000598465
     47        8          -0.005840441    0.012606251    0.007703785
     48        6           0.014376692    0.005235297    0.000681507
     49        1           0.000200172    0.000047049    0.000025298
     50        6          -0.000218538   -0.008111568   -0.005048984
     51        1          -0.001351291   -0.000114590    0.000332171
     52        1           0.000476826    0.000636830    0.000024550
     53        1          -0.000234357   -0.000735225   -0.000429346
     54        1           0.000906375    0.000396012    0.001057350
 -------------------------------------------------------------------
 Cartesian Forces:  Max     0.052809593 RMS     0.015637197

 GradGradGradGradGradGradGradGradGradGradGradGradGradGradGradGradGradGrad
 Berny optimization.
 FormGI is forming the generalized inverse of G from B-inverse, IUseBI=4.
 Internal  Forces:  Max     0.191171045 RMS     0.024025516
 Search for a local minimum.
 Step number   1 out of a maximum of  307
 All quantities printed in internal units (Hartrees-Bohrs-Radians)
 Mixed Optimization -- RFO/linear search
 Second derivative matrix not updated -- first step.
 ITU=  0
     Eigenvalues ---    0.00803   0.00803   0.01176   0.01203   0.01245
     Eigenvalues ---    0.01292   0.01308   0.01311   0.01379   0.01387
     Eigenvalues ---    0.01419   0.01429   0.01458   0.01496   0.01516
     Eigenvalues ---    0.01568   0.01573   0.01577   0.01625   0.01651
     Eigenvalues ---    0.01696   0.01711   0.01714   0.01719   0.01754
     Eigenvalues ---    0.01783   0.01803   0.01847   0.01961   0.02040
     Eigenvalues ---    0.02047   0.02068   0.02076   0.02082   0.02135
     Eigenvalues ---    0.02149   0.02163   0.02178   0.02197   0.02213
     Eigenvalues ---    0.02239   0.02251   0.07556   0.07572   0.07690
     Eigenvalues ---    0.07700   0.10068   0.10071   0.10633   0.10637
     Eigenvalues ---    0.15983   0.15999   0.15999   0.16000   0.16000
     Eigenvalues ---    0.16000   0.16000   0.16000   0.16000   0.16000
     Eigenvalues ---    0.16000   0.16000   0.16000   0.16000   0.16000
     Eigenvalues ---    0.16000   0.16000   0.16000   0.22530   0.22583
     Eigenvalues ---    0.23518   0.23582   0.24516   0.24747   0.24866
     Eigenvalues ---    0.24931   0.24952   0.24985   0.24987   0.24988
     Eigenvalues ---    0.24992   0.24994   0.24997   0.24997   0.24998
     Eigenvalues ---    0.24998   0.25000   0.25000   0.25000   0.25000
     Eigenvalues ---    0.25000   0.25000   0.25000   0.25000   0.25000
     Eigenvalues ---    0.25000   0.28839   0.28855   0.30108   0.32077
     Eigenvalues ---    0.32582   0.32774   0.33111   0.33787   0.33969
     Eigenvalues ---    0.33990   0.34045   0.34092   0.34354   0.34466
     Eigenvalues ---    0.34577   0.34629   0.34693   0.34714   0.34879
     Eigenvalues ---    0.35198   0.35218   0.35468   0.35553   0.35582
     Eigenvalues ---    0.35739   0.35809   0.36078   0.36083   0.36265
     Eigenvalues ---    0.36396   0.36662   0.39352   0.40194   0.40276
     Eigenvalues ---    0.40602   0.40651   0.41524   0.41912   0.42009
     Eigenvalues ---    0.42300   0.42761   0.43455   0.43905   0.44092
     Eigenvalues ---    0.44594   0.44683   0.45014   0.45406   0.46251
     Eigenvalues ---    0.47305   0.47572   0.49310   0.49674   0.52823
     Eigenvalues ---    0.53226   0.93281   0.93432   0.93989   0.94585
     Eigenvalues --- 1000.000001000.000001000.000001000.000001000.00000
     Eigenvalues --- 1000.000001000.000001000.000001000.000001000.00000
     Eigenvalues --- 1000.000001000.000001000.000001000.000001000.00000
     Eigenvalues --- 1000.000001000.000001000.000001000.000001000.00000
     Eigenvalues --- 1000.000001000.000001000.000001000.000001000.00000
     Eigenvalues --- 1000.000001000.000001000.000001000.000001000.00000
     Eigenvalues --- 1000.000001000.000001000.000001000.000001000.00000
     Eigenvalues --- 1000.000001000.000001000.000001000.000001000.00000
     Eigenvalues --- 1000.000001000.000001000.000001000.000001000.00000
     Eigenvalues --- 1000.000001000.000001000.000001000.000001000.00000
     Eigenvalues --- 1000.000001000.000001000.000001000.000001000.00000
     Eigenvalues --- 1000.000001000.000001000.000001000.000001000.00000
     Eigenvalues --- 1000.000001000.000001000.000001000.000001000.00000
     Eigenvalues --- 1000.000001000.000001000.000001000.000001000.00000
     Eigenvalues --- 1000.000001000.000001000.000001000.000001000.00000
     Eigenvalues --- 1000.000001000.000001000.000001000.000001000.00000
     Eigenvalues --- 1000.000001000.000001000.000001000.000001000.00000
     Eigenvalues --- 1000.000001000.000001000.000001000.000001000.00000
     Eigenvalues --- 1000.000001000.000001000.000001000.000001000.00000
     Eigenvalues --- 1000.000001000.000001000.000001000.000001000.00000
     Eigenvalues --- 1000.000001000.000001000.000001000.000001000.00000
     Eigenvalues --- 1000.000001000.000001000.000001000.000001000.00000
     Eigenvalues --- 1000.000001000.000001000.000001000.000001000.00000
     Eigenvalues --- 1000.000001000.000001000.000001000.000001000.00000
     Eigenvalues --- 1000.000001000.000001000.000001000.000001000.00000
     Eigenvalues --- 1000.000001000.000001000.000001000.000001000.00000
     Eigenvalues --- 1000.000001000.000001000.000001000.000001000.00000
     Eigenvalues --- 1000.000001000.000001000.000001000.000001000.00000
     Eigenvalues --- 1000.000001000.00000
 RFO step:  Lambda=-2.98797843D-01 EMin= 8.02933640D-03
 Linear search not attempted -- first point.
 Maximum step size (   0.300) exceeded in Quadratic search.
    -- Step size scaled by   0.416
 Iteration  1 RMS(Cart)=  0.30830467 RMS(Int)=  0.00766180
 Iteration  2 RMS(Cart)=  0.13485054 RMS(Int)=  0.00113806
 Iteration  3 RMS(Cart)=  0.00395666 RMS(Int)=  0.00017257
 Iteration  4 RMS(Cart)=  0.00000099 RMS(Int)=  0.00017257
 Iteration  1 RMS(Cart)=  0.00009227 RMS(Int)=  0.00001510
 Iteration  2 RMS(Cart)=  0.00005192 RMS(Int)=  0.00001685
 Iteration  3 RMS(Cart)=  0.00002922 RMS(Int)=  0.00001910
 Iteration  4 RMS(Cart)=  0.00001644 RMS(Int)=  0.00002064
 Iteration  5 RMS(Cart)=  0.00000925 RMS(Int)=  0.00002157
 Iteration  6 RMS(Cart)=  0.00000521 RMS(Int)=  0.00002212
 Iteration  7 RMS(Cart)=  0.00000293 RMS(Int)=  0.00002243
 Iteration  8 RMS(Cart)=  0.00000165 RMS(Int)=  0.00002260
 Iteration  9 RMS(Cart)=  0.00000093 RMS(Int)=  0.00002270
 Variable       Old X    -DE/DX   Delta X   Delta X   Delta X     New X
                                 (Linear)    (Quad)   (Total)
    R1        2.80935  -0.02073   0.00000  -0.01380  -0.01380   2.79555
    R2        2.64584   0.00011   0.00000  -0.00008  -0.00007   2.64577
    R3        2.31147   0.03153   0.00000   0.01060   0.01060   2.32207
    R4        2.67311  -0.01199   0.00000  -0.00805  -0.00809   2.66502
    R5        2.59267   0.00457   0.00000   0.00081   0.00081   2.59349
    R6        2.66894   0.01134   0.00000   0.00659   0.00658   2.67553
    R7        2.69164   0.01694   0.00000   0.01117   0.01114   2.70278
    R8        2.81049  -0.02100   0.00000  -0.01348  -0.01349   2.79701
    R9        2.62173   0.01708   0.00000   0.00849   0.00847   2.63020
   R10        2.65570  -0.00143   0.00000  -0.00073  -0.00073   2.65497
   R11        2.30889   0.03320   0.00000   0.01110   0.01110   2.31999
   R12        2.70248  -0.02303   0.00000  -0.01421  -0.01417   2.68831
   R13        2.04786  -0.00129   0.00000  -0.00082  -0.00082   2.04704
   R14        2.70495   0.05221   0.00000   0.03384   0.03389   2.73884
   R15        2.68322   0.02056   0.00000   0.01330   0.01327   2.69649
   R16        2.68655   0.11523   0.00000   0.06771   0.06776   2.75431
   R17        2.81233  -0.00309   0.00000  -0.00150  -0.00141   2.81093
   R18        2.76359   0.05778   0.00000   0.03615   0.03615   2.79974
   R19        2.66221  -0.00546   0.00000  -0.00387  -0.00382   2.65838
   R20        2.31391   0.00327   0.00000   0.00110   0.00110   2.31501
   R21        2.79415  -0.04108   0.00000  -0.02701  -0.02710   2.76705
   R22        2.63842  -0.02012   0.00000  -0.01220  -0.01224   2.62618
   R23        2.31456   0.03145   0.00000   0.01063   0.01063   2.32520
   R24        2.62448   0.02510   0.00000   0.01346   0.01347   2.63795
   R25        2.64561  -0.03589   0.00000  -0.02049  -0.02051   2.62510
   R26        2.04921  -0.00068   0.00000  -0.00043  -0.00043   2.04878
   R27        2.04741  -0.00016   0.00000  -0.00010  -0.00010   2.04731
   R28        2.77259  -0.00383   0.00000  -0.00242  -0.00242   2.77018
   R29        2.77252  -0.00480   0.00000  -0.00303  -0.00303   2.76949
   R30        2.06176   0.00098   0.00000   0.00063   0.00063   2.06239
   R31        2.06551  -0.00023   0.00000  -0.00015  -0.00015   2.06537
   R32        2.05322   0.00055   0.00000   0.00035   0.00035   2.05357
   R33        2.06368   0.00037   0.00000   0.00024   0.00024   2.06392
   R34        2.06281   0.00089   0.00000   0.00057   0.00057   2.06339
   R35        2.05355   0.00057   0.00000   0.00037   0.00037   2.05392
   R36        2.61074   0.02345   0.00000   0.01273   0.01278   2.62352
   R37        3.33290   0.01768   0.00000   0.01320   0.01323   3.34613
   R38        2.66166  -0.00848   0.00000  -0.00509  -0.00509   2.65657
   R39        2.03670   0.00211   0.00000   0.00133   0.00133   2.03802
   R40        3.30377   0.02076   0.00000   0.01413   0.01409   3.31785
   R41        2.64288  -0.02224   0.00000  -0.01282  -0.01287   2.63001
   R42        2.57120   0.01641   0.00000   0.00826   0.00826   2.57945
   R43        2.71180   0.00220   0.00000   0.00130   0.00130   2.71310
   R44        2.69036  -0.00496   0.00000  -0.00288  -0.00288   2.68748
   R45        2.63270   0.00666   0.00000   0.00362   0.00362   2.63632
   R46        3.32982   0.00511   0.00000   0.00360   0.00360   3.33342
   R47        2.06142   0.00046   0.00000   0.00030   0.00030   2.06171
   R48        2.07347  -0.00054   0.00000  -0.00035  -0.00035   2.07312
   R49        2.07254  -0.00047   0.00000  -0.00031  -0.00031   2.07224
   R50        2.69212   0.00058   0.00000   0.00033   0.00033   2.69245
   R51        2.56743   0.00715   0.00000   0.00358   0.00358   2.57101
   R52        3.26355   0.00436   0.00000   0.00289   0.00289   3.26644
   R53        2.58575   0.00276   0.00000   0.00141   0.00141   2.58716
   R54        2.04381   0.00009   0.00000   0.00006   0.00006   2.04387
   R55        2.68912  -0.00894   0.00000  -0.00518  -0.00518   2.68394
   R56        2.04492  -0.00136   0.00000  -0.00086  -0.00086   2.04406
   R57        2.07382   0.00061   0.00000   0.00040   0.00040   2.07422
   R58        2.05872  -0.00004   0.00000  -0.00002  -0.00002   2.05870
   R59        2.07175   0.00137   0.00000   0.00089   0.00089   2.07264
    A1        2.03797  -0.00249   0.00000  -0.00255  -0.00256   2.03541
    A2        2.14521   0.00929   0.00000   0.00738   0.00738   2.15259
    A3        2.10001  -0.00680   0.00000  -0.00483  -0.00483   2.09518
    A4        2.10395   0.00764   0.00000   0.00686   0.00687   2.11081
    A5        2.08282  -0.01003   0.00000  -0.00571  -0.00569   2.07713
    A6        2.09624   0.00238   0.00000  -0.00116  -0.00119   2.09505
    A7        2.10093  -0.00764   0.00000  -0.00666  -0.00664   2.09429
    A8        2.07104  -0.00203   0.00000  -0.00263  -0.00269   2.06835
    A9        2.11118   0.00968   0.00000   0.00930   0.00934   2.12052
   A10        2.10296   0.00442   0.00000   0.00379   0.00379   2.10675
   A11        2.09911   0.00517   0.00000   0.00360   0.00357   2.10268
   A12        2.08110  -0.00959   0.00000  -0.00739  -0.00735   2.07375
   A13        2.03739  -0.00382   0.00000  -0.00263  -0.00265   2.03475
   A14        2.12972   0.01011   0.00000   0.00754   0.00755   2.13727
   A15        2.11607  -0.00629   0.00000  -0.00491  -0.00490   2.11117
   A16        2.15098   0.04075   0.00000   0.03009   0.03014   2.18112
   A17        2.04399  -0.01958   0.00000  -0.01432  -0.01435   2.02964
   A18        2.08722  -0.02103   0.00000  -0.01564  -0.01567   2.07155
   A19        2.11101   0.01381   0.00000   0.01085   0.01080   2.12181
   A20        2.04385  -0.02998   0.00000  -0.02380  -0.02378   2.02007
   A21        2.12832   0.01617   0.00000   0.01296   0.01298   2.14130
   A22        2.08678  -0.02837   0.00000  -0.01874  -0.01878   2.06801
   A23        2.04738  -0.05560   0.00000  -0.04096  -0.04085   2.00653
   A24        2.14662   0.08432   0.00000   0.06016   0.06006   2.20668
   A25        2.04892  -0.02652   0.00000  -0.01847  -0.01835   2.03057
   A26        2.00754  -0.16475   0.00000  -0.12579  -0.12584   1.88170
   A27        2.22643   0.19117   0.00000   0.14423   0.14417   2.37060
   A28        2.06022   0.02770   0.00000   0.02160   0.02175   2.08197
   A29        2.17370   0.03554   0.00000   0.02666   0.02658   2.20028
   A30        2.04919  -0.06322   0.00000  -0.04823  -0.04831   2.00088
   A31        2.01621  -0.01225   0.00000  -0.01071  -0.01086   2.00535
   A32        2.14188   0.01459   0.00000   0.01178   0.01185   2.15373
   A33        2.12500  -0.00234   0.00000  -0.00106  -0.00099   2.12401
   A34        2.10943   0.00853   0.00000   0.00713   0.00698   2.11641
   A35        2.11468   0.01586   0.00000   0.01298   0.01305   2.12773
   A36        2.05896  -0.02439   0.00000  -0.02009  -0.02002   2.03894
   A37        2.11176   0.00389   0.00000   0.00287   0.00283   2.11459
   A38        2.05670  -0.00117   0.00000  -0.00074  -0.00072   2.05598
   A39        2.11471  -0.00271   0.00000  -0.00214  -0.00211   2.11260
   A40        2.08567  -0.00458   0.00000  -0.00491  -0.00498   2.08070
   A41        2.07549   0.00319   0.00000   0.00327   0.00330   2.07880
   A42        2.12199   0.00140   0.00000   0.00165   0.00168   2.12367
   A43        2.20043   0.01568   0.00000   0.01024   0.01025   2.21067
   A44        2.02023  -0.00719   0.00000  -0.00463  -0.00463   2.01560
   A45        2.06252  -0.00849   0.00000  -0.00561  -0.00561   2.05691
   A46        2.18316   0.00190   0.00000   0.00120   0.00119   2.18434
   A47        2.02959  -0.00010   0.00000   0.00004   0.00005   2.02963
   A48        2.07044  -0.00180   0.00000  -0.00124  -0.00124   2.06921
[...]
 Alpha  occ. eigenvalues --   -0.31854  -0.31451  -0.30269  -0.29906  -0.29667
 Alpha  occ. eigenvalues --   -0.29085  -0.28067  -0.27661  -0.27330  -0.26684
 Alpha  occ. eigenvalues --   -0.26224  -0.25459  -0.25230  -0.25074  -0.24451
 Alpha  occ. eigenvalues --   -0.23446  -0.23025  -0.22585  -0.22018  -0.21412
 Alpha  occ. eigenvalues --   -0.21287  -0.20962  -0.20879  -0.20341  -0.19839
 Alpha  occ. eigenvalues --   -0.19559  -0.19312  -0.18773  -0.18471  -0.18288
 Alpha  occ. eigenvalues --   -0.17900  -0.17786  -0.16657  -0.16509  -0.16289
 Alpha  occ. eigenvalues --   -0.15278  -0.14889  -0.14353  -0.12556  -0.11788
 Alpha  occ. eigenvalues --   -0.11472  -0.09666  -0.08557  -0.07238  -0.07029
 Alpha  occ. eigenvalues --   -0.06601  -0.06151  -0.05783  -0.05147  -0.04913
 Alpha  occ. eigenvalues --   -0.04670  -0.03302  -0.01783   0.00085   0.06452
 Alpha virt. eigenvalues --    0.12199   0.12989   0.13808   0.14618   0.15728
 Alpha virt. eigenvalues --    0.15970   0.16583   0.16604   0.16863   0.17432
 Alpha virt. eigenvalues --    0.17529   0.18078   0.18694   0.18956   0.19055
 Alpha virt. eigenvalues --    0.19205   0.19317   0.19538   0.19554   0.20485
 Alpha virt. eigenvalues --    0.20587   0.20751   0.20951   0.21114   0.21462
 Alpha virt. eigenvalues --    0.21978   0.22277   0.22520   0.22679   0.23014
 Alpha virt. eigenvalues --    0.23426   0.23586   0.23742   0.24015   0.24220
 Alpha virt. eigenvalues --    0.24446   0.24670   0.25086   0.25099   0.25257
 Alpha virt. eigenvalues --    0.25901   0.26090   0.26155   0.26543   0.26775
 Alpha virt. eigenvalues --    0.26816   0.26972   0.27372   0.27487   0.27847
 Alpha virt. eigenvalues --    0.28071   0.28351   0.28642   0.29102   0.29342
 Alpha virt. eigenvalues --    0.29589   0.29717   0.30004   0.30220   0.30741
 Alpha virt. eigenvalues --    0.30970   0.31047   0.31262   0.31793   0.31937
 Alpha virt. eigenvalues --    0.32111   0.32664   0.32777   0.32960   0.33227
 Alpha virt. eigenvalues --    0.33370   0.33753   0.33925   0.34097   0.34344
 Alpha virt. eigenvalues --    0.34590   0.34682   0.34809   0.35129   0.35224
 Alpha virt. eigenvalues --    0.35497   0.35744   0.35765   0.36105   0.36413
 Alpha virt. eigenvalues --    0.36600   0.36811   0.37110   0.37324   0.37662
 Alpha virt. eigenvalues --    0.37954   0.38046   0.38199   0.38516   0.38661
 Alpha virt. eigenvalues --    0.38974   0.39352   0.39474   0.39881   0.40018
 Alpha virt. eigenvalues --    0.40184   0.40295   0.40723   0.40899   0.41184
 Alpha virt. eigenvalues --    0.41608   0.41721   0.42092   0.42179   0.42353
 Alpha virt. eigenvalues --    0.42610   0.42768   0.42901   0.43199   0.43503
 Alpha virt. eigenvalues --    0.43823   0.43996   0.44081   0.44116   0.44443
 Alpha virt. eigenvalues --    0.44498   0.44822   0.44975   0.45314   0.45511
 Alpha virt. eigenvalues --    0.45692   0.45883   0.46221   0.46279   0.46474
 Alpha virt. eigenvalues --    0.46869   0.46968   0.47189   0.47248   0.47601
 Alpha virt. eigenvalues --    0.47903   0.48009   0.48308   0.48415   0.48696
 Alpha virt. eigenvalues --    0.48827   0.49137   0.49203   0.49653   0.49746
 Alpha virt. eigenvalues --    0.50162   0.50207   0.50294   0.50563   0.50720
 Alpha virt. eigenvalues --    0.51074   0.51191   0.51515   0.51760   0.52031
 Alpha virt. eigenvalues --    0.52463   0.52583   0.52663   0.52971   0.53145
 Alpha virt. eigenvalues --    0.53836   0.54054   0.54188   0.54835   0.54979
 Alpha virt. eigenvalues --    0.55364   0.55824   0.56141   0.56192   0.56727
 Alpha virt. eigenvalues --    0.57005   0.57356   0.57732   0.58409   0.58425
 Alpha virt. eigenvalues --    0.59114   0.59489   0.59820   0.60151   0.60370
 Alpha virt. eigenvalues --    0.60609   0.60659   0.61004   0.61328   0.61685
 Alpha virt. eigenvalues --    0.62341   0.62643   0.63134   0.63387   0.64052
 Alpha virt. eigenvalues --    0.64210   0.64287   0.64655   0.64898   0.65942
 Alpha virt. eigenvalues --    0.66294   0.66405   0.67352   0.67723   0.67978
 Alpha virt. eigenvalues --    0.68626   0.69142   0.69812   0.70341   0.70952
 Alpha virt. eigenvalues --    0.71298   0.71474   0.72396   0.72789   0.73565
 Alpha virt. eigenvalues --    0.73582   0.74099   0.74622   0.74893   0.75022
 Alpha virt. eigenvalues --    0.75438   0.76035   0.76577   0.77253   0.77817
 Alpha virt. eigenvalues --    0.77993   0.78138   0.78523   0.78892   0.79543
 Alpha virt. eigenvalues --    0.80163   0.80257   0.80708   0.81347   0.81498
 Alpha virt. eigenvalues --    0.81768   0.82287   0.82636   0.83117   0.83439
 Alpha virt. eigenvalues --    0.83881   0.84126   0.84533   0.84767   0.85525
 Alpha virt. eigenvalues --    0.85649   0.85909   0.85954   0.86538   0.86924
 Alpha virt. eigenvalues --    0.87226   0.87390   0.88117   0.88389   0.88728
 Alpha virt. eigenvalues --    0.88959   0.89628   0.89768   0.90149   0.90827
 Alpha virt. eigenvalues --    0.90876   0.91706   0.92025   0.92278   0.92786
 Alpha virt. eigenvalues --    0.92971   0.93283   0.93592   0.93975   0.94338
 Alpha virt. eigenvalues --    0.94659   0.95199   0.95265   0.95442   0.95739
 Alpha virt. eigenvalues --    0.95974   0.96293   0.96774   0.97107   0.97189
 Alpha virt. eigenvalues --    0.97435   0.97637   0.98523   0.98787   0.99676
 Alpha virt. eigenvalues --    0.99794   1.00089   1.00639   1.01353   1.01979
 Alpha virt. eigenvalues --    1.02124   1.03604   1.03956   1.04987   1.05683
 Alpha virt. eigenvalues --    1.06237   1.06700   1.06841   1.07402   1.08008
 Alpha virt. eigenvalues --    1.09504   1.09781   1.10120   1.11330   1.11641
 Alpha virt. eigenvalues --    1.12247   1.12833   1.13609   1.14032   1.14406
 Alpha virt. eigenvalues --    1.14879   1.15211   1.15724   1.15979   1.16220
 Alpha virt. eigenvalues --    1.16796   1.17017   1.17382   1.17988   1.18364
 Alpha virt. eigenvalues --    1.18912   1.19154   1.19594   1.19665   1.20189
 Alpha virt. eigenvalues --    1.20903   1.21425   1.21611   1.22414   1.22655
 Alpha virt. eigenvalues --    1.23188   1.23696   1.23908   1.24536   1.25094
 Alpha virt. eigenvalues --    1.25188   1.25506   1.25524   1.26284   1.27090
 Alpha virt. eigenvalues --    1.27803   1.28125   1.28396   1.28579   1.29476
 Alpha virt. eigenvalues --    1.29875   1.30734   1.31327   1.32158   1.32757
 Alpha virt. eigenvalues --    1.33006   1.33280   1.34517   1.35418   1.35844
 Alpha virt. eigenvalues --    1.37027   1.37534   1.37921   1.39384   1.40096
 Alpha virt. eigenvalues --    1.40551   1.40699   1.41188   1.42424   1.43192
 Alpha virt. eigenvalues --    1.43562   1.43906   1.44390   1.45206   1.45626
 Alpha virt. eigenvalues --    1.46403   1.46525   1.47222   1.48012   1.49155
 Alpha virt. eigenvalues --    1.49765   1.49868   1.50467   1.51412   1.51824
 Alpha virt. eigenvalues --    1.51940   1.52330   1.52887   1.53864   1.56002
 Alpha virt. eigenvalues --    1.56232   1.56700   1.57613   1.58388   1.58802
 Alpha virt. eigenvalues --    1.59970   1.60314   1.61908   1.62732   1.63165
 Alpha virt. eigenvalues --    1.63606   1.64268   1.65340   1.65411   1.65690
 Alpha virt. eigenvalues --    1.65851   1.66622   1.66824   1.68307   1.68489
 Alpha virt. eigenvalues --    1.69033   1.69685   1.69878   1.70430   1.71273
 Alpha virt. eigenvalues --    1.71849   1.72372   1.72771   1.73041   1.73359
 Alpha virt. eigenvalues --    1.74421   1.74547   1.74622   1.75523   1.75733
 Alpha virt. eigenvalues --    1.76098   1.76736   1.76923   1.77573   1.78338
 Alpha virt. eigenvalues --    1.78641   1.78905   1.80294   1.80938   1.80983
 Alpha virt. eigenvalues --    1.81712   1.81951   1.83004   1.83413   1.83876
 Alpha virt. eigenvalues --    1.84526   1.85541   1.85997   1.86409   1.87445
 Alpha virt. eigenvalues --    1.88036   1.88378   1.88917   1.89770   1.89880
 Alpha virt. eigenvalues --    1.90890   1.91542   1.92652   1.92875   1.93219
 Alpha virt. eigenvalues --    1.93564   1.94313   1.94877   1.95672   1.96165
 Alpha virt. eigenvalues --    1.96253   1.96704   1.97731   1.98906   1.99298
 Alpha virt. eigenvalues --    2.00187   2.00333   2.01148   2.02024   2.02177
 Alpha virt. eigenvalues --    2.03081   2.03804   2.04069   2.06308   2.07979
 Alpha virt. eigenvalues --    2.08226   2.08231   2.08661   2.09755   2.10497
 Alpha virt. eigenvalues --    2.10874   2.11399   2.12097   2.12205   2.12589
 Alpha virt. eigenvalues --    2.13194   2.13451   2.14647   2.15804   2.16648
 Alpha virt. eigenvalues --    2.17844   2.18150   2.18689   2.19080   2.20028
 Alpha virt. eigenvalues --    2.20829   2.21611   2.21735   2.22460   2.22844
 Alpha virt. eigenvalues --    2.23362   2.23749   2.24359   2.24629   2.25004
 Alpha virt. eigenvalues --    2.25461   2.26335   2.26411   2.26848   2.27554
 Alpha virt. eigenvalues --    2.28951   2.29729   2.30339   2.30993   2.31645
 Alpha virt. eigenvalues --    2.32070   2.32574   2.34544   2.35413   2.35893
 Alpha virt. eigenvalues --    2.36565   2.37410   2.38997   2.39625   2.40216
 Alpha virt. eigenvalues --    2.41127   2.42293   2.42947   2.43617   2.44460
 Alpha virt. eigenvalues --    2.45636   2.47618   2.49555   2.51073   2.51618
 Alpha virt. eigenvalues --    2.55137   2.55542   2.56065   2.57722   2.58613
 Alpha virt. eigenvalues --    2.59085   2.59727   2.60382   2.60593   2.61268
 Alpha virt. eigenvalues --    2.62022   2.62939   2.63630   2.64639   2.65605
 Alpha virt. eigenvalues --    2.66345   2.67449   2.67898   2.68063   2.69075
 Alpha virt. eigenvalues --    2.70057   2.71070   2.71501   2.72146   2.72626
 Alpha virt. eigenvalues --    2.72759   2.74872   2.75790   2.75892   2.76270
 Alpha virt. eigenvalues --    2.78215   2.78439   2.80293   2.80597   2.82465
 Alpha virt. eigenvalues --    2.82886   2.83460   2.84604   2.85767   2.86628
 Alpha virt. eigenvalues --    2.87464   2.87915   2.88048   2.88707   2.89414
 Alpha virt. eigenvalues --    2.90179   2.90666   2.91122   2.92114   2.93258
 Alpha virt. eigenvalues --    2.94139   2.94463   2.94956   2.95519   2.96030
 Alpha virt. eigenvalues --    2.96274   2.98953   2.99747   3.00217   3.00924
 Alpha virt. eigenvalues --    3.01179   3.02799   3.03567   3.04676   3.06157
 Alpha virt. eigenvalues --    3.06530   3.06678   3.07773   3.09006   3.09674
 Alpha virt. eigenvalues --    3.10347   3.11868   3.12260   3.12522   3.13273
 Alpha virt. eigenvalues --    3.13636   3.14260   3.14865   3.14989   3.15315
 Alpha virt. eigenvalues --    3.15885   3.16707   3.17550   3.19025   3.19923
 Alpha virt. eigenvalues --    3.20392   3.21038   3.23196   3.24688   3.27286
 Alpha virt. eigenvalues --    3.27891   3.29077   3.30306   3.31170   3.31838
 Alpha virt. eigenvalues --    3.32672   3.34155   3.35535   3.37123   3.38585
 Alpha virt. eigenvalues --    3.39486   3.40235   3.41128   3.41802   3.42253
 Alpha virt. eigenvalues --    3.42651   3.44315   3.45281   3.47501   3.48170
 Alpha virt. eigenvalues --    3.49515   3.50963   3.52214   3.52851   3.54328
 Alpha virt. eigenvalues --    3.55443   3.56194   3.56374   3.56703   3.58603
 Alpha virt. eigenvalues --    3.60306   3.60853   3.61302   3.62515   3.62770
 Alpha virt. eigenvalues --    3.63946   3.64885   3.67297   3.68725   3.70639
 Alpha virt. eigenvalues --    3.72717   3.73620   3.75240   3.80368   3.81777
 Alpha virt. eigenvalues --    3.82830   3.83809   3.86994   3.88036   3.88843
 Alpha virt. eigenvalues --    3.91399   3.91714   3.91997   3.92190   3.93206
 Alpha virt. eigenvalues --    3.94264   3.96464   3.98002   4.00216   4.02944
 Alpha virt. eigenvalues --    4.06910   4.08263   4.11957   4.14485   4.15057
 Alpha virt. eigenvalues --    4.16242   4.17802   4.18422   4.19467   4.21120
 Alpha virt. eigenvalues --    4.25286   4.26316   4.28609   4.31970   4.36439
 Alpha virt. eigenvalues --    4.38697   4.42803   4.49589   4.51480   4.60169
 Alpha virt. eigenvalues --    4.63220   4.65631   4.71751   4.88388   5.05495
 Alpha virt. eigenvalues --    5.07506   5.10431   5.13549   5.19912   5.27655
 Alpha virt. eigenvalues --    5.29402   5.30269   5.33508   5.35496   5.36011
 Alpha virt. eigenvalues --    5.36954   5.47898   5.50351   5.51806   5.53460
 Alpha virt. eigenvalues --    5.55538   5.60154   5.91268   5.95804   5.98374
 Alpha virt. eigenvalues --    6.02892   6.04673   6.07274   8.18113   8.24806
 Alpha virt. eigenvalues --   17.46568  17.54946  17.66583  17.69926  17.78753
 Alpha virt. eigenvalues --   17.83411  23.69846  23.77663  23.89712  23.99586
 Alpha virt. eigenvalues --   24.02957  24.05890  24.06584  24.08002  24.08769
 Alpha virt. eigenvalues --   24.10130  24.11688  24.13177  24.14263  24.14837
 Alpha virt. eigenvalues --   24.15999  24.16818  24.19643  24.20083  24.21833
 Alpha virt. eigenvalues --   24.22525  24.24323  24.25793  24.29750  24.32367
 Alpha virt. eigenvalues --   24.34473  24.41941  35.78189  35.80923  50.12758
 Alpha virt. eigenvalues --   50.14426  50.25350  50.27499  50.28744  50.30120
 Alpha virt. eigenvalues --  189.35497 189.42757
          Condensed to atoms (all electrons):
 Mulliken charges:
               1
     1  C    0.232950
     2  C   -0.078407
     3  C    0.132052
     4  C    0.236834
     5  C    0.102610
     6  C    0.073489
     7  C    0.092591
     8  C    0.242756
     9  C    0.265255
    10  C   -0.664040
    11  C    0.203489
    12  C    0.099504
    13  C   -0.499378
    14  C   -0.585213
    15  H    0.103147
    16  H    0.107666
    17  H    0.123517
    18  N   -0.036681
    19  N   -0.136717
    20  O   -0.429448
    21  O   -0.404517
    22  O   -0.421399
    23  O   -0.352514
    24  C   -0.155595
    25  H    0.140789
    26  H    0.134292
    27  H    0.156194
    28  C   -0.179689
    29  H    0.134369
    30  H    0.135278
    31  H    0.157048
    32  C    0.134390
    33  C   -0.678794
    34  S   -0.788442
    35  C   -0.511023
    36  H    0.112604
    37  C    0.678990
    38  O   -0.130662
    39  C    0.434709
    40  C   -0.229483
    41  C    0.043121
    42  S   -0.357409
    43  H    0.132310
    44  H    0.143484
    45  H    0.133047
    46  C   -0.040989
    47  O   -0.141351
    48  C   -0.213113
    49  H    0.092944
    50  C   -0.298434
    51  H    0.118630
    52  H    0.190391
    53  H    0.144615
    54  H    0.100233
 Sum of Mulliken charges =  -2.00000
 Mulliken charges with hydrogens summed into heavy atoms:
               1
     1  C    0.232950
     2  C   -0.078407
     3  C    0.132052
     4  C    0.236834
     5  C    0.102610
     6  C    0.197005
     7  C    0.092591
     8  C    0.242756
     9  C    0.265255
    10  C   -0.664040
    11  C    0.203489
    12  C    0.099504
    13  C   -0.391712
    14  C   -0.482065
    18  N   -0.036681
    19  N   -0.136717
    20  O   -0.429448
    21  O   -0.404517
    22  O   -0.421399
    23  O   -0.352514
    24  C    0.275680
    28  C    0.247005
    32  C    0.134390
    33  C   -0.566190
    34  S   -0.788442
    35  C   -0.511023
    37  C    0.678990
    38  O   -0.130662
    39  C    0.434709
    40  C    0.179357
    41  C    0.043121
    42  S   -0.357409
    46  C    0.051956
    47  O   -0.141351
    48  C   -0.094483
    50  C    0.136805
 Electronic spatial extent (au):  <R**2>=          22201.3446
 Charge=             -2.0000 electrons
 Dipole moment (field-independent basis, Debye):
    X=             14.2225    Y=             -3.3748    Z=             -1.7137  Tot=             14.7175
 Quadrupole moment (field-independent basis, Debye-Ang):
   XX=           -420.9581   YY=           -303.3571   ZZ=           -242.2891
   XY=              6.1563   XZ=              4.2965   YZ=              5.0172
 Traceless Quadrupole moment (field-independent basis, Debye-Ang):
   XX=            -98.7566   YY=             18.8443   ZZ=             79.9123
   XY=              6.1563   XZ=              4.2965   YZ=              5.0172
 Octapole moment (field-independent basis, Debye-Ang**2):
  XXX=            490.5752  YYY=           -121.9626  ZZZ=            -11.3516  XYY=            247.5420
  XXY=             62.4793  XXZ=           -120.8389  XZZ=             -6.3813  YZZ=            -17.6544
  YYZ=            -10.7092  XYZ=             -0.6568
 Hexadecapole moment (field-independent basis, Debye-Ang**3):
 XXXX=         -29363.6846 YYYY=          -9181.5982 ZZZZ=           -923.0737 XXXY=           -169.8988
 XXXZ=            442.6290 YYYX=            408.5331 YYYZ=             36.6293 ZZZX=            -45.6210
 ZZZY=             11.6883 XXYY=          -5925.7594 XXZZ=          -4199.2772 YYZZ=          -1464.1745
 XXYZ=             89.1882 YYXZ=            -43.2702 ZZXY=             -3.7762
 N-N= 4.112076404641D+03 E-N=-1.382241449700D+04  KE= 2.352090432576D+03
 Unable to Open any file for archive entry.
 1\1\GINC-CX3-2-20\FOpt\RB3LYP\6-311+G(d,p)\C26H18N2O6S2(2-)\NS5018\05-
 Oct-2021\0\\# opt=modredundant b3lyp/6-311+g(d,p)\\NDI_-165.pdb\\-2,1\
 C,-2.4002914878,-2.802372999,-0.6468981463\C,-2.1773705961,-1.39800904
 75,-0.4133615745\C,-3.2376513366,-0.564275844,0.0430558104\C,-4.526500
 987,-1.0871369843,0.2743927964\C,-4.7959357439,-2.490640885,0.05359226
 97\C,-0.8822443859,-0.868432234,-0.5613748113\C,-2.9684953904,0.840341
 0412,0.249628801\C,-1.6635072499,1.3715654427,0.0066746779\C,-0.567582
 7257,0.4654640257,-0.3447403216\C,-1.5207485343,2.7988359831,-0.037338
 9434\C,-3.8784871517,3.0869508251,0.8012121068\C,-4.0531372412,1.66426
 47265,0.6542492158\C,-5.3436420303,1.1033023513,0.8930815119\C,-5.5803
 770323,-0.229530615,0.7158377332\H,-6.5564368495,-0.6665752963,0.88696
 17456\H,-6.1266056401,1.7821316215,1.2097890035\H,-0.1017159466,-1.586
 4726721,-0.7730012196\N,-2.6140837978,3.5714537927,0.436013547\N,-3.70
 85571751,-3.2699222691,-0.4018709086\O,-1.542632524,-3.6165840781,-1.0
 418982268\O,-5.9045067383,-3.0293110397,0.2358474699\O,-4.7658905369,3
 .8750249727,1.192177977\O,-0.5287697782,3.4247218378,-0.4659933282\C,-
 2.4027289031,5.01440081,0.4606344687\H,-1.4814641344,5.2442913379,0.99
 92662849\H,-2.2925090786,5.4053211005,-0.5556314516\H,-3.2671391748,5.
 4619619248,0.9450320218\C,-3.933839937,-4.6906570628,-0.6422818865\H,-
 3.690969129,-4.9400867845,-1.6784358753\H,-3.2827430079,-5.2911424823,
 -0.001165373\H,-4.9796471312,-4.8967928897,-0.4288571305\C,0.856898437
 3,0.7724997796,-0.3038891171\C,1.8753422525,0.0281228331,-0.9072790577
 \S,1.5704107341,1.9754233166,0.7533751635\C,3.167615693,0.4119666158,-
 0.5259859816\H,1.6647188113,-0.7563345375,-1.6177820723\C,3.2259098318
 ,1.4642784825,0.3879321924\O,4.3397854578,-0.1341977468,-0.998595834\C
 ,4.3802950501,2.1429162417,0.8902711657\C,4.230944404,-1.2113842875,-1
 .908866981\C,4.4657816848,3.2812418226,1.693311593\S,6.0302515496,1.56
 97960145,0.5691190455\H,5.2524192643,-1.5150641976,-2.144020829\H,3.69
 09533473,-2.0571631493,-1.4675634663\H,3.7206299818,-0.9080397723,-2.8
 309820841\C,5.786135176,3.6661278392,2.0453946037\O,3.3625825586,3.957
 6543392,2.173333381\C,6.7458400541,2.8478295025,1.5208979519\H,5.98874
 56206,4.5230197431,2.676937455\C,2.9044943762,5.0303262728,1.342890075
 9\H,7.8183591313,2.9072063454,1.6249225881\H,2.5849061563,4.6648492047
 ,0.3636958337\H,2.0426187622,5.4658090165,1.8494936198\H,3.6895730408,
 5.7890277111,1.2237925094\\Version=ES64L-G16RevC.01\State=1-A\HF=-2359
 .3982599\RMSD=6.193e-09\RMSF=4.082e-04\Dipole=5.6701498,1.0189052,-0.5
 822531\Quadrupole=-64.4806872,6.2434919,58.2371953,-26.8918257,-2.1579
 047,-9.0360747\PG=C01 [X(C26H18N2O6S2)]\\@
 The archive entry for this job was punched.


 SUCCESS IS COUNTED SWEETEST
 BY THOSE WHO NE'ER SUCCEED.
 TO COMPREHEND NECTAR
 REQUIRES SOREST NEED.
           EMILY DICKINSON
 Job cpu time:       5 days  6 hours 50 minutes  9.2 seconds.
 Elapsed time:       0 days 16 hours  1 minutes 59.3 seconds.
 File lengths (MBytes):  RWF=    525 Int=      0 D2E=      0 Chk=     77 Scr=      1
 Normal termination of Gaussian 16 at Tue Oct  5 22:54:44 2021.
