 Entering Gaussian System, Link 0=g16
 Input=NDI_15.gjf
 Output=NDI_15.log
 Initial command:
 /apps/gaussian/g16-c01-avx/g16/l1.exe "/tmp/pbs.4643763[190].pbs/Gau-2341297.inp" -scrdir="/tmp/pbs.4643763[190].pbs/"
 Entering Link 1 = /apps/gaussian/g16-c01-avx/g16/l1.exe PID=   2341298.
  
 Copyright (c) 1988-2019, Gaussian, Inc.  All Rights Reserved.
  
 This is part of the Gaussian(R) 16 program.  It is based on
 the Gaussian(R) 09 system (copyright 2009, Gaussian, Inc.),
 the Gaussian(R) 03 system (copyright 2003, Gaussian, Inc.),
 the Gaussian(R) 98 system (copyright 1998, Gaussian, Inc.),
 the Gaussian(R) 94 system (copyright 1995, Gaussian, Inc.),
 the Gaussian 92(TM) system (copyright 1992, Gaussian, Inc.),
 the Gaussian 90(TM) system (copyright 1990, Gaussian, Inc.),
 the Gaussian 88(TM) system (copyright 1988, Gaussian, Inc.),
 the Gaussian 86(TM) system (copyright 1986, Carnegie Mellon
 University), and the Gaussian 82(TM) system (copyright 1983,
 Carnegie Mellon University). Gaussian is a federally registered
 trademark of Gaussian, Inc.
  
 This software contains proprietary and confidential information,
 including trade secrets, belonging to Gaussian, Inc.
  
 This software is provided under written license and may be
 used, copied, transmitted, or stored only in accord with that
 written license.
  
 The following legend is applicable only to US Government
 contracts under FAR:
  
                    RESTRICTED RIGHTS LEGEND
  
 Use, reproduction and disclosure by the US Government is
 subject to restrictions as set forth in subparagraphs (a)
 and (c) of the Commercial Computer Software - Restricted
 Rights clause in FAR 52.227-19.
  
 Gaussian, Inc.
 340 Quinnipiac St., Bldg. 40, Wallingford CT 06492
  
  
 ---------------------------------------------------------------
 Warning -- This program may not be used in any manner that
 competes with the business of Gaussian, Inc. or will provide
 assistance to any competitor of Gaussian, Inc.  The licensee
 of this program is prohibited from giving any competitor of
 Gaussian, Inc. access to this program.  By using this program,
 the user acknowledges that Gaussian, Inc. is engaged in the
 business of creating and licensing software in the field of
 computational chemistry and represents and warrants to the
 licensee that it is not a competitor of Gaussian, Inc. and that
 it will not use this program in any manner prohibited above.
 ---------------------------------------------------------------
  

 Cite this work as:
 Gaussian 16, Revision C.01,
 M. J. Frisch, G. W. Trucks, H. B. Schlegel, G. E. Scuseria, 
 M. A. Robb, J. R. Cheeseman, G. Scalmani, V. Barone, 
 G. A. Petersson, H. Nakatsuji, X. Li, M. Caricato, A. V. Marenich, 
 J. Bloino, B. G. Janesko, R. Gomperts, B. Mennucci, H. P. Hratchian, 
 J. V. Ortiz, A. F. Izmaylov, J. L. Sonnenberg, D. Williams-Young, 
 F. Ding, F. Lipparini, F. Egidi, J. Goings, B. Peng, A. Petrone, 
 T. Henderson, D. Ranasinghe, V. G. Zakrzewski, J. Gao, N. Rega, 
 G. Zheng, W. Liang, M. Hada, M. Ehara, K. Toyota, R. Fukuda, 
 J. Hasegawa, M. Ishida, T. Nakajima, Y. Honda, O. Kitao, H. Nakai, 
 T. Vreven, K. Throssell, J. A. Montgomery, Jr., J. E. Peralta, 
 F. Ogliaro, M. J. Bearpark, J. J. Heyd, E. N. Brothers, K. N. Kudin, 
 V. N. Staroverov, T. A. Keith, R. Kobayashi, J. Normand, 
 K. Raghavachari, A. P. Rendell, J. C. Burant, S. S. Iyengar, 
 J. Tomasi, M. Cossi, J. M. Millam, M. Klene, C. Adamo, R. Cammi, 
 J. W. Ochterski, R. L. Martin, K. Morokuma, O. Farkas, 
 J. B. Foresman, and D. J. Fox, Gaussian, Inc., Wallingford CT, 2019.
 
 ******************************************
 Gaussian 16:  ES64L-G16RevC.01  3-Jul-2019
                 7-Oct-2021 
 ******************************************
 %mem=10GB
 %nprocshared=8
 Will use up to    8 processors via shared memory.
 -------------------------------------
 # opt=modredundant b3lyp/6-311+g(d,p)
 -------------------------------------
 1/18=120,19=15,26=3,38=1/1,3;
 2/9=110,12=2,17=6,18=5,40=1/2;
 3/5=4,6=6,7=111,11=2,25=1,30=1,71=1,74=-5/1,2,3;
 4//1;
 5/5=2,38=5/2;
 6/7=2,8=2,9=2,10=2,28=1/1;
 7//1,2,3,16;
 1/18=20,19=15,26=3/3(2);
 2/9=110/2;
 99//99;
 2/9=110/2;
 3/5=4,6=6,7=111,11=2,25=1,30=1,71=1,74=-5/1,2,3;
 4/5=5,16=3,69=1/1;
 5/5=2,38=5/2;
 7//1,2,3,16;
 1/18=20,19=15,26=3/3(-5);
 2/9=110/2;
 6/7=2,8=2,9=2,10=2,19=2,28=1/1;
 99/9=1/99;
 ----------
 NDI_15.pdb
 ----------
 Symbolic Z-matrix:
 Charge = -2 Multiplicity = 1
 C                    -2.563    -2.994    -0.409 
 C                    -2.257    -1.551    -0.224 
 C                    -3.301    -0.607    -0.083 
 C                    -4.65     -1.024    -0.115 
 C                    -4.992    -2.459    -0.304 
 C                    -0.949    -1.137    -0.215 
 C                    -2.962     0.764     0.102 
 C                    -1.595     1.188     0.123 
 C                    -0.561     0.232    -0.072 
 C                    -1.328     2.616     0.446 
 C                    -3.777     3.115     0.508 
 C                    -4.035     1.679     0.268 
 C                    -5.356     1.252     0.23 
 C                    -5.672    -0.098     0.036 
 H                    -6.699    -0.442     0.008 
 H                    -6.133     1.997     0.361 
 H                    -0.19     -1.895    -0.369 
 N                    -2.432     3.476     0.608 
 N                    -3.916    -3.353    -0.438 
 O                    -1.695    -3.847    -0.532 
 O                    -6.149    -2.85     -0.34 
 O                    -4.676     3.938     0.629 
 O                    -0.212     3.097     0.596 
 C                    -2.111     4.875     0.912 
 H                    -1.54      4.931     1.84 
 H                    -1.5       5.299     0.111 
 H                    -3.05      5.414     1.003 
 C                    -4.206    -4.779    -0.625 
 H                    -3.759    -5.126    -1.559 
 H                    -3.775    -5.355     0.196 
 H                    -5.286    -4.897    -0.649 
 C                     0.876     0.482    -0.178 
 C                     1.626     1.597     0.143 
 S                     1.892    -0.724    -0.968 
 C                     2.98      1.49     -0.228 
 H                     1.208     2.459     0.638 
 C                     3.318     0.28     -0.843 
 O                     3.946     2.43     -0.044 
 C                     4.614    -0.144    -1.292 
 C                     3.602     3.588     0.712 
 C                     4.944    -1.34     -1.926 
 S                     6.066     0.836    -1.103 
 H                     4.521     4.165     0.812 
 H                     2.848     4.191     0.19 
 H                     3.226     3.315     1.705 
 C                     6.325    -1.467    -2.249 
 O                     3.968    -2.254    -2.171 
 C                     7.043    -0.368    -1.863 
 H                     6.762    -2.325    -2.742 
 C                     4.33     -3.451    -2.851 
 H                     8.104    -0.198    -1.987 
 H                     5.059    -4.032    -2.273 
 H                     3.411    -4.026    -2.957 
 H                     4.742    -3.235    -3.844 
 
 The following ModRedundant input section has been read:
 D       8       9      32      33 F                                           
 

 GradGradGradGradGradGradGradGradGradGradGradGradGradGradGradGradGradGrad
 Berny optimization.
 Initialization pass.
                           ----------------------------
                           !    Initial Parameters    !
                           ! (Angstroms and Degrees)  !
 --------------------------                            --------------------------
 ! Name  Definition              Value          Derivative Info.                !
 --------------------------------------------------------------------------------
 ! R1    R(1,2)                  1.4866         estimate D2E/DX2                !
 ! R2    R(1,19)                 1.4001         estimate D2E/DX2                !
 ! R3    R(1,20)                 1.2232         estimate D2E/DX2                !
 ! R4    R(2,3)                  1.4146         estimate D2E/DX2                !
 ! R5    R(2,6)                  1.372          estimate D2E/DX2                !
 ! R6    R(3,4)                  1.4123         estimate D2E/DX2                !
 ! R7    R(3,7)                  1.4244         estimate D2E/DX2                !
 ! R8    R(4,5)                  1.4872         estimate D2E/DX2                !
 ! R9    R(4,14)                 1.3874         estimate D2E/DX2                !
 ! R10   R(5,19)                 1.4053         estimate D2E/DX2                !
 ! R11   R(5,21)                 1.2218         estimate D2E/DX2                !
 ! R12   R(6,9)                  1.4301         estimate D2E/DX2                !
 ! R13   R(6,17)                 1.0837         estimate D2E/DX2                !
 ! R14   R(7,8)                  1.4314         estimate D2E/DX2                !
 ! R15   R(7,12)                 1.4199         estimate D2E/DX2                !
 ! R16   R(8,9)                  1.4217         estimate D2E/DX2                !
 ! R17   R(8,10)                 1.4882         estimate D2E/DX2                !
 ! R18   R(9,32)                 1.4624         estimate D2E/DX2                !
 ! R19   R(10,18)                1.4088         estimate D2E/DX2                !
 ! R20   R(10,23)                1.2245         estimate D2E/DX2                !
 ! R21   R(11,12)                1.4786         estimate D2E/DX2                !
 ! R22   R(11,18)                1.3962         estimate D2E/DX2                !
 ! R23   R(11,22)                1.2248         estimate D2E/DX2                !
 ! R24   R(12,13)                1.3888         estimate D2E/DX2                !
 ! R25   R(13,14)                1.4            estimate D2E/DX2                !
 ! R26   R(13,16)                1.0844         estimate D2E/DX2                !
 ! R27   R(14,15)                1.0834         estimate D2E/DX2                !
 ! R28   R(18,24)                1.4672         estimate D2E/DX2                !
 ! R29   R(19,28)                1.4672         estimate D2E/DX2                !
 ! R30   R(24,25)                1.091          estimate D2E/DX2                !
 ! R31   R(24,26)                1.093          estimate D2E/DX2                !
 ! R32   R(24,27)                1.0865         estimate D2E/DX2                !
 ! R33   R(28,29)                1.0921         estimate D2E/DX2                !
 ! R34   R(28,30)                1.0916         estimate D2E/DX2                !
 ! R35   R(28,31)                1.0867         estimate D2E/DX2                !
 ! R36   R(32,33)                1.3816         estimate D2E/DX2                !
 ! R37   R(32,34)                1.7637         estimate D2E/DX2                !
 ! R38   R(33,35)                1.408          estimate D2E/DX2                !
 ! R39   R(33,36)                1.0783         estimate D2E/DX2                !
 ! R40   R(34,37)                1.7485         estimate D2E/DX2                !
 ! R41   R(35,37)                1.3988         estimate D2E/DX2                !
 ! R42   R(35,38)                1.3604         estimate D2E/DX2                !
 ! R43   R(37,39)                1.4356         estimate D2E/DX2                !
 ! R44   R(38,40)                1.4251         estimate D2E/DX2                !
 ! R45   R(39,41)                1.3933         estimate D2E/DX2                !
 ! R46   R(39,42)                1.7619         estimate D2E/DX2                !
 ! R47   R(40,43)                1.0897         estimate D2E/DX2                !
 ! R48   R(40,44)                1.0975         estimate D2E/DX2                !
 ! R49   R(40,45)                1.0963         estimate D2E/DX2                !
 ! R50   R(41,46)                1.4239         estimate D2E/DX2                !
 ! R51   R(41,47)                1.3594         estimate D2E/DX2                !
 ! R52   R(42,48)                1.7268         estimate D2E/DX2                !
 ! R53   R(46,48)                1.3683         estimate D2E/DX2                !
 ! R54   R(46,49)                1.0817         estimate D2E/DX2                !
 ! R55   R(47,50)                1.4235         estimate D2E/DX2                !
 ! R56   R(48,51)                1.0817         estimate D2E/DX2                !
 ! R57   R(50,52)                1.0969         estimate D2E/DX2                !
 ! R58   R(50,53)                1.0892         estimate D2E/DX2                !
 ! R59   R(50,54)                1.0966         estimate D2E/DX2                !
 ! A1    A(2,1,19)             116.767          estimate D2E/DX2                !
 ! A2    A(2,1,20)             122.9113         estimate D2E/DX2                !
 ! A3    A(19,1,20)            120.3217         estimate D2E/DX2                !
 ! A4    A(1,2,3)              120.5473         estimate D2E/DX2                !
 ! A5    A(1,2,6)              119.3369         estimate D2E/DX2                !
 ! A6    A(3,2,6)              120.1056         estimate D2E/DX2                !
 ! A7    A(2,3,4)              120.3743         estimate D2E/DX2                !
 ! A8    A(2,3,7)              118.662          estimate D2E/DX2                !
 ! A9    A(4,3,7)              120.9617         estimate D2E/DX2                !
 ! A10   A(3,4,5)              120.4909         estimate D2E/DX2                !
 ! A11   A(3,4,14)             120.2702         estimate D2E/DX2                !
 ! A12   A(5,4,14)             119.2382         estimate D2E/DX2                !
 ! A13   A(4,5,19)             116.7341         estimate D2E/DX2                !
 ! A14   A(4,5,21)             122.024          estimate D2E/DX2                !
 ! A15   A(19,5,21)            121.2418         estimate D2E/DX2                !
 ! A16   A(2,6,9)              123.2421         estimate D2E/DX2                !
 ! A17   A(2,6,17)             117.1119         estimate D2E/DX2                !
 ! A18   A(9,6,17)             119.589          estimate D2E/DX2                !
 ! A19   A(3,7,8)              120.9519         estimate D2E/DX2                !
 ! A20   A(3,7,12)             117.1037         estimate D2E/DX2                !
 ! A21   A(8,7,12)             121.944          estimate D2E/DX2                !
 ! A22   A(7,8,9)              119.5639         estimate D2E/DX2                !
 ! A23   A(7,8,10)             117.3064         estimate D2E/DX2                !
 ! A24   A(9,8,10)             122.9922         estimate D2E/DX2                !
 ! A25   A(6,9,8)              117.3944         estimate D2E/DX2                !
 ! A26   A(6,9,32)             115.0236         estimate D2E/DX2                !
 ! A27   A(8,9,32)             127.5648         estimate D2E/DX2                !
 ! A28   A(8,10,18)            118.042          estimate D2E/DX2                !
 ! A29   A(8,10,23)            124.5436         estimate D2E/DX2                !
 ! A30   A(18,10,23)           117.4097         estimate D2E/DX2                !
 ! A31   A(12,11,18)           115.5202         estimate D2E/DX2                !
 ! A32   A(12,11,22)           122.7205         estimate D2E/DX2                !
 ! A33   A(18,11,22)           121.7534         estimate D2E/DX2                !
 ! A34   A(7,12,11)            120.8614         estimate D2E/DX2                !
 ! A35   A(7,12,13)            121.162          estimate D2E/DX2                !
 ! A36   A(11,12,13)           117.9699         estimate D2E/DX2                !
 ! A37   A(12,13,14)           120.9948         estimate D2E/DX2                !
 ! A38   A(12,13,16)           117.8401         estimate D2E/DX2                !
 ! A39   A(14,13,16)           121.1642         estimate D2E/DX2                !
 ! A40   A(4,14,13)            119.5003         estimate D2E/DX2                !
 ! A41   A(4,14,15)            118.9169         estimate D2E/DX2                !
 ! A42   A(13,14,15)           121.5811         estimate D2E/DX2                !
 ! A43   A(10,18,11)           126.0753         estimate D2E/DX2                !
 ! A44   A(10,18,24)           115.7508         estimate D2E/DX2                !
 ! A45   A(11,18,24)           118.1737         estimate D2E/DX2                !
 ! A46   A(1,19,5)             125.0856         estimate D2E/DX2                !
 ! A47   A(1,19,28)            116.2868         estimate D2E/DX2                !
 ! A48   A(5,19,28)            118.6276         estimate D2E/DX2                !
 ! A49   A(18,24,25)           109.8574         estimate D2E/DX2                !
 ! A50   A(18,24,26)           109.8979         estimate D2E/DX2                !
 ! A51   A(18,24,27)           107.5355         estimate D2E/DX2                !
 ! A52   A(25,24,26)           108.1108         estimate D2E/DX2                !
 ! A53   A(25,24,27)           110.8301         estimate D2E/DX2                !
 ! A54   A(26,24,27)           110.6124         estimate D2E/DX2                !
 ! A55   A(19,28,29)           109.6906         estimate D2E/DX2                !
 ! A56   A(19,28,30)           109.8136         estimate D2E/DX2                !
 ! A57   A(19,28,31)           107.7461         estimate D2E/DX2                !
 ! A58   A(29,28,30)           108.2991         estimate D2E/DX2                !
 ! A59   A(29,28,31)           110.6959         estimate D2E/DX2                !
 ! A60   A(30,28,31)           110.5924         estimate D2E/DX2                !
 ! A61   A(9,32,33)            130.8847         estimate D2E/DX2                !
 ! A62   A(9,32,34)            118.7903         estimate D2E/DX2                !
 ! A63   A(33,32,34)           110.0716         estimate D2E/DX2                !
 ! A64   A(32,33,35)           113.5463         estimate D2E/DX2                !
 ! A65   A(32,33,36)           122.7766         estimate D2E/DX2                !
 ! A66   A(35,33,36)           123.6751         estimate D2E/DX2                !
 ! A67   A(32,34,37)            92.5879         estimate D2E/DX2                !
 ! A68   A(33,35,37)           114.4543         estimate D2E/DX2                !
 ! A69   A(33,35,38)           126.493          estimate D2E/DX2                !
 ! A70   A(37,35,38)           119.0527         estimate D2E/DX2                !
 ! A71   A(34,37,35)           109.3344         estimate D2E/DX2                !
 ! A72   A(34,37,39)           122.9773         estimate D2E/DX2                !
 ! A73   A(35,37,39)           127.6717         estimate D2E/DX2                !
 ! A74   A(35,38,40)           117.5053         estimate D2E/DX2                !
 ! A75   A(37,39,41)           127.5644         estimate D2E/DX2                !
 ! A76   A(37,39,42)           123.1017         estimate D2E/DX2                !
 ! A77   A(41,39,42)           109.3338         estimate D2E/DX2                !
 ! A78   A(38,40,43)           105.984          estimate D2E/DX2                !
 ! A79   A(38,40,44)           111.0981         estimate D2E/DX2                !
 ! A80   A(38,40,45)           111.1579         estimate D2E/DX2                !
 ! A81   A(43,40,44)           109.3961         estimate D2E/DX2                !
 ! A82   A(43,40,45)           109.7528         estimate D2E/DX2                !
 ! A83   A(44,40,45)           109.3888         estimate D2E/DX2                !
 ! A84   A(39,41,46)           114.1724         estimate D2E/DX2                !
 ! A85   A(39,41,47)           119.2818         estimate D2E/DX2                !
 ! A86   A(46,41,47)           126.5453         estimate D2E/DX2                !
 ! A87   A(39,42,48)            91.7902         estimate D2E/DX2                !
 ! A88   A(41,46,48)           111.918          estimate D2E/DX2                !
 ! A89   A(41,46,49)           124.4656         estimate D2E/DX2                !
 ! A90   A(48,46,49)           123.6163         estimate D2E/DX2                !
 ! A91   A(41,47,50)           117.9626         estimate D2E/DX2                !
 ! A92   A(42,48,46)           112.7856         estimate D2E/DX2                !
 ! A93   A(42,48,51)           119.7263         estimate D2E/DX2                !
 ! A94   A(46,48,51)           127.488          estimate D2E/DX2                !
 ! A95   A(47,50,52)           111.2669         estimate D2E/DX2                !
 ! A96   A(47,50,53)           106.0118         estimate D2E/DX2                !
 ! A97   A(47,50,54)           111.2538         estimate D2E/DX2                !
 ! A98   A(52,50,53)           109.4154         estimate D2E/DX2                !
 ! A99   A(52,50,54)           109.3793         estimate D2E/DX2                !
 ! A100  A(53,50,54)           109.4424         estimate D2E/DX2                !
 ! D1    D(19,1,2,3)             0.1578         estimate D2E/DX2                !
 ! D2    D(19,1,2,6)          -178.6792         estimate D2E/DX2                !
 ! D3    D(20,1,2,3)          -179.8231         estimate D2E/DX2                !
 ! D4    D(20,1,2,6)             1.3399         estimate D2E/DX2                !
 ! D5    D(2,1,19,5)            -0.124          estimate D2E/DX2                !
 ! D6    D(2,1,19,28)          179.8267         estimate D2E/DX2                !
 ! D7    D(20,1,19,5)          179.8575         estimate D2E/DX2                !
 ! D8    D(20,1,19,28)          -0.1919         estimate D2E/DX2                !
 ! D9    D(1,2,3,4)              0.0571         estimate D2E/DX2                !
 ! D10   D(1,2,3,7)            179.5453         estimate D2E/DX2                !
 ! D11   D(6,2,3,4)            178.8851         estimate D2E/DX2                !
 ! D12   D(6,2,3,7)             -1.6266         estimate D2E/DX2                !
 ! D13   D(1,2,6,9)            178.625          estimate D2E/DX2                !
 ! D14   D(1,2,6,17)             1.3881         estimate D2E/DX2                !
 ! D15   D(3,2,6,9)             -0.2173         estimate D2E/DX2                !
 ! D16   D(3,2,6,17)          -177.4541         estimate D2E/DX2                !
 ! D17   D(2,3,4,5)             -0.3074         estimate D2E/DX2                !
 ! D18   D(2,3,4,14)           179.3968         estimate D2E/DX2                !
 ! D19   D(7,3,4,5)           -179.7837         estimate D2E/DX2                !
 ! D20   D(7,3,4,14)            -0.0795         estimate D2E/DX2                !
 ! D21   D(2,3,7,8)              1.0523         estimate D2E/DX2                !
 ! D22   D(2,3,7,12)          -178.712          estimate D2E/DX2                !
 ! D23   D(4,3,7,8)           -179.4626         estimate D2E/DX2                !
 ! D24   D(4,3,7,12)             0.7731         estimate D2E/DX2                !
 ! D25   D(3,4,5,19)             0.3343         estimate D2E/DX2                !
 ! D26   D(3,4,5,21)          -179.7799         estimate D2E/DX2                !
 ! D27   D(14,4,5,19)         -179.3729         estimate D2E/DX2                !
 ! D28   D(14,4,5,21)            0.5129         estimate D2E/DX2                !
 ! D29   D(3,4,14,13)           -0.4559         estimate D2E/DX2                !
 ! D30   D(3,4,14,15)         -179.9937         estimate D2E/DX2                !
 ! D31   D(5,4,14,13)          179.252          estimate D2E/DX2                !
 ! D32   D(5,4,14,15)           -0.2858         estimate D2E/DX2                !
 ! D33   D(4,5,19,1)            -0.1141         estimate D2E/DX2                !
 ! D34   D(4,5,19,28)          179.9364         estimate D2E/DX2                !
 ! D35   D(21,5,19,1)          179.9992         estimate D2E/DX2                !
 ! D36   D(21,5,19,28)           0.0496         estimate D2E/DX2                !
 ! D37   D(2,6,9,8)              2.5984         estimate D2E/DX2                !
 ! D38   D(2,6,9,32)          -176.0103         estimate D2E/DX2                !
 ! D39   D(17,6,9,8)           179.77           estimate D2E/DX2                !
 ! D40   D(17,6,9,32)            1.1613         estimate D2E/DX2                !
 ! D41   D(3,7,8,9)              1.3551         estimate D2E/DX2                !
 ! D42   D(3,7,8,10)          -174.5099         estimate D2E/DX2                !
 ! D43   D(12,7,8,9)          -178.8921         estimate D2E/DX2                !
 ! D44   D(12,7,8,10)            5.2428         estimate D2E/DX2                !
 ! D45   D(3,7,12,11)          178.0768         estimate D2E/DX2                !
 ! D46   D(3,7,12,13)           -0.9621         estimate D2E/DX2                !
 ! D47   D(8,7,12,11)           -1.685          estimate D2E/DX2                !
 ! D48   D(8,7,12,13)          179.2761         estimate D2E/DX2                !
 ! D49   D(7,8,9,6)             -3.0809         estimate D2E/DX2                !
 ! D50   D(7,8,9,32)           175.3285         estimate D2E/DX2                !
 ! D51   D(10,8,9,6)           172.5381         estimate D2E/DX2                !
 ! D52   D(10,8,9,32)           -9.0525         estimate D2E/DX2                !
 ! D53   D(7,8,10,18)           -4.7549         estimate D2E/DX2                !
 ! D54   D(7,8,10,23)          174.4235         estimate D2E/DX2                !
 ! D55   D(9,8,10,18)          179.5335         estimate D2E/DX2                !
 ! D56   D(9,8,10,23)           -1.2882         estimate D2E/DX2                !
 ! D57   D(6,9,32,33)         -166.532          estimate D2E/DX2                !
 ! D58   D(6,9,32,34)           19.8844         estimate D2E/DX2                !
 ! D59   D(8,9,32,33)           15.0265         Frozen                          !
 ! D60   D(8,9,32,34)         -158.5571         estimate D2E/DX2                !
 ! D61   D(8,10,18,11)           0.7189         estimate D2E/DX2                !
 ! D62   D(8,10,18,24)        -179.4089         estimate D2E/DX2                !
 ! D63   D(23,10,18,11)       -178.5188         estimate D2E/DX2                !
 ! D64   D(23,10,18,24)          1.3535         estimate D2E/DX2                !
 ! D65   D(18,11,12,7)          -2.3856         estimate D2E/DX2                !
 ! D66   D(18,11,12,13)        176.6833         estimate D2E/DX2                !
 ! D67   D(22,11,12,7)         178.4862         estimate D2E/DX2                !
 ! D68   D(22,11,12,13)         -2.445          estimate D2E/DX2                !
 ! D69   D(12,11,18,10)          2.8444         estimate D2E/DX2                !
 ! D70   D(12,11,18,24)       -177.0251         estimate D2E/DX2                !
 ! D71   D(22,11,18,10)       -178.0181         estimate D2E/DX2                !
 ! D72   D(22,11,18,24)          2.1124         estimate D2E/DX2                !
 ! D73   D(7,12,13,14)           0.461          estimate D2E/DX2                !
 ! D74   D(7,12,13,16)        -179.8781         estimate D2E/DX2                !
 ! D75   D(11,12,13,14)       -178.6049         estimate D2E/DX2                !
 ! D76   D(11,12,13,16)          1.056          estimate D2E/DX2                !
 ! D77   D(12,13,14,4)           0.2708         estimate D2E/DX2                !
 ! D78   D(12,13,14,15)        179.7958         estimate D2E/DX2                !
 ! D79   D(16,13,14,4)        -179.3788         estimate D2E/DX2                !
 ! D80   D(16,13,14,15)          0.1463         estimate D2E/DX2                !
 ! D81   D(10,18,24,25)        -59.609          estimate D2E/DX2                !
 ! D82   D(10,18,24,26)         59.2209         estimate D2E/DX2                !
 ! D83   D(10,18,24,27)        179.6858         estimate D2E/DX2                !
 ! D84   D(11,18,24,25)        120.2739         estimate D2E/DX2                !
 ! D85   D(11,18,24,26)       -120.8962         estimate D2E/DX2                !
 ! D86   D(11,18,24,27)         -0.4313         estimate D2E/DX2                !
 ! D87   D(1,19,28,29)         -58.1407         estimate D2E/DX2                !
 ! D88   D(1,19,28,30)          60.7668         estimate D2E/DX2                !
 ! D89   D(1,19,28,31)        -178.7139         estimate D2E/DX2                !
 ! D90   D(5,19,28,29)         121.8132         estimate D2E/DX2                !
 ! D91   D(5,19,28,30)        -119.2792         estimate D2E/DX2                !
 ! D92   D(5,19,28,31)           1.2401         estimate D2E/DX2                !
 ! D93   D(9,32,33,35)        -174.227          estimate D2E/DX2                !
 ! D94   D(9,32,33,36)           6.268          estimate D2E/DX2                !
 ! D95   D(34,32,33,35)         -0.2122         estimate D2E/DX2                !
 ! D96   D(34,32,33,36)       -179.7172         estimate D2E/DX2                !
 ! D97   D(9,32,34,37)         175.361          estimate D2E/DX2                !
 ! D98   D(33,32,34,37)          0.5218         estimate D2E/DX2                !
 ! D99   D(32,33,35,37)         -0.3274         estimate D2E/DX2                !
 ! D100  D(32,33,35,38)        179.6728         estimate D2E/DX2                !
 ! D101  D(36,33,35,37)        179.1725         estimate D2E/DX2                !
 ! D102  D(36,33,35,38)         -0.8274         estimate D2E/DX2                !
 ! D103  D(32,34,37,35)         -0.6895         estimate D2E/DX2                !
 ! D104  D(32,34,37,39)        177.932          estimate D2E/DX2                !
 ! D105  D(33,35,37,34)          0.7059         estimate D2E/DX2                !
 ! D106  D(33,35,37,39)       -177.8331         estimate D2E/DX2                !
 ! D107  D(38,35,37,34)       -179.2943         estimate D2E/DX2                !
 ! D108  D(38,35,37,39)          2.1668         estimate D2E/DX2                !
 ! D109  D(33,35,38,40)          6.5982         estimate D2E/DX2                !
 ! D110  D(37,35,38,40)       -173.4017         estimate D2E/DX2                !
 ! D111  D(34,37,39,41)          2.8958         estimate D2E/DX2                !
 ! D112  D(34,37,39,42)       -177.2047         estimate D2E/DX2                !
 ! D113  D(35,37,39,41)       -178.7477         estimate D2E/DX2                !
 ! D114  D(35,37,39,42)          1.1518         estimate D2E/DX2                !
 ! D115  D(35,38,40,43)        175.4288         estimate D2E/DX2                !
 ! D116  D(35,38,40,44)        -65.8339         estimate D2E/DX2                !
 ! D117  D(35,38,40,45)         56.2309         estimate D2E/DX2                !
 ! D118  D(37,39,41,46)       -179.9878         estimate D2E/DX2                !
 ! D119  D(37,39,41,47)         -0.2544         estimate D2E/DX2                !
 ! D120  D(42,39,41,46)          0.1015         estimate D2E/DX2                !
 ! D121  D(42,39,41,47)        179.8348         estimate D2E/DX2                !
 ! D122  D(37,39,42,48)       -179.9735         estimate D2E/DX2                !
 ! D123  D(41,39,42,48)         -0.058          estimate D2E/DX2                !
 ! D124  D(39,41,46,48)         -0.1038         estimate D2E/DX2                !
 ! D125  D(39,41,46,49)       -179.9924         estimate D2E/DX2                !
 ! D126  D(47,41,46,48)       -179.8143         estimate D2E/DX2                !
 ! D127  D(47,41,46,49)          0.2971         estimate D2E/DX2                !
 ! D128  D(39,41,47,50)        178.4081         estimate D2E/DX2                !
 ! D129  D(46,41,47,50)         -1.8948         estimate D2E/DX2                !
 ! D130  D(39,42,48,46)          0.001          estimate D2E/DX2                !
 ! D131  D(39,42,48,51)        179.8857         estimate D2E/DX2                !
 ! D132  D(41,46,48,42)          0.056          estimate D2E/DX2                !
 ! D133  D(41,46,48,51)       -179.8178         estimate D2E/DX2                !
 ! D134  D(49,46,48,42)        179.9457         estimate D2E/DX2                !
 ! D135  D(49,46,48,51)          0.0719         estimate D2E/DX2                !
 ! D136  D(41,47,50,52)         62.0272         estimate D2E/DX2                !
 ! D137  D(41,47,50,53)       -179.1046         estimate D2E/DX2                !
 ! D138  D(41,47,50,54)        -60.2111         estimate D2E/DX2                !
 --------------------------------------------------------------------------------
 Trust Radius=3.00D-01 FncErr=1.00D-07 GrdErr=1.00D-06 EigMax=2.50D+02 EigMin=1.00D-04
 Number of steps in this run=    307 maximum allowed number of steps=    324.
 GradGradGradGradGradGradGradGradGradGradGradGradGradGradGradGradGradGrad

 Stoichiometry    C26H18N2O6S2(2-)
 Framework group  C1[X(C26H18N2O6S2)]
 Deg. of freedom   156
 Full point group                 C1      NOp   1
 Largest Abelian subgroup         C1      NOp   1
 Largest concise Abelian subgroup C1      NOp   1
                         Standard orientation:                         
 ---------------------------------------------------------------------
 Center     Atomic      Atomic             Coordinates (Angstroms)
 Number     Number       Type             X           Y           Z
 ---------------------------------------------------------------------
      1          6           0       -2.558558   -2.999097    0.407267
      2          6           0       -2.253295   -1.550268    0.273784
      3          6           0       -3.286981   -0.617924    0.022424
      4          6           0       -4.625009   -1.051980   -0.104028
      5          6           0       -4.965123   -2.494636    0.018352
      6          6           0       -0.952503   -1.125468    0.372907
      7          6           0       -2.950567    0.761685   -0.088451
      8          6           0       -1.592980    1.200103    0.028388
      9          6           0       -0.561510    0.242639    0.229508
     10          6           0       -1.346839    2.667824    0.025049
     11          6           0       -3.767618    3.126462   -0.399125
     12          6           0       -4.017199    1.671625   -0.312985
     13          6           0       -5.326862    1.226858   -0.438595
     14          6           0       -5.638776   -0.134248   -0.338133
     15          1           0       -6.657437   -0.491306   -0.431344
     16          1           0       -6.099133    1.968297   -0.611168
     17          1           0       -0.194928   -1.885475    0.524003
     18          7           0       -2.444676    3.522979   -0.194320
     19          7           0       -3.899785   -3.376281    0.268802
     20          8           0       -1.699693   -3.841712    0.627525
     21          8           0       -6.112146   -2.901340   -0.090074
     22          8           0       -4.657467    3.939007   -0.618466
     23          8           0       -0.255229    3.189199    0.214451
     24          6           0       -2.142943    4.958797   -0.200759
     25          1           0       -1.713212    5.251493    0.758419
     26          1           0       -1.412438    5.181911   -0.982604
     27          1           0       -3.073810    5.488109   -0.384711
     28          6           0       -4.188581   -4.808870    0.398534
     29          1           0       -3.616667   -5.368310   -0.344780
     30          1           0       -3.894652   -5.157237    1.390413
     31          1           0       -5.255580   -4.946835    0.245636
     32          6           0        0.880344    0.482264    0.277897
     33          6           0        1.597991    1.654140    0.420915
     34         16           0        1.976132   -0.864599   -0.031943
     35          6           0        2.989266    1.481087    0.291254
     36          1           0        1.129779    2.604681    0.621022
     37          6           0        3.388782    0.162430    0.050215
     38          8           0        3.937015    2.453127    0.377984
     39          6           0        4.727597   -0.337974   -0.084550
     40          6           0        3.509810    3.756108    0.766022
     41          6           0        5.122277   -1.647888   -0.348418
     42         16           0        6.156076    0.682025    0.068658
     43          1           0        4.415909    4.354925    0.854859
     44          1           0        2.853142    4.199146    0.006342
     45          1           0        2.986664    3.730548    1.729152
     46          6           0        6.532801   -1.828028   -0.423194
     47          8           0        4.174122   -2.609957   -0.501461
     48          6           0        7.208936   -0.656133   -0.218681
     49          1           0        7.019591   -2.773888   -0.619575
     50          6           0        4.607176   -3.931670   -0.804435
     51          1           0        8.279928   -0.504630   -0.223167
     52          1           0        5.231359   -4.339979   -0.000218
     53          1           0        3.701999   -4.530031   -0.899513
     54          1           0        5.164748   -3.960748   -1.748213
 ---------------------------------------------------------------------
 Rotational constants (GHZ):           0.1522830           0.0605044           0.0438427
 Standard basis: 6-311+G(d,p) (5D, 7F)
 There are   952 symmetry adapted cartesian basis functions of A   symmetry.
 There are   916 symmetry adapted basis functions of A   symmetry.
   916 basis functions,  1468 primitive gaussians,   952 cartesian basis functions
   135 alpha electrons      135 beta electrons
       nuclear repulsion energy      4092.1727770348 Hartrees.
 NAtoms=   54 NActive=   54 NUniq=   54 SFac= 1.00D+00 NAtFMM=   60 NAOKFM=F Big=F
 Integral buffers will be    131072 words long.
 Raffenetti 2 integral format.
 Two-electron integral symmetry is turned on.
 One-electron integrals computed using PRISM.
 NBasis=   916 RedAO= T EigKep=  1.37D-06  NBF=   916
 NBsUse=   901 1.00D-06 EigRej=  7.13D-07 NBFU=   901
 ExpMin= 4.05D-02 ExpMax= 9.34D+04 ExpMxC= 3.17D+03 IAcc=3 IRadAn=         5 AccDes= 0.00D+00
 Harris functional with IExCor=  402 and IRadAn=       5 diagonalized for initial guess.
 HarFok:  IExCor=  402 AccDes= 0.00D+00 IRadAn=         5 IDoV= 1 UseB2=F ITyADJ=14
 ICtDFT=  3500011 ScaDFX=  1.000000  1.000000  1.000000  1.000000
 FoFCou: FMM=F IPFlag=           0 FMFlag=      100000 FMFlg1=           0
         NFxFlg=           0 DoJE=T BraDBF=F KetDBF=T FulRan=T
         wScrn=  0.000000 ICntrl=       500 IOpCl=  0 I1Cent=   200000004 NGrid=           0
         NMat0=    1 NMatS0=      1 NMatT0=    0 NMatD0=    1 NMtDS0=    0 NMtDT0=    0
 Petite list used in FoFCou.
 Requested convergence on RMS density matrix=1.00D-08 within 128 cycles.
 Requested convergence on MAX density matrix=1.00D-06.
 Requested convergence on             energy=1.00D-06.
 No special actions if energy rises.
 EnCoef did     8 forward-backward iterations
 Restarting incremental Fock formation.
 SCF Done:  E(RB3LYP) =  -2359.36348899     A.U. after   22 cycles
            NFock= 22  Conv=0.72D-08     -V/T= 2.0028

 **********************************************************************

            Population analysis using the SCF Density.

 **********************************************************************

 Orbital symmetries:
       Occupied  (A) (A) (A) (A) (A) (A) (A) (A) (A) (A) (A) (A)
                 (A) (A) (A) (A) (A) (A) (A) (A) (A) (A) (A) (A)
                 (A) (A) (A) (A) (A) (A) (A) (A) (A) (A) (A) (A)
                 (A) (A) (A) (A) (A) (A) (A) (A) (A) (A) (A) (A)
                 (A) (A) (A) (A) (A) (A) (A) (A) (A) (A) (A) (A)
                 (A) (A) (A) (A) (A) (A) (A) (A) (A) (A) (A) (A)
                 (A) (A) (A) (A) (A) (A) (A) (A) (A) (A) (A) (A)
                 (A) (A) (A) (A) (A) (A) (A) (A) (A) (A) (A) (A)
                 (A) (A) (A) (A) (A) (A) (A) (A) (A) (A) (A) (A)
                 (A) (A) (A) (A) (A) (A) (A) (A) (A) (A) (A) (A)
                 (A) (A) (A) (A) (A) (A) (A) (A) (A) (A) (A) (A)
                 (A) (A) (A)
       Virtual   (A) (A) (A) (A) (A) (A) (A) (A) (A) (A) (A) (A)
                 (A) (A) (A) (A) (A) (A) (A) (A) (A) (A) (A) (A)
                 (A) (A) (A) (A) (A) (A) (A) (A) (A) (A) (A) (A)
                 (A) (A) (A) (A) (A) (A) (A) (A) (A) (A) (A) (A)
                 (A) (A) (A) (A) (A) (A) (A) (A) (A) (A) (A) (A)
                 (A) (A) (A) (A) (A) (A) (A) (A) (A) (A) (A) (A)
                 (A) (A) (A) (A) (A) (A) (A) (A) (A) (A) (A) (A)
                 (A) (A) (A) (A) (A) (A) (A) (A) (A) (A) (A) (A)
                 (A) (A) (A) (A) (A) (A) (A) (A) (A) (A) (A) (A)
                 (A) (A) (A) (A) (A) (A) (A) (A) (A) (A) (A) (A)
                 (A) (A) (A) (A) (A) (A) (A) (A) (A) (A) (A) (A)
                 (A) (A) (A) (A) (A) (A) (A) (A) (A) (A) (A) (A)
                 (A) (A) (A) (A) (A) (A) (A) (A) (A) (A) (A) (A)
                 (A) (A) (A) (A) (A) (A) (A) (A) (A) (A) (A) (A)
                 (A) (A) (A) (A) (A) (A) (A) (A) (A) (A) (A) (A)
                 (A) (A) (A) (A) (A) (A) (A) (A) (A) (A) (A) (A)
                 (A) (A) (A) (A) (A) (A) (A) (A) (A) (A) (A) (A)
                 (A) (A) (A) (A) (A) (A) (A) (A) (A) (A) (A) (A)
                 (A) (A) (A) (A) (A) (A) (A) (A) (A) (A) (A) (A)
                 (A) (A) (A) (A) (A) (A) (A) (A) (A) (A) (A) (A)
                 (A) (A) (A) (A) (A) (A) (A) (A) (A) (A) (A) (A)
                 (A) (A) (A) (A) (A) (A) (A) (A) (A) (A) (A) (A)
                 (A) (A) (A) (A) (A) (A) (A) (A) (A) (A) (A) (A)
                 (A) (A) (A) (A) (A) (A) (A) (A) (A) (A) (A) (A)
                 (A) (A) (A) (A) (A) (A) (A) (A) (A) (A) (A) (A)
                 (A) (A) (A) (A) (A) (A) (A) (A) (A) (A) (A) (A)
                 (A) (A) (A) (A) (A) (A) (A) (A) (A) (A) (A) (A)
                 (A) (A) (A) (A) (A) (A) (A) (A) (A) (A) (A) (A)
                 (A) (A) (A) (A) (A) (A) (A) (A) (A) (A) (A) (A)
                 (A) (A) (A) (A) (A) (A) (A) (A) (A) (A) (A) (A)
                 (A) (A) (A) (A) (A) (A) (A) (A) (A) (A) (A) (A)
                 (A) (A) (A) (A) (A) (A) (A) (A) (A) (A) (A) (A)
                 (A) (A) (A) (A) (A) (A) (A) (A) (A) (A) (A) (A)
                 (A) (A) (A) (A) (A) (A) (A) (A) (A) (A) (A) (A)
                 (A) (A) (A) (A) (A) (A) (A) (A) (A) (A) (A) (A)
                 (A) (A) (A) (A) (A) (A) (A) (A) (A) (A) (A) (A)
                 (A) (A) (A) (A) (A) (A) (A) (A) (A) (A) (A) (A)
                 (A) (A) (A) (A) (A) (A) (A) (A) (A) (A) (A) (A)
                 (A) (A) (A) (A) (A) (A) (A) (A) (A) (A) (A) (A)
                 (A) (A) (A) (A) (A) (A) (A) (A) (A) (A) (A) (A)
                 (A) (A) (A) (A) (A) (A) (A) (A) (A) (A) (A) (A)
                 (A) (A) (A) (A) (A) (A) (A) (A) (A) (A) (A) (A)
                 (A) (A) (A) (A) (A) (A) (A) (A) (A) (A) (A) (A)
                 (A) (A) (A) (A) (A) (A) (A) (A) (A) (A) (A) (A)
                 (A) (A) (A) (A) (A) (A) (A) (A) (A) (A) (A) (A)
                 (A) (A) (A) (A) (A) (A) (A) (A) (A) (A) (A) (A)
                 (A) (A) (A) (A) (A) (A) (A) (A) (A) (A) (A) (A)
                 (A) (A) (A) (A) (A) (A) (A) (A) (A) (A) (A) (A)
                 (A) (A) (A) (A) (A) (A) (A) (A) (A) (A) (A) (A)
                 (A) (A) (A) (A) (A) (A) (A) (A) (A) (A) (A) (A)
                 (A) (A) (A) (A) (A) (A) (A) (A) (A) (A) (A) (A)
                 (A) (A) (A) (A) (A) (A) (A) (A) (A) (A) (A) (A)
                 (A) (A) (A) (A) (A) (A) (A) (A) (A) (A) (A) (A)
                 (A) (A) (A) (A) (A) (A) (A) (A) (A) (A) (A) (A)
                 (A) (A) (A) (A) (A) (A) (A) (A) (A) (A) (A) (A)
                 (A) (A) (A) (A) (A) (A) (A) (A) (A) (A) (A) (A)
                 (A) (A) (A) (A) (A) (A) (A) (A) (A) (A) (A) (A)
                 (A) (A) (A) (A) (A) (A) (A) (A) (A) (A) (A) (A)
                 (A) (A) (A) (A) (A) (A) (A) (A) (A) (A) (A) (A)
                 (A) (A) (A) (A) (A) (A) (A) (A) (A) (A) (A) (A)
                 (A) (A) (A) (A) (A) (A) (A) (A) (A) (A) (A) (A)
                 (A) (A) (A) (A) (A) (A) (A) (A) (A) (A) (A) (A)
                 (A) (A) (A) (A) (A) (A) (A) (A) (A) (A) (A) (A)
                 (A) (A) (A) (A) (A) (A) (A) (A) (A) (A)
 The electronic state is 1-A.
 Alpha  occ. eigenvalues --  -88.70477 -88.66487 -18.99373 -18.98308 -18.87903
 Alpha  occ. eigenvalues --  -18.87527 -18.86972 -18.86743 -14.15544 -14.14994
 Alpha  occ. eigenvalues --  -10.08194 -10.06376 -10.06070 -10.05820 -10.05746
 Alpha  occ. eigenvalues --  -10.05588 -10.05147 -10.03782 -10.03419 -10.02630
 Alpha  occ. eigenvalues --  -10.01822 -10.01351 -10.00830 -10.00452 -10.00340
 Alpha  occ. eigenvalues --   -9.97534  -9.97374  -9.97256  -9.95821  -9.95783
 Alpha  occ. eigenvalues --   -9.95517  -9.95325  -9.95155  -9.95042  -9.94993
 Alpha  occ. eigenvalues --   -9.94646  -7.79058  -7.75115  -5.75368  -5.74997
 Alpha  occ. eigenvalues --   -5.74612  -5.71451  -5.71056  -5.70622  -0.91056
 Alpha  occ. eigenvalues --   -0.89719  -0.84447  -0.84250  -0.82364  -0.82025
 Alpha  occ. eigenvalues --   -0.72708  -0.72185  -0.71371  -0.67998  -0.66441
 Alpha  occ. eigenvalues --   -0.61492  -0.59633  -0.59017  -0.58326  -0.56651
 Alpha  occ. eigenvalues --   -0.54558  -0.53650  -0.52796  -0.52503  -0.51684
 Alpha  occ. eigenvalues --   -0.50645  -0.48898  -0.46137  -0.43731  -0.42122
 Alpha  occ. eigenvalues --   -0.42001  -0.41549  -0.40271  -0.39547  -0.38419
 Alpha  occ. eigenvalues --   -0.36314  -0.35547  -0.33829  -0.33532  -0.32250
 Alpha  occ. eigenvalues --   -0.31438  -0.31015  -0.30657  -0.30438  -0.29860
 Alpha  occ. eigenvalues --   -0.28477  -0.28347  -0.27779  -0.27308  -0.26675
 Alpha  occ. eigenvalues --   -0.26031  -0.25532  -0.25287  -0.24578  -0.23825
 Alpha  occ. eigenvalues --   -0.23523  -0.23211  -0.22608  -0.22043  -0.21356
 Alpha  occ. eigenvalues --   -0.21239  -0.20778  -0.20364  -0.20200  -0.19773
 Alpha  occ. eigenvalues --   -0.19273  -0.18977  -0.18860  -0.18226  -0.17781
 Alpha  occ. eigenvalues --   -0.17614  -0.17496  -0.17199  -0.16905  -0.15926
 Alpha  occ. eigenvalues --   -0.15216  -0.14785  -0.14476  -0.12973  -0.11653
 Alpha  occ. eigenvalues --   -0.11118  -0.09264  -0.07419  -0.07109  -0.06933
 Alpha  occ. eigenvalues --   -0.06607  -0.05982  -0.05739  -0.04869  -0.04189
 Alpha  occ. eigenvalues --   -0.03999  -0.03201  -0.01434   0.00995   0.08456
 Alpha virt. eigenvalues --    0.12522   0.13041   0.13762   0.14651   0.16039
 Alpha virt. eigenvalues --    0.16555   0.16750   0.16830   0.17038   0.17444
 Alpha virt. eigenvalues --    0.17764   0.17994   0.18735   0.19188   0.19283
 Alpha virt. eigenvalues --    0.19422   0.19551   0.20115   0.20274   0.20611
 Alpha virt. eigenvalues --    0.20909   0.21017   0.21189   0.21211   0.21243
 Alpha virt. eigenvalues --    0.21517   0.22282   0.22648   0.22820   0.22960
 Alpha virt. eigenvalues --    0.23232   0.23683   0.23888   0.24180   0.24567
 Alpha virt. eigenvalues --    0.24626   0.24866   0.25454   0.25670   0.25857
 Alpha virt. eigenvalues --    0.26129   0.26211   0.26467   0.26580   0.26663
 Alpha virt. eigenvalues --    0.27165   0.27425   0.27476   0.28131   0.28524
 Alpha virt. eigenvalues --    0.28655   0.28905   0.29117   0.29255   0.29517
 Alpha virt. eigenvalues --    0.29593   0.29944   0.30174   0.30296   0.31096
 Alpha virt. eigenvalues --    0.31363   0.31470   0.31601   0.31809   0.31996
 Alpha virt. eigenvalues --    0.32621   0.32697   0.32851   0.33183   0.33252
 Alpha virt. eigenvalues --    0.33800   0.33944   0.34115   0.34372   0.34494
 Alpha virt. eigenvalues --    0.34867   0.35053   0.35219   0.35489   0.35557
 Alpha virt. eigenvalues --    0.35578   0.35909   0.36184   0.36582   0.36858
 Alpha virt. eigenvalues --    0.36927   0.37187   0.37353   0.37554   0.37836
 Alpha virt. eigenvalues --    0.38036   0.38272   0.38530   0.38721   0.38950
 Alpha virt. eigenvalues --    0.39200   0.39405   0.39543   0.39696   0.39865
 Alpha virt. eigenvalues --    0.40306   0.40689   0.41222   0.41344   0.41651
 Alpha virt. eigenvalues --    0.41737   0.41862   0.42204   0.42225   0.42789
 Alpha virt. eigenvalues --    0.42822   0.42974   0.43259   0.43373   0.43677
 Alpha virt. eigenvalues --    0.43954   0.44302   0.44463   0.44548   0.44957
 Alpha virt. eigenvalues --    0.45146   0.45306   0.45531   0.45675   0.45924
 Alpha virt. eigenvalues --    0.46145   0.46473   0.46563   0.46797   0.47069
 Alpha virt. eigenvalues --    0.47313   0.47473   0.47594   0.47973   0.48021
 Alpha virt. eigenvalues --    0.48288   0.48533   0.48669   0.48693   0.49163
 Alpha virt. eigenvalues --    0.49439   0.49773   0.49841   0.49922   0.50144
 Alpha virt. eigenvalues --    0.50378   0.50532   0.51064   0.51535   0.51619
 Alpha virt. eigenvalues --    0.51707   0.52134   0.52313   0.52326   0.52962
 Alpha virt. eigenvalues --    0.53171   0.53270   0.53742   0.53809   0.54250
 Alpha virt. eigenvalues --    0.54304   0.54892   0.55206   0.55528   0.55859
 Alpha virt. eigenvalues --    0.56193   0.56480   0.57095   0.57203   0.57657
 Alpha virt. eigenvalues --    0.58136   0.58703   0.59211   0.59744   0.59846
 Alpha virt. eigenvalues --    0.60092   0.60473   0.60641   0.60867   0.61167
 Alpha virt. eigenvalues --    0.61502   0.62115   0.62697   0.62809   0.63175
 Alpha virt. eigenvalues --    0.63535   0.64023   0.64376   0.64515   0.64806
 Alpha virt. eigenvalues --    0.65179   0.65481   0.65605   0.66046   0.66499
 Alpha virt. eigenvalues --    0.67036   0.67356   0.67784   0.68766   0.69190
 Alpha virt. eigenvalues --    0.70601   0.70847   0.71412   0.71639   0.72281
 Alpha virt. eigenvalues --    0.72714   0.73354   0.73369   0.73696   0.74246
 Alpha virt. eigenvalues --    0.74815   0.75438   0.75594   0.75973   0.76100
 Alpha virt. eigenvalues --    0.76812   0.76916   0.77233   0.77638   0.78168
 Alpha virt. eigenvalues --    0.78415   0.78683   0.78852   0.79542   0.79854
 Alpha virt. eigenvalues --    0.80249   0.80745   0.80940   0.81160   0.81558
 Alpha virt. eigenvalues --    0.82072   0.82341   0.82681   0.83350   0.83705
 Alpha virt. eigenvalues --    0.84336   0.84406   0.84942   0.85200   0.85469
 Alpha virt. eigenvalues --    0.85961   0.86121   0.86396   0.86800   0.87345
 Alpha virt. eigenvalues --    0.87835   0.88117   0.88639   0.89206   0.89365
 Alpha virt. eigenvalues --    0.89867   0.90028   0.90344   0.90738   0.91012
 Alpha virt. eigenvalues --    0.92109   0.92477   0.92837   0.93212   0.93447
 Alpha virt. eigenvalues --    0.93839   0.93964   0.94356   0.95043   0.95336
 Alpha virt. eigenvalues --    0.95486   0.95863   0.96536   0.96865   0.97294
 Alpha virt. eigenvalues --    0.97625   0.98114   0.98529   0.98858   0.99027
 Alpha virt. eigenvalues --    0.99301   0.99577   1.00094   1.00724   1.01159
 Alpha virt. eigenvalues --    1.01532   1.01901   1.02833   1.03633   1.03977
 Alpha virt. eigenvalues --    1.05064   1.05492   1.05948   1.07023   1.07712
 Alpha virt. eigenvalues --    1.07840   1.08426   1.09128   1.10419   1.10684
 Alpha virt. eigenvalues --    1.11082   1.11372   1.11889   1.12632   1.13250
 Alpha virt. eigenvalues --    1.13724   1.14732   1.15214   1.15595   1.16128
 Alpha virt. eigenvalues --    1.16556   1.16800   1.17297   1.17687   1.18009
 Alpha virt. eigenvalues --    1.18351   1.18765   1.19194   1.19439   1.19712
 Alpha virt. eigenvalues --    1.20165   1.20335   1.20759   1.21176   1.21363
 Alpha virt. eigenvalues --    1.21893   1.22441   1.22998   1.23410   1.24130
 Alpha virt. eigenvalues --    1.24500   1.24652   1.25172   1.25372   1.25833
 Alpha virt. eigenvalues --    1.26206   1.26791   1.26977   1.27447   1.27958
 Alpha virt. eigenvalues --    1.28423   1.28835   1.29660   1.30414   1.31220
 Alpha virt. eigenvalues --    1.31729   1.32578   1.32712   1.33634   1.34111
 Alpha virt. eigenvalues --    1.34562   1.35694   1.36073   1.36964   1.37160
 Alpha virt. eigenvalues --    1.37347   1.38094   1.38831   1.39001   1.40188
 Alpha virt. eigenvalues --    1.41070   1.41262   1.42171   1.43070   1.43414
 Alpha virt. eigenvalues --    1.43884   1.44551   1.45127   1.46505   1.46835
 Alpha virt. eigenvalues --    1.47511   1.48396   1.49221   1.50325   1.50808
 Alpha virt. eigenvalues --    1.50999   1.51587   1.52021   1.52391   1.52702
 Alpha virt. eigenvalues --    1.53870   1.54383   1.55347   1.56326   1.56656
 Alpha virt. eigenvalues --    1.57524   1.58079   1.58662   1.59538   1.60719
 Alpha virt. eigenvalues --    1.61737   1.62122   1.62377   1.62824   1.62967
 Alpha virt. eigenvalues --    1.64022   1.64431   1.64961   1.65338   1.65772
 Alpha virt. eigenvalues --    1.66542   1.67365   1.68141   1.68650   1.69396
 Alpha virt. eigenvalues --    1.69531   1.70027   1.70817   1.71118   1.71500
 Alpha virt. eigenvalues --    1.72216   1.72623   1.73933   1.74111   1.74180
 Alpha virt. eigenvalues --    1.74840   1.75274   1.76043   1.76308   1.76594
 Alpha virt. eigenvalues --    1.77237   1.77742   1.78461   1.78988   1.79592
 Alpha virt. eigenvalues --    1.80492   1.80860   1.81090   1.81974   1.82658
 Alpha virt. eigenvalues --    1.83281   1.83389   1.84038   1.84702   1.84907
 Alpha virt. eigenvalues --    1.85449   1.86419   1.87232   1.87511   1.88240
 Alpha virt. eigenvalues --    1.88931   1.89646   1.90560   1.91091   1.91610
 Alpha virt. eigenvalues --    1.92488   1.92638   1.93397   1.93928   1.94777
 Alpha virt. eigenvalues --    1.95216   1.95761   1.96294   1.96702   1.97386
 Alpha virt. eigenvalues --    1.97625   1.98589   1.99534   2.00227   2.00987
 Alpha virt. eigenvalues --    2.01280   2.01503   2.02401   2.04279   2.04681
 Alpha virt. eigenvalues --    2.05337   2.06107   2.07245   2.08293   2.08696
 Alpha virt. eigenvalues --    2.09582   2.10335   2.10991   2.11177   2.11829
 Alpha virt. eigenvalues --    2.13224   2.13404   2.13997   2.14270   2.14548
 Alpha virt. eigenvalues --    2.15340   2.16430   2.16699   2.17646   2.18355
 Alpha virt. eigenvalues --    2.18577   2.19453   2.19997   2.20436   2.21673
 Alpha virt. eigenvalues --    2.21906   2.22080   2.23216   2.23730   2.24062
 Alpha virt. eigenvalues --    2.24411   2.25051   2.25451   2.25970   2.26290
 Alpha virt. eigenvalues --    2.27547   2.27628   2.28309   2.28502   2.29323
 Alpha virt. eigenvalues --    2.30295   2.31378   2.32002   2.32404   2.33454
 Alpha virt. eigenvalues --    2.34194   2.35521   2.35687   2.36823   2.37188
 Alpha virt. eigenvalues --    2.38195   2.39429   2.40129   2.40934   2.41318
 Alpha virt. eigenvalues --    2.42459   2.43463   2.44618   2.44960   2.45926
 Alpha virt. eigenvalues --    2.48047   2.50129   2.50451   2.53834   2.55339
 Alpha virt. eigenvalues --    2.55831   2.56969   2.57985   2.59063   2.59470
 Alpha virt. eigenvalues --    2.60392   2.60608   2.61646   2.61704   2.62375
 Alpha virt. eigenvalues --    2.63772   2.64665   2.65734   2.65951   2.66440
 Alpha virt. eigenvalues --    2.66943   2.67855   2.69119   2.69914   2.70266
 Alpha virt. eigenvalues --    2.70832   2.71467   2.71822   2.72011   2.72864
 Alpha virt. eigenvalues --    2.72930   2.73867   2.75668   2.76627   2.78029
 Alpha virt. eigenvalues --    2.79912   2.80095   2.80712   2.81194   2.81615
 Alpha virt. eigenvalues --    2.84065   2.85439   2.86019   2.87155   2.87428
 Alpha virt. eigenvalues --    2.87994   2.89258   2.90112   2.90565   2.91458
 Alpha virt. eigenvalues --    2.91728   2.92815   2.93619   2.94105   2.94904
 Alpha virt. eigenvalues --    2.95154   2.95853   2.95939   2.96882   2.98027
 Alpha virt. eigenvalues --    2.99769   2.99909   3.00103   3.00813   3.03151
 Alpha virt. eigenvalues --    3.03428   3.04704   3.05264   3.06419   3.07432
 Alpha virt. eigenvalues --    3.07942   3.08909   3.09725   3.10507   3.11351
 Alpha virt. eigenvalues --    3.11930   3.12236   3.13160   3.13835   3.14125
 Alpha virt. eigenvalues --    3.14550   3.14710   3.16537   3.16610   3.17656
 Alpha virt. eigenvalues --    3.18454   3.18936   3.20333   3.20735   3.21578
 Alpha virt. eigenvalues --    3.23462   3.24268   3.25023   3.27552   3.29126
 Alpha virt. eigenvalues --    3.30415   3.31333   3.32039   3.32223   3.33633
 Alpha virt. eigenvalues --    3.35396   3.36772   3.37585   3.38612   3.39244
 Alpha virt. eigenvalues --    3.40903   3.41143   3.42200   3.42563   3.43133
 Alpha virt. eigenvalues --    3.46001   3.47503   3.48626   3.49808   3.49943
 Alpha virt. eigenvalues --    3.52234   3.53516   3.54395   3.56983   3.57864
 Alpha virt. eigenvalues --    3.58474   3.58629   3.58885   3.60224   3.61133
 Alpha virt. eigenvalues --    3.62894   3.63667   3.65361   3.66939   3.67944
 Alpha virt. eigenvalues --    3.68987   3.69302   3.71049   3.73297   3.73685
 Alpha virt. eigenvalues --    3.75880   3.78350   3.81996   3.83109   3.84830
 Alpha virt. eigenvalues --    3.87443   3.89045   3.89586   3.91008   3.91533
 Alpha virt. eigenvalues --    3.92089   3.92686   3.93166   3.93745   3.94969
 Alpha virt. eigenvalues --    3.97250   3.98696   4.02198   4.05399   4.06343
 Alpha virt. eigenvalues --    4.08521   4.13545   4.15217   4.15727   4.17018
 Alpha virt. eigenvalues --    4.17314   4.21359   4.22221   4.25628   4.26125
 Alpha virt. eigenvalues --    4.27678   4.29410   4.32440   4.37372   4.41138
 Alpha virt. eigenvalues --    4.44349   4.49934   4.52150   4.60411   4.65351
 Alpha virt. eigenvalues --    4.66139   4.75334   4.94831   5.09820   5.10222
 Alpha virt. eigenvalues --    5.11625   5.13346   5.19029   5.20972   5.27770
 Alpha virt. eigenvalues --    5.29506   5.29638   5.31902   5.35292   5.37513
 Alpha virt. eigenvalues --    5.48800   5.51087   5.53265   5.60038   5.60732
 Alpha virt. eigenvalues --    5.62542   5.94516   5.98533   5.99967   6.04316
 Alpha virt. eigenvalues --    6.06101   6.08895   8.20337   8.25849  17.46878
 Alpha virt. eigenvalues --   17.52764  17.67744  17.70693  17.79595  17.84285
 Alpha virt. eigenvalues --   23.72043  23.79105  23.92448  24.00771  24.04343
 Alpha virt. eigenvalues --   24.05909  24.07316  24.07676  24.09284  24.10900
 Alpha virt. eigenvalues --   24.11830  24.12207  24.13540  24.14999  24.15964
 Alpha virt. eigenvalues --   24.19927  24.20926  24.21530  24.22715  24.24142
 Alpha virt. eigenvalues --   24.26109  24.31216  24.31954  24.36063  24.39435
 Alpha virt. eigenvalues --   24.40061  35.79449  35.82904  50.13885  50.16465
 Alpha virt. eigenvalues --   50.26642  50.29018  50.30538  50.32657 189.37777
 Alpha virt. eigenvalues --  189.43790
          Condensed to atoms (all electrons):
 Mulliken charges:
               1
     1  C    0.263012
     2  C   -0.107348
     3  C    0.157624
     4  C    0.220882
     5  C    0.177003
     6  C   -0.047621
     7  C    0.180115
     8  C    0.069746
     9  C    0.193698
    10  C   -0.205114
    11  C    0.044178
    12  C    0.176341
    13  C   -0.454946
    14  C   -0.681120
    15  H    0.099660
    16  H    0.104063
    17  H    0.128847
    18  N   -0.183982
    19  N   -0.131595
    20  O   -0.405550
    21  O   -0.395684
    22  O   -0.397656
    23  O   -0.343900
    24  C   -0.199876
    25  H    0.135799
    26  H    0.137420
    27  H    0.161042
    28  C   -0.187357
    29  H    0.139147
    30  H    0.135929
    31  H    0.155489
    32  C   -0.403651
    33  C   -0.267656
    34  S   -0.786560
    35  C   -0.176176
    36  H    0.178226
    37  C    0.618076
    38  O   -0.134901
    39  C    0.903567
    40  C   -0.239278
    41  C   -0.034120
    42  S   -0.313590
    43  H    0.124569
    44  H    0.151918
    45  H    0.141037
    46  C   -0.613275
    47  O   -0.096564
    48  C   -0.350534
    49  H    0.093998
    50  C   -0.243411
    51  H    0.113763
    52  H    0.116546
    53  H    0.163320
    54  H    0.116448
 Sum of Mulliken charges =  -2.00000
 Mulliken charges with hydrogens summed into heavy atoms:
               1
     1  C    0.263012
     2  C   -0.107348
     3  C    0.157624
     4  C    0.220882
     5  C    0.177003
     6  C    0.081226
     7  C    0.180115
     8  C    0.069746
     9  C    0.193698
    10  C   -0.205114
    11  C    0.044178
    12  C    0.176341
    13  C   -0.350882
    14  C   -0.581460
    18  N   -0.183982
    19  N   -0.131595
    20  O   -0.405550
    21  O   -0.395684
    22  O   -0.397656
    23  O   -0.343900
    24  C    0.234384
    28  C    0.243208
    32  C   -0.403651
    33  C   -0.089429
    34  S   -0.786560
    35  C   -0.176176
    37  C    0.618076
    38  O   -0.134901
    39  C    0.903567
    40  C    0.178246
    41  C   -0.034120
    42  S   -0.313590
    46  C   -0.519277
    47  O   -0.096564
    48  C   -0.236772
    50  C    0.152904
 Electronic spatial extent (au):  <R**2>=          22632.1241
 Charge=             -2.0000 electrons
 Dipole moment (field-independent basis, Debye):
    X=             14.7901    Y=             -0.4245    Z=              0.3109  Tot=             14.7994
 Quadrupole moment (field-independent basis, Debye-Ang):
   XX=           -425.4688   YY=           -295.2863   ZZ=           -236.6259
   XY=             -2.2587   XZ=             -7.3734   YZ=             10.6086
 Traceless Quadrupole moment (field-independent basis, Debye-Ang):
   XX=           -106.3418   YY=             23.8407   ZZ=             82.5011
   XY=             -2.2587   XZ=             -7.3734   YZ=             10.6086
 Octapole moment (field-independent basis, Debye-Ang**2):
  XXX=            460.4326  YYY=            -30.0262  ZZZ=              4.1645  XYY=            294.4380
  XXY=             -2.3361  XXZ=             44.8659  XZZ=              0.5076  YZZ=              0.0538
  YYZ=             -1.0791  XYZ=            -11.2486
 Hexadecapole moment (field-independent basis, Debye-Ang**3):
 XXXX=         -29085.8083 YYYY=          -9767.8048 ZZZZ=           -495.8409 XXXY=           -420.7425
 XXXZ=           -234.0243 YYYX=            218.4049 YYYZ=            200.1009 ZZZX=             -9.9958
 ZZZY=              7.8723 XXYY=          -6415.5918 XXZZ=          -4048.9406 YYZZ=          -1586.2552
 XXYZ=            155.5813 YYXZ=           -114.1958 ZZXY=             44.6442
 N-N= 4.092172777035D+03 E-N=-1.378379015797D+04  KE= 2.352673188790D+03
 Calling FoFJK, ICntrl=      2127 FMM=F ISym2X=0 I1Cent= 0 IOpClX= 0 NMat=1 NMatS=1 NMatT=0.
 ***** Axes restored to original set *****
 -------------------------------------------------------------------
 Center     Atomic                   Forces (Hartrees/Bohr)
 Number     Number              X              Y              Z
 -------------------------------------------------------------------
      1        6          -0.001310615    0.041738784    0.006600940
      2        6          -0.021200646   -0.029900860   -0.003820557
      3        6          -0.005419884   -0.006674617   -0.001115730
      4        6           0.015165718   -0.035093153   -0.005178989
      5        6           0.023963348    0.036965087    0.004613136
      6        6           0.026165887    0.030601001   -0.000894228
      7        6           0.001742639    0.008107054    0.000759368
      8        6          -0.013203481    0.044787739    0.014908820
      9        6           0.019294530   -0.044648161   -0.004059660
     10        6          -0.034327951   -0.046390372   -0.011268092
     11        6           0.006818960   -0.043634942   -0.007240255
     12        6           0.025611946    0.029287333    0.004848490
     13        6          -0.029715411   -0.028899039   -0.004043012
     14        6          -0.015121184    0.038786756    0.006041166
     15        1          -0.000093802    0.000882716    0.000144644
     16        1          -0.000043644   -0.000952576   -0.000250178
     17        1          -0.000862859   -0.000009329    0.002167448
     18        7           0.000908655    0.003526747   -0.000460970
     19        7          -0.002138329   -0.004273477   -0.000843142
     20        8           0.014832013   -0.024429516   -0.003531573
     21        8          -0.027492858   -0.016548786   -0.001780702
     22        8          -0.018632728    0.026168277    0.004380878
     23        8          -0.003542386    0.043294488    0.010109522
     24        6          -0.001304124   -0.004824413   -0.002369241
     25        1           0.000991141    0.000712815    0.000516420
     26        1           0.000388644    0.000404565    0.000787382
     27        1          -0.000920647   -0.000353404   -0.000029210
     28        6           0.000653225    0.005892342    0.000239620
     29        1           0.000521015   -0.000960465    0.000269672
     30        1           0.000674372   -0.001196297   -0.000082902
     31        1          -0.000606687    0.000696222    0.000166746
     32        6          -0.014188475    0.002429303   -0.001987428
     33        6           0.036238284   -0.003025130    0.002133491
     34       16          -0.003879796   -0.002303535   -0.002358293
     35        6          -0.011242287   -0.019315060   -0.004834098
     36        1           0.008518724   -0.011445226   -0.004064375
     37        6           0.017869238    0.005377266   -0.000538595
     38        8           0.006584039    0.009612418    0.004866695
     39        6          -0.013776331    0.002509049    0.003155749
     40        6          -0.001668690   -0.002731998   -0.003215717
     41        6           0.014516151    0.003483480   -0.000478896
     42       16          -0.002042503    0.001948257    0.001249598
     43        1           0.001378869    0.000228139    0.000066975
     44        1          -0.000001756   -0.001573991    0.001942804
     45        1          -0.000386534    0.000575410   -0.001118009
     46        6          -0.007481450   -0.000882931    0.001330865
     47        8          -0.004791084   -0.014815790   -0.006690659
     48        6           0.015336832   -0.000710759   -0.003088366
     49        1           0.000162846    0.000108020    0.000007573
     50        6          -0.002666434    0.007877917    0.004646500
     51        1          -0.001287590   -0.000201291   -0.000250426
     52        1           0.000690552   -0.000389638    0.000139467
     53        1          -0.000345044    0.000125485    0.000273646
     54        1           0.000667583    0.000058088   -0.000774312
 -------------------------------------------------------------------
 Cartesian Forces:  Max     0.046390372 RMS     0.014194063

 GradGradGradGradGradGradGradGradGradGradGradGradGradGradGradGradGradGrad
 Berny optimization.
 FormGI is forming the generalized inverse of G from B-inverse, IUseBI=4.
 Internal  Forces:  Max     0.117561497 RMS     0.015700638
 Search for a local minimum.
 Step number   1 out of a maximum of  307
 All quantities printed in internal units (Hartrees-Bohrs-Radians)
 Mixed Optimization -- RFO/linear search
 Second derivative matrix not updated -- first step.
 ITU=  0
     Eigenvalues ---    0.00803   0.00803   0.01176   0.01203   0.01245
     Eigenvalues ---    0.01292   0.01308   0.01311   0.01360   0.01381
     Eigenvalues ---    0.01419   0.01429   0.01457   0.01496   0.01516
     Eigenvalues ---    0.01568   0.01574   0.01577   0.01618   0.01651
     Eigenvalues ---    0.01693   0.01709   0.01711   0.01719   0.01754
     Eigenvalues ---    0.01783   0.01803   0.01847   0.01965   0.02040
     Eigenvalues ---    0.02049   0.02070   0.02078   0.02084   0.02135
     Eigenvalues ---    0.02149   0.02163   0.02180   0.02197   0.02216
     Eigenvalues ---    0.02229   0.02253   0.07556   0.07572   0.07690
     Eigenvalues ---    0.07700   0.10063   0.10083   0.10634   0.10635
     Eigenvalues ---    0.15983   0.15999   0.15999   0.16000   0.16000
     Eigenvalues ---    0.16000   0.16000   0.16000   0.16000   0.16000
     Eigenvalues ---    0.16000   0.16000   0.16000   0.16000   0.16000
     Eigenvalues ---    0.16000   0.16000   0.16000   0.22530   0.22583
     Eigenvalues ---    0.23518   0.23582   0.24516   0.24747   0.24867
     Eigenvalues ---    0.24931   0.24952   0.24985   0.24987   0.24988
     Eigenvalues ---    0.24991   0.24994   0.24997   0.24997   0.24998
     Eigenvalues ---    0.24998   0.25000   0.25000   0.25000   0.25000
     Eigenvalues ---    0.25000   0.25000   0.25000   0.25000   0.25000
     Eigenvalues ---    0.25000   0.28835   0.28866   0.30091   0.32099
     Eigenvalues ---    0.32582   0.32774   0.33111   0.33787   0.33955
     Eigenvalues ---    0.34033   0.34065   0.34091   0.34354   0.34466
     Eigenvalues ---    0.34577   0.34629   0.34693   0.34845   0.34902
     Eigenvalues ---    0.35198   0.35218   0.35468   0.35553   0.35582
     Eigenvalues ---    0.35784   0.35794   0.36078   0.36083   0.36197
     Eigenvalues ---    0.36396   0.36662   0.39352   0.40193   0.40194
     Eigenvalues ---    0.40651   0.40692   0.41524   0.41705   0.41943
     Eigenvalues ---    0.42300   0.42825   0.43455   0.43883   0.44092
     Eigenvalues ---    0.44594   0.44665   0.45014   0.45406   0.46251
     Eigenvalues ---    0.47305   0.47564   0.49310   0.49671   0.52872
     Eigenvalues ---    0.53067   0.93281   0.93432   0.93989   0.94585
     Eigenvalues --- 1000.000001000.000001000.000001000.000001000.00000
     Eigenvalues --- 1000.000001000.000001000.000001000.000001000.00000
     Eigenvalues --- 1000.000001000.000001000.000001000.000001000.00000
     Eigenvalues --- 1000.000001000.000001000.000001000.000001000.00000
     Eigenvalues --- 1000.000001000.000001000.000001000.000001000.00000
     Eigenvalues --- 1000.000001000.000001000.000001000.000001000.00000
     Eigenvalues --- 1000.000001000.000001000.000001000.000001000.00000
     Eigenvalues --- 1000.000001000.000001000.000001000.000001000.00000
     Eigenvalues --- 1000.000001000.000001000.000001000.000001000.00000
     Eigenvalues --- 1000.000001000.000001000.000001000.000001000.00000
     Eigenvalues --- 1000.000001000.000001000.000001000.000001000.00000
     Eigenvalues --- 1000.000001000.000001000.000001000.000001000.00000
     Eigenvalues --- 1000.000001000.000001000.000001000.000001000.00000
     Eigenvalues --- 1000.000001000.000001000.000001000.000001000.00000
     Eigenvalues --- 1000.000001000.000001000.000001000.000001000.00000
     Eigenvalues --- 1000.000001000.000001000.000001000.000001000.00000
     Eigenvalues --- 1000.000001000.000001000.000001000.000001000.00000
     Eigenvalues --- 1000.000001000.000001000.000001000.000001000.00000
     Eigenvalues --- 1000.000001000.000001000.000001000.000001000.00000
     Eigenvalues --- 1000.000001000.000001000.000001000.000001000.00000
     Eigenvalues --- 1000.000001000.000001000.000001000.000001000.00000
     Eigenvalues --- 1000.000001000.000001000.000001000.000001000.00000
     Eigenvalues --- 1000.000001000.000001000.000001000.000001000.00000
     Eigenvalues --- 1000.000001000.000001000.000001000.000001000.00000
     Eigenvalues --- 1000.000001000.000001000.000001000.000001000.00000
     Eigenvalues --- 1000.000001000.000001000.000001000.000001000.00000
     Eigenvalues --- 1000.000001000.000001000.000001000.000001000.00000
     Eigenvalues --- 1000.000001000.000001000.000001000.000001000.00000
     Eigenvalues --- 1000.000001000.00000
 RFO step:  Lambda=-1.60753815D-01 EMin= 8.02933640D-03
 Linear search not attempted -- first point.
 Maximum step size (   0.300) exceeded in Quadratic search.
    -- Step size scaled by   0.498
 Iteration  1 RMS(Cart)=  0.28992212 RMS(Int)=  0.00641020
 Iteration  2 RMS(Cart)=  0.07490591 RMS(Int)=  0.00036718
 Iteration  3 RMS(Cart)=  0.00127483 RMS(Int)=  0.00007716
 Iteration  4 RMS(Cart)=  0.00000019 RMS(Int)=  0.00007716
 Iteration  1 RMS(Cart)=  0.00001117 RMS(Int)=  0.00000198
 Iteration  2 RMS(Cart)=  0.00000634 RMS(Int)=  0.00000221
 Iteration  3 RMS(Cart)=  0.00000360 RMS(Int)=  0.00000251
 Iteration  4 RMS(Cart)=  0.00000204 RMS(Int)=  0.00000271
 Iteration  5 RMS(Cart)=  0.00000116 RMS(Int)=  0.00000284
 Iteration  6 RMS(Cart)=  0.00000066 RMS(Int)=  0.00000291
 Variable       Old X    -DE/DX   Delta X   Delta X   Delta X     New X
                                 (Linear)    (Quad)   (Total)
    R1        2.80935  -0.01928   0.00000  -0.01957  -0.01956   2.78979
    R2        2.64584   0.00092   0.00000   0.00050   0.00050   2.64634
    R3        2.31147   0.02792   0.00000   0.01262   0.01262   2.32409
    R4        2.67311  -0.00494   0.00000  -0.00569  -0.00573   2.66738
    R5        2.59267   0.00695   0.00000   0.00302   0.00299   2.59567
    R6        2.66894   0.00890   0.00000   0.00779   0.00779   2.67673
    R7        2.69164   0.01629   0.00000   0.01610   0.01611   2.70775
    R8        2.81049  -0.01986   0.00000  -0.01950  -0.01951   2.79099
    R9        2.62173   0.01909   0.00000   0.01395   0.01390   2.63562
   R10        2.65570  -0.00048   0.00000  -0.00039  -0.00039   2.65531
   R11        2.30889   0.03138   0.00000   0.01411   0.01411   2.32301
   R12        2.70248  -0.02183   0.00000  -0.02012  -0.02010   2.68237
   R13        2.04786  -0.00091   0.00000  -0.00087  -0.00087   2.04698
   R14        2.70495   0.03947   0.00000   0.03899   0.03910   2.74406
   R15        2.68322   0.01725   0.00000   0.01667   0.01667   2.69989
   R16        2.68655   0.09445   0.00000   0.08221   0.08227   2.76882
   R17        2.81233   0.00579   0.00000   0.00670   0.00683   2.81916
   R18        2.76359   0.03429   0.00000   0.03236   0.03236   2.79596
   R19        2.66221   0.00007   0.00000  -0.00099  -0.00096   2.66125
   R20        2.31391   0.01502   0.00000   0.00682   0.00682   2.32073
   R21        2.79415  -0.03599   0.00000  -0.03619  -0.03632   2.75783
   R22        2.63842  -0.01459   0.00000  -0.01336  -0.01344   2.62498
   R23        2.31456   0.03169   0.00000   0.01442   0.01442   2.32899
   R24        2.62448   0.02414   0.00000   0.01877   0.01877   2.64325
   R25        2.64561  -0.03244   0.00000  -0.02725  -0.02729   2.61832
   R26        2.04921  -0.00065   0.00000  -0.00063  -0.00063   2.04858
   R27        2.04741  -0.00020   0.00000  -0.00019  -0.00019   2.04722
   R28        2.77259  -0.00428   0.00000  -0.00409  -0.00409   2.76851
   R29        2.77252  -0.00463   0.00000  -0.00442  -0.00442   2.76811
   R30        2.06176   0.00100   0.00000   0.00098   0.00098   2.06274
   R31        2.06551  -0.00020   0.00000  -0.00020  -0.00020   2.06531
   R32        2.05322   0.00062   0.00000   0.00060   0.00060   2.05382
   R33        2.06368   0.00029   0.00000   0.00028   0.00028   2.06396
   R34        2.06281   0.00083   0.00000   0.00082   0.00082   2.06363
   R35        2.05355   0.00052   0.00000   0.00051   0.00051   2.05406
   R36        2.61081   0.01326   0.00000   0.01062   0.01066   2.62147
   R37        3.33299   0.01317   0.00000   0.01513   0.01516   3.34816
   R38        2.66070   0.00207   0.00000   0.00159   0.00159   2.66228
   R39        2.03775  -0.01432   0.00000  -0.01363  -0.01363   2.02412
   R40        3.30411   0.00245   0.00000   0.00220   0.00217   3.30628
   R41        2.64330  -0.01054   0.00000  -0.00903  -0.00908   2.63422
   R42        2.57073   0.00876   0.00000   0.00632   0.00632   2.57705
   R43        2.71292  -0.00050   0.00000  -0.00045  -0.00045   2.71247
   R44        2.69300  -0.00391   0.00000  -0.00337  -0.00337   2.68963
   R45        2.63295   0.00637   0.00000   0.00501   0.00501   2.63796
   R46        3.32958   0.00437   0.00000   0.00478   0.00478   3.33436
   R47        2.05927   0.00129   0.00000   0.00126   0.00126   2.06053
   R48        2.07406  -0.00179   0.00000  -0.00178  -0.00178   2.07228
   R49        2.07178  -0.00102   0.00000  -0.00101  -0.00101   2.07076
   R50        2.69087  -0.00042   0.00000  -0.00038  -0.00039   2.69048
   R51        2.56891   0.00986   0.00000   0.00710   0.00710   2.57601
   R52        3.26313   0.00602   0.00000   0.00618   0.00618   3.26930
   R53        2.58576   0.00375   0.00000   0.00279   0.00279   2.58855
   R54        2.04421  -0.00002   0.00000  -0.00002  -0.00002   2.04419
   R55        2.68996  -0.00892   0.00000  -0.00765  -0.00765   2.68231
   R56        2.04405  -0.00127   0.00000  -0.00121  -0.00121   2.04283
   R57        2.07275   0.00074   0.00000   0.00073   0.00073   2.07348
   R58        2.05835   0.00020   0.00000   0.00019   0.00019   2.05854
   R59        2.07220   0.00096   0.00000   0.00096   0.00096   2.07316
    A1        2.03797  -0.00268   0.00000  -0.00420  -0.00420   2.03376
    A2        2.14521   0.00950   0.00000   0.01199   0.01199   2.15720
    A3        2.10001  -0.00683   0.00000  -0.00779  -0.00779   2.09222
    A4        2.10395   0.00540   0.00000   0.00834   0.00837   2.11232
    A5        2.08282  -0.00750   0.00000  -0.00644  -0.00642   2.07640
    A6        2.09624   0.00209   0.00000  -0.00192  -0.00197   2.09427
    A7        2.10093  -0.00572   0.00000  -0.00832  -0.00832   2.09261
    A8        2.07104  -0.00069   0.00000  -0.00241  -0.00248   2.06857
    A9        2.11118   0.00642   0.00000   0.01074   0.01079   2.12197
   A10        2.10296   0.00328   0.00000   0.00468   0.00470   2.10766
   A11        2.09911   0.00460   0.00000   0.00519   0.00514   2.10425
   A12        2.08110  -0.00788   0.00000  -0.00987  -0.00983   2.07127
   A13        2.03739  -0.00297   0.00000  -0.00328  -0.00331   2.03409
   A14        2.12972   0.00949   0.00000   0.01133   0.01135   2.14107
   A15        2.11607  -0.00651   0.00000  -0.00805  -0.00804   2.10803
   A16        2.15098   0.02800   0.00000   0.03246   0.03247   2.18345
   A17        2.04399  -0.01450   0.00000  -0.01699  -0.01701   2.02698
   A18        2.08722  -0.01342   0.00000  -0.01534  -0.01535   2.07187
   A19        2.11101   0.01005   0.00000   0.01292   0.01287   2.12388
   A20        2.04385  -0.02310   0.00000  -0.02949  -0.02947   2.01438
   A21        2.12832   0.01305   0.00000   0.01658   0.01660   2.14493
   A22        2.08678  -0.02447   0.00000  -0.02557  -0.02560   2.06119
   A23        2.04738  -0.04076   0.00000  -0.04722  -0.04706   2.00033
   A24        2.14662   0.06546   0.00000   0.07344   0.07327   2.21988
   A25        2.04892  -0.01504   0.00000  -0.01586  -0.01572   2.03320
   A26        2.00754  -0.10257   0.00000  -0.12541  -0.12549   1.88205
   A27        2.22643   0.11756   0.00000   0.14137   0.14131   2.36774
   A28        2.06022   0.01432   0.00000   0.01858   0.01878   2.07900
   A29        2.17370   0.04143   0.00000   0.04958   0.04948   2.22318
   A30        2.04919  -0.05575   0.00000  -0.06814  -0.06824   1.98094
   A31        2.01621  -0.00890   0.00000  -0.01319  -0.01340   2.00281
   A32        2.14188   0.01235   0.00000   0.01617   0.01628   2.15815
   A33        2.12500  -0.00346   0.00000  -0.00298  -0.00288   2.12212
   A34        2.10943   0.00666   0.00000   0.00879   0.00862   2.11805
   A35        2.11468   0.01221   0.00000   0.01637   0.01649   2.13116
   A36        2.05896  -0.01887   0.00000  -0.02514  -0.02509   2.03387
   A37        2.11176   0.00333   0.00000   0.00376   0.00371   2.11546
   A38        2.05670  -0.00092   0.00000  -0.00072  -0.00069   2.05600
   A39        2.11471  -0.00241   0.00000  -0.00304  -0.00301   2.11170
   A40        2.08567  -0.00344   0.00000  -0.00652  -0.00662   2.07905
   A41        2.07549   0.00262   0.00000   0.00466   0.00471   2.08020
   A42        2.12199   0.00082   0.00000   0.00187   0.00192   2.12391
   A43        2.20043   0.01571   0.00000   0.01659   0.01657   2.21700
   A44        2.02023  -0.00676   0.00000  -0.00697  -0.00696   2.01328
   A45        2.06252  -0.00895   0.00000  -0.00962  -0.00961   2.05291
   A46        2.18316   0.00269   0.00000   0.00278   0.00276   2.18592
   A47        2.02959  -0.00066   0.00000  -0.00056  -0.00056   2.02903
   A48        2.07044  -0.00203   0.00000  -0.00222  -0.00221   2.06824
   A49        1.91737   0.00100   0.00000   0.00154   0.00154   1.91891
   A50        1.91808   0.00111   0.00000   0.00174   0.00174   1.91982
   A51        1.87685  -0.00138   0.00000  -0.00214  -0.00213   1.87471
   A52        1.88689  -0.00108   0.00000  -0.00168  -0.00168   1.88521
[...]
 Alpha  occ. eigenvalues --   -0.23612  -0.23134  -0.22655  -0.22430  -0.21520
 Alpha  occ. eigenvalues --   -0.21382  -0.21029  -0.20860  -0.20282  -0.19840
 Alpha  occ. eigenvalues --   -0.19479  -0.19268  -0.19180  -0.18660  -0.18564
 Alpha  occ. eigenvalues --   -0.18201  -0.17702  -0.16808  -0.16354  -0.16164
 Alpha  occ. eigenvalues --   -0.15415  -0.15057  -0.14306  -0.12656  -0.12137
 Alpha  occ. eigenvalues --   -0.11442  -0.09825  -0.08755  -0.07342  -0.07180
 Alpha  occ. eigenvalues --   -0.06653  -0.06183  -0.05790  -0.05224  -0.05093
 Alpha  occ. eigenvalues --   -0.05022  -0.03835  -0.02013   0.00002   0.06304
 Alpha virt. eigenvalues --    0.11829   0.12902   0.14067   0.14612   0.15551
 Alpha virt. eigenvalues --    0.15856   0.16474   0.16676   0.16820   0.17240
 Alpha virt. eigenvalues --    0.17629   0.18023   0.18615   0.18903   0.18934
 Alpha virt. eigenvalues --    0.19308   0.19498   0.19653   0.19822   0.20238
 Alpha virt. eigenvalues --    0.20617   0.20761   0.21067   0.21359   0.21475
 Alpha virt. eigenvalues --    0.21708   0.21948   0.22083   0.22573   0.22847
 Alpha virt. eigenvalues --    0.23309   0.23496   0.23657   0.23856   0.24084
 Alpha virt. eigenvalues --    0.24442   0.24757   0.24875   0.25025   0.25258
 Alpha virt. eigenvalues --    0.25473   0.25785   0.26154   0.26443   0.26594
 Alpha virt. eigenvalues --    0.26912   0.27146   0.27229   0.27566   0.28035
 Alpha virt. eigenvalues --    0.28271   0.28505   0.28602   0.28809   0.29219
 Alpha virt. eigenvalues --    0.29435   0.29624   0.30135   0.30219   0.30448
 Alpha virt. eigenvalues --    0.30697   0.31140   0.31289   0.31614   0.31824
 Alpha virt. eigenvalues --    0.32259   0.32390   0.32531   0.32886   0.33019
 Alpha virt. eigenvalues --    0.33349   0.33450   0.33659   0.33878   0.34069
 Alpha virt. eigenvalues --    0.34199   0.34589   0.34938   0.35131   0.35294
 Alpha virt. eigenvalues --    0.35468   0.35663   0.35727   0.35988   0.36240
 Alpha virt. eigenvalues --    0.36443   0.37011   0.37089   0.37430   0.37530
 Alpha virt. eigenvalues --    0.37769   0.38039   0.38356   0.38571   0.38729
 Alpha virt. eigenvalues --    0.39004   0.39133   0.39303   0.39805   0.39995
 Alpha virt. eigenvalues --    0.40182   0.40240   0.40551   0.40768   0.41143
 Alpha virt. eigenvalues --    0.41539   0.41693   0.41910   0.42292   0.42363
 Alpha virt. eigenvalues --    0.42474   0.42668   0.42787   0.43205   0.43504
 Alpha virt. eigenvalues --    0.43744   0.43866   0.44101   0.44180   0.44494
 Alpha virt. eigenvalues --    0.44717   0.44881   0.44895   0.45242   0.45442
 Alpha virt. eigenvalues --    0.45701   0.45908   0.46078   0.46286   0.46515
 Alpha virt. eigenvalues --    0.46723   0.47196   0.47309   0.47454   0.47722
 Alpha virt. eigenvalues --    0.47892   0.47978   0.48179   0.48384   0.48616
 Alpha virt. eigenvalues --    0.48812   0.49302   0.49363   0.49519   0.49742
 Alpha virt. eigenvalues --    0.50142   0.50250   0.50300   0.50575   0.50792
 Alpha virt. eigenvalues --    0.51212   0.51566   0.51866   0.52018   0.52476
 Alpha virt. eigenvalues --    0.52642   0.52869   0.52955   0.53283   0.53442
 Alpha virt. eigenvalues --    0.53924   0.54295   0.54441   0.54621   0.54952
 Alpha virt. eigenvalues --    0.55363   0.55445   0.55747   0.56289   0.56579
 Alpha virt. eigenvalues --    0.56916   0.57309   0.57618   0.58112   0.58253
 Alpha virt. eigenvalues --    0.58701   0.59133   0.59465   0.59887   0.60003
 Alpha virt. eigenvalues --    0.60467   0.60786   0.60903   0.61226   0.61776
 Alpha virt. eigenvalues --    0.62238   0.62665   0.62804   0.62970   0.63215
 Alpha virt. eigenvalues --    0.63802   0.64452   0.64762   0.65091   0.65328
 Alpha virt. eigenvalues --    0.66142   0.66586   0.66820   0.67158   0.68305
 Alpha virt. eigenvalues --    0.68933   0.69308   0.69596   0.70433   0.70903
 Alpha virt. eigenvalues --    0.70970   0.71786   0.72152   0.72555   0.72989
 Alpha virt. eigenvalues --    0.73495   0.73908   0.74115   0.74507   0.74636
 Alpha virt. eigenvalues --    0.75403   0.75763   0.76219   0.76986   0.77604
 Alpha virt. eigenvalues --    0.77662   0.77890   0.78262   0.78354   0.78941
 Alpha virt. eigenvalues --    0.79944   0.80369   0.80795   0.80910   0.81542
 Alpha virt. eigenvalues --    0.81671   0.82295   0.82569   0.82660   0.83268
 Alpha virt. eigenvalues --    0.83533   0.83938   0.84401   0.84530   0.84759
 Alpha virt. eigenvalues --    0.85411   0.85759   0.85872   0.86325   0.87089
 Alpha virt. eigenvalues --    0.87592   0.87716   0.88053   0.88138   0.88173
 Alpha virt. eigenvalues --    0.88884   0.89156   0.89457   0.89953   0.90377
 Alpha virt. eigenvalues --    0.90749   0.91497   0.91713   0.92038   0.92148
 Alpha virt. eigenvalues --    0.92467   0.93168   0.93572   0.94010   0.94080
 Alpha virt. eigenvalues --    0.94482   0.94959   0.95250   0.95431   0.95905
 Alpha virt. eigenvalues --    0.96362   0.96633   0.97183   0.97445   0.97516
 Alpha virt. eigenvalues --    0.97943   0.98488   0.99046   0.99609   0.99852
 Alpha virt. eigenvalues --    1.00290   1.00445   1.00937   1.01680   1.02092
 Alpha virt. eigenvalues --    1.02828   1.04251   1.04908   1.05476   1.05677
 Alpha virt. eigenvalues --    1.06113   1.06513   1.07051   1.08181   1.08992
 Alpha virt. eigenvalues --    1.09226   1.09877   1.10055   1.11180   1.11967
 Alpha virt. eigenvalues --    1.12393   1.12504   1.12786   1.13653   1.14208
 Alpha virt. eigenvalues --    1.14268   1.15330   1.15707   1.16300   1.16580
 Alpha virt. eigenvalues --    1.16750   1.17061   1.17353   1.18162   1.18641
 Alpha virt. eigenvalues --    1.18745   1.19036   1.19556   1.19778   1.20140
 Alpha virt. eigenvalues --    1.21274   1.21547   1.22059   1.22196   1.22656
 Alpha virt. eigenvalues --    1.23140   1.23569   1.23773   1.24063   1.24700
 Alpha virt. eigenvalues --    1.25116   1.25797   1.26282   1.26494   1.26794
 Alpha virt. eigenvalues --    1.27312   1.27695   1.28651   1.29055   1.29579
 Alpha virt. eigenvalues --    1.30304   1.30687   1.31172   1.31965   1.32246
 Alpha virt. eigenvalues --    1.32836   1.33381   1.33656   1.34058   1.35974
 Alpha virt. eigenvalues --    1.37029   1.37276   1.37677   1.38286   1.38912
 Alpha virt. eigenvalues --    1.40266   1.40872   1.41333   1.42133   1.42851
 Alpha virt. eigenvalues --    1.43410   1.43892   1.44111   1.44982   1.45346
 Alpha virt. eigenvalues --    1.45801   1.46235   1.46775   1.47419   1.47854
 Alpha virt. eigenvalues --    1.49770   1.50155   1.50248   1.51018   1.51329
 Alpha virt. eigenvalues --    1.52213   1.52408   1.52818   1.54025   1.54686
 Alpha virt. eigenvalues --    1.55502   1.56577   1.56910   1.58115   1.58583
 Alpha virt. eigenvalues --    1.59689   1.60148   1.60997   1.61604   1.61756
 Alpha virt. eigenvalues --    1.63354   1.63528   1.64058   1.65304   1.65437
 Alpha virt. eigenvalues --    1.66330   1.66882   1.67723   1.68380   1.69120
 Alpha virt. eigenvalues --    1.69336   1.69542   1.70501   1.70817   1.71224
 Alpha virt. eigenvalues --    1.71566   1.71818   1.72201   1.73096   1.73712
 Alpha virt. eigenvalues --    1.74081   1.74353   1.74587   1.74993   1.75185
 Alpha virt. eigenvalues --    1.76164   1.76412   1.76693   1.77575   1.77916
 Alpha virt. eigenvalues --    1.78408   1.79978   1.80263   1.80666   1.81237
 Alpha virt. eigenvalues --    1.81778   1.82211   1.82489   1.83117   1.83832
 Alpha virt. eigenvalues --    1.84006   1.84780   1.85735   1.86786   1.86974
 Alpha virt. eigenvalues --    1.87352   1.87828   1.88043   1.88905   1.90151
 Alpha virt. eigenvalues --    1.91017   1.91956   1.92354   1.92995   1.93548
 Alpha virt. eigenvalues --    1.93788   1.94177   1.94842   1.95162   1.95504
 Alpha virt. eigenvalues --    1.95967   1.96762   1.97498   1.98469   1.98881
 Alpha virt. eigenvalues --    1.99519   2.00095   2.00922   2.01580   2.02575
 Alpha virt. eigenvalues --    2.03223   2.04361   2.04887   2.05891   2.06684
 Alpha virt. eigenvalues --    2.07429   2.07724   2.08632   2.09573   2.10064
 Alpha virt. eigenvalues --    2.11276   2.11765   2.12016   2.12657   2.13402
 Alpha virt. eigenvalues --    2.13531   2.14096   2.15174   2.15606   2.16794
 Alpha virt. eigenvalues --    2.17175   2.18087   2.18581   2.19240   2.19588
 Alpha virt. eigenvalues --    2.20210   2.20913   2.21727   2.22869   2.23085
 Alpha virt. eigenvalues --    2.23359   2.23879   2.24607   2.24916   2.25448
 Alpha virt. eigenvalues --    2.25905   2.26083   2.26963   2.27183   2.28058
 Alpha virt. eigenvalues --    2.28712   2.29507   2.30632   2.31325   2.31354
 Alpha virt. eigenvalues --    2.32494   2.33389   2.33993   2.34387   2.35650
 Alpha virt. eigenvalues --    2.36742   2.37631   2.38844   2.39878   2.40548
 Alpha virt. eigenvalues --    2.40982   2.42010   2.42695   2.44168   2.44823
 Alpha virt. eigenvalues --    2.46428   2.47389   2.50068   2.50517   2.52675
 Alpha virt. eigenvalues --    2.54068   2.55397   2.56248   2.58436   2.58592
 Alpha virt. eigenvalues --    2.59448   2.60132   2.60275   2.60801   2.61342
 Alpha virt. eigenvalues --    2.62432   2.63047   2.64275   2.64838   2.66051
 Alpha virt. eigenvalues --    2.66614   2.67082   2.68439   2.69059   2.69545
 Alpha virt. eigenvalues --    2.69977   2.70486   2.71131   2.71888   2.72585
 Alpha virt. eigenvalues --    2.72880   2.74362   2.75658   2.75997   2.76824
 Alpha virt. eigenvalues --    2.77753   2.78464   2.79985   2.80333   2.80608
 Alpha virt. eigenvalues --    2.82846   2.82902   2.84559   2.85503   2.86182
 Alpha virt. eigenvalues --    2.87420   2.87560   2.88205   2.88679   2.89369
 Alpha virt. eigenvalues --    2.89510   2.89832   2.90764   2.91502   2.92623
 Alpha virt. eigenvalues --    2.93284   2.94553   2.95434   2.95618   2.95910
 Alpha virt. eigenvalues --    2.97673   2.98761   2.99240   2.99623   3.00591
 Alpha virt. eigenvalues --    3.02007   3.03419   3.03885   3.04301   3.05311
 Alpha virt. eigenvalues --    3.05934   3.07053   3.07333   3.08574   3.09866
 Alpha virt. eigenvalues --    3.10679   3.11455   3.11884   3.12045   3.13155
 Alpha virt. eigenvalues --    3.13621   3.14043   3.14339   3.14674   3.15111
 Alpha virt. eigenvalues --    3.15778   3.17244   3.18918   3.19136   3.19467
 Alpha virt. eigenvalues --    3.21159   3.23204   3.23442   3.25584   3.27077
 Alpha virt. eigenvalues --    3.28442   3.29962   3.30946   3.31498   3.32554
 Alpha virt. eigenvalues --    3.33640   3.34458   3.35683   3.37099   3.38555
 Alpha virt. eigenvalues --    3.39030   3.40203   3.40764   3.41470   3.42592
 Alpha virt. eigenvalues --    3.43696   3.43974   3.45477   3.46229   3.47759
 Alpha virt. eigenvalues --    3.49488   3.50428   3.51209   3.52047   3.55348
 Alpha virt. eigenvalues --    3.55865   3.56027   3.56410   3.56850   3.57972
 Alpha virt. eigenvalues --    3.59967   3.60737   3.61440   3.61597   3.62628
 Alpha virt. eigenvalues --    3.62751   3.64639   3.67213   3.68917   3.70380
 Alpha virt. eigenvalues --    3.72371   3.72933   3.74321   3.80239   3.81673
 Alpha virt. eigenvalues --    3.82115   3.83527   3.86393   3.87018   3.88616
 Alpha virt. eigenvalues --    3.91340   3.91469   3.91859   3.92748   3.93035
 Alpha virt. eigenvalues --    3.93835   3.95277   3.97833   4.00592   4.03891
 Alpha virt. eigenvalues --    4.06614   4.07957   4.12182   4.14412   4.15059
 Alpha virt. eigenvalues --    4.15960   4.17274   4.17860   4.19830   4.20588
 Alpha virt. eigenvalues --    4.25364   4.26493   4.27726   4.32047   4.35879
 Alpha virt. eigenvalues --    4.39373   4.42365   4.49094   4.50925   4.59772
 Alpha virt. eigenvalues --    4.63522   4.64936   4.71503   4.89651   5.03171
 Alpha virt. eigenvalues --    5.06784   5.10094   5.12914   5.20100   5.27587
 Alpha virt. eigenvalues --    5.29514   5.30522   5.33625   5.34896   5.35636
 Alpha virt. eigenvalues --    5.36393   5.47985   5.50298   5.52270   5.55362
 Alpha virt. eigenvalues --    5.55858   5.60749   5.90829   5.96034   5.98327
 Alpha virt. eigenvalues --    6.02023   6.04786   6.06778   8.18167   8.23021
 Alpha virt. eigenvalues --   17.46298  17.52496  17.66760  17.69960  17.78405
 Alpha virt. eigenvalues --   17.82963  23.69944  23.77414  23.89530  23.99324
 Alpha virt. eigenvalues --   24.02676  24.04734  24.07106  24.07596  24.08556
 Alpha virt. eigenvalues --   24.09943  24.11491  24.12880  24.14011  24.14484
 Alpha virt. eigenvalues --   24.15847  24.16402  24.18368  24.20228  24.22503
 Alpha virt. eigenvalues --   24.23081  24.23502  24.25759  24.31920  24.32555
 Alpha virt. eigenvalues --   24.34601  24.42008  35.77946  35.80569  50.12330
 Alpha virt. eigenvalues --   50.15290  50.25274  50.26932  50.28505  50.29664
 Alpha virt. eigenvalues --  189.35634 189.41154
          Condensed to atoms (all electrons):
 Mulliken charges:
               1
     1  C    0.191627
     2  C   -0.075779
     3  C    0.040672
     4  C    0.280161
     5  C    0.121680
     6  C    0.080509
     7  C    0.068215
     8  C    0.400556
     9  C    0.226263
    10  C   -0.635173
    11  C    0.119869
    12  C    0.225602
    13  C   -0.477095
    14  C   -0.586427
    15  H    0.104004
    16  H    0.109435
    17  H    0.133122
    18  N   -0.064971
    19  N   -0.131386
    20  O   -0.415329
    21  O   -0.405891
    22  O   -0.425377
    23  O   -0.427248
    24  C   -0.143018
    25  H    0.133435
    26  H    0.132415
    27  H    0.156350
    28  C   -0.181138
    29  H    0.139490
    30  H    0.134436
    31  H    0.156217
    32  C   -0.116014
    33  C   -0.163303
    34  S   -1.004960
    35  C   -0.693537
    36  H    0.201329
    37  C    0.571821
    38  O   -0.132358
    39  C    0.374247
    40  C   -0.246347
    41  C    0.220541
    42  S   -0.363937
    43  H    0.127803
    44  H    0.143242
    45  H    0.153761
    46  C   -0.064788
    47  O   -0.140918
    48  C   -0.187200
    49  H    0.092884
    50  C   -0.298279
    51  H    0.118882
    52  H    0.164013
    53  H    0.153732
    54  H    0.104160
 Sum of Mulliken charges =  -2.00000
 Mulliken charges with hydrogens summed into heavy atoms:
               1
     1  C    0.191627
     2  C   -0.075779
     3  C    0.040672
     4  C    0.280161
     5  C    0.121680
     6  C    0.213631
     7  C    0.068215
     8  C    0.400556
     9  C    0.226263
    10  C   -0.635173
    11  C    0.119869
    12  C    0.225602
    13  C   -0.367660
    14  C   -0.482423
    18  N   -0.064971
    19  N   -0.131386
    20  O   -0.415329
    21  O   -0.405891
    22  O   -0.425377
    23  O   -0.427248
    24  C    0.279182
    28  C    0.249006
    32  C   -0.116014
    33  C    0.038026
    34  S   -1.004960
    35  C   -0.693537
    37  C    0.571821
    38  O   -0.132358
    39  C    0.374247
    40  C    0.178459
    41  C    0.220541
    42  S   -0.363937
    46  C    0.028096
    47  O   -0.140918
    48  C   -0.068317
    50  C    0.123626
 Electronic spatial extent (au):  <R**2>=          22515.6802
 Charge=             -2.0000 electrons
 Dipole moment (field-independent basis, Debye):
    X=             14.4569    Y=              0.3445    Z=              1.2585  Tot=             14.5156
 Quadrupole moment (field-independent basis, Debye-Ang):
   XX=           -419.2851   YY=           -307.9020   ZZ=           -241.3671
   XY=              5.8282   XZ=             -4.5814   YZ=             -1.9874
 Traceless Quadrupole moment (field-independent basis, Debye-Ang):
   XX=            -96.4338   YY=             14.9494   ZZ=             81.4843
   XY=              5.8282   XZ=             -4.5814   YZ=             -1.9874
 Octapole moment (field-independent basis, Debye-Ang**2):
  XXX=            430.1335  YYY=             -3.9927  ZZZ=              8.4113  XYY=            282.5096
  XXY=             33.4352  XXZ=            114.4360  XZZ=              3.9263  YZZ=             -6.2917
  YYZ=              3.9491  XYZ=            -25.9543
 Hexadecapole moment (field-independent basis, Debye-Ang**3):
 XXXX=         -28425.6346 YYYY=          -9807.8636 ZZZZ=           -611.9075 XXXY=           -270.3801
 XXXZ=           -324.3413 YYYX=            379.4934 YYYZ=             65.8230 ZZZX=              7.5394
 ZZZY=             -3.5264 XXYY=          -6566.0766 XXZZ=          -4064.3121 YYZZ=          -1638.9717
 XXYZ=            -40.9891 YYXZ=            -82.3342 ZZXY=             35.6863
 N-N= 4.087752191746D+03 E-N=-1.377348842370D+04  KE= 2.352089345341D+03
 Unable to Open any file for archive entry.
 1\1\GINC-CX3-1-11\FOpt\RB3LYP\6-311+G(d,p)\C26H18N2O6S2(2-)\NS5018\08-
 Oct-2021\0\\# opt=modredundant b3lyp/6-311+g(d,p)\\NDI_15.pdb\\-2,1\C,
 -2.5250620105,-2.9524069282,-0.5650163406\C,-2.2206904186,-1.564753599
 9,-0.3143329483\C,-3.2642687737,-0.603287426,-0.1942059242\C,-4.612757
 7899,-0.9763060469,-0.3587100027\C,-4.9632202826,-2.3505282163,-0.6509
 929433\C,-0.8833354816,-1.1455827606,-0.2754295936\C,-2.9083813351,0.7
 580512867,0.1402089877\C,-1.5369064783,1.1326582826,0.3317945313\C,-0.
 4777599434,0.1628735433,-0.0421417058\C,-1.2961519061,2.3894590197,0.9
 797572046\C,-3.7219963258,3.0285877235,0.7417919707\C,-3.978745364,1.6
 777411362,0.3198524543\C,-5.3335197664,1.2774029656,0.1179614421\C,-5.
 6511501841,-0.0072244727,-0.2139146983\H,-6.675374475,-0.3287938961,-0
 .3561327114\H,-6.0960736084,2.034645308,0.2562716506\H,-0.1485710426,-
 1.9131068787,-0.4910996272\N,-2.3865319404,3.295613215,1.06874761\N,-3
 .8911554925,-3.2649520109,-0.7304684163\O,-1.6909168015,-3.8714747162,
 -0.6538078419\O,-6.1294826994,-2.7527787059,-0.8193734938\O,-4.5922827
 6,3.9179215579,0.8609990194\O,-0.2259464722,2.7788165374,1.5066942835\
 C,-2.0776922446,4.6010343493,1.6423559878\H,-1.7726445989,4.4993831134
 ,2.687923029\H,-1.2449220288,5.0583341023,1.1037154418\H,-2.9763098441
 ,5.208295512,1.565371996\C,-4.1969237739,-4.6646856946,-1.0039552406\H
 ,-3.6798521449,-4.9925255391,-1.9093071181\H,-3.8476091109,-5.29550086
 64,-0.182119818\H,-5.2743643963,-4.7478434655,-1.1216165764\C,0.908003
 4483,0.4676446811,-0.3628149184\C,1.682773311,1.604137167,-0.161068453
 \S,1.8843881079,-0.7311009644,-1.2553784439\C,3.0031730929,1.492781466
 8,-0.6252252967\H,1.2816529288,2.4369348821,0.3942567121\C,3.336747307
 1,0.2857392101,-1.2326160236\O,3.9654673414,2.4631378862,-0.4932903162
 \C,4.5985984073,-0.1365022234,-1.7500172762\C,3.5846272757,3.663179215
 5,0.1634810059\C,4.9761486058,-1.3704324448,-2.2824842276\S,6.00266972
 12,0.9486672017,-1.824805168\H,4.4757018331,4.293094424,0.1769259445\H
 ,2.779556589,4.1734722889,-0.375639332\H,3.2502253082,3.4700619505,1.1
 877580887\C,6.3178455527,-1.4400835645,-2.7395507542\O,4.1016615476,-2
 .4311107735,-2.4193260465\C,7.0080434771,-0.274162249,-2.5641999678\H,
 6.7306122901,-2.3346252575,-3.1908320562\C,4.1182835855,-3.3631190639,
 -1.3373372204\H,8.0314952836,-0.0478804818,-2.821038258\H,3.8795895071
 ,-2.8710709126,-0.389824713\H,3.3494781206,-4.1057789398,-1.5543118595
 \H,5.0978568527,-3.8540499277,-1.2594820282\\Version=ES64L-G16RevC.01\
 State=1-A\HF=-2359.3981482\RMSD=4.456e-09\RMSF=1.753e-04\Dipole=5.6879
 816,0.1003177,-0.5010495\Quadrupole=-68.4717087,16.2061816,52.2655271,
 0.6881724,20.5968905,-15.2808612\PG=C01 [X(C26H18N2O6S2)]\\@
 The archive entry for this job was punched.


 THE CHYMISTS ARE A STRANGE CLASS OF MORTALS IMPELLED
 BY AN ALMOST INSANE IMPULSE TO SEEK THEIR PLEASURE
 AMONG SMOKE AND VAPOR, SOOT AND FLAME, POISONS AND
 POVERTY; YET AMONG ALL THESE EVILS I SEEM TO LIVE
 SO SWEETLY, THAT I MAY DIE IF I WOULD CHANGE PLACES
 WITH THE PERSIAN KING.
   --  JOHANN JOACHIM BECHER, 1635-1682
 ACTA LABORATORII CHYMICA MONACENSIS, 1669
 Job cpu time:       4 days 10 hours 22 minutes 58.1 seconds.
 Elapsed time:       0 days 13 hours 24 minutes 10.7 seconds.
 File lengths (MBytes):  RWF=    524 Int=      0 D2E=      0 Chk=     77 Scr=      1
 Normal termination of Gaussian 16 at Fri Oct  8 09:57:17 2021.
