 Entering Gaussian System, Link 0=g16
 Input=NDI_-65.gjf
 Output=NDI_-65.log
 Initial command:
 /apps/gaussian/g16-c01-avx/g16/l1.exe "/tmp/pbs.4643761[110].pbs/Gau-1619037.inp" -scrdir="/tmp/pbs.4643761[110].pbs/"
 Entering Link 1 = /apps/gaussian/g16-c01-avx/g16/l1.exe PID=   1619038.
  
 Copyright (c) 1988-2019, Gaussian, Inc.  All Rights Reserved.
  
 This is part of the Gaussian(R) 16 program.  It is based on
 the Gaussian(R) 09 system (copyright 2009, Gaussian, Inc.),
 the Gaussian(R) 03 system (copyright 2003, Gaussian, Inc.),
 the Gaussian(R) 98 system (copyright 1998, Gaussian, Inc.),
 the Gaussian(R) 94 system (copyright 1995, Gaussian, Inc.),
 the Gaussian 92(TM) system (copyright 1992, Gaussian, Inc.),
 the Gaussian 90(TM) system (copyright 1990, Gaussian, Inc.),
 the Gaussian 88(TM) system (copyright 1988, Gaussian, Inc.),
 the Gaussian 86(TM) system (copyright 1986, Carnegie Mellon
 University), and the Gaussian 82(TM) system (copyright 1983,
 Carnegie Mellon University). Gaussian is a federally registered
 trademark of Gaussian, Inc.
  
 This software contains proprietary and confidential information,
 including trade secrets, belonging to Gaussian, Inc.
  
 This software is provided under written license and may be
 used, copied, transmitted, or stored only in accord with that
 written license.
  
 The following legend is applicable only to US Government
 contracts under FAR:
  
                    RESTRICTED RIGHTS LEGEND
  
 Use, reproduction and disclosure by the US Government is
 subject to restrictions as set forth in subparagraphs (a)
 and (c) of the Commercial Computer Software - Restricted
 Rights clause in FAR 52.227-19.
  
 Gaussian, Inc.
 340 Quinnipiac St., Bldg. 40, Wallingford CT 06492
  
  
 ---------------------------------------------------------------
 Warning -- This program may not be used in any manner that
 competes with the business of Gaussian, Inc. or will provide
 assistance to any competitor of Gaussian, Inc.  The licensee
 of this program is prohibited from giving any competitor of
 Gaussian, Inc. access to this program.  By using this program,
 the user acknowledges that Gaussian, Inc. is engaged in the
 business of creating and licensing software in the field of
 computational chemistry and represents and warrants to the
 licensee that it is not a competitor of Gaussian, Inc. and that
 it will not use this program in any manner prohibited above.
 ---------------------------------------------------------------
  

 Cite this work as:
 Gaussian 16, Revision C.01,
 M. J. Frisch, G. W. Trucks, H. B. Schlegel, G. E. Scuseria, 
 M. A. Robb, J. R. Cheeseman, G. Scalmani, V. Barone, 
 G. A. Petersson, H. Nakatsuji, X. Li, M. Caricato, A. V. Marenich, 
 J. Bloino, B. G. Janesko, R. Gomperts, B. Mennucci, H. P. Hratchian, 
 J. V. Ortiz, A. F. Izmaylov, J. L. Sonnenberg, D. Williams-Young, 
 F. Ding, F. Lipparini, F. Egidi, J. Goings, B. Peng, A. Petrone, 
 T. Henderson, D. Ranasinghe, V. G. Zakrzewski, J. Gao, N. Rega, 
 G. Zheng, W. Liang, M. Hada, M. Ehara, K. Toyota, R. Fukuda, 
 J. Hasegawa, M. Ishida, T. Nakajima, Y. Honda, O. Kitao, H. Nakai, 
 T. Vreven, K. Throssell, J. A. Montgomery, Jr., J. E. Peralta, 
 F. Ogliaro, M. J. Bearpark, J. J. Heyd, E. N. Brothers, K. N. Kudin, 
 V. N. Staroverov, T. A. Keith, R. Kobayashi, J. Normand, 
 K. Raghavachari, A. P. Rendell, J. C. Burant, S. S. Iyengar, 
 J. Tomasi, M. Cossi, J. M. Millam, M. Klene, C. Adamo, R. Cammi, 
 J. W. Ochterski, R. L. Martin, K. Morokuma, O. Farkas, 
 J. B. Foresman, and D. J. Fox, Gaussian, Inc., Wallingford CT, 2019.
 
 ******************************************
 Gaussian 16:  ES64L-G16RevC.01  3-Jul-2019
                 4-Oct-2021 
 ******************************************
 %mem=10GB
 %nprocshared=8
 Will use up to    8 processors via shared memory.
 -------------------------------------
 # opt=modredundant b3lyp/6-311+g(d,p)
 -------------------------------------
 1/18=120,19=15,26=3,38=1/1,3;
 2/9=110,12=2,17=6,18=5,40=1/2;
 3/5=4,6=6,7=111,11=2,25=1,30=1,71=1,74=-5/1,2,3;
 4//1;
 5/5=2,38=5/2;
 6/7=2,8=2,9=2,10=2,28=1/1;
 7//1,2,3,16;
 1/18=20,19=15,26=3/3(2);
 2/9=110/2;
 99//99;
 2/9=110/2;
 3/5=4,6=6,7=111,11=2,25=1,30=1,71=1,74=-5/1,2,3;
 4/5=5,16=3,69=1/1;
 5/5=2,38=5/2;
 7//1,2,3,16;
 1/18=20,19=15,26=3/3(-5);
 2/9=110/2;
 6/7=2,8=2,9=2,10=2,19=2,28=1/1;
 99/9=1/99;
 -----------
 NDI_-65.pdb
 -----------
 Symbolic Z-matrix:
 Charge = -1 Multiplicity = 2
 C                    -2.563    -2.994    -0.409 
 C                    -2.257    -1.551    -0.224 
 C                    -3.301    -0.607    -0.083 
 C                    -4.65     -1.024    -0.115 
 C                    -4.992    -2.459    -0.304 
 C                    -0.949    -1.137    -0.215 
 C                    -2.962     0.764     0.102 
 C                    -1.595     1.188     0.123 
 C                    -0.561     0.232    -0.072 
 C                    -1.328     2.616     0.446 
 C                    -3.777     3.115     0.508 
 C                    -4.035     1.679     0.268 
 C                    -5.356     1.252     0.23 
 C                    -5.672    -0.098     0.036 
 H                    -6.699    -0.442     0.008 
 H                    -6.133     1.997     0.361 
 H                    -0.19     -1.895    -0.369 
 N                    -2.432     3.476     0.608 
 N                    -3.916    -3.353    -0.438 
 O                    -1.695    -3.847    -0.532 
 O                    -6.149    -2.85     -0.34 
 O                    -4.676     3.938     0.629 
 O                    -0.212     3.097     0.596 
 C                    -2.111     4.875     0.912 
 H                    -1.54      4.931     1.84 
 H                    -1.5       5.299     0.111 
 H                    -3.05      5.414     1.003 
 C                    -4.206    -4.779    -0.625 
 H                    -3.759    -5.126    -1.559 
 H                    -3.775    -5.355     0.196 
 H                    -5.286    -4.897    -0.649 
 C                     0.876     0.482    -0.178 
 C                     1.607     1.167    -1.129 
 S                     1.962    -0.3       0.972 
 C                     3.        1.076    -0.943 
 H                     1.147     1.724    -1.93 
 C                     3.386     0.319     0.168 
 O                     3.96      1.641    -1.722 
 C                     4.718     0.077     0.645 
 C                     3.531     2.521    -2.758 
 C                     5.103    -0.697     1.739 
 S                     6.152     0.757    -0.12 
 H                     4.44      2.924    -3.204 
 H                     2.959     1.983    -3.524 
 H                     2.922     3.339    -2.356 
 C                     6.509    -0.741     1.956 
 O                     4.149    -1.318     2.481 
 C                     7.193    -0.003     1.029 
 H                     6.988    -1.291     2.755 
 C                     4.574    -2.129     3.57 
 H                     8.263     0.135     0.957 
 H                     5.111    -1.537     4.322 
 H                     3.666    -2.537     4.013 
 H                     5.214    -2.951     3.228 
 
 The following ModRedundant input section has been read:
 D       8       9      32      33 F                                           
 

 GradGradGradGradGradGradGradGradGradGradGradGradGradGradGradGradGradGrad
 Berny optimization.
 Initialization pass.
                           ----------------------------
                           !    Initial Parameters    !
                           ! (Angstroms and Degrees)  !
 --------------------------                            --------------------------
 ! Name  Definition              Value          Derivative Info.                !
 --------------------------------------------------------------------------------
 ! R1    R(1,2)                  1.4866         estimate D2E/DX2                !
 ! R2    R(1,19)                 1.4001         estimate D2E/DX2                !
 ! R3    R(1,20)                 1.2232         estimate D2E/DX2                !
 ! R4    R(2,3)                  1.4146         estimate D2E/DX2                !
 ! R5    R(2,6)                  1.372          estimate D2E/DX2                !
 ! R6    R(3,4)                  1.4123         estimate D2E/DX2                !
 ! R7    R(3,7)                  1.4244         estimate D2E/DX2                !
 ! R8    R(4,5)                  1.4872         estimate D2E/DX2                !
 ! R9    R(4,14)                 1.3874         estimate D2E/DX2                !
 ! R10   R(5,19)                 1.4053         estimate D2E/DX2                !
 ! R11   R(5,21)                 1.2218         estimate D2E/DX2                !
 ! R12   R(6,9)                  1.4301         estimate D2E/DX2                !
 ! R13   R(6,17)                 1.0837         estimate D2E/DX2                !
 ! R14   R(7,8)                  1.4314         estimate D2E/DX2                !
 ! R15   R(7,12)                 1.4199         estimate D2E/DX2                !
 ! R16   R(8,9)                  1.4217         estimate D2E/DX2                !
 ! R17   R(8,10)                 1.4882         estimate D2E/DX2                !
 ! R18   R(9,32)                 1.4624         estimate D2E/DX2                !
 ! R19   R(10,18)                1.4088         estimate D2E/DX2                !
 ! R20   R(10,23)                1.2245         estimate D2E/DX2                !
 ! R21   R(11,12)                1.4786         estimate D2E/DX2                !
 ! R22   R(11,18)                1.3962         estimate D2E/DX2                !
 ! R23   R(11,22)                1.2248         estimate D2E/DX2                !
 ! R24   R(12,13)                1.3888         estimate D2E/DX2                !
 ! R25   R(13,14)                1.4            estimate D2E/DX2                !
 ! R26   R(13,16)                1.0844         estimate D2E/DX2                !
 ! R27   R(14,15)                1.0834         estimate D2E/DX2                !
 ! R28   R(18,24)                1.4672         estimate D2E/DX2                !
 ! R29   R(19,28)                1.4672         estimate D2E/DX2                !
 ! R30   R(24,25)                1.091          estimate D2E/DX2                !
 ! R31   R(24,26)                1.093          estimate D2E/DX2                !
 ! R32   R(24,27)                1.0865         estimate D2E/DX2                !
 ! R33   R(28,29)                1.0921         estimate D2E/DX2                !
 ! R34   R(28,30)                1.0916         estimate D2E/DX2                !
 ! R35   R(28,31)                1.0867         estimate D2E/DX2                !
 ! R36   R(32,33)                1.3813         estimate D2E/DX2                !
 ! R37   R(32,34)                1.7645         estimate D2E/DX2                !
 ! R38   R(33,35)                1.4083         estimate D2E/DX2                !
 ! R39   R(33,36)                1.0786         estimate D2E/DX2                !
 ! R40   R(34,37)                1.7485         estimate D2E/DX2                !
 ! R41   R(35,37)                1.3987         estimate D2E/DX2                !
 ! R42   R(35,38)                1.3593         estimate D2E/DX2                !
 ! R43   R(37,39)                1.4354         estimate D2E/DX2                !
 ! R44   R(38,40)                1.4254         estimate D2E/DX2                !
 ! R45   R(39,41)                1.3943         estimate D2E/DX2                !
 ! R46   R(39,42)                1.7618         estimate D2E/DX2                !
 ! R47   R(40,43)                1.0898         estimate D2E/DX2                !
 ! R48   R(40,44)                1.097          estimate D2E/DX2                !
 ! R49   R(40,45)                1.0962         estimate D2E/DX2                !
 ! R50   R(41,46)                1.4233         estimate D2E/DX2                !
 ! R51   R(41,47)                1.3588         estimate D2E/DX2                !
 ! R52   R(42,48)                1.7267         estimate D2E/DX2                !
 ! R53   R(46,48)                1.3681         estimate D2E/DX2                !
 ! R54   R(46,49)                1.0818         estimate D2E/DX2                !
 ! R55   R(47,50)                1.4228         estimate D2E/DX2                !
 ! R56   R(48,51)                1.0813         estimate D2E/DX2                !
 ! R57   R(50,52)                1.0974         estimate D2E/DX2                !
 ! R58   R(50,53)                1.0896         estimate D2E/DX2                !
 ! R59   R(50,54)                1.0965         estimate D2E/DX2                !
 ! A1    A(2,1,19)             116.767          estimate D2E/DX2                !
 ! A2    A(2,1,20)             122.9113         estimate D2E/DX2                !
 ! A3    A(19,1,20)            120.3217         estimate D2E/DX2                !
 ! A4    A(1,2,3)              120.5473         estimate D2E/DX2                !
 ! A5    A(1,2,6)              119.3369         estimate D2E/DX2                !
 ! A6    A(3,2,6)              120.1056         estimate D2E/DX2                !
 ! A7    A(2,3,4)              120.3743         estimate D2E/DX2                !
 ! A8    A(2,3,7)              118.662          estimate D2E/DX2                !
 ! A9    A(4,3,7)              120.9617         estimate D2E/DX2                !
 ! A10   A(3,4,5)              120.4909         estimate D2E/DX2                !
 ! A11   A(3,4,14)             120.2702         estimate D2E/DX2                !
 ! A12   A(5,4,14)             119.2382         estimate D2E/DX2                !
 ! A13   A(4,5,19)             116.7341         estimate D2E/DX2                !
 ! A14   A(4,5,21)             122.024          estimate D2E/DX2                !
 ! A15   A(19,5,21)            121.2418         estimate D2E/DX2                !
 ! A16   A(2,6,9)              123.2421         estimate D2E/DX2                !
 ! A17   A(2,6,17)             117.1119         estimate D2E/DX2                !
 ! A18   A(9,6,17)             119.589          estimate D2E/DX2                !
 ! A19   A(3,7,8)              120.9519         estimate D2E/DX2                !
 ! A20   A(3,7,12)             117.1037         estimate D2E/DX2                !
 ! A21   A(8,7,12)             121.944          estimate D2E/DX2                !
 ! A22   A(7,8,9)              119.5639         estimate D2E/DX2                !
 ! A23   A(7,8,10)             117.3064         estimate D2E/DX2                !
 ! A24   A(9,8,10)             122.9922         estimate D2E/DX2                !
 ! A25   A(6,9,8)              117.3944         estimate D2E/DX2                !
 ! A26   A(6,9,32)             115.0236         estimate D2E/DX2                !
 ! A27   A(8,9,32)             127.5648         estimate D2E/DX2                !
 ! A28   A(8,10,18)            118.042          estimate D2E/DX2                !
 ! A29   A(8,10,23)            124.5436         estimate D2E/DX2                !
 ! A30   A(18,10,23)           117.4097         estimate D2E/DX2                !
 ! A31   A(12,11,18)           115.5202         estimate D2E/DX2                !
 ! A32   A(12,11,22)           122.7205         estimate D2E/DX2                !
 ! A33   A(18,11,22)           121.7534         estimate D2E/DX2                !
 ! A34   A(7,12,11)            120.8614         estimate D2E/DX2                !
 ! A35   A(7,12,13)            121.162          estimate D2E/DX2                !
 ! A36   A(11,12,13)           117.9699         estimate D2E/DX2                !
 ! A37   A(12,13,14)           120.9948         estimate D2E/DX2                !
 ! A38   A(12,13,16)           117.8401         estimate D2E/DX2                !
 ! A39   A(14,13,16)           121.1642         estimate D2E/DX2                !
 ! A40   A(4,14,13)            119.5003         estimate D2E/DX2                !
 ! A41   A(4,14,15)            118.9169         estimate D2E/DX2                !
 ! A42   A(13,14,15)           121.5811         estimate D2E/DX2                !
 ! A43   A(10,18,11)           126.0753         estimate D2E/DX2                !
 ! A44   A(10,18,24)           115.7508         estimate D2E/DX2                !
 ! A45   A(11,18,24)           118.1737         estimate D2E/DX2                !
 ! A46   A(1,19,5)             125.0856         estimate D2E/DX2                !
 ! A47   A(1,19,28)            116.2868         estimate D2E/DX2                !
 ! A48   A(5,19,28)            118.6276         estimate D2E/DX2                !
 ! A49   A(18,24,25)           109.8574         estimate D2E/DX2                !
 ! A50   A(18,24,26)           109.8979         estimate D2E/DX2                !
 ! A51   A(18,24,27)           107.5355         estimate D2E/DX2                !
 ! A52   A(25,24,26)           108.1108         estimate D2E/DX2                !
 ! A53   A(25,24,27)           110.8301         estimate D2E/DX2                !
 ! A54   A(26,24,27)           110.6124         estimate D2E/DX2                !
 ! A55   A(19,28,29)           109.6906         estimate D2E/DX2                !
 ! A56   A(19,28,30)           109.8136         estimate D2E/DX2                !
 ! A57   A(19,28,31)           107.7461         estimate D2E/DX2                !
 ! A58   A(29,28,30)           108.2991         estimate D2E/DX2                !
 ! A59   A(29,28,31)           110.6959         estimate D2E/DX2                !
 ! A60   A(30,28,31)           110.5924         estimate D2E/DX2                !
 ! A61   A(9,32,33)            130.8959         estimate D2E/DX2                !
 ! A62   A(9,32,34)            118.8011         estimate D2E/DX2                !
 ! A63   A(33,32,34)           110.0464         estimate D2E/DX2                !
 ! A64   A(32,33,35)           113.6086         estimate D2E/DX2                !
 ! A65   A(32,33,36)           122.7971         estimate D2E/DX2                !
 ! A66   A(35,33,36)           123.5921         estimate D2E/DX2                !
 ! A67   A(32,34,37)            92.56           estimate D2E/DX2                !
 ! A68   A(33,35,37)           114.384          estimate D2E/DX2                !
 ! A69   A(33,35,38)           126.5859         estimate D2E/DX2                !
 ! A70   A(37,35,38)           119.0301         estimate D2E/DX2                !
 ! A71   A(34,37,35)           109.3952         estimate D2E/DX2                !
 ! A72   A(34,37,39)           122.9055         estimate D2E/DX2                !
 ! A73   A(35,37,39)           127.6837         estimate D2E/DX2                !
 ! A74   A(35,38,40)           117.4253         estimate D2E/DX2                !
 ! A75   A(37,39,41)           127.63           estimate D2E/DX2                !
 ! A76   A(37,39,42)           123.0892         estimate D2E/DX2                !
 ! A77   A(41,39,42)           109.2807         estimate D2E/DX2                !
 ! A78   A(38,40,43)           105.9453         estimate D2E/DX2                !
 ! A79   A(38,40,44)           111.2029         estimate D2E/DX2                !
 ! A80   A(38,40,45)           111.1841         estimate D2E/DX2                !
 ! A81   A(43,40,44)           109.3003         estimate D2E/DX2                !
 ! A82   A(43,40,45)           109.727          estimate D2E/DX2                !
 ! A83   A(44,40,45)           109.4124         estimate D2E/DX2                !
 ! A84   A(39,41,46)           114.1759         estimate D2E/DX2                !
 ! A85   A(39,41,47)           119.2282         estimate D2E/DX2                !
 ! A86   A(46,41,47)           126.5956         estimate D2E/DX2                !
 ! A87   A(39,42,48)            91.8274         estimate D2E/DX2                !
 ! A88   A(41,46,48)           111.9554         estimate D2E/DX2                !
 ! A89   A(41,46,49)           124.4508         estimate D2E/DX2                !
 ! A90   A(48,46,49)           123.5937         estimate D2E/DX2                !
 ! A91   A(41,47,50)           117.9535         estimate D2E/DX2                !
 ! A92   A(42,48,46)           112.7606         estimate D2E/DX2                !
 ! A93   A(42,48,51)           119.7436         estimate D2E/DX2                !
 ! A94   A(46,48,51)           127.4957         estimate D2E/DX2                !
 ! A95   A(47,50,52)           111.2948         estimate D2E/DX2                !
 ! A96   A(47,50,53)           106.0045         estimate D2E/DX2                !
 ! A97   A(47,50,54)           111.2812         estimate D2E/DX2                !
 ! A98   A(52,50,53)           109.3402         estimate D2E/DX2                !
 ! A99   A(52,50,54)           109.4223         estimate D2E/DX2                !
 ! A100  A(53,50,54)           109.4214         estimate D2E/DX2                !
 ! D1    D(19,1,2,3)             0.1578         estimate D2E/DX2                !
 ! D2    D(19,1,2,6)          -178.6792         estimate D2E/DX2                !
 ! D3    D(20,1,2,3)          -179.8231         estimate D2E/DX2                !
 ! D4    D(20,1,2,6)             1.3399         estimate D2E/DX2                !
 ! D5    D(2,1,19,5)            -0.124          estimate D2E/DX2                !
 ! D6    D(2,1,19,28)          179.8267         estimate D2E/DX2                !
 ! D7    D(20,1,19,5)          179.8575         estimate D2E/DX2                !
 ! D8    D(20,1,19,28)          -0.1919         estimate D2E/DX2                !
 ! D9    D(1,2,3,4)              0.0571         estimate D2E/DX2                !
 ! D10   D(1,2,3,7)            179.5453         estimate D2E/DX2                !
 ! D11   D(6,2,3,4)            178.8851         estimate D2E/DX2                !
 ! D12   D(6,2,3,7)             -1.6266         estimate D2E/DX2                !
 ! D13   D(1,2,6,9)            178.625          estimate D2E/DX2                !
 ! D14   D(1,2,6,17)             1.3881         estimate D2E/DX2                !
 ! D15   D(3,2,6,9)             -0.2173         estimate D2E/DX2                !
 ! D16   D(3,2,6,17)          -177.4541         estimate D2E/DX2                !
 ! D17   D(2,3,4,5)             -0.3074         estimate D2E/DX2                !
 ! D18   D(2,3,4,14)           179.3968         estimate D2E/DX2                !
 ! D19   D(7,3,4,5)           -179.7837         estimate D2E/DX2                !
 ! D20   D(7,3,4,14)            -0.0795         estimate D2E/DX2                !
 ! D21   D(2,3,7,8)              1.0523         estimate D2E/DX2                !
 ! D22   D(2,3,7,12)          -178.712          estimate D2E/DX2                !
 ! D23   D(4,3,7,8)           -179.4626         estimate D2E/DX2                !
 ! D24   D(4,3,7,12)             0.7731         estimate D2E/DX2                !
 ! D25   D(3,4,5,19)             0.3343         estimate D2E/DX2                !
 ! D26   D(3,4,5,21)          -179.7799         estimate D2E/DX2                !
 ! D27   D(14,4,5,19)         -179.3729         estimate D2E/DX2                !
 ! D28   D(14,4,5,21)            0.5129         estimate D2E/DX2                !
 ! D29   D(3,4,14,13)           -0.4559         estimate D2E/DX2                !
 ! D30   D(3,4,14,15)         -179.9937         estimate D2E/DX2                !
 ! D31   D(5,4,14,13)          179.252          estimate D2E/DX2                !
 ! D32   D(5,4,14,15)           -0.2858         estimate D2E/DX2                !
 ! D33   D(4,5,19,1)            -0.1141         estimate D2E/DX2                !
 ! D34   D(4,5,19,28)          179.9364         estimate D2E/DX2                !
 ! D35   D(21,5,19,1)          179.9992         estimate D2E/DX2                !
 ! D36   D(21,5,19,28)           0.0496         estimate D2E/DX2                !
 ! D37   D(2,6,9,8)              2.5984         estimate D2E/DX2                !
 ! D38   D(2,6,9,32)          -176.0103         estimate D2E/DX2                !
 ! D39   D(17,6,9,8)           179.77           estimate D2E/DX2                !
 ! D40   D(17,6,9,32)            1.1613         estimate D2E/DX2                !
 ! D41   D(3,7,8,9)              1.3551         estimate D2E/DX2                !
 ! D42   D(3,7,8,10)          -174.5099         estimate D2E/DX2                !
 ! D43   D(12,7,8,9)          -178.8921         estimate D2E/DX2                !
 ! D44   D(12,7,8,10)            5.2428         estimate D2E/DX2                !
 ! D45   D(3,7,12,11)          178.0768         estimate D2E/DX2                !
 ! D46   D(3,7,12,13)           -0.9621         estimate D2E/DX2                !
 ! D47   D(8,7,12,11)           -1.685          estimate D2E/DX2                !
 ! D48   D(8,7,12,13)          179.2761         estimate D2E/DX2                !
 ! D49   D(7,8,9,6)             -3.0809         estimate D2E/DX2                !
 ! D50   D(7,8,9,32)           175.3285         estimate D2E/DX2                !
 ! D51   D(10,8,9,6)           172.5381         estimate D2E/DX2                !
 ! D52   D(10,8,9,32)           -9.0525         estimate D2E/DX2                !
 ! D53   D(7,8,10,18)           -4.7549         estimate D2E/DX2                !
 ! D54   D(7,8,10,23)          174.4235         estimate D2E/DX2                !
 ! D55   D(9,8,10,18)          179.5335         estimate D2E/DX2                !
 ! D56   D(9,8,10,23)           -1.2882         estimate D2E/DX2                !
 ! D57   D(6,9,32,33)          113.4466         estimate D2E/DX2                !
 ! D58   D(6,9,32,34)          -60.0946         estimate D2E/DX2                !
 ! D59   D(8,9,32,33)          -64.9949         Frozen                          !
 ! D60   D(8,9,32,34)          121.4639         estimate D2E/DX2                !
 ! D61   D(8,10,18,11)           0.7189         estimate D2E/DX2                !
 ! D62   D(8,10,18,24)        -179.4089         estimate D2E/DX2                !
 ! D63   D(23,10,18,11)       -178.5188         estimate D2E/DX2                !
 ! D64   D(23,10,18,24)          1.3535         estimate D2E/DX2                !
 ! D65   D(18,11,12,7)          -2.3856         estimate D2E/DX2                !
 ! D66   D(18,11,12,13)        176.6833         estimate D2E/DX2                !
 ! D67   D(22,11,12,7)         178.4862         estimate D2E/DX2                !
 ! D68   D(22,11,12,13)         -2.445          estimate D2E/DX2                !
 ! D69   D(12,11,18,10)          2.8444         estimate D2E/DX2                !
 ! D70   D(12,11,18,24)       -177.0251         estimate D2E/DX2                !
 ! D71   D(22,11,18,10)       -178.0181         estimate D2E/DX2                !
 ! D72   D(22,11,18,24)          2.1124         estimate D2E/DX2                !
 ! D73   D(7,12,13,14)           0.461          estimate D2E/DX2                !
 ! D74   D(7,12,13,16)        -179.8781         estimate D2E/DX2                !
 ! D75   D(11,12,13,14)       -178.6049         estimate D2E/DX2                !
 ! D76   D(11,12,13,16)          1.056          estimate D2E/DX2                !
 ! D77   D(12,13,14,4)           0.2708         estimate D2E/DX2                !
 ! D78   D(12,13,14,15)        179.7958         estimate D2E/DX2                !
 ! D79   D(16,13,14,4)        -179.3788         estimate D2E/DX2                !
 ! D80   D(16,13,14,15)          0.1463         estimate D2E/DX2                !
 ! D81   D(10,18,24,25)        -59.609          estimate D2E/DX2                !
 ! D82   D(10,18,24,26)         59.2209         estimate D2E/DX2                !
 ! D83   D(10,18,24,27)        179.6858         estimate D2E/DX2                !
 ! D84   D(11,18,24,25)        120.2739         estimate D2E/DX2                !
 ! D85   D(11,18,24,26)       -120.8962         estimate D2E/DX2                !
 ! D86   D(11,18,24,27)         -0.4313         estimate D2E/DX2                !
 ! D87   D(1,19,28,29)         -58.1407         estimate D2E/DX2                !
 ! D88   D(1,19,28,30)          60.7668         estimate D2E/DX2                !
 ! D89   D(1,19,28,31)        -178.7139         estimate D2E/DX2                !
 ! D90   D(5,19,28,29)         121.8132         estimate D2E/DX2                !
 ! D91   D(5,19,28,30)        -119.2792         estimate D2E/DX2                !
 ! D92   D(5,19,28,31)           1.2401         estimate D2E/DX2                !
 ! D93   D(9,32,33,35)        -174.2255         estimate D2E/DX2                !
 ! D94   D(9,32,33,36)           6.2996         estimate D2E/DX2                !
 ! D95   D(34,32,33,35)         -0.2487         estimate D2E/DX2                !
 ! D96   D(34,32,33,36)       -179.7235         estimate D2E/DX2                !
 ! D97   D(9,32,34,37)         175.3685         estimate D2E/DX2                !
 ! D98   D(33,32,34,37)          0.5616         estimate D2E/DX2                !
 ! D99   D(32,33,35,37)         -0.3153         estimate D2E/DX2                !
 ! D100  D(32,33,35,38)        179.7326         estimate D2E/DX2                !
 ! D101  D(36,33,35,37)        179.1548         estimate D2E/DX2                !
 ! D102  D(36,33,35,38)         -0.7973         estimate D2E/DX2                !
 ! D103  D(32,34,37,35)         -0.7229         estimate D2E/DX2                !
 ! D104  D(32,34,37,39)        177.9401         estimate D2E/DX2                !
 ! D105  D(33,35,37,34)          0.7247         estimate D2E/DX2                !
 ! D106  D(33,35,37,39)       -177.857          estimate D2E/DX2                !
 ! D107  D(38,35,37,34)       -179.3193         estimate D2E/DX2                !
 ! D108  D(38,35,37,39)          2.0991         estimate D2E/DX2                !
 ! D109  D(33,35,38,40)          6.5207         estimate D2E/DX2                !
 ! D110  D(37,35,38,40)       -173.4294         estimate D2E/DX2                !
 ! D111  D(34,37,39,41)          2.8179         estimate D2E/DX2                !
 ! D112  D(34,37,39,42)       -177.2109         estimate D2E/DX2                !
 ! D113  D(35,37,39,41)       -178.7757         estimate D2E/DX2                !
 ! D114  D(35,37,39,42)          1.1956         estimate D2E/DX2                !
 ! D115  D(35,38,40,43)        175.4911         estimate D2E/DX2                !
 ! D116  D(35,38,40,44)        -65.8534         estimate D2E/DX2                !
 ! D117  D(35,38,40,45)         56.3334         estimate D2E/DX2                !
 ! D118  D(37,39,41,46)       -179.9831         estimate D2E/DX2                !
 ! D119  D(37,39,41,47)         -0.1405         estimate D2E/DX2                !
 ! D120  D(42,39,41,46)          0.0425         estimate D2E/DX2                !
 ! D121  D(42,39,41,47)        179.885          estimate D2E/DX2                !
 ! D122  D(37,39,42,48)        179.9963         estimate D2E/DX2                !
 ! D123  D(41,39,42,48)         -0.0278         estimate D2E/DX2                !
 ! D124  D(39,41,46,48)         -0.0386         estimate D2E/DX2                !
 ! D125  D(39,41,46,49)       -179.9481         estimate D2E/DX2                !
 ! D126  D(47,41,46,48)       -179.8675         estimate D2E/DX2                !
 ! D127  D(47,41,46,49)          0.223          estimate D2E/DX2                !
 ! D128  D(39,41,47,50)        178.3929         estimate D2E/DX2                !
 ! D129  D(46,41,47,50)         -1.786          estimate D2E/DX2                !
 ! D130  D(39,42,48,46)          0.0069         estimate D2E/DX2                !
 ! D131  D(39,42,48,51)        179.8781         estimate D2E/DX2                !
 ! D132  D(41,46,48,42)          0.0159         estimate D2E/DX2                !
 ! D133  D(41,46,48,51)       -179.8431         estimate D2E/DX2                !
 ! D134  D(49,46,48,42)        179.9263         estimate D2E/DX2                !
 ! D135  D(49,46,48,51)          0.0673         estimate D2E/DX2                !
 ! D136  D(41,47,50,52)         62.0194         estimate D2E/DX2                !
 ! D137  D(41,47,50,53)       -179.1921         estimate D2E/DX2                !
 ! D138  D(41,47,50,54)        -60.3133         estimate D2E/DX2                !
 --------------------------------------------------------------------------------
 Trust Radius=3.00D-01 FncErr=1.00D-07 GrdErr=1.00D-06 EigMax=2.50D+02 EigMin=1.00D-04
 Number of steps in this run=    307 maximum allowed number of steps=    324.
 GradGradGradGradGradGradGradGradGradGradGradGradGradGradGradGradGradGrad

 Stoichiometry    C26H18N2O6S2(1-,2)
 Framework group  C1[X(C26H18N2O6S2)]
 Deg. of freedom   156
 Full point group                 C1      NOp   1
 Largest Abelian subgroup         C1      NOp   1
 Largest concise Abelian subgroup C1      NOp   1
                         Standard orientation:                         
 ---------------------------------------------------------------------
 Center     Atomic      Atomic             Coordinates (Angstroms)
 Number     Number       Type             X           Y           Z
 ---------------------------------------------------------------------
      1          6           0        2.796534   -2.914364    0.590782
      2          6           0        2.382810   -1.506558    0.351987
      3          6           0        3.348759   -0.509637    0.079876
      4          6           0        4.721121   -0.839594    0.030246
      5          6           0        5.170433   -2.236962    0.269812
      6          6           0        1.053135   -1.175690    0.421513
      7          6           0        2.906967    0.824388   -0.152469
      8          6           0        1.517038    1.160854   -0.090878
      9          6           0        0.565805    0.155786    0.234870
     10          6           0        1.132970    2.547982   -0.469255
     11          6           0        3.532317    3.193296   -0.747008
     12          6           0        3.901858    1.792737   -0.450133
     13          6           0        5.247462    1.451435   -0.491088
     14          6           0        5.665636    0.137438   -0.249146
     15          1           0        6.712448   -0.139983   -0.281869
     16          1           0        5.961644    2.234126   -0.721851
     17          1           0        0.359417   -1.968859    0.674490
     18          7           0        2.162647    3.463690   -0.762347
     19          7           0        4.168813   -3.186464    0.534712
     20          8           0        1.998367   -3.810773    0.826458
     21          8           0        6.350310   -2.552680    0.237570
     22          8           0        4.363467    4.061854   -0.981458
     23          8           0       -0.020454    2.949178   -0.558548
     24          6           0        1.728162    4.819700   -1.116069
     25          1           0        1.088028    4.785289   -1.998908
     26          1           0        1.150955    5.251577   -0.294478
     27          1           0        2.620142    5.409552   -1.308343
     28          6           0        4.565637   -4.578206    0.775811
     29          1           0        4.212496   -4.896476    1.758954
     30          1           0        4.114564   -5.227298    0.022956
     31          1           0        5.649918   -4.627409    0.722764
     32          6           0       -0.872913    0.322052    0.437730
     33          6           0       -1.575799    1.015392    1.403762
     34         16           0       -1.986306   -0.592317   -0.580948
     35          6           0       -2.969603    0.827392    1.331015
     36          1           0       -1.096080    1.646170    2.135499
     37          6           0       -3.385224   -0.016374    0.295792
     38          8           0       -3.905059    1.376818    2.149990
     39          6           0       -4.729715   -0.368226   -0.063178
     40          6           0       -3.460314    2.341368    3.100560
     41          6           0       -5.141964   -1.227863   -1.080632
     42         16           0       -6.145493    0.265569    0.772200
     43          1           0       -4.358767    2.712883    3.592866
     44          1           0       -2.799154    1.886042    3.848175
     45          1           0       -2.938068    3.170372    2.609010
     46          6           0       -6.554098   -1.371673   -1.185786
     47          8           0       -4.206048   -1.831271   -1.859273
     48          6           0       -7.215492   -0.624032   -0.250147
     49          1           0       -7.053041   -1.996536   -1.914445
     50          6           0       -4.655281   -2.729956   -2.866656
     51          1           0       -8.284090   -0.548613   -0.103383
     52          1           0       -5.284163   -2.217832   -3.605962
     53          1           0       -3.757272   -3.106337   -3.355627
     54          1           0       -5.212521   -3.568410   -2.432230
 ---------------------------------------------------------------------
 Rotational constants (GHZ):           0.1552718           0.0562317           0.0460044
 Standard basis: 6-311+G(d,p) (5D, 7F)
 There are   952 symmetry adapted cartesian basis functions of A   symmetry.
 There are   916 symmetry adapted basis functions of A   symmetry.
   916 basis functions,  1468 primitive gaussians,   952 cartesian basis functions
   135 alpha electrons      134 beta electrons
       nuclear repulsion energy      4075.9955785753 Hartrees.
 NAtoms=   54 NActive=   54 NUniq=   54 SFac= 1.00D+00 NAtFMM=   60 NAOKFM=F Big=F
 Integral buffers will be    131072 words long.
 Raffenetti 2 integral format.
 Two-electron integral symmetry is turned on.
 One-electron integrals computed using PRISM.
 NBasis=   916 RedAO= T EigKep=  1.08D-06  NBF=   916
 NBsUse=   902 1.00D-06 EigRej=  6.48D-07 NBFU=   902
 ExpMin= 4.05D-02 ExpMax= 9.34D+04 ExpMxC= 3.17D+03 IAcc=3 IRadAn=         5 AccDes= 0.00D+00
 Harris functional with IExCor=  402 and IRadAn=       5 diagonalized for initial guess.
 HarFok:  IExCor=  402 AccDes= 0.00D+00 IRadAn=         5 IDoV= 1 UseB2=F ITyADJ=14
 ICtDFT=  3500011 ScaDFX=  1.000000  1.000000  1.000000  1.000000
 FoFCou: FMM=F IPFlag=           0 FMFlag=      100000 FMFlg1=           0
         NFxFlg=           0 DoJE=T BraDBF=F KetDBF=T FulRan=T
         wScrn=  0.000000 ICntrl=       500 IOpCl=  0 I1Cent=   200000004 NGrid=           0
         NMat0=    1 NMatS0=      1 NMatT0=    0 NMatD0=    1 NMtDS0=    0 NMtDT0=    0
 Petite list used in FoFCou.
 Initial guess <Sx>= 0.0000 <Sy>= 0.0000 <Sz>= 0.5000 <S**2>= 0.7500 S= 0.5000
 Requested convergence on RMS density matrix=1.00D-08 within 128 cycles.
 Requested convergence on MAX density matrix=1.00D-06.
 Requested convergence on             energy=1.00D-06.
 No special actions if energy rises.
 Restarting incremental Fock formation.
 SCF Done:  E(UB3LYP) =  -2359.42222882     A.U. after   24 cycles
            NFock= 24  Conv=0.41D-08     -V/T= 2.0031
 <Sx>= 0.0000 <Sy>= 0.0000 <Sz>= 0.5000 <S**2>= 0.7575 S= 0.5037
 <L.S>=  0.00000000000    
 Annihilation of the first spin contaminant:
 S**2 before annihilation     0.7575,   after     0.7500

 **********************************************************************

            Population analysis using the SCF Density.

 **********************************************************************

 Orbital symmetries:
 Alpha Orbitals:
       Occupied  (A) (A) (A) (A) (A) (A) (A) (A) (A) (A) (A) (A)
                 (A) (A) (A) (A) (A) (A) (A) (A) (A) (A) (A) (A)
                 (A) (A) (A) (A) (A) (A) (A) (A) (A) (A) (A) (A)
                 (A) (A) (A) (A) (A) (A) (A) (A) (A) (A) (A) (A)
                 (A) (A) (A) (A) (A) (A) (A) (A) (A) (A) (A) (A)
                 (A) (A) (A) (A) (A) (A) (A) (A) (A) (A) (A) (A)
                 (A) (A) (A) (A) (A) (A) (A) (A) (A) (A) (A) (A)
                 (A) (A) (A) (A) (A) (A) (A) (A) (A) (A) (A) (A)
                 (A) (A) (A) (A) (A) (A) (A) (A) (A) (A) (A) (A)
                 (A) (A) (A) (A) (A) (A) (A) (A) (A) (A) (A) (A)
                 (A) (A) (A) (A) (A) (A) (A) (A) (A) (A) (A) (A)
                 (A) (A) (A)
       Virtual   (A) (A) (A) (A) (A) (A) (A) (A) (A) (A) (A) (A)
                 (A) (A) (A) (A) (A) (A) (A) (A) (A) (A) (A) (A)
                 (A) (A) (A) (A) (A) (A) (A) (A) (A) (A) (A) (A)
                 (A) (A) (A) (A) (A) (A) (A) (A) (A) (A) (A) (A)
                 (A) (A) (A) (A) (A) (A) (A) (A) (A) (A) (A) (A)
                 (A) (A) (A) (A) (A) (A) (A) (A) (A) (A) (A) (A)
                 (A) (A) (A) (A) (A) (A) (A) (A) (A) (A) (A) (A)
                 (A) (A) (A) (A) (A) (A) (A) (A) (A) (A) (A) (A)
                 (A) (A) (A) (A) (A) (A) (A) (A) (A) (A) (A) (A)
                 (A) (A) (A) (A) (A) (A) (A) (A) (A) (A) (A) (A)
                 (A) (A) (A) (A) (A) (A) (A) (A) (A) (A) (A) (A)
                 (A) (A) (A) (A) (A) (A) (A) (A) (A) (A) (A) (A)
                 (A) (A) (A) (A) (A) (A) (A) (A) (A) (A) (A) (A)
                 (A) (A) (A) (A) (A) (A) (A) (A) (A) (A) (A) (A)
                 (A) (A) (A) (A) (A) (A) (A) (A) (A) (A) (A) (A)
                 (A) (A) (A) (A) (A) (A) (A) (A) (A) (A) (A) (A)
                 (A) (A) (A) (A) (A) (A) (A) (A) (A) (A) (A) (A)
                 (A) (A) (A) (A) (A) (A) (A) (A) (A) (A) (A) (A)
                 (A) (A) (A) (A) (A) (A) (A) (A) (A) (A) (A) (A)
                 (A) (A) (A) (A) (A) (A) (A) (A) (A) (A) (A) (A)
                 (A) (A) (A) (A) (A) (A) (A) (A) (A) (A) (A) (A)
                 (A) (A) (A) (A) (A) (A) (A) (A) (A) (A) (A) (A)
                 (A) (A) (A) (A) (A) (A) (A) (A) (A) (A) (A) (A)
                 (A) (A) (A) (A) (A) (A) (A) (A) (A) (A) (A) (A)
                 (A) (A) (A) (A) (A) (A) (A) (A) (A) (A) (A) (A)
                 (A) (A) (A) (A) (A) (A) (A) (A) (A) (A) (A) (A)
                 (A) (A) (A) (A) (A) (A) (A) (A) (A) (A) (A) (A)
                 (A) (A) (A) (A) (A) (A) (A) (A) (A) (A) (A) (A)
                 (A) (A) (A) (A) (A) (A) (A) (A) (A) (A) (A) (A)
                 (A) (A) (A) (A) (A) (A) (A) (A) (A) (A) (A) (A)
                 (A) (A) (A) (A) (A) (A) (A) (A) (A) (A) (A) (A)
                 (A) (A) (A) (A) (A) (A) (A) (A) (A) (A) (A) (A)
                 (A) (A) (A) (A) (A) (A) (A) (A) (A) (A) (A) (A)
                 (A) (A) (A) (A) (A) (A) (A) (A) (A) (A) (A) (A)
                 (A) (A) (A) (A) (A) (A) (A) (A) (A) (A) (A) (A)
                 (A) (A) (A) (A) (A) (A) (A) (A) (A) (A) (A) (A)
                 (A) (A) (A) (A) (A) (A) (A) (A) (A) (A) (A) (A)
                 (A) (A) (A) (A) (A) (A) (A) (A) (A) (A) (A) (A)
                 (A) (A) (A) (A) (A) (A) (A) (A) (A) (A) (A) (A)
                 (A) (A) (A) (A) (A) (A) (A) (A) (A) (A) (A) (A)
                 (A) (A) (A) (A) (A) (A) (A) (A) (A) (A) (A) (A)
                 (A) (A) (A) (A) (A) (A) (A) (A) (A) (A) (A) (A)
                 (A) (A) (A) (A) (A) (A) (A) (A) (A) (A) (A) (A)
                 (A) (A) (A) (A) (A) (A) (A) (A) (A) (A) (A) (A)
                 (A) (A) (A) (A) (A) (A) (A) (A) (A) (A) (A) (A)
                 (A) (A) (A) (A) (A) (A) (A) (A) (A) (A) (A) (A)
                 (A) (A) (A) (A) (A) (A) (A) (A) (A) (A) (A) (A)
                 (A) (A) (A) (A) (A) (A) (A) (A) (A) (A) (A) (A)
                 (A) (A) (A) (A) (A) (A) (A) (A) (A) (A) (A) (A)
                 (A) (A) (A) (A) (A) (A) (A) (A) (A) (A) (A) (A)
                 (A) (A) (A) (A) (A) (A) (A) (A) (A) (A) (A) (A)
                 (A) (A) (A) (A) (A) (A) (A) (A) (A) (A) (A) (A)
                 (A) (A) (A) (A) (A) (A) (A) (A) (A) (A) (A) (A)
                 (A) (A) (A) (A) (A) (A) (A) (A) (A) (A) (A) (A)
                 (A) (A) (A) (A) (A) (A) (A) (A) (A) (A) (A) (A)
                 (A) (A) (A) (A) (A) (A) (A) (A) (A) (A) (A) (A)
                 (A) (A) (A) (A) (A) (A) (A) (A) (A) (A) (A) (A)
                 (A) (A) (A) (A) (A) (A) (A) (A) (A) (A) (A) (A)
                 (A) (A) (A) (A) (A) (A) (A) (A) (A) (A) (A) (A)
                 (A) (A) (A) (A) (A) (A) (A) (A) (A) (A) (A) (A)
                 (A) (A) (A) (A) (A) (A) (A) (A) (A) (A) (A) (A)
                 (A) (A) (A) (A) (A) (A) (A) (A) (A) (A) (A) (A)
                 (A) (A) (A) (A) (A) (A) (A) (A) (A) (A) (A) (A)
                 (A) (A) (A) (A) (A) (A) (A) (A) (A) (A) (A)
 Beta  Orbitals:
       Occupied  (A) (A) (A) (A) (A) (A) (A) (A) (A) (A) (A) (A)
                 (A) (A) (A) (A) (A) (A) (A) (A) (A) (A) (A) (A)
                 (A) (A) (A) (A) (A) (A) (A) (A) (A) (A) (A) (A)
                 (A) (A) (A) (A) (A) (A) (A) (A) (A) (A) (A) (A)
                 (A) (A) (A) (A) (A) (A) (A) (A) (A) (A) (A) (A)
                 (A) (A) (A) (A) (A) (A) (A) (A) (A) (A) (A) (A)
                 (A) (A) (A) (A) (A) (A) (A) (A) (A) (A) (A) (A)
                 (A) (A) (A) (A) (A) (A) (A) (A) (A) (A) (A) (A)
                 (A) (A) (A) (A) (A) (A) (A) (A) (A) (A) (A) (A)
                 (A) (A) (A) (A) (A) (A) (A) (A) (A) (A) (A) (A)
                 (A) (A) (A) (A) (A) (A) (A) (A) (A) (A) (A) (A)
                 (A) (A)
       Virtual   (A) (A) (A) (A) (A) (A) (A) (A) (A) (A) (A) (A)
                 (A) (A) (A) (A) (A) (A) (A) (A) (A) (A) (A) (A)
                 (A) (A) (A) (A) (A) (A) (A) (A) (A) (A) (A) (A)
                 (A) (A) (A) (A) (A) (A) (A) (A) (A) (A) (A) (A)
                 (A) (A) (A) (A) (A) (A) (A) (A) (A) (A) (A) (A)
                 (A) (A) (A) (A) (A) (A) (A) (A) (A) (A) (A) (A)
                 (A) (A) (A) (A) (A) (A) (A) (A) (A) (A) (A) (A)
                 (A) (A) (A) (A) (A) (A) (A) (A) (A) (A) (A) (A)
                 (A) (A) (A) (A) (A) (A) (A) (A) (A) (A) (A) (A)
                 (A) (A) (A) (A) (A) (A) (A) (A) (A) (A) (A) (A)
                 (A) (A) (A) (A) (A) (A) (A) (A) (A) (A) (A) (A)
                 (A) (A) (A) (A) (A) (A) (A) (A) (A) (A) (A) (A)
                 (A) (A) (A) (A) (A) (A) (A) (A) (A) (A) (A) (A)
                 (A) (A) (A) (A) (A) (A) (A) (A) (A) (A) (A) (A)
                 (A) (A) (A) (A) (A) (A) (A) (A) (A) (A) (A) (A)
                 (A) (A) (A) (A) (A) (A) (A) (A) (A) (A) (A) (A)
                 (A) (A) (A) (A) (A) (A) (A) (A) (A) (A) (A) (A)
                 (A) (A) (A) (A) (A) (A) (A) (A) (A) (A) (A) (A)
                 (A) (A) (A) (A) (A) (A) (A) (A) (A) (A) (A) (A)
                 (A) (A) (A) (A) (A) (A) (A) (A) (A) (A) (A) (A)
                 (A) (A) (A) (A) (A) (A) (A) (A) (A) (A) (A) (A)
                 (A) (A) (A) (A) (A) (A) (A) (A) (A) (A) (A) (A)
                 (A) (A) (A) (A) (A) (A) (A) (A) (A) (A) (A) (A)
                 (A) (A) (A) (A) (A) (A) (A) (A) (A) (A) (A) (A)
                 (A) (A) (A) (A) (A) (A) (A) (A) (A) (A) (A) (A)
                 (A) (A) (A) (A) (A) (A) (A) (A) (A) (A) (A) (A)
                 (A) (A) (A) (A) (A) (A) (A) (A) (A) (A) (A) (A)
                 (A) (A) (A) (A) (A) (A) (A) (A) (A) (A) (A) (A)
                 (A) (A) (A) (A) (A) (A) (A) (A) (A) (A) (A) (A)
                 (A) (A) (A) (A) (A) (A) (A) (A) (A) (A) (A) (A)
                 (A) (A) (A) (A) (A) (A) (A) (A) (A) (A) (A) (A)
                 (A) (A) (A) (A) (A) (A) (A) (A) (A) (A) (A) (A)
                 (A) (A) (A) (A) (A) (A) (A) (A) (A) (A) (A) (A)
                 (A) (A) (A) (A) (A) (A) (A) (A) (A) (A) (A) (A)
                 (A) (A) (A) (A) (A) (A) (A) (A) (A) (A) (A) (A)
                 (A) (A) (A) (A) (A) (A) (A) (A) (A) (A) (A) (A)
                 (A) (A) (A) (A) (A) (A) (A) (A) (A) (A) (A) (A)
                 (A) (A) (A) (A) (A) (A) (A) (A) (A) (A) (A) (A)
                 (A) (A) (A) (A) (A) (A) (A) (A) (A) (A) (A) (A)
                 (A) (A) (A) (A) (A) (A) (A) (A) (A) (A) (A) (A)
                 (A) (A) (A) (A) (A) (A) (A) (A) (A) (A) (A) (A)
                 (A) (A) (A) (A) (A) (A) (A) (A) (A) (A) (A) (A)
                 (A) (A) (A) (A) (A) (A) (A) (A) (A) (A) (A) (A)
                 (A) (A) (A) (A) (A) (A) (A) (A) (A) (A) (A) (A)
                 (A) (A) (A) (A) (A) (A) (A) (A) (A) (A) (A) (A)
                 (A) (A) (A) (A) (A) (A) (A) (A) (A) (A) (A) (A)
                 (A) (A) (A) (A) (A) (A) (A) (A) (A) (A) (A) (A)
                 (A) (A) (A) (A) (A) (A) (A) (A) (A) (A) (A) (A)
                 (A) (A) (A) (A) (A) (A) (A) (A) (A) (A) (A) (A)
                 (A) (A) (A) (A) (A) (A) (A) (A) (A) (A) (A) (A)
                 (A) (A) (A) (A) (A) (A) (A) (A) (A) (A) (A) (A)
                 (A) (A) (A) (A) (A) (A) (A) (A) (A) (A) (A) (A)
                 (A) (A) (A) (A) (A) (A) (A) (A) (A) (A) (A) (A)
                 (A) (A) (A) (A) (A) (A) (A) (A) (A) (A) (A) (A)
                 (A) (A) (A) (A) (A) (A) (A) (A) (A) (A) (A) (A)
                 (A) (A) (A) (A) (A) (A) (A) (A) (A) (A) (A) (A)
                 (A) (A) (A) (A) (A) (A) (A) (A) (A) (A) (A) (A)
                 (A) (A) (A) (A) (A) (A) (A) (A) (A) (A) (A) (A)
                 (A) (A) (A) (A) (A) (A) (A) (A) (A) (A) (A) (A)
                 (A) (A) (A) (A) (A) (A) (A) (A) (A) (A) (A) (A)
                 (A) (A) (A) (A) (A) (A) (A) (A) (A) (A) (A) (A)
                 (A) (A) (A) (A) (A) (A) (A) (A) (A) (A) (A) (A)
                 (A) (A) (A) (A) (A) (A) (A) (A) (A) (A) (A) (A)
                 (A) (A) (A) (A) (A) (A) (A) (A) (A) (A) (A) (A)
 The electronic state is 2-A.
 Alpha  occ. eigenvalues --  -88.80044 -88.78106 -19.08707 -19.08263 -18.99568
 Alpha  occ. eigenvalues --  -18.99407 -18.99070 -18.98824 -14.26540 -14.26067
 Alpha  occ. eigenvalues --  -10.18015 -10.17748 -10.17548 -10.17441 -10.16480
 Alpha  occ. eigenvalues --  -10.15827 -10.15771 -10.14915 -10.13154 -10.12451
 Alpha  occ. eigenvalues --  -10.11867 -10.11684 -10.10926 -10.10785 -10.10318
 Alpha  occ. eigenvalues --  -10.10237 -10.09810 -10.09462 -10.09249 -10.08491
 Alpha  occ. eigenvalues --  -10.08274 -10.08138 -10.08117 -10.07947 -10.07621
 Alpha  occ. eigenvalues --  -10.07556  -7.88599  -7.86649  -5.84906  -5.84527
 Alpha  occ. eigenvalues --   -5.84170  -5.82968  -5.82580  -5.82201  -1.00373
 Alpha  occ. eigenvalues --   -0.99775  -0.95954  -0.95543  -0.94005  -0.93505
 Alpha  occ. eigenvalues --   -0.83922  -0.83346  -0.81100  -0.79451  -0.78432
 Alpha  occ. eigenvalues --   -0.73753  -0.71250  -0.69630  -0.68299  -0.66697
 Alpha  occ. eigenvalues --   -0.65729  -0.65191  -0.63878  -0.63416  -0.61922
 Alpha  occ. eigenvalues --   -0.61187  -0.59961  -0.57871  -0.55037  -0.53663
 Alpha  occ. eigenvalues --   -0.53370  -0.52073  -0.51460  -0.49787  -0.48122
 Alpha  occ. eigenvalues --   -0.47432  -0.45822  -0.45561  -0.44965  -0.42760
 Alpha  occ. eigenvalues --   -0.41606  -0.40875  -0.40748  -0.40116  -0.39795
 Alpha  occ. eigenvalues --   -0.39141  -0.38345  -0.37888  -0.37783  -0.37417
 Alpha  occ. eigenvalues --   -0.36865  -0.36645  -0.36574  -0.34833  -0.34348
 Alpha  occ. eigenvalues --   -0.34168  -0.33734  -0.33191  -0.32886  -0.32600
 Alpha  occ. eigenvalues --   -0.32362  -0.32216  -0.31479  -0.30624  -0.30434
 Alpha  occ. eigenvalues --   -0.30245  -0.30018  -0.29720  -0.29413  -0.29319
 Alpha  occ. eigenvalues --   -0.29009  -0.28696  -0.27953  -0.27374  -0.26746
 Alpha  occ. eigenvalues --   -0.26074  -0.25567  -0.24864  -0.24424  -0.24025
 Alpha  occ. eigenvalues --   -0.22672  -0.19843  -0.19388  -0.18474  -0.17866
 Alpha  occ. eigenvalues --   -0.17508  -0.17229  -0.16738  -0.16292  -0.15762
 Alpha  occ. eigenvalues --   -0.15588  -0.14750  -0.13872  -0.09877  -0.04202
 Alpha virt. eigenvalues --    0.03429   0.05181   0.05777   0.06465   0.06784
 Alpha virt. eigenvalues --    0.07338   0.07498   0.08549   0.08821   0.09052
 Alpha virt. eigenvalues --    0.09109   0.09412   0.09892   0.10300   0.10732
 Alpha virt. eigenvalues --    0.10849   0.11238   0.11543   0.11663   0.12234
 Alpha virt. eigenvalues --    0.12402   0.12520   0.12735   0.12784   0.13108
 Alpha virt. eigenvalues --    0.13181   0.13438   0.13611   0.13858   0.14004
 Alpha virt. eigenvalues --    0.14422   0.14650   0.14988   0.15012   0.15394
 Alpha virt. eigenvalues --    0.15707   0.15760   0.16296   0.16681   0.16827
 Alpha virt. eigenvalues --    0.17301   0.17512   0.17749   0.17910   0.18348
 Alpha virt. eigenvalues --    0.18545   0.18680   0.18866   0.19092   0.19540
 Alpha virt. eigenvalues --    0.19639   0.20122   0.20146   0.20512   0.20579
 Alpha virt. eigenvalues --    0.20923   0.21128   0.21400   0.21598   0.21816
 Alpha virt. eigenvalues --    0.22519   0.22629   0.22933   0.23128   0.23264
 Alpha virt. eigenvalues --    0.23682   0.23783   0.24048   0.24193   0.24380
 Alpha virt. eigenvalues --    0.24558   0.24681   0.25008   0.25316   0.25337
 Alpha virt. eigenvalues --    0.25398   0.25751   0.25924   0.26065   0.26440
 Alpha virt. eigenvalues --    0.26774   0.26842   0.27019   0.27133   0.27826
 Alpha virt. eigenvalues --    0.27904   0.28067   0.28190   0.28317   0.28405
 Alpha virt. eigenvalues --    0.29029   0.29226   0.29337   0.29526   0.29609
 Alpha virt. eigenvalues --    0.29857   0.30018   0.30280   0.30656   0.30811
 Alpha virt. eigenvalues --    0.31027   0.31148   0.31656   0.31824   0.31921
 Alpha virt. eigenvalues --    0.32314   0.32431   0.32627   0.32913   0.33154
 Alpha virt. eigenvalues --    0.33237   0.33293   0.33510   0.33609   0.33951
 Alpha virt. eigenvalues --    0.34188   0.34254   0.34556   0.34763   0.34969
 Alpha virt. eigenvalues --    0.35202   0.35566   0.35701   0.35832   0.35944
 Alpha virt. eigenvalues --    0.36247   0.36601   0.36641   0.36965   0.37098
 Alpha virt. eigenvalues --    0.37174   0.37436   0.37674   0.37830   0.38068
 Alpha virt. eigenvalues --    0.38422   0.38535   0.38624   0.38785   0.38970
 Alpha virt. eigenvalues --    0.39247   0.39618   0.39700   0.39872   0.40016
 Alpha virt. eigenvalues --    0.40408   0.40571   0.41272   0.41469   0.41675
 Alpha virt. eigenvalues --    0.41993   0.42023   0.42235   0.42462   0.42659
 Alpha virt. eigenvalues --    0.42974   0.43008   0.43237   0.43425   0.43874
 Alpha virt. eigenvalues --    0.44306   0.44595   0.44914   0.45251   0.45297
 Alpha virt. eigenvalues --    0.45825   0.46424   0.46774   0.47045   0.47661
 Alpha virt. eigenvalues --    0.47785   0.48698   0.48990   0.49057   0.49197
 Alpha virt. eigenvalues --    0.49886   0.50025   0.50209   0.50829   0.51137
 Alpha virt. eigenvalues --    0.51420   0.51497   0.52110   0.52583   0.52999
 Alpha virt. eigenvalues --    0.53310   0.53644   0.54398   0.54478   0.54915
 Alpha virt. eigenvalues --    0.55123   0.55332   0.55602   0.55668   0.56278
 Alpha virt. eigenvalues --    0.56884   0.57117   0.57769   0.58205   0.58905
 Alpha virt. eigenvalues --    0.59231   0.59773   0.60514   0.61105   0.61632
 Alpha virt. eigenvalues --    0.61908   0.62375   0.63061   0.63184   0.63713
 Alpha virt. eigenvalues --    0.64147   0.64576   0.64968   0.65594   0.66136
 Alpha virt. eigenvalues --    0.66435   0.66619   0.66692   0.67053   0.67476
 Alpha virt. eigenvalues --    0.68176   0.68343   0.68728   0.69033   0.69642
 Alpha virt. eigenvalues --    0.70167   0.70465   0.70714   0.71061   0.71840
 Alpha virt. eigenvalues --    0.72019   0.72311   0.72629   0.72850   0.73436
 Alpha virt. eigenvalues --    0.73898   0.74269   0.74354   0.74936   0.75380
 Alpha virt. eigenvalues --    0.75958   0.76045   0.76215   0.76749   0.77105
 Alpha virt. eigenvalues --    0.77653   0.78016   0.78214   0.78280   0.78899
 Alpha virt. eigenvalues --    0.79231   0.80011   0.80417   0.80651   0.80823
 Alpha virt. eigenvalues --    0.81087   0.81519   0.82041   0.82173   0.82657
 Alpha virt. eigenvalues --    0.83395   0.83461   0.83839   0.84051   0.84344
 Alpha virt. eigenvalues --    0.84587   0.84996   0.85247   0.85653   0.86011
 Alpha virt. eigenvalues --    0.86408   0.86823   0.86947   0.87228   0.87784
 Alpha virt. eigenvalues --    0.87900   0.88692   0.89031   0.89149   0.89661
 Alpha virt. eigenvalues --    0.89908   0.90589   0.90915   0.91165   0.91530
 Alpha virt. eigenvalues --    0.92305   0.92724   0.93739   0.94986   0.95779
 Alpha virt. eigenvalues --    0.96857   0.97440   0.97958   0.98588   0.99018
 Alpha virt. eigenvalues --    0.99104   0.99800   1.00576   1.00926   1.01304
 Alpha virt. eigenvalues --    1.01507   1.02516   1.02894   1.03509   1.04300
 Alpha virt. eigenvalues --    1.05059   1.05614   1.06040   1.06600   1.06678
 Alpha virt. eigenvalues --    1.06990   1.07370   1.07737   1.08408   1.08611
 Alpha virt. eigenvalues --    1.08963   1.09064   1.09580   1.09797   1.10326
 Alpha virt. eigenvalues --    1.10976   1.11237   1.12396   1.12594   1.12950
 Alpha virt. eigenvalues --    1.13337   1.13624   1.13858   1.14405   1.14565
 Alpha virt. eigenvalues --    1.15005   1.15528   1.15889   1.16237   1.16506
 Alpha virt. eigenvalues --    1.17365   1.17776   1.17990   1.18508   1.18970
 Alpha virt. eigenvalues --    1.19632   1.19968   1.20680   1.21199   1.21823
 Alpha virt. eigenvalues --    1.22331   1.23064   1.24157   1.24686   1.25668
 Alpha virt. eigenvalues --    1.26348   1.26387   1.27193   1.27796   1.28926
 Alpha virt. eigenvalues --    1.29805   1.29949   1.30748   1.30916   1.31585
 Alpha virt. eigenvalues --    1.33217   1.33598   1.33774   1.34361   1.35743
 Alpha virt. eigenvalues --    1.36100   1.36776   1.37567   1.38717   1.39120
 Alpha virt. eigenvalues --    1.39553   1.39949   1.40441   1.41060   1.41371
 Alpha virt. eigenvalues --    1.42717   1.43055   1.43539   1.44725   1.45596
 Alpha virt. eigenvalues --    1.46928   1.47204   1.47982   1.48435   1.49420
 Alpha virt. eigenvalues --    1.49745   1.50219   1.50899   1.52123   1.52454
 Alpha virt. eigenvalues --    1.53157   1.53599   1.53683   1.54438   1.54766
 Alpha virt. eigenvalues --    1.55308   1.55606   1.56002   1.57171   1.57500
 Alpha virt. eigenvalues --    1.57985   1.58127   1.59618   1.59939   1.60397
 Alpha virt. eigenvalues --    1.61199   1.62032   1.62289   1.62585   1.63320
 Alpha virt. eigenvalues --    1.63587   1.64077   1.64537   1.65016   1.65322
 Alpha virt. eigenvalues --    1.65743   1.65766   1.66451   1.66859   1.67655
 Alpha virt. eigenvalues --    1.69357   1.69991   1.70411   1.70660   1.71167
 Alpha virt. eigenvalues --    1.71820   1.72371   1.72828   1.73899   1.74019
 Alpha virt. eigenvalues --    1.74576   1.75127   1.76035   1.76312   1.77302
 Alpha virt. eigenvalues --    1.78118   1.78450   1.79089   1.80210   1.80896
 Alpha virt. eigenvalues --    1.81292   1.81433   1.81554   1.82256   1.82930
 Alpha virt. eigenvalues --    1.83923   1.84027   1.84887   1.85711   1.85929
 Alpha virt. eigenvalues --    1.86634   1.86988   1.87523   1.87971   1.88782
 Alpha virt. eigenvalues --    1.89012   1.90128   1.91011   1.91693   1.92726
 Alpha virt. eigenvalues --    1.93818   1.94641   1.94933   1.95776   1.97304
 Alpha virt. eigenvalues --    1.97799   1.98253   1.99136   1.99366   2.00240
 Alpha virt. eigenvalues --    2.00835   2.00959   2.02029   2.02624   2.03050
 Alpha virt. eigenvalues --    2.03278   2.03728   2.04594   2.04738   2.06149
 Alpha virt. eigenvalues --    2.07082   2.07815   2.08269   2.09240   2.09606
 Alpha virt. eigenvalues --    2.10364   2.11109   2.11992   2.12055   2.12521
 Alpha virt. eigenvalues --    2.12907   2.13527   2.14170   2.15059   2.15140
 Alpha virt. eigenvalues --    2.15619   2.15892   2.16441   2.17456   2.17722
 Alpha virt. eigenvalues --    2.18490   2.19276   2.19843   2.20009   2.21473
 Alpha virt. eigenvalues --    2.22125   2.22572   2.23643   2.24609   2.24934
 Alpha virt. eigenvalues --    2.27146   2.27491   2.27894   2.28512   2.29329
 Alpha virt. eigenvalues --    2.29418   2.30837   2.31195   2.31909   2.33074
 Alpha virt. eigenvalues --    2.34545   2.36888   2.37714   2.38369   2.40004
 Alpha virt. eigenvalues --    2.43940   2.44546   2.45200   2.47291   2.48529
 Alpha virt. eigenvalues --    2.49597   2.49766   2.50114   2.50591   2.51288
 Alpha virt. eigenvalues --    2.51959   2.53456   2.53519   2.55247   2.56001
 Alpha virt. eigenvalues --    2.56209   2.57177   2.57288   2.59224   2.59795
 Alpha virt. eigenvalues --    2.60155   2.60737   2.61197   2.61458   2.61955
 Alpha virt. eigenvalues --    2.62642   2.63210   2.63731   2.64862   2.65080
 Alpha virt. eigenvalues --    2.66485   2.67579   2.69876   2.69938   2.70927
 Alpha virt. eigenvalues --    2.71726   2.73997   2.75111   2.75880   2.76268
 Alpha virt. eigenvalues --    2.76453   2.77482   2.78147   2.78633   2.80190
 Alpha virt. eigenvalues --    2.80471   2.80760   2.81709   2.82304   2.83177
 Alpha virt. eigenvalues --    2.83530   2.83647   2.84365   2.84947   2.85651
 Alpha virt. eigenvalues --    2.86421   2.88253   2.88543   2.89635   2.90857
 Alpha virt. eigenvalues --    2.91302   2.93097   2.94031   2.95025   2.95359
 Alpha virt. eigenvalues --    2.96181   2.96729   2.97212   2.98286   2.98797
 Alpha virt. eigenvalues --    2.99719   3.00980   3.01278   3.01675   3.02330
 Alpha virt. eigenvalues --    3.02804   3.04006   3.04487   3.04910   3.05437
 Alpha virt. eigenvalues --    3.06363   3.07506   3.07816   3.08273   3.08888
 Alpha virt. eigenvalues --    3.10791   3.11655   3.13398   3.14733   3.15783
 Alpha virt. eigenvalues --    3.16392   3.17684   3.17918   3.19591   3.20669
 Alpha virt. eigenvalues --    3.22862   3.23185   3.25500   3.26170   3.26552
 Alpha virt. eigenvalues --    3.27143   3.28971   3.30359   3.31116   3.31874
 Alpha virt. eigenvalues --    3.32345   3.33014   3.34192   3.37375   3.38444
 Alpha virt. eigenvalues --    3.39465   3.40097   3.41607   3.42212   3.45488
 Alpha virt. eigenvalues --    3.46254   3.46798   3.47038   3.47279   3.48760
 Alpha virt. eigenvalues --    3.49813   3.50823   3.52444   3.54115   3.54792
 Alpha virt. eigenvalues --    3.55558   3.57119   3.57848   3.59430   3.61520
 Alpha virt. eigenvalues --    3.62582   3.63489   3.67165   3.70346   3.71806
 Alpha virt. eigenvalues --    3.72718   3.74194   3.77063   3.77646   3.79250
 Alpha virt. eigenvalues --    3.81417   3.82534   3.82968   3.83222   3.83339
 Alpha virt. eigenvalues --    3.84229   3.84875   3.89627   3.92363   3.94031
 Alpha virt. eigenvalues --    3.96306   3.97375   4.02516   4.04074   4.05003
 Alpha virt. eigenvalues --    4.05197   4.06158   4.09042   4.12052   4.13794
 Alpha virt. eigenvalues --    4.16384   4.17010   4.18586   4.22327   4.25326
 Alpha virt. eigenvalues --    4.28763   4.32961   4.37356   4.38854   4.48112
 Alpha virt. eigenvalues --    4.50075   4.52966   4.62235   4.76983   4.97370
 Alpha virt. eigenvalues --    4.98877   4.99781   5.02194   5.09849   5.11426
 Alpha virt. eigenvalues --    5.16038   5.17426   5.17851   5.20832   5.23672
 Alpha virt. eigenvalues --    5.25224   5.37329   5.39182   5.41140   5.43307
 Alpha virt. eigenvalues --    5.50878   5.52406   5.84989   5.88004   5.88673
 Alpha virt. eigenvalues --    5.92388   5.94386   5.97655   8.10437   8.14857
 Alpha virt. eigenvalues --   17.37348  17.43839  17.57924  17.60945  17.67521
 Alpha virt. eigenvalues --   17.72537  23.60834  23.67224  23.81801  23.90175
 Alpha virt. eigenvalues --   23.93195  23.95354  23.96622  23.97381  23.98187
 Alpha virt. eigenvalues --   23.99314  23.99769  24.00318  24.01387  24.04873
 Alpha virt. eigenvalues --   24.05400  24.07833  24.09063  24.10813  24.11228
 Alpha virt. eigenvalues --   24.12463  24.13539  24.18463  24.22415  24.23112
 Alpha virt. eigenvalues --   24.26568  24.27468  35.67968  35.70794  50.04416
 Alpha virt. eigenvalues --   50.06009  50.14683  50.16404  50.18488  50.20051
 Alpha virt. eigenvalues --  189.27682 189.32735
  Beta  occ. eigenvalues --  -88.80043 -88.78099 -19.08702 -19.08266 -18.99395
  Beta  occ. eigenvalues --  -18.99217 -18.98892 -18.98608 -14.26589 -14.26119
  Beta  occ. eigenvalues --  -10.17961 -10.17697 -10.17493 -10.17388 -10.16481
  Beta  occ. eigenvalues --  -10.15811 -10.15770 -10.14930 -10.13164 -10.12436
  Beta  occ. eigenvalues --  -10.11896 -10.11651 -10.10932 -10.10784 -10.10317
  Beta  occ. eigenvalues --  -10.10104 -10.09864 -10.09515 -10.09066 -10.08456
  Beta  occ. eigenvalues --  -10.08130 -10.07981 -10.07963 -10.07896 -10.07534
  Beta  occ. eigenvalues --  -10.07479  -7.88598  -7.86641  -5.84905  -5.84526
  Beta  occ. eigenvalues --   -5.84166  -5.82960  -5.82573  -5.82189  -1.00360
  Beta  occ. eigenvalues --   -0.99782  -0.95723  -0.95297  -0.93696  -0.93171
  Beta  occ. eigenvalues --   -0.83826  -0.83238  -0.81081  -0.79332  -0.78347
  Beta  occ. eigenvalues --   -0.73443  -0.70955  -0.69550  -0.68263  -0.66648
  Beta  occ. eigenvalues --   -0.65574  -0.64820  -0.63803  -0.63361  -0.61894
  Beta  occ. eigenvalues --   -0.61142  -0.59762  -0.57556  -0.54882  -0.53500
  Beta  occ. eigenvalues --   -0.53226  -0.51895  -0.51435  -0.49733  -0.48106
  Beta  occ. eigenvalues --   -0.47361  -0.45811  -0.45435  -0.44839  -0.42588
  Beta  occ. eigenvalues --   -0.41498  -0.40859  -0.40720  -0.40121  -0.39762
  Beta  occ. eigenvalues --   -0.38989  -0.38134  -0.37733  -0.37685  -0.37397
  Beta  occ. eigenvalues --   -0.36756  -0.36592  -0.36448  -0.34759  -0.34214
  Beta  occ. eigenvalues --   -0.34059  -0.33646  -0.33127  -0.32843  -0.32443
  Beta  occ. eigenvalues --   -0.32122  -0.31935  -0.31381  -0.30354  -0.30223
  Beta  occ. eigenvalues --   -0.30055  -0.29793  -0.29416  -0.29227  -0.28863
  Beta  occ. eigenvalues --   -0.28679  -0.28221  -0.27925  -0.27017  -0.26607
  Beta  occ. eigenvalues --   -0.26038  -0.25542  -0.24777  -0.24340  -0.23975
  Beta  occ. eigenvalues --   -0.21844  -0.19610  -0.18513  -0.18292  -0.17360
  Beta  occ. eigenvalues --   -0.17309  -0.16817  -0.16602  -0.16097  -0.15460
  Beta  occ. eigenvalues --   -0.15182  -0.14582  -0.12463  -0.09717
  Beta virt. eigenvalues --    0.00225   0.03617   0.05779   0.06277   0.06783
  Beta virt. eigenvalues --    0.06984   0.07347   0.08337   0.08585   0.08958
  Beta virt. eigenvalues --    0.09059   0.09119   0.09417   0.09898   0.10306
  Beta virt. eigenvalues --    0.10738   0.10868   0.11240   0.11550   0.11671
  Beta virt. eigenvalues --    0.12254   0.12461   0.12631   0.12750   0.12961
  Beta virt. eigenvalues --    0.13139   0.13352   0.13818   0.13865   0.14112
  Beta virt. eigenvalues --    0.14230   0.14539   0.14678   0.15005   0.15042
  Beta virt. eigenvalues --    0.15444   0.15723   0.15819   0.16309   0.16718
  Beta virt. eigenvalues --    0.16887   0.17449   0.17562   0.17774   0.17965
  Beta virt. eigenvalues --    0.18388   0.18558   0.18693   0.18886   0.19132
  Beta virt. eigenvalues --    0.19561   0.19665   0.20141   0.20416   0.20583
  Beta virt. eigenvalues --    0.20648   0.21021   0.21201   0.21571   0.21691
  Beta virt. eigenvalues --    0.21846   0.22552   0.22653   0.22991   0.23151
  Beta virt. eigenvalues --    0.23323   0.23742   0.23850   0.24183   0.24348
  Beta virt. eigenvalues --    0.24526   0.24670   0.24725   0.25040   0.25339
  Beta virt. eigenvalues --    0.25404   0.25422   0.25776   0.25975   0.26102
  Beta virt. eigenvalues --    0.26465   0.26797   0.26867   0.27059   0.27163
  Beta virt. eigenvalues --    0.27868   0.27948   0.28092   0.28248   0.28353
  Beta virt. eigenvalues --    0.28435   0.29054   0.29244   0.29367   0.29559
  Beta virt. eigenvalues --    0.29652   0.29891   0.30073   0.30317   0.30679
  Beta virt. eigenvalues --    0.30859   0.31052   0.31188   0.31688   0.31880
  Beta virt. eigenvalues --    0.31968   0.32435   0.32503   0.32709   0.32967
  Beta virt. eigenvalues --    0.33239   0.33296   0.33421   0.33574   0.33781
  Beta virt. eigenvalues --    0.34032   0.34263   0.34314   0.34613   0.34801
  Beta virt. eigenvalues --    0.35022   0.35244   0.35677   0.35736   0.35893
  Beta virt. eigenvalues --    0.36007   0.36278   0.36649   0.36701   0.37019
  Beta virt. eigenvalues --    0.37126   0.37230   0.37481   0.37750   0.37875
  Beta virt. eigenvalues --    0.38117   0.38504   0.38594   0.38675   0.38808
  Beta virt. eigenvalues --    0.39052   0.39309   0.39694   0.39788   0.39924
  Beta virt. eigenvalues --    0.40071   0.40438   0.40611   0.41336   0.41541
  Beta virt. eigenvalues --    0.41741   0.42053   0.42096   0.42308   0.42504
  Beta virt. eigenvalues --    0.42747   0.43028   0.43052   0.43277   0.43502
  Beta virt. eigenvalues --    0.43938   0.44352   0.44647   0.44993   0.45303
  Beta virt. eigenvalues --    0.45342   0.45913   0.46482   0.46837   0.47163
  Beta virt. eigenvalues --    0.47728   0.47830   0.48718   0.49084   0.49135
  Beta virt. eigenvalues --    0.49279   0.49923   0.50072   0.50270   0.50873
  Beta virt. eigenvalues --    0.51204   0.51459   0.51550   0.52133   0.52623
  Beta virt. eigenvalues --    0.53063   0.53360   0.53672   0.54429   0.54546
  Beta virt. eigenvalues --    0.54964   0.55168   0.55378   0.55639   0.55730
  Beta virt. eigenvalues --    0.56317   0.56918   0.57159   0.57810   0.58285
  Beta virt. eigenvalues --    0.58989   0.59271   0.59814   0.60561   0.61212
  Beta virt. eigenvalues --    0.61722   0.62029   0.62402   0.63109   0.63239
  Beta virt. eigenvalues --    0.63756   0.64170   0.64601   0.65046   0.65678
  Beta virt. eigenvalues --    0.66158   0.66555   0.66724   0.66777   0.67141
  Beta virt. eigenvalues --    0.67532   0.68294   0.68383   0.68926   0.69093
  Beta virt. eigenvalues --    0.69666   0.70225   0.70556   0.70827   0.71118
  Beta virt. eigenvalues --    0.71881   0.72094   0.72410   0.72793   0.72934
  Beta virt. eigenvalues --    0.73579   0.73940   0.74336   0.74514   0.74982
  Beta virt. eigenvalues --    0.75424   0.76063   0.76107   0.76372   0.76849
  Beta virt. eigenvalues --    0.77196   0.77754   0.78112   0.78292   0.78389
  Beta virt. eigenvalues --    0.78986   0.79280   0.80187   0.80513   0.80765
  Beta virt. eigenvalues --    0.80914   0.81162   0.81582   0.82135   0.82273
  Beta virt. eigenvalues --    0.82696   0.83464   0.83658   0.84010   0.84130
  Beta virt. eigenvalues --    0.84435   0.84627   0.85117   0.85315   0.85718
  Beta virt. eigenvalues --    0.86091   0.86458   0.86903   0.87047   0.87320
  Beta virt. eigenvalues --    0.87818   0.88027   0.88814   0.89098   0.89239
  Beta virt. eigenvalues --    0.89728   0.89984   0.90645   0.90983   0.91201
  Beta virt. eigenvalues --    0.91609   0.92384   0.92776   0.93784   0.95082
  Beta virt. eigenvalues --    0.95806   0.96891   0.97499   0.97950   0.98665
  Beta virt. eigenvalues --    0.99035   0.99168   0.99800   1.00620   1.01000
  Beta virt. eigenvalues --    1.01409   1.01582   1.02585   1.03000   1.03618
  Beta virt. eigenvalues --    1.04483   1.05160   1.05758   1.06165   1.06729
  Beta virt. eigenvalues --    1.06804   1.07078   1.07466   1.07857   1.08509
  Beta virt. eigenvalues --    1.08738   1.09090   1.09197   1.09695   1.09880
  Beta virt. eigenvalues --    1.10420   1.11088   1.11359   1.12486   1.12700
  Beta virt. eigenvalues --    1.13039   1.13378   1.13754   1.13913   1.14572
  Beta virt. eigenvalues --    1.14740   1.15112   1.15605   1.16049   1.16284
  Beta virt. eigenvalues --    1.16697   1.17496   1.17870   1.18068   1.18644
  Beta virt. eigenvalues --    1.19150   1.19811   1.20144   1.20935   1.21284
  Beta virt. eigenvalues --    1.22030   1.22426   1.23306   1.24400   1.24945
  Beta virt. eigenvalues --    1.25858   1.26385   1.26734   1.27335   1.28092
  Beta virt. eigenvalues --    1.29101   1.29871   1.30277   1.30898   1.31254
  Beta virt. eigenvalues --    1.31782   1.33334   1.33685   1.33803   1.34409
  Beta virt. eigenvalues --    1.35824   1.36205   1.36872   1.37643   1.38917
  Beta virt. eigenvalues --    1.39293   1.39693   1.39989   1.40538   1.41109
  Beta virt. eigenvalues --    1.41470   1.42775   1.43098   1.43599   1.44837
  Beta virt. eigenvalues --    1.45710   1.46991   1.47261   1.48028   1.48514
  Beta virt. eigenvalues --    1.49426   1.49835   1.50300   1.50920   1.52214
  Beta virt. eigenvalues --    1.52486   1.53278   1.53634   1.53701   1.54569
  Beta virt. eigenvalues --    1.54921   1.55323   1.55711   1.56131   1.57262
  Beta virt. eigenvalues --    1.57561   1.58117   1.58300   1.59708   1.60132
  Beta virt. eigenvalues --    1.60464   1.61210   1.62109   1.62352   1.62648
  Beta virt. eigenvalues --    1.63420   1.63789   1.64170   1.64598   1.65125
  Beta virt. eigenvalues --    1.65375   1.65778   1.65867   1.66510   1.66953
  Beta virt. eigenvalues --    1.67767   1.69475   1.70160   1.70462   1.70734
  Beta virt. eigenvalues --    1.71266   1.71831   1.72436   1.72882   1.73923
  Beta virt. eigenvalues --    1.74044   1.74591   1.75194   1.76155   1.76368
  Beta virt. eigenvalues --    1.77344   1.78133   1.78496   1.79127   1.80322
  Beta virt. eigenvalues --    1.81137   1.81419   1.81562   1.81638   1.82415
  Beta virt. eigenvalues --    1.83051   1.84011   1.84176   1.84980   1.85750
  Beta virt. eigenvalues --    1.86050   1.86689   1.87122   1.87632   1.88049
  Beta virt. eigenvalues --    1.88844   1.89098   1.90238   1.91118   1.91767
  Beta virt. eigenvalues --    1.92765   1.93940   1.94712   1.95015   1.95925
  Beta virt. eigenvalues --    1.97383   1.97865   1.98392   1.99287   1.99714
  Beta virt. eigenvalues --    2.00388   2.01061   2.01092   2.02161   2.02768
  Beta virt. eigenvalues --    2.03132   2.03387   2.03905   2.04710   2.04809
  Beta virt. eigenvalues --    2.06324   2.07247   2.08040   2.08358   2.09276
  Beta virt. eigenvalues --    2.09793   2.10647   2.11306   2.12096   2.12154
  Beta virt. eigenvalues --    2.12639   2.12949   2.13620   2.14222   2.15107
  Beta virt. eigenvalues --    2.15174   2.15698   2.15993   2.16486   2.17575
  Beta virt. eigenvalues --    2.17781   2.18642   2.19293   2.19881   2.20081
  Beta virt. eigenvalues --    2.21589   2.22217   2.22634   2.23680   2.24683
  Beta virt. eigenvalues --    2.25018   2.27212   2.27572   2.27957   2.28770
  Beta virt. eigenvalues --    2.29395   2.29451   2.30972   2.31320   2.31971
  Beta virt. eigenvalues --    2.33225   2.34640   2.36972   2.37927   2.38609
  Beta virt. eigenvalues --    2.40198   2.44088   2.44682   2.45358   2.47394
  Beta virt. eigenvalues --    2.48637   2.49686   2.49820   2.50127   2.50618
  Beta virt. eigenvalues --    2.51434   2.52095   2.53487   2.53601   2.55296
  Beta virt. eigenvalues --    2.56029   2.56253   2.57195   2.57328   2.59365
  Beta virt. eigenvalues --    2.59802   2.60190   2.60788   2.61226   2.61482
  Beta virt. eigenvalues --    2.61965   2.62665   2.63316   2.63758   2.64905
  Beta virt. eigenvalues --    2.65152   2.66504   2.67615   2.69908   2.69994
  Beta virt. eigenvalues --    2.70984   2.71736   2.74064   2.75129   2.75947
  Beta virt. eigenvalues --    2.76305   2.76666   2.77605   2.78190   2.78704
  Beta virt. eigenvalues --    2.80263   2.80541   2.80829   2.81726   2.82410
  Beta virt. eigenvalues --    2.83601   2.83665   2.83707   2.84647   2.85024
  Beta virt. eigenvalues --    2.85762   2.86462   2.88439   2.88792   2.89689
  Beta virt. eigenvalues --    2.91187   2.91334   2.93212   2.94099   2.95112
  Beta virt. eigenvalues --    2.95556   2.96280   2.96913   2.97516   2.98596
  Beta virt. eigenvalues --    2.99054   3.00181   3.01260   3.01752   3.01993
  Beta virt. eigenvalues --    3.02582   3.03069   3.04345   3.04874   3.05183
  Beta virt. eigenvalues --    3.05589   3.06704   3.07841   3.08207   3.08316
  Beta virt. eigenvalues --    3.09109   3.11215   3.11693   3.13409   3.15134
  Beta virt. eigenvalues --    3.15939   3.16511   3.17810   3.18049   3.20060
  Beta virt. eigenvalues --    3.20812   3.22913   3.23305   3.25644   3.26279
  Beta virt. eigenvalues --    3.26737   3.27305   3.29012   3.30448   3.31172
  Beta virt. eigenvalues --    3.31895   3.32338   3.33076   3.34230   3.37464
  Beta virt. eigenvalues --    3.38473   3.39552   3.40130   3.41699   3.42285
  Beta virt. eigenvalues --    3.45590   3.46716   3.47244   3.47407   3.47527
  Beta virt. eigenvalues --    3.49173   3.49871   3.50894   3.52545   3.54124
  Beta virt. eigenvalues --    3.54875   3.55648   3.57201   3.57946   3.59489
  Beta virt. eigenvalues --    3.61625   3.62657   3.63557   3.67219   3.70451
  Beta virt. eigenvalues --    3.71891   3.72794   3.74299   3.77103   3.77707
  Beta virt. eigenvalues --    3.79315   3.81492   3.82512   3.83008   3.83218
  Beta virt. eigenvalues --    3.83344   3.84229   3.84906   3.89629   3.92368
  Beta virt. eigenvalues --    3.94111   3.96342   3.97412   4.02716   4.04145
  Beta virt. eigenvalues --    4.04901   4.05361   4.06056   4.09191   4.12089
  Beta virt. eigenvalues --    4.13932   4.16442   4.17099   4.18593   4.22332
  Beta virt. eigenvalues --    4.25515   4.28822   4.33013   4.37541   4.39050
  Beta virt. eigenvalues --    4.48321   4.50235   4.53195   4.62359   4.77060
  Beta virt. eigenvalues --    4.97526   4.98878   5.00019   5.02202   5.09872
  Beta virt. eigenvalues --    5.11418   5.16774   5.18171   5.18621   5.21719
  Beta virt. eigenvalues --    5.23786   5.25342   5.37475   5.39336   5.41293
  Beta virt. eigenvalues --    5.43480   5.50882   5.52407   5.84993   5.88167
  Beta virt. eigenvalues --    5.88678   5.92554   5.94535   5.97823   8.10439
  Beta virt. eigenvalues --    8.14870  17.37353  17.43854  17.57925  17.60947
  Beta virt. eigenvalues --   17.67533  17.72542  23.60880  23.67277  23.81814
  Beta virt. eigenvalues --   23.90203  23.93299  23.95422  23.96688  23.97385
  Beta virt. eigenvalues --   23.98195  23.99356  23.99847  24.00379  24.01489
  Beta virt. eigenvalues --   24.04894  24.05440  24.07909  24.09131  24.10834
  Beta virt. eigenvalues --   24.11272  24.12524  24.13538  24.18587  24.22424
  Beta virt. eigenvalues --   24.23128  24.26666  24.27574  35.67916  35.70742
  Beta virt. eigenvalues --   50.04421  50.06007  50.14865  50.16596  50.18677
  Beta virt. eigenvalues --   50.20246 189.27683 189.32742
          Condensed to atoms (all electrons):
          Atomic-Atomic Spin Densities.
 Mulliken charges and spin densities:
               1          2
     1  C    0.314885   0.020621
     2  C   -0.107605   0.126179
     3  C    0.093654  -0.037315
     4  C    0.185623   0.098560
     5  C    0.176179   0.023385
     6  C   -0.723508   0.038239
     7  C    0.211562  -0.034001
     8  C    0.201295   0.135183
     9  C    0.637813   0.092087
    10  C   -0.478021   0.025616
    11  C    0.293126   0.024443
    12  C    0.089330   0.104429
    13  C   -0.521323   0.058037
    14  C   -0.624920   0.071614
    15  H    0.128282  -0.004896
    16  H    0.131363  -0.004070
    17  H    0.153539  -0.002009
    18  N   -0.144903  -0.020873
    19  N   -0.139710  -0.020059
    20  O   -0.347125   0.070686
    21  O   -0.338980   0.064024
    22  O   -0.346424   0.066683
    23  O   -0.218430   0.080450
    24  C   -0.185770   0.001330
    25  H    0.158230  -0.000973
    26  H    0.152555  -0.000905
    27  H    0.169182  -0.000343
    28  C   -0.190228   0.001159
    29  H    0.154820  -0.000862
    30  H    0.153931  -0.000868
    31  H    0.168872  -0.000316
    32  C    0.073663  -0.035945
    33  C   -0.297773   0.020834
    34  S   -0.475131   0.010970
    35  C   -0.346998  -0.006519
    36  H    0.106708  -0.001594
    37  C    0.576749   0.029195
    38  O   -0.123250  -0.000729
    39  C    0.867119  -0.008919
    40  C   -0.242264   0.000326
    41  C   -0.023664   0.008898
    42  S   -0.272399   0.001417
    43  H    0.148372  -0.000012
    44  H    0.139230  -0.000118
    45  H    0.157285  -0.000005
    46  C   -0.507702  -0.005449
    47  O   -0.118904   0.001567
    48  C   -0.309618   0.010876
    49  H    0.115120   0.000215
    50  C   -0.241551   0.000142
    51  H    0.139294  -0.000675
    52  H    0.132214   0.000142
    53  H    0.163134   0.000016
    54  H    0.133073   0.000131
 Sum of Mulliken charges =  -1.00000   1.00000
 Mulliken charges and spin densities with hydrogens summed into heavy atoms:
               1          2
     1  C    0.314885   0.020621
     2  C   -0.107605   0.126179
     3  C    0.093654  -0.037315
[...]
    10   Atom       -0.005499      0.000931      0.020942
    11   Atom        0.004251      0.002261      0.013485
    12   Atom        0.000435      0.013429      0.042254
    13   Atom       -0.001579      0.008499      0.023610
    14   Atom        0.002198      0.008974      0.023400
    15   Atom       -0.003935      0.000219      0.000359
    16   Atom        0.004317     -0.001049     -0.001754
    17   Atom        0.003005     -0.000524     -0.001625
    18   Atom       -0.001175     -0.002417     -0.018455
    19   Atom       -0.001587     -0.005477     -0.015183
    20   Atom        0.006547      0.038336      0.094145
    21   Atom        0.006214      0.032179      0.087037
    22   Atom        0.002806      0.019014      0.092897
    23   Atom        0.001446      0.006092      0.144069
    24   Atom        0.000106     -0.000150     -0.000589
    25   Atom       -0.000054     -0.000093     -0.001357
    26   Atom        0.000050      0.000009      0.000037
    27   Atom       -0.001322      0.000221     -0.000586
    28   Atom       -0.000131     -0.000175     -0.000512
    29   Atom       -0.000724      0.000508     -0.000894
    30   Atom       -0.000840     -0.000432      0.000150
    31   Atom       -0.000075     -0.000061     -0.000758
    32   Atom       -0.001163     -0.001222      0.008268
    33   Atom       -0.007746      0.001240     -0.008503
    34   Atom        0.018451     -0.001078     -0.004685
    35   Atom        0.000800     -0.000751      0.005601
    36   Atom       -0.000155     -0.000984      0.000603
    37   Atom        0.002580     -0.003877     -0.012850
    38   Atom        0.000048     -0.001704      0.003865
    39   Atom        0.000413      0.000409      0.003585
    40   Atom       -0.000231     -0.000631      0.000012
    41   Atom        0.000078      0.000219     -0.005899
    42   Atom       -0.003731      0.001068     -0.004121
    43   Atom       -0.000174     -0.000339      0.000104
    44   Atom       -0.000238     -0.000625      0.000185
    45   Atom       -0.000474     -0.000691      0.000268
    46   Atom        0.000137     -0.000137      0.001876
    47   Atom       -0.000473      0.001158     -0.004474
    48   Atom       -0.000538      0.000615     -0.006050
    49   Atom        0.000040      0.000009      0.000068
    50   Atom        0.000216      0.000232      0.000208
    51   Atom       -0.000075     -0.000156     -0.000259
    52   Atom        0.000142      0.000220      0.000121
    53   Atom        0.000204      0.000244      0.000200
    54   Atom        0.000208      0.000147      0.000128
 --------------------------------------------------------


 ---------------------------------------------------------------------------------
              Anisotropic Spin Dipole Couplings in Principal Axis System
 ---------------------------------------------------------------------------------

       Atom             a.u.   MegaHertz   Gauss  10(-4) cm-1        Axes

              Baa    -0.0282    -3.782    -1.349    -1.261  0.9415 -0.3369  0.0008
     1 C(13)  Bbb    -0.0166    -2.233    -0.797    -0.745  0.3283  0.9171 -0.2261
              Bcc     0.0448     6.014     2.146     2.006  0.0755  0.2131  0.9741
 
              Baa    -0.0794   -10.658    -3.803    -3.555  0.7219  0.6631 -0.1980
     2 C(13)  Bbb    -0.0744    -9.986    -3.563    -3.331 -0.6871  0.7208 -0.0911
              Bcc     0.1538    20.644     7.366     6.886  0.0823  0.2018  0.9759
 
              Baa    -0.0401    -5.385    -1.921    -1.796  0.0777  0.2005  0.9766
     3 C(13)  Bbb     0.0180     2.409     0.860     0.804 -0.3687  0.9159 -0.1588
              Bcc     0.0222     2.976     1.062     0.993  0.9263  0.3477 -0.1451
 
              Baa    -0.0696    -9.335    -3.331    -3.114  0.9747 -0.2220 -0.0275
     4 C(13)  Bbb    -0.0646    -8.669    -3.093    -2.892  0.2108  0.9528 -0.2185
              Bcc     0.1342    18.005     6.424     6.006  0.0747  0.2072  0.9754
 
              Baa    -0.0285    -3.820    -1.363    -1.274  0.5034  0.8383 -0.2093
     5 C(13)  Bbb    -0.0180    -2.411    -0.860    -0.804  0.8608 -0.5075  0.0377
              Bcc     0.0464     6.231     2.224     2.079  0.0746  0.1992  0.9771
 
              Baa    -0.0296    -3.970    -1.417    -1.324  0.7144  0.6768 -0.1775
     6 C(13)  Bbb    -0.0214    -2.865    -1.022    -0.956 -0.6911  0.7222 -0.0281
              Bcc     0.0509     6.835     2.439     2.280  0.1092  0.1427  0.9837
 
              Baa    -0.0394    -5.286    -1.886    -1.763  0.0867  0.2170  0.9723
     7 C(13)  Bbb     0.0172     2.310     0.824     0.771 -0.2286  0.9543 -0.1926
              Bcc     0.0222     2.975     1.062     0.992  0.9697  0.2055 -0.1323
 
              Baa    -0.0811   -10.887    -3.885    -3.631  0.9849 -0.1647 -0.0535
     8 C(13)  Bbb    -0.0761   -10.213    -3.644    -3.407  0.1436  0.9493 -0.2798
              Bcc     0.1572    21.099     7.529     7.038  0.0968  0.2679  0.9586
 
              Baa    -0.0515    -6.917    -2.468    -2.307  0.9818 -0.1544 -0.1109
     9 C(13)  Bbb    -0.0456    -6.113    -2.181    -2.039  0.1250  0.9638 -0.2355
              Bcc     0.0971    13.030     4.649     4.346  0.1432  0.2174  0.9655
 
              Baa    -0.0294    -3.942    -1.407    -1.315  0.5493  0.7980 -0.2481
    10 C(13)  Bbb    -0.0173    -2.328    -0.831    -0.776  0.8355 -0.5204  0.1763
              Bcc     0.0467     6.270     2.237     2.091 -0.0116  0.3041  0.9526
 
              Baa    -0.0281    -3.772    -1.346    -1.258  0.9303 -0.3646  0.0399
    11 C(13)  Bbb    -0.0173    -2.325    -0.830    -0.776  0.3642  0.9053 -0.2185
              Bcc     0.0454     6.097     2.176     2.034  0.0435  0.2178  0.9750
 
              Baa    -0.0711    -9.543    -3.405    -3.183  0.6241  0.7545 -0.2028
    12 C(13)  Bbb    -0.0662    -8.885    -3.170    -2.964  0.7786 -0.6221  0.0818
              Bcc     0.1373    18.428     6.576     6.147  0.0645  0.2090  0.9758
 
              Baa    -0.0404    -5.421    -1.934    -1.808  0.7405  0.6423 -0.1979
    13 C(13)  Bbb    -0.0336    -4.503    -1.607    -1.502 -0.6683  0.7350 -0.1149
              Bcc     0.0740     9.924     3.541     3.310  0.0716  0.2173  0.9735
 
              Baa    -0.0426    -5.716    -2.040    -1.907  0.9962 -0.0573 -0.0657
    14 C(13)  Bbb    -0.0362    -4.859    -1.734    -1.621  0.0421  0.9763 -0.2125
              Bcc     0.0788    10.575     3.773     3.527  0.0763  0.2089  0.9750
 
              Baa    -0.0044    -2.359    -0.842    -0.787  0.3685  0.9022 -0.2243
    15 H(1)   Bbb    -0.0025    -1.347    -0.481    -0.449  0.0781  0.2103  0.9745
              Bcc     0.0069     3.706     1.322     1.236  0.9263 -0.3766  0.0070
 
              Baa    -0.0041    -2.161    -0.771    -0.721  0.8801 -0.4722  0.0495
    16 H(1)   Bbb    -0.0026    -1.391    -0.496    -0.464  0.0646  0.2224  0.9728
              Bcc     0.0067     3.552     1.267     1.185  0.4703  0.8530 -0.2263
 
              Baa    -0.0030    -1.583    -0.565    -0.528 -0.4489  0.3979  0.8001
    17 H(1)   Bbb    -0.0025    -1.337    -0.477    -0.446  0.7923 -0.2368  0.5622
              Bcc     0.0055     2.920     1.042     0.974  0.4132  0.8864 -0.2090
 
              Baa    -0.0523    -2.019    -0.720    -0.673  0.0337  0.2414  0.9698
    18 N(14)  Bbb     0.0255     0.983     0.351     0.328  0.8843  0.4450 -0.1415
              Bcc     0.0268     1.036     0.369     0.345 -0.4658  0.8624 -0.1985
 
              Baa    -0.0507    -1.955    -0.697    -0.652  0.0756  0.2034  0.9762
    19 N(14)  Bbb     0.0246     0.949     0.338     0.316  0.9483  0.2880 -0.1334
              Bcc     0.0261     1.006     0.359     0.336 -0.3083  0.9358 -0.1711
 
              Baa    -0.1607    11.628     4.149     3.879  0.8336  0.5230 -0.1779
    20 O(17)  Bbb    -0.1577    11.413     4.072     3.807 -0.5464  0.8281 -0.1257
              Bcc     0.3184   -23.041    -8.222    -7.686  0.0815  0.2020  0.9760
 
              Baa    -0.1490    10.782     3.847     3.597  0.9882  0.1169 -0.0992
    21 O(17)  Bbb    -0.1457    10.541     3.761     3.516 -0.1342  0.9723 -0.1913
              Bcc     0.2947   -21.323    -7.609    -7.113  0.0741  0.2023  0.9765
 
              Baa    -0.1489    10.774     3.844     3.594  0.8666  0.4777 -0.1442
    22 O(17)  Bbb    -0.1457    10.544     3.762     3.517 -0.4971  0.8516 -0.1663
              Bcc     0.2946   -21.318    -7.607    -7.111  0.0433  0.2158  0.9755
 
              Baa    -0.1703    12.323     4.397     4.110  0.9856  0.1576 -0.0620
    23 O(17)  Bbb    -0.1677    12.132     4.329     4.047 -0.1689  0.9413 -0.2923
              Bcc     0.3380   -24.455    -8.726    -8.157  0.0123  0.2985  0.9543
 
              Baa    -0.0018    -0.244    -0.087    -0.081  0.0477  0.2110  0.9763
    24 C(13)  Bbb     0.0007     0.099     0.035     0.033  0.8976 -0.4379  0.0508
              Bcc     0.0011     0.145     0.052     0.048  0.4382  0.8739 -0.2103
 
              Baa    -0.0015    -0.812    -0.290    -0.271  0.0822  0.4735  0.8769
    25 H(1)   Bbb    -0.0002    -0.112    -0.040    -0.037  0.9966 -0.0378 -0.0731
              Bcc     0.0017     0.924     0.330     0.308 -0.0015  0.8800 -0.4750
 
              Baa    -0.0015    -0.803    -0.286    -0.268 -0.0065 -0.0112  0.9999
    26 H(1)   Bbb    -0.0002    -0.132    -0.047    -0.044  0.9997 -0.0249  0.0062
              Bcc     0.0018     0.935     0.333     0.312  0.0249  0.9996  0.0114
 
              Baa    -0.0016    -0.880    -0.314    -0.294  0.0421  0.2298  0.9723
    27 H(1)   Bbb    -0.0006    -0.301    -0.107    -0.100  0.7957  0.5809 -0.1717
              Bcc     0.0022     1.181     0.421     0.394 -0.6043  0.7809 -0.1584
 
              Baa    -0.0017    -0.234    -0.084    -0.078  0.0758  0.2020  0.9764
    28 C(13)  Bbb     0.0008     0.105     0.037     0.035  0.7260  0.6600 -0.1929
              Bcc     0.0010     0.130     0.046     0.043 -0.6835  0.7236 -0.0966
 
              Baa    -0.0014    -0.765    -0.273    -0.255 -0.1097  0.3666  0.9239
    29 H(1)   Bbb    -0.0002    -0.102    -0.036    -0.034  0.8028  0.5808 -0.1351
              Bcc     0.0016     0.868     0.310     0.289 -0.5861  0.7268 -0.3581
 
              Baa    -0.0014    -0.764    -0.273    -0.255  0.2591  0.0291  0.9654
    30 H(1)   Bbb    -0.0002    -0.106    -0.038    -0.035  0.7947  0.5616 -0.2302
              Bcc     0.0016     0.870     0.311     0.290 -0.5489  0.8269  0.1224
 
              Baa    -0.0016    -0.863    -0.308    -0.288  0.0754  0.2017  0.9765
    31 H(1)   Bbb    -0.0006    -0.332    -0.118    -0.111  0.9969  0.0058 -0.0781
              Bcc     0.0022     1.195     0.426     0.398 -0.0215  0.9794 -0.2007
 
              Baa    -0.0127    -1.700    -0.607    -0.567  0.0056 -0.6730  0.7396
    32 C(13)  Bbb     0.0034     0.457     0.163     0.153  0.3015  0.7064  0.6404
              Bcc     0.0093     1.243     0.443     0.415  0.9535 -0.2194 -0.2069
 
              Baa    -0.0105    -1.409    -0.503    -0.470  0.4817  0.4734  0.7375
    33 C(13)  Bbb    -0.0064    -0.862    -0.308    -0.288  0.8107  0.0789 -0.5802
              Bcc     0.0169     2.271     0.810     0.757 -0.3329  0.8773 -0.3457
 
              Baa    -0.0165    -0.676    -0.241    -0.226  0.8246 -0.4809 -0.2979
    34 S(33)  Bbb    -0.0121    -0.494    -0.176    -0.165  0.3156 -0.0459  0.9478
              Bcc     0.0285     1.171     0.418     0.390  0.4694  0.8756 -0.1139
 
              Baa    -0.0082    -1.099    -0.392    -0.367 -0.0840  0.7648 -0.6388
    35 C(13)  Bbb     0.0033     0.441     0.157     0.147  0.0392  0.6431  0.7648
              Bcc     0.0049     0.658     0.235     0.220  0.9957  0.0392 -0.0840
 
              Baa    -0.0011    -0.586    -0.209    -0.196  0.7004 -0.2548  0.6667
    36 H(1)   Bbb    -0.0002    -0.080    -0.029    -0.027  0.4748  0.8638 -0.1687
              Bcc     0.0012     0.667     0.238     0.222 -0.5329  0.4347  0.7259
 
              Baa    -0.0097    -1.304    -0.465    -0.435  0.2246  0.7335  0.6415
    37 C(13)  Bbb    -0.0078    -1.052    -0.376    -0.351  0.9567 -0.2910 -0.0022
              Bcc     0.0176     2.356     0.841     0.786 -0.1851 -0.6142  0.7671
 
              Baa    -0.0059     0.427     0.152     0.142  0.1308 -0.6814  0.7201
    38 O(17)  Bbb     0.0015    -0.105    -0.038    -0.035  0.4204  0.6959  0.5822
              Bcc     0.0044    -0.321    -0.115    -0.107  0.8979 -0.2266 -0.3775
 
              Baa    -0.0053    -0.713    -0.254    -0.238 -0.0046  0.7508 -0.6605
    39 C(13)  Bbb     0.0017     0.230     0.082     0.077 -0.3266  0.6232  0.7107
              Bcc     0.0036     0.483     0.172     0.161  0.9452  0.2189  0.2423
 
              Baa    -0.0006    -0.082    -0.029    -0.028  0.5817  0.2951  0.7580
    40 C(13)  Bbb    -0.0002    -0.026    -0.009    -0.009 -0.0140  0.9354 -0.3534
              Bcc     0.0008     0.108     0.039     0.036  0.8133 -0.1950 -0.5482
 
              Baa    -0.0044    -0.589    -0.210    -0.196 -0.2275  0.6031  0.7646
    41 C(13)  Bbb    -0.0034    -0.456    -0.163    -0.152  0.9738  0.1462  0.1744
              Bcc     0.0078     1.045     0.373     0.349 -0.0066  0.7842 -0.6205
 
              Baa    -0.0045    -0.186    -0.066    -0.062  0.5094  0.5987  0.6181
    42 S(33)  Bbb    -0.0025    -0.103    -0.037    -0.034  0.7584  0.0270 -0.6512
              Bcc     0.0070     0.289     0.103     0.096 -0.4066  0.8005 -0.4403
 
              Baa    -0.0003    -0.151    -0.054    -0.050  0.5437  0.0940  0.8340
    43 H(1)   Bbb    -0.0003    -0.134    -0.048    -0.045  0.1762  0.9588 -0.2230
              Bcc     0.0005     0.284     0.102     0.095  0.8206 -0.2682 -0.5047
 
              Baa    -0.0005    -0.255    -0.091    -0.085  0.7076  0.4078  0.5771
    44 H(1)   Bbb    -0.0004    -0.206    -0.073    -0.069 -0.1358  0.8799 -0.4554
              Bcc     0.0009     0.461     0.164     0.154  0.6935 -0.2439 -0.6780
 
              Baa    -0.0006    -0.331    -0.118    -0.110  0.6308  0.3037  0.7141
    45 H(1)   Bbb    -0.0005    -0.249    -0.089    -0.083  0.1079  0.8770 -0.4683
              Bcc     0.0011     0.580     0.207     0.194  0.7684 -0.3724 -0.5204
 
              Baa    -0.0027    -0.365    -0.130    -0.122 -0.0444  0.7580 -0.6507
    46 C(13)  Bbb     0.0011     0.146     0.052     0.049  0.0272  0.6520  0.7577
              Bcc     0.0016     0.219     0.078     0.073  0.9986  0.0160 -0.0495
 
              Baa    -0.0036     0.258     0.092     0.086 -0.6081  0.4722  0.6381
    47 O(17)  Bbb    -0.0024     0.177     0.063     0.059  0.7834  0.4869  0.3863
              Bcc     0.0060    -0.435    -0.155    -0.145 -0.1283  0.7348 -0.6660
 
              Baa    -0.0043    -0.573    -0.204    -0.191 -0.1307  0.6720  0.7290
    48 C(13)  Bbb    -0.0037    -0.490    -0.175    -0.164  0.9889  0.1406  0.0478
              Bcc     0.0079     1.063     0.379     0.355 -0.0704  0.7271 -0.6829
 
              Baa    -0.0002    -0.123    -0.044    -0.041 -0.0404  0.7144 -0.6985
    49 H(1)   Bbb    -0.0001    -0.052    -0.019    -0.017 -0.0816  0.6944  0.7149
              Bcc     0.0003     0.175     0.063     0.059  0.9958  0.0859  0.0302
 
              Baa    -0.0003    -0.041    -0.015    -0.014 -0.0588 -0.6641  0.7453
    50 C(13)  Bbb    -0.0002    -0.022    -0.008    -0.007  0.6556 -0.5887 -0.4728
              Bcc     0.0005     0.063     0.023     0.021  0.7528  0.4609  0.4700
 
              Baa    -0.0006    -0.340    -0.121    -0.113  0.1199  0.6944  0.7095
    51 H(1)   Bbb    -0.0001    -0.055    -0.020    -0.018 -0.0662  0.7186 -0.6922
              Bcc     0.0007     0.395     0.141     0.132  0.9906 -0.0361 -0.1321
 
              Baa    -0.0002    -0.115    -0.041    -0.038  0.0067  0.8356 -0.5494
    52 H(1)   Bbb    -0.0002    -0.086    -0.031    -0.029 -0.6265  0.4317  0.6490
              Bcc     0.0004     0.200     0.072     0.067  0.7794  0.3398  0.5264
 
              Baa    -0.0003    -0.150    -0.054    -0.050 -0.1480 -0.6133  0.7758
    53 H(1)   Bbb    -0.0002    -0.093    -0.033    -0.031  0.6739 -0.6367 -0.3748
              Bcc     0.0005     0.243     0.087     0.081  0.7238  0.4674  0.5076
 
              Baa    -0.0002    -0.126    -0.045    -0.042 -0.1228 -0.4021  0.9073
    54 H(1)   Bbb    -0.0001    -0.075    -0.027    -0.025 -0.6160  0.7477  0.2480
              Bcc     0.0004     0.201     0.072     0.067  0.7781  0.5284  0.3395
 

 ---------------------------------------------------------------------------------

 Unable to Open any file for archive entry.
 1\1\GINC-CX3-2-6\FOpt\UB3LYP\6-311+G(d,p)\C26H18N2O6S2(1-,2)\NS5018\05
 -Oct-2021\0\\# opt=modredundant b3lyp/6-311+g(d,p)\\NDI_-65.pdb\\-1,2\
 C,-2.6453937944,-3.0311752424,-0.4088916613\C,-2.3064363546,-1.6237445
 746,-0.2260501956\C,-3.3273790762,-0.6539859351,-0.0940563346\C,-4.692
 0431058,-1.0251286304,-0.1348158984\C,-5.0731262738,-2.4238037473,-0.3
 175387951\C,-0.9624508917,-1.2301896453,-0.206971993\C,-2.9608615172,0
 .7217492934,0.090247371\C,-1.5864458012,1.0986636559,0.1307504263\C,-0
 .5797209101,0.0997119332,-0.0582771521\C,-1.2526587494,2.4942455749,0.
 4202301375\C,-3.6920162225,3.0852070968,0.447099998\C,-4.0000373809,1.
 6760541235,0.236505036\C,-5.3503909702,1.2776130474,0.1871112357\C,-5.
 6936468839,-0.0461530489,0.0044139916\H,-6.7286235377,-0.3617186153,-0
 .0319020753\H,-6.1062798901,2.0444084238,0.3005515138\H,-0.2098631429,
 -1.9950251803,-0.3501291679\N,-2.3282235561,3.4017679969,0.5333380974\
 N,-4.0153288736,-3.3464334501,-0.4419573743\O,-1.8149656252,-3.9330212
 07,-0.5337804161\O,-6.2435902517,-2.8076643782,-0.3634918042\O,-4.5514
 388387,3.9634246399,0.5575988205\O,-0.1124494471,2.931473185,0.5782687
 371\C,-1.9583375139,4.7925517769,0.8000224046\H,-1.4079773627,4.860122
 4642,1.7402212657\H,-1.3081655277,5.1649950622,0.0063582847\H,-2.87520
 35409,5.3726106227,0.8492395226\C,-4.3447425037,-4.7602899701,-0.62516
 05799\H,-3.925827549,-5.1223244585,-1.5659714263\H,-3.9110132075,-5.35
 18592513,0.1832187634\H,-5.427127344,-4.8498807219,-0.6279739945\C,0.8
 685068709,0.3887652726,-0.135899467\C,1.5553379764,1.1035292618,-1.081
 7204439\S,1.9615864684,-0.3560187636,0.9973300183\C,2.9578821169,1.075
 5537006,-0.8863282265\H,1.0567990759,1.6478049049,-1.8694645079\C,3.37
 70444374,0.325363885,0.2021803893\O,3.8886731359,1.6982020701,-1.67297
 76021\C,4.7242560985,0.1109536357,0.6668225585\C,3.4164971414,2.655366
 2989,-2.6113252617\C,5.1522363176,-0.6483831602,1.7468678583\S,6.12675
 56376,0.8373137282,-0.1123621516\H,4.3043733592,3.1074470334,-3.053105
 411\H,2.8236923886,2.1799371237,-3.4007226167\H,2.8151482992,3.4266889
 749,-2.1195411963\C,6.5614496795,-0.6489337603,1.9470555966\O,4.229571
 6327,-1.3080071229,2.5103431614\C,7.2166209259,0.1111134727,1.01826940
 69\H,7.0647083542,-1.1853443295,2.738990795\C,4.7021759859,-2.12000432
 71,3.5701828397\H,8.2779957659,0.2848198485,0.9316671722\H,5.237991908
 ,-1.5272384436,4.3213337965\H,3.8179050688,-2.5629980487,4.0266557242\
 H,5.3575569992,-2.9181320954,3.2015408304\\Version=ES64L-G16RevC.01\St
 ate=2-A\HF=-2359.4284688\S2=0.757907\S2-1=0.\S2A=0.750053\RMSD=3.397e-
 09\RMSF=2.943e-04\Dipole=4.4646808,0.2415555,0.2215526\Quadrupole=-37.
 5506788,-0.5828805,38.1335593,-4.4607296,1.2967637,-13.6214818\PG=C01 
 [X(C26H18N2O6S2)]\\@
 The archive entry for this job was punched.


 THE MOST BEAUTIFUL EXPERIENCE WE CAN HAVE IS THE MYSTERIOUS.
 IT IS THE FUNDAMENTAL EMOTION WHICH STANDS AT AT THE CRADLE 
 OF TRUE ART AND TRUE SCIENCE.

                                    -- ALBERT EINSTEIN
 Job cpu time:       2 days 14 hours  3 minutes 36.7 seconds.
 Elapsed time:       0 days  7 hours 48 minutes 28.9 seconds.
 File lengths (MBytes):  RWF=    893 Int=      0 D2E=      0 Chk=     80 Scr=      1
 Normal termination of Gaussian 16 at Tue Oct  5 06:10:42 2021.
