 Entering Gaussian System, Link 0=g16
 Input=NDI_-35.gjf
 Output=NDI_-35.log
 Initial command:
 /apps/gaussian/g16-c01-avx/g16/l1.exe "/tmp/pbs.4643761[140].pbs/Gau-1013905.inp" -scrdir="/tmp/pbs.4643761[140].pbs/"
 Entering Link 1 = /apps/gaussian/g16-c01-avx/g16/l1.exe PID=   1013906.
  
 Copyright (c) 1988-2019, Gaussian, Inc.  All Rights Reserved.
  
 This is part of the Gaussian(R) 16 program.  It is based on
 the Gaussian(R) 09 system (copyright 2009, Gaussian, Inc.),
 the Gaussian(R) 03 system (copyright 2003, Gaussian, Inc.),
 the Gaussian(R) 98 system (copyright 1998, Gaussian, Inc.),
 the Gaussian(R) 94 system (copyright 1995, Gaussian, Inc.),
 the Gaussian 92(TM) system (copyright 1992, Gaussian, Inc.),
 the Gaussian 90(TM) system (copyright 1990, Gaussian, Inc.),
 the Gaussian 88(TM) system (copyright 1988, Gaussian, Inc.),
 the Gaussian 86(TM) system (copyright 1986, Carnegie Mellon
 University), and the Gaussian 82(TM) system (copyright 1983,
 Carnegie Mellon University). Gaussian is a federally registered
 trademark of Gaussian, Inc.
  
 This software contains proprietary and confidential information,
 including trade secrets, belonging to Gaussian, Inc.
  
 This software is provided under written license and may be
 used, copied, transmitted, or stored only in accord with that
 written license.
  
 The following legend is applicable only to US Government
 contracts under FAR:
  
                    RESTRICTED RIGHTS LEGEND
  
 Use, reproduction and disclosure by the US Government is
 subject to restrictions as set forth in subparagraphs (a)
 and (c) of the Commercial Computer Software - Restricted
 Rights clause in FAR 52.227-19.
  
 Gaussian, Inc.
 340 Quinnipiac St., Bldg. 40, Wallingford CT 06492
  
  
 ---------------------------------------------------------------
 Warning -- This program may not be used in any manner that
 competes with the business of Gaussian, Inc. or will provide
 assistance to any competitor of Gaussian, Inc.  The licensee
 of this program is prohibited from giving any competitor of
 Gaussian, Inc. access to this program.  By using this program,
 the user acknowledges that Gaussian, Inc. is engaged in the
 business of creating and licensing software in the field of
 computational chemistry and represents and warrants to the
 licensee that it is not a competitor of Gaussian, Inc. and that
 it will not use this program in any manner prohibited above.
 ---------------------------------------------------------------
  

 Cite this work as:
 Gaussian 16, Revision C.01,
 M. J. Frisch, G. W. Trucks, H. B. Schlegel, G. E. Scuseria, 
 M. A. Robb, J. R. Cheeseman, G. Scalmani, V. Barone, 
 G. A. Petersson, H. Nakatsuji, X. Li, M. Caricato, A. V. Marenich, 
 J. Bloino, B. G. Janesko, R. Gomperts, B. Mennucci, H. P. Hratchian, 
 J. V. Ortiz, A. F. Izmaylov, J. L. Sonnenberg, D. Williams-Young, 
 F. Ding, F. Lipparini, F. Egidi, J. Goings, B. Peng, A. Petrone, 
 T. Henderson, D. Ranasinghe, V. G. Zakrzewski, J. Gao, N. Rega, 
 G. Zheng, W. Liang, M. Hada, M. Ehara, K. Toyota, R. Fukuda, 
 J. Hasegawa, M. Ishida, T. Nakajima, Y. Honda, O. Kitao, H. Nakai, 
 T. Vreven, K. Throssell, J. A. Montgomery, Jr., J. E. Peralta, 
 F. Ogliaro, M. J. Bearpark, J. J. Heyd, E. N. Brothers, K. N. Kudin, 
 V. N. Staroverov, T. A. Keith, R. Kobayashi, J. Normand, 
 K. Raghavachari, A. P. Rendell, J. C. Burant, S. S. Iyengar, 
 J. Tomasi, M. Cossi, J. M. Millam, M. Klene, C. Adamo, R. Cammi, 
 J. W. Ochterski, R. L. Martin, K. Morokuma, O. Farkas, 
 J. B. Foresman, and D. J. Fox, Gaussian, Inc., Wallingford CT, 2019.
 
 ******************************************
 Gaussian 16:  ES64L-G16RevC.01  3-Jul-2019
                 4-Oct-2021 
 ******************************************
 %mem=10GB
 %nprocshared=8
 Will use up to    8 processors via shared memory.
 -------------------------------------
 # opt=modredundant b3lyp/6-311+g(d,p)
 -------------------------------------
 1/18=120,19=15,26=3,38=1/1,3;
 2/9=110,12=2,17=6,18=5,40=1/2;
 3/5=4,6=6,7=111,11=2,25=1,30=1,71=1,74=-5/1,2,3;
 4//1;
 5/5=2,38=5/2;
 6/7=2,8=2,9=2,10=2,28=1/1;
 7//1,2,3,16;
 1/18=20,19=15,26=3/3(2);
 2/9=110/2;
 99//99;
 2/9=110/2;
 3/5=4,6=6,7=111,11=2,25=1,30=1,71=1,74=-5/1,2,3;
 4/5=5,16=3,69=1/1;
 5/5=2,38=5/2;
 7//1,2,3,16;
 1/18=20,19=15,26=3/3(-5);
 2/9=110/2;
 6/7=2,8=2,9=2,10=2,19=2,28=1/1;
 99/9=1/99;
 -----------
 NDI_-35.pdb
 -----------
 Symbolic Z-matrix:
 Charge = -1 Multiplicity = 2
 C                    -2.563    -2.994    -0.409 
 C                    -2.257    -1.551    -0.224 
 C                    -3.301    -0.607    -0.083 
 C                    -4.65     -1.024    -0.115 
 C                    -4.992    -2.459    -0.304 
 C                    -0.949    -1.137    -0.215 
 C                    -2.962     0.764     0.102 
 C                    -1.595     1.188     0.123 
 C                    -0.561     0.232    -0.072 
 C                    -1.328     2.616     0.446 
 C                    -3.777     3.115     0.508 
 C                    -4.035     1.679     0.268 
 C                    -5.356     1.252     0.23 
 C                    -5.672    -0.098     0.036 
 H                    -6.699    -0.442     0.008 
 H                    -6.133     1.997     0.361 
 H                    -0.19     -1.895    -0.369 
 N                    -2.432     3.476     0.608 
 N                    -3.916    -3.353    -0.438 
 O                    -1.695    -3.847    -0.532 
 O                    -6.149    -2.85     -0.34 
 O                    -4.676     3.938     0.629 
 O                    -0.212     3.097     0.596 
 C                    -2.111     4.875     0.912 
 H                    -1.54      4.931     1.84 
 H                    -1.5       5.299     0.111 
 H                    -3.05      5.414     1.003 
 C                    -4.206    -4.779    -0.625 
 H                    -3.759    -5.126    -1.559 
 H                    -3.775    -5.355     0.196 
 H                    -5.286    -4.897    -0.649 
 C                     0.876     0.482    -0.178 
 C                     1.571     1.537    -0.737 
 S                     1.998    -0.78      0.333 
 C                     2.967     1.346    -0.752 
 H                     1.085     2.422    -1.114 
 C                     3.391     0.135    -0.196 
 O                     3.896     2.21     -1.242 
 C                     4.739    -0.329    -0.028 
 C                     3.443     3.491    -1.668 
 C                     5.159    -1.547     0.504 
 S                     6.148     0.621    -0.494 
 H                     4.337     4.049    -1.944 
 H                     2.783     3.409    -2.541 
 H                     2.915     4.014    -0.861 
 C                     6.573    -1.712     0.537 
 O                     4.23     -2.439     0.934 
 C                     7.227    -0.621     0.03 
 H                     7.078    -2.59      0.915 
 C                     4.688    -3.688     1.441 
 H                     8.295    -0.481    -0.066 
 H                     5.314    -3.551     2.331 
 H                     3.794    -4.249     1.711 
 H                     5.251    -4.243     0.681 
 
 The following ModRedundant input section has been read:
 D       8       9      32      33 F                                           
 

 GradGradGradGradGradGradGradGradGradGradGradGradGradGradGradGradGradGrad
 Berny optimization.
 Initialization pass.
                           ----------------------------
                           !    Initial Parameters    !
                           ! (Angstroms and Degrees)  !
 --------------------------                            --------------------------
 ! Name  Definition              Value          Derivative Info.                !
 --------------------------------------------------------------------------------
 ! R1    R(1,2)                  1.4866         estimate D2E/DX2                !
 ! R2    R(1,19)                 1.4001         estimate D2E/DX2                !
 ! R3    R(1,20)                 1.2232         estimate D2E/DX2                !
 ! R4    R(2,3)                  1.4146         estimate D2E/DX2                !
 ! R5    R(2,6)                  1.372          estimate D2E/DX2                !
 ! R6    R(3,4)                  1.4123         estimate D2E/DX2                !
 ! R7    R(3,7)                  1.4244         estimate D2E/DX2                !
 ! R8    R(4,5)                  1.4872         estimate D2E/DX2                !
 ! R9    R(4,14)                 1.3874         estimate D2E/DX2                !
 ! R10   R(5,19)                 1.4053         estimate D2E/DX2                !
 ! R11   R(5,21)                 1.2218         estimate D2E/DX2                !
 ! R12   R(6,9)                  1.4301         estimate D2E/DX2                !
 ! R13   R(6,17)                 1.0837         estimate D2E/DX2                !
 ! R14   R(7,8)                  1.4314         estimate D2E/DX2                !
 ! R15   R(7,12)                 1.4199         estimate D2E/DX2                !
 ! R16   R(8,9)                  1.4217         estimate D2E/DX2                !
 ! R17   R(8,10)                 1.4882         estimate D2E/DX2                !
 ! R18   R(9,32)                 1.4624         estimate D2E/DX2                !
 ! R19   R(10,18)                1.4088         estimate D2E/DX2                !
 ! R20   R(10,23)                1.2245         estimate D2E/DX2                !
 ! R21   R(11,12)                1.4786         estimate D2E/DX2                !
 ! R22   R(11,18)                1.3962         estimate D2E/DX2                !
 ! R23   R(11,22)                1.2248         estimate D2E/DX2                !
 ! R24   R(12,13)                1.3888         estimate D2E/DX2                !
 ! R25   R(13,14)                1.4            estimate D2E/DX2                !
 ! R26   R(13,16)                1.0844         estimate D2E/DX2                !
 ! R27   R(14,15)                1.0834         estimate D2E/DX2                !
 ! R28   R(18,24)                1.4672         estimate D2E/DX2                !
 ! R29   R(19,28)                1.4672         estimate D2E/DX2                !
 ! R30   R(24,25)                1.091          estimate D2E/DX2                !
 ! R31   R(24,26)                1.093          estimate D2E/DX2                !
 ! R32   R(24,27)                1.0865         estimate D2E/DX2                !
 ! R33   R(28,29)                1.0921         estimate D2E/DX2                !
 ! R34   R(28,30)                1.0916         estimate D2E/DX2                !
 ! R35   R(28,31)                1.0867         estimate D2E/DX2                !
 ! R36   R(32,33)                1.3815         estimate D2E/DX2                !
 ! R37   R(32,34)                1.7643         estimate D2E/DX2                !
 ! R38   R(33,35)                1.4091         estimate D2E/DX2                !
 ! R39   R(33,36)                1.0778         estimate D2E/DX2                !
 ! R40   R(34,37)                1.7486         estimate D2E/DX2                !
 ! R41   R(35,37)                1.3984         estimate D2E/DX2                !
 ! R42   R(35,38)                1.36           estimate D2E/DX2                !
 ! R43   R(37,39)                1.4355         estimate D2E/DX2                !
 ! R44   R(38,40)                1.424          estimate D2E/DX2                !
 ! R45   R(39,41)                1.3939         estimate D2E/DX2                !
 ! R46   R(39,42)                1.7621         estimate D2E/DX2                !
 ! R47   R(40,43)                1.0894         estimate D2E/DX2                !
 ! R48   R(40,44)                1.0975         estimate D2E/DX2                !
 ! R49   R(40,45)                1.0971         estimate D2E/DX2                !
 ! R50   R(41,46)                1.424          estimate D2E/DX2                !
 ! R51   R(41,47)                1.3578         estimate D2E/DX2                !
 ! R52   R(42,48)                1.7267         estimate D2E/DX2                !
 ! R53   R(46,48)                1.3693         estimate D2E/DX2                !
 ! R54   R(46,49)                1.0811         estimate D2E/DX2                !
 ! R55   R(47,50)                1.4237         estimate D2E/DX2                !
 ! R56   R(48,51)                1.0814         estimate D2E/DX2                !
 ! R57   R(50,52)                1.0967         estimate D2E/DX2                !
 ! R58   R(50,53)                1.0894         estimate D2E/DX2                !
 ! R59   R(50,54)                1.0966         estimate D2E/DX2                !
 ! A1    A(2,1,19)             116.767          estimate D2E/DX2                !
 ! A2    A(2,1,20)             122.9113         estimate D2E/DX2                !
 ! A3    A(19,1,20)            120.3217         estimate D2E/DX2                !
 ! A4    A(1,2,3)              120.5473         estimate D2E/DX2                !
 ! A5    A(1,2,6)              119.3369         estimate D2E/DX2                !
 ! A6    A(3,2,6)              120.1056         estimate D2E/DX2                !
 ! A7    A(2,3,4)              120.3743         estimate D2E/DX2                !
 ! A8    A(2,3,7)              118.662          estimate D2E/DX2                !
 ! A9    A(4,3,7)              120.9617         estimate D2E/DX2                !
 ! A10   A(3,4,5)              120.4909         estimate D2E/DX2                !
 ! A11   A(3,4,14)             120.2702         estimate D2E/DX2                !
 ! A12   A(5,4,14)             119.2382         estimate D2E/DX2                !
 ! A13   A(4,5,19)             116.7341         estimate D2E/DX2                !
 ! A14   A(4,5,21)             122.024          estimate D2E/DX2                !
 ! A15   A(19,5,21)            121.2418         estimate D2E/DX2                !
 ! A16   A(2,6,9)              123.2421         estimate D2E/DX2                !
 ! A17   A(2,6,17)             117.1119         estimate D2E/DX2                !
 ! A18   A(9,6,17)             119.589          estimate D2E/DX2                !
 ! A19   A(3,7,8)              120.9519         estimate D2E/DX2                !
 ! A20   A(3,7,12)             117.1037         estimate D2E/DX2                !
 ! A21   A(8,7,12)             121.944          estimate D2E/DX2                !
 ! A22   A(7,8,9)              119.5639         estimate D2E/DX2                !
 ! A23   A(7,8,10)             117.3064         estimate D2E/DX2                !
 ! A24   A(9,8,10)             122.9922         estimate D2E/DX2                !
 ! A25   A(6,9,8)              117.3944         estimate D2E/DX2                !
 ! A26   A(6,9,32)             115.0236         estimate D2E/DX2                !
 ! A27   A(8,9,32)             127.5648         estimate D2E/DX2                !
 ! A28   A(8,10,18)            118.042          estimate D2E/DX2                !
 ! A29   A(8,10,23)            124.5436         estimate D2E/DX2                !
 ! A30   A(18,10,23)           117.4097         estimate D2E/DX2                !
 ! A31   A(12,11,18)           115.5202         estimate D2E/DX2                !
 ! A32   A(12,11,22)           122.7205         estimate D2E/DX2                !
 ! A33   A(18,11,22)           121.7534         estimate D2E/DX2                !
 ! A34   A(7,12,11)            120.8614         estimate D2E/DX2                !
 ! A35   A(7,12,13)            121.162          estimate D2E/DX2                !
 ! A36   A(11,12,13)           117.9699         estimate D2E/DX2                !
 ! A37   A(12,13,14)           120.9948         estimate D2E/DX2                !
 ! A38   A(12,13,16)           117.8401         estimate D2E/DX2                !
 ! A39   A(14,13,16)           121.1642         estimate D2E/DX2                !
 ! A40   A(4,14,13)            119.5003         estimate D2E/DX2                !
 ! A41   A(4,14,15)            118.9169         estimate D2E/DX2                !
 ! A42   A(13,14,15)           121.5811         estimate D2E/DX2                !
 ! A43   A(10,18,11)           126.0753         estimate D2E/DX2                !
 ! A44   A(10,18,24)           115.7508         estimate D2E/DX2                !
 ! A45   A(11,18,24)           118.1737         estimate D2E/DX2                !
 ! A46   A(1,19,5)             125.0856         estimate D2E/DX2                !
 ! A47   A(1,19,28)            116.2868         estimate D2E/DX2                !
 ! A48   A(5,19,28)            118.6276         estimate D2E/DX2                !
 ! A49   A(18,24,25)           109.8574         estimate D2E/DX2                !
 ! A50   A(18,24,26)           109.8979         estimate D2E/DX2                !
 ! A51   A(18,24,27)           107.5355         estimate D2E/DX2                !
 ! A52   A(25,24,26)           108.1108         estimate D2E/DX2                !
 ! A53   A(25,24,27)           110.8301         estimate D2E/DX2                !
 ! A54   A(26,24,27)           110.6124         estimate D2E/DX2                !
 ! A55   A(19,28,29)           109.6906         estimate D2E/DX2                !
 ! A56   A(19,28,30)           109.8136         estimate D2E/DX2                !
 ! A57   A(19,28,31)           107.7461         estimate D2E/DX2                !
 ! A58   A(29,28,30)           108.2991         estimate D2E/DX2                !
 ! A59   A(29,28,31)           110.6959         estimate D2E/DX2                !
 ! A60   A(30,28,31)           110.5924         estimate D2E/DX2                !
 ! A61   A(9,32,33)            130.8594         estimate D2E/DX2                !
 ! A62   A(9,32,34)            118.7915         estimate D2E/DX2                !
 ! A63   A(33,32,34)           110.0914         estimate D2E/DX2                !
 ! A64   A(32,33,35)           113.5281         estimate D2E/DX2                !
 ! A65   A(32,33,36)           122.8043         estimate D2E/DX2                !
 ! A66   A(35,33,36)           123.6648         estimate D2E/DX2                !
 ! A67   A(32,34,37)            92.562          estimate D2E/DX2                !
 ! A68   A(33,35,37)           114.428          estimate D2E/DX2                !
 ! A69   A(33,35,38)           126.4742         estimate D2E/DX2                !
 ! A70   A(37,35,38)           119.0978         estimate D2E/DX2                !
 ! A71   A(34,37,35)           109.3844         estimate D2E/DX2                !
 ! A72   A(34,37,39)           122.9254         estimate D2E/DX2                !
 ! A73   A(35,37,39)           127.6755         estimate D2E/DX2                !
 ! A74   A(35,38,40)           117.5155         estimate D2E/DX2                !
 ! A75   A(37,39,41)           127.5941         estimate D2E/DX2                !
 ! A76   A(37,39,42)           123.0705         estimate D2E/DX2                !
 ! A77   A(41,39,42)           109.3355         estimate D2E/DX2                !
 ! A78   A(38,40,43)           105.9927         estimate D2E/DX2                !
 ! A79   A(38,40,44)           111.2277         estimate D2E/DX2                !
 ! A80   A(38,40,45)           111.2174         estimate D2E/DX2                !
 ! A81   A(43,40,44)           109.2843         estimate D2E/DX2                !
 ! A82   A(43,40,45)           109.7028         estimate D2E/DX2                !
 ! A83   A(44,40,45)           109.3492         estimate D2E/DX2                !
 ! A84   A(39,41,46)           114.1607         estimate D2E/DX2                !
 ! A85   A(39,41,47)           119.259          estimate D2E/DX2                !
 ! A86   A(46,41,47)           126.5799         estimate D2E/DX2                !
 ! A87   A(39,42,48)            91.8124         estimate D2E/DX2                !
 ! A88   A(41,46,48)           111.923          estimate D2E/DX2                !
 ! A89   A(41,46,49)           124.4751         estimate D2E/DX2                !
 ! A90   A(48,46,49)           123.6019         estimate D2E/DX2                !
 ! A91   A(41,47,50)           117.9708         estimate D2E/DX2                !
 ! A92   A(42,48,46)           112.7683         estimate D2E/DX2                !
 ! A93   A(42,48,51)           119.8079         estimate D2E/DX2                !
 ! A94   A(46,48,51)           127.4236         estimate D2E/DX2                !
 ! A95   A(47,50,52)           111.2871         estimate D2E/DX2                !
 ! A96   A(47,50,53)           106.0238         estimate D2E/DX2                !
 ! A97   A(47,50,54)           111.2453         estimate D2E/DX2                !
 ! A98   A(52,50,53)           109.3666         estimate D2E/DX2                !
 ! A99   A(52,50,54)           109.4261         estimate D2E/DX2                !
 ! A100  A(53,50,54)           109.417          estimate D2E/DX2                !
 ! D1    D(19,1,2,3)             0.1578         estimate D2E/DX2                !
 ! D2    D(19,1,2,6)          -178.6792         estimate D2E/DX2                !
 ! D3    D(20,1,2,3)          -179.8231         estimate D2E/DX2                !
 ! D4    D(20,1,2,6)             1.3399         estimate D2E/DX2                !
 ! D5    D(2,1,19,5)            -0.124          estimate D2E/DX2                !
 ! D6    D(2,1,19,28)          179.8267         estimate D2E/DX2                !
 ! D7    D(20,1,19,5)          179.8575         estimate D2E/DX2                !
 ! D8    D(20,1,19,28)          -0.1919         estimate D2E/DX2                !
 ! D9    D(1,2,3,4)              0.0571         estimate D2E/DX2                !
 ! D10   D(1,2,3,7)            179.5453         estimate D2E/DX2                !
 ! D11   D(6,2,3,4)            178.8851         estimate D2E/DX2                !
 ! D12   D(6,2,3,7)             -1.6266         estimate D2E/DX2                !
 ! D13   D(1,2,6,9)            178.625          estimate D2E/DX2                !
 ! D14   D(1,2,6,17)             1.3881         estimate D2E/DX2                !
 ! D15   D(3,2,6,9)             -0.2173         estimate D2E/DX2                !
 ! D16   D(3,2,6,17)          -177.4541         estimate D2E/DX2                !
 ! D17   D(2,3,4,5)             -0.3074         estimate D2E/DX2                !
 ! D18   D(2,3,4,14)           179.3968         estimate D2E/DX2                !
 ! D19   D(7,3,4,5)           -179.7837         estimate D2E/DX2                !
 ! D20   D(7,3,4,14)            -0.0795         estimate D2E/DX2                !
 ! D21   D(2,3,7,8)              1.0523         estimate D2E/DX2                !
 ! D22   D(2,3,7,12)          -178.712          estimate D2E/DX2                !
 ! D23   D(4,3,7,8)           -179.4626         estimate D2E/DX2                !
 ! D24   D(4,3,7,12)             0.7731         estimate D2E/DX2                !
 ! D25   D(3,4,5,19)             0.3343         estimate D2E/DX2                !
 ! D26   D(3,4,5,21)          -179.7799         estimate D2E/DX2                !
 ! D27   D(14,4,5,19)         -179.3729         estimate D2E/DX2                !
 ! D28   D(14,4,5,21)            0.5129         estimate D2E/DX2                !
 ! D29   D(3,4,14,13)           -0.4559         estimate D2E/DX2                !
 ! D30   D(3,4,14,15)         -179.9937         estimate D2E/DX2                !
 ! D31   D(5,4,14,13)          179.252          estimate D2E/DX2                !
 ! D32   D(5,4,14,15)           -0.2858         estimate D2E/DX2                !
 ! D33   D(4,5,19,1)            -0.1141         estimate D2E/DX2                !
 ! D34   D(4,5,19,28)          179.9364         estimate D2E/DX2                !
 ! D35   D(21,5,19,1)          179.9992         estimate D2E/DX2                !
 ! D36   D(21,5,19,28)           0.0496         estimate D2E/DX2                !
 ! D37   D(2,6,9,8)              2.5984         estimate D2E/DX2                !
 ! D38   D(2,6,9,32)          -176.0103         estimate D2E/DX2                !
 ! D39   D(17,6,9,8)           179.77           estimate D2E/DX2                !
 ! D40   D(17,6,9,32)            1.1613         estimate D2E/DX2                !
 ! D41   D(3,7,8,9)              1.3551         estimate D2E/DX2                !
 ! D42   D(3,7,8,10)          -174.5099         estimate D2E/DX2                !
 ! D43   D(12,7,8,9)          -178.8921         estimate D2E/DX2                !
 ! D44   D(12,7,8,10)            5.2428         estimate D2E/DX2                !
 ! D45   D(3,7,12,11)          178.0768         estimate D2E/DX2                !
 ! D46   D(3,7,12,13)           -0.9621         estimate D2E/DX2                !
 ! D47   D(8,7,12,11)           -1.685          estimate D2E/DX2                !
 ! D48   D(8,7,12,13)          179.2761         estimate D2E/DX2                !
 ! D49   D(7,8,9,6)             -3.0809         estimate D2E/DX2                !
 ! D50   D(7,8,9,32)           175.3285         estimate D2E/DX2                !
 ! D51   D(10,8,9,6)           172.5381         estimate D2E/DX2                !
 ! D52   D(10,8,9,32)           -9.0525         estimate D2E/DX2                !
 ! D53   D(7,8,10,18)           -4.7549         estimate D2E/DX2                !
 ! D54   D(7,8,10,23)          174.4235         estimate D2E/DX2                !
 ! D55   D(9,8,10,18)          179.5335         estimate D2E/DX2                !
 ! D56   D(9,8,10,23)           -1.2882         estimate D2E/DX2                !
 ! D57   D(6,9,32,33)          143.4224         estimate D2E/DX2                !
 ! D58   D(6,9,32,34)          -30.1083         estimate D2E/DX2                !
 ! D59   D(8,9,32,33)          -35.0191         Frozen                          !
 ! D60   D(8,9,32,34)          151.4501         estimate D2E/DX2                !
 ! D61   D(8,10,18,11)           0.7189         estimate D2E/DX2                !
 ! D62   D(8,10,18,24)        -179.4089         estimate D2E/DX2                !
 ! D63   D(23,10,18,11)       -178.5188         estimate D2E/DX2                !
 ! D64   D(23,10,18,24)          1.3535         estimate D2E/DX2                !
 ! D65   D(18,11,12,7)          -2.3856         estimate D2E/DX2                !
 ! D66   D(18,11,12,13)        176.6833         estimate D2E/DX2                !
 ! D67   D(22,11,12,7)         178.4862         estimate D2E/DX2                !
 ! D68   D(22,11,12,13)         -2.445          estimate D2E/DX2                !
 ! D69   D(12,11,18,10)          2.8444         estimate D2E/DX2                !
 ! D70   D(12,11,18,24)       -177.0251         estimate D2E/DX2                !
 ! D71   D(22,11,18,10)       -178.0181         estimate D2E/DX2                !
 ! D72   D(22,11,18,24)          2.1124         estimate D2E/DX2                !
 ! D73   D(7,12,13,14)           0.461          estimate D2E/DX2                !
 ! D74   D(7,12,13,16)        -179.8781         estimate D2E/DX2                !
 ! D75   D(11,12,13,14)       -178.6049         estimate D2E/DX2                !
 ! D76   D(11,12,13,16)          1.056          estimate D2E/DX2                !
 ! D77   D(12,13,14,4)           0.2708         estimate D2E/DX2                !
 ! D78   D(12,13,14,15)        179.7958         estimate D2E/DX2                !
 ! D79   D(16,13,14,4)        -179.3788         estimate D2E/DX2                !
 ! D80   D(16,13,14,15)          0.1463         estimate D2E/DX2                !
 ! D81   D(10,18,24,25)        -59.609          estimate D2E/DX2                !
 ! D82   D(10,18,24,26)         59.2209         estimate D2E/DX2                !
 ! D83   D(10,18,24,27)        179.6858         estimate D2E/DX2                !
 ! D84   D(11,18,24,25)        120.2739         estimate D2E/DX2                !
 ! D85   D(11,18,24,26)       -120.8962         estimate D2E/DX2                !
 ! D86   D(11,18,24,27)         -0.4313         estimate D2E/DX2                !
 ! D87   D(1,19,28,29)         -58.1407         estimate D2E/DX2                !
 ! D88   D(1,19,28,30)          60.7668         estimate D2E/DX2                !
 ! D89   D(1,19,28,31)        -178.7139         estimate D2E/DX2                !
 ! D90   D(5,19,28,29)         121.8132         estimate D2E/DX2                !
 ! D91   D(5,19,28,30)        -119.2792         estimate D2E/DX2                !
 ! D92   D(5,19,28,31)           1.2401         estimate D2E/DX2                !
 ! D93   D(9,32,33,35)        -174.23           estimate D2E/DX2                !
 ! D94   D(9,32,33,36)           6.3558         estimate D2E/DX2                !
 ! D95   D(34,32,33,35)         -0.2652         estimate D2E/DX2                !
 ! D96   D(34,32,33,36)       -179.6794         estimate D2E/DX2                !
 ! D97   D(9,32,34,37)         175.3731         estimate D2E/DX2                !
 ! D98   D(33,32,34,37)          0.5791         estimate D2E/DX2                !
 ! D99   D(32,33,35,37)         -0.309          estimate D2E/DX2                !
 ! D100  D(32,33,35,38)        179.7772         estimate D2E/DX2                !
 ! D101  D(36,33,35,37)        179.0993         estimate D2E/DX2                !
 ! D102  D(36,33,35,38)         -0.8145         estimate D2E/DX2                !
 ! D103  D(32,34,37,35)         -0.7365         estimate D2E/DX2                !
 ! D104  D(32,34,37,39)        177.9665         estimate D2E/DX2                !
 ! D105  D(33,35,37,34)          0.7317         estimate D2E/DX2                !
 ! D106  D(33,35,37,39)       -177.8927         estimate D2E/DX2                !
 ! D107  D(38,35,37,34)       -179.3476         estimate D2E/DX2                !
 ! D108  D(38,35,37,39)          2.0279         estimate D2E/DX2                !
 ! D109  D(33,35,38,40)          6.5126         estimate D2E/DX2                !
 ! D110  D(37,35,38,40)       -173.3976         estimate D2E/DX2                !
 ! D111  D(34,37,39,41)          2.8332         estimate D2E/DX2                !
 ! D112  D(34,37,39,42)       -177.1803         estimate D2E/DX2                !
 ! D113  D(35,37,39,41)       -178.7127         estimate D2E/DX2                !
 ! D114  D(35,37,39,42)          1.2738         estimate D2E/DX2                !
 ! D115  D(35,38,40,43)        175.5257         estimate D2E/DX2                !
 ! D116  D(35,38,40,44)        -65.7963         estimate D2E/DX2                !
 ! D117  D(35,38,40,45)         56.3502         estimate D2E/DX2                !
 ! D118  D(37,39,41,46)       -179.9786         estimate D2E/DX2                !
 ! D119  D(37,39,41,47)         -0.1901         estimate D2E/DX2                !
 ! D120  D(42,39,41,46)          0.0335         estimate D2E/DX2                !
 ! D121  D(42,39,41,47)        179.8219         estimate D2E/DX2                !
 ! D122  D(37,39,42,48)        179.9917         estimate D2E/DX2                !
 ! D123  D(41,39,42,48)         -0.0197         estimate D2E/DX2                !
 ! D124  D(39,41,46,48)         -0.0335         estimate D2E/DX2                !
 ! D125  D(39,41,46,49)        179.9808         estimate D2E/DX2                !
 ! D126  D(47,41,46,48)       -179.8037         estimate D2E/DX2                !
 ! D127  D(47,41,46,49)          0.2106         estimate D2E/DX2                !
 ! D128  D(39,41,47,50)        178.4349         estimate D2E/DX2                !
 ! D129  D(46,41,47,50)         -1.8054         estimate D2E/DX2                !
 ! D130  D(39,42,48,46)          0.0013         estimate D2E/DX2                !
 ! D131  D(39,42,48,51)        179.8762         estimate D2E/DX2                !
 ! D132  D(41,46,48,42)          0.0173         estimate D2E/DX2                !
 ! D133  D(41,46,48,51)       -179.846          estimate D2E/DX2                !
 ! D134  D(49,46,48,42)       -179.9968         estimate D2E/DX2                !
 ! D135  D(49,46,48,51)          0.14           estimate D2E/DX2                !
 ! D136  D(41,47,50,52)         62.0364         estimate D2E/DX2                !
 ! D137  D(41,47,50,53)       -179.1359         estimate D2E/DX2                !
 ! D138  D(41,47,50,54)        -60.2703         estimate D2E/DX2                !
 --------------------------------------------------------------------------------
 Trust Radius=3.00D-01 FncErr=1.00D-07 GrdErr=1.00D-06 EigMax=2.50D+02 EigMin=1.00D-04
 Number of steps in this run=    307 maximum allowed number of steps=    324.
 GradGradGradGradGradGradGradGradGradGradGradGradGradGradGradGradGradGrad

 Stoichiometry    C26H18N2O6S2(1-,2)
 Framework group  C1[X(C26H18N2O6S2)]
 Deg. of freedom   156
 Full point group                 C1      NOp   1
 Largest Abelian subgroup         C1      NOp   1
 Largest concise Abelian subgroup C1      NOp   1
                         Standard orientation:                         
 ---------------------------------------------------------------------
 Center     Atomic      Atomic             Coordinates (Angstroms)
 Number     Number       Type             X           Y           Z
 ---------------------------------------------------------------------
      1          6           0        2.553328   -2.998684    0.387814
      2          6           0        2.251750   -1.553759    0.210748
      3          6           0        3.298721   -0.611439    0.080990
      4          6           0        4.646529   -1.031966    0.116829
      5          6           0        4.984107   -2.469006    0.298122
      6          6           0        0.944821   -1.136483    0.198088
      7          6           0        2.963968    0.761569   -0.096706
      8          6           0        1.598124    1.189068   -0.121588
      9          6           0        0.560859    0.234372    0.062139
     10          6           0        1.336182    2.619796   -0.436557
     11          6           0        3.786663    3.113145   -0.483388
     12          6           0        4.039991    1.674981   -0.251511
     13          6           0        5.359746    1.244484   -0.209874
     14          6           0        5.671506   -0.107526   -0.023153
     15          1           0        6.697517   -0.454234    0.007596
     16          1           0        6.139188    1.988402   -0.332229
     17          1           0        0.183235   -1.893595    0.343445
     18          7           0        2.443050    3.478107   -0.587570
     19          7           0        3.905292   -3.361202    0.421051
     20          8           0        1.682663   -3.850323    0.501022
     21          8           0        6.139962   -2.863086    0.337197
     22          8           0        4.688244    3.934696   -0.594641
     23          8           0        0.222102    3.104515   -0.588841
     24          6           0        2.126946    4.879845   -0.883993
     25          1           0        1.560619    4.943297   -1.814374
     26          1           0        1.513079    5.300125   -0.083224
     27          1           0        3.067688    5.417108   -0.966905
     28          6           0        4.190902   -4.789101    0.600150
     29          1           0        3.738506   -5.141074    1.529680
     30          1           0        3.762512   -5.358676   -0.226678
     31          1           0        5.270481   -4.909919    0.628632
     32          6           0       -0.876028    0.487221    0.162777
     33          6           0       -1.571176    1.540269    0.725263
     34         16           0       -1.998591   -0.768651   -0.361898
     35          6           0       -2.967694    1.352621    0.732226
     36          1           0       -1.084867    2.421593    1.110389
     37          6           0       -3.391924    0.146318    0.166280
     38          8           0       -3.896967    2.215700    1.223330
     39          6           0       -4.740214   -0.313251   -0.011298
     40          6           0       -3.442932    3.492777    1.659878
     41          6           0       -5.160578   -1.526720   -0.553271
     42         16           0       -6.149153    0.637167    0.454032
     43          1           0       -4.336907    4.051171    1.935162
     44          1           0       -2.787402    3.403464    2.535524
     45          1           0       -2.909728    4.019718    0.858885
     46          6           0       -6.574798   -1.688012   -0.594224
     47          8           0       -4.231666   -2.418190   -0.984559
     48          6           0       -7.228605   -0.598728   -0.083303
     49          1           0       -7.080084   -2.562283   -0.980397
     50          6           0       -4.690227   -3.662727   -1.501921
     51          1           0       -8.296717   -0.456721    0.008413
     52          1           0       -5.311541   -3.518389   -2.394042
     53          1           0       -3.796289   -4.224161   -1.771224
     54          1           0       -5.258279   -4.221275   -0.748306
 ---------------------------------------------------------------------
 Rotational constants (GHZ):           0.1533328           0.0591676           0.0442678
 Standard basis: 6-311+G(d,p) (5D, 7F)
 There are   952 symmetry adapted cartesian basis functions of A   symmetry.
 There are   916 symmetry adapted basis functions of A   symmetry.
   916 basis functions,  1468 primitive gaussians,   952 cartesian basis functions
   135 alpha electrons      134 beta electrons
       nuclear repulsion energy      4084.1494733639 Hartrees.
 NAtoms=   54 NActive=   54 NUniq=   54 SFac= 1.00D+00 NAtFMM=   60 NAOKFM=F Big=F
 Integral buffers will be    131072 words long.
 Raffenetti 2 integral format.
 Two-electron integral symmetry is turned on.
 One-electron integrals computed using PRISM.
 NBasis=   916 RedAO= T EigKep=  1.60D-06  NBF=   916
 NBsUse=   901 1.00D-06 EigRej=  9.06D-07 NBFU=   901
 ExpMin= 4.05D-02 ExpMax= 9.34D+04 ExpMxC= 3.17D+03 IAcc=3 IRadAn=         5 AccDes= 0.00D+00
 Harris functional with IExCor=  402 and IRadAn=       5 diagonalized for initial guess.
 HarFok:  IExCor=  402 AccDes= 0.00D+00 IRadAn=         5 IDoV= 1 UseB2=F ITyADJ=14
 ICtDFT=  3500011 ScaDFX=  1.000000  1.000000  1.000000  1.000000
 FoFCou: FMM=F IPFlag=           0 FMFlag=      100000 FMFlg1=           0
         NFxFlg=           0 DoJE=T BraDBF=F KetDBF=T FulRan=T
         wScrn=  0.000000 ICntrl=       500 IOpCl=  0 I1Cent=   200000004 NGrid=           0
         NMat0=    1 NMatS0=      1 NMatT0=    0 NMatD0=    1 NMtDS0=    0 NMtDT0=    0
 Petite list used in FoFCou.
 Initial guess <Sx>= 0.0000 <Sy>= 0.0000 <Sz>= 0.5000 <S**2>= 0.7500 S= 0.5000
 Requested convergence on RMS density matrix=1.00D-08 within 128 cycles.
 Requested convergence on MAX density matrix=1.00D-06.
 Requested convergence on             energy=1.00D-06.
 No special actions if energy rises.
 Restarting incremental Fock formation.
 SCF Done:  E(UB3LYP) =  -2359.42385573     A.U. after   23 cycles
            NFock= 23  Conv=0.57D-08     -V/T= 2.0031
 <Sx>= 0.0000 <Sy>= 0.0000 <Sz>= 0.5000 <S**2>= 0.7588 S= 0.5044
 <L.S>=  0.00000000000    
 Annihilation of the first spin contaminant:
 S**2 before annihilation     0.7588,   after     0.7501

 **********************************************************************

            Population analysis using the SCF Density.

 **********************************************************************

 Orbital symmetries:
 Alpha Orbitals:
       Occupied  (A) (A) (A) (A) (A) (A) (A) (A) (A) (A) (A) (A)
                 (A) (A) (A) (A) (A) (A) (A) (A) (A) (A) (A) (A)
                 (A) (A) (A) (A) (A) (A) (A) (A) (A) (A) (A) (A)
                 (A) (A) (A) (A) (A) (A) (A) (A) (A) (A) (A) (A)
                 (A) (A) (A) (A) (A) (A) (A) (A) (A) (A) (A) (A)
                 (A) (A) (A) (A) (A) (A) (A) (A) (A) (A) (A) (A)
                 (A) (A) (A) (A) (A) (A) (A) (A) (A) (A) (A) (A)
                 (A) (A) (A) (A) (A) (A) (A) (A) (A) (A) (A) (A)
                 (A) (A) (A) (A) (A) (A) (A) (A) (A) (A) (A) (A)
                 (A) (A) (A) (A) (A) (A) (A) (A) (A) (A) (A) (A)
                 (A) (A) (A) (A) (A) (A) (A) (A) (A) (A) (A) (A)
                 (A) (A) (A)
       Virtual   (A) (A) (A) (A) (A) (A) (A) (A) (A) (A) (A) (A)
                 (A) (A) (A) (A) (A) (A) (A) (A) (A) (A) (A) (A)
                 (A) (A) (A) (A) (A) (A) (A) (A) (A) (A) (A) (A)
                 (A) (A) (A) (A) (A) (A) (A) (A) (A) (A) (A) (A)
                 (A) (A) (A) (A) (A) (A) (A) (A) (A) (A) (A) (A)
                 (A) (A) (A) (A) (A) (A) (A) (A) (A) (A) (A) (A)
                 (A) (A) (A) (A) (A) (A) (A) (A) (A) (A) (A) (A)
                 (A) (A) (A) (A) (A) (A) (A) (A) (A) (A) (A) (A)
                 (A) (A) (A) (A) (A) (A) (A) (A) (A) (A) (A) (A)
                 (A) (A) (A) (A) (A) (A) (A) (A) (A) (A) (A) (A)
                 (A) (A) (A) (A) (A) (A) (A) (A) (A) (A) (A) (A)
                 (A) (A) (A) (A) (A) (A) (A) (A) (A) (A) (A) (A)
                 (A) (A) (A) (A) (A) (A) (A) (A) (A) (A) (A) (A)
                 (A) (A) (A) (A) (A) (A) (A) (A) (A) (A) (A) (A)
                 (A) (A) (A) (A) (A) (A) (A) (A) (A) (A) (A) (A)
                 (A) (A) (A) (A) (A) (A) (A) (A) (A) (A) (A) (A)
                 (A) (A) (A) (A) (A) (A) (A) (A) (A) (A) (A) (A)
                 (A) (A) (A) (A) (A) (A) (A) (A) (A) (A) (A) (A)
                 (A) (A) (A) (A) (A) (A) (A) (A) (A) (A) (A) (A)
                 (A) (A) (A) (A) (A) (A) (A) (A) (A) (A) (A) (A)
                 (A) (A) (A) (A) (A) (A) (A) (A) (A) (A) (A) (A)
                 (A) (A) (A) (A) (A) (A) (A) (A) (A) (A) (A) (A)
                 (A) (A) (A) (A) (A) (A) (A) (A) (A) (A) (A) (A)
                 (A) (A) (A) (A) (A) (A) (A) (A) (A) (A) (A) (A)
                 (A) (A) (A) (A) (A) (A) (A) (A) (A) (A) (A) (A)
                 (A) (A) (A) (A) (A) (A) (A) (A) (A) (A) (A) (A)
                 (A) (A) (A) (A) (A) (A) (A) (A) (A) (A) (A) (A)
                 (A) (A) (A) (A) (A) (A) (A) (A) (A) (A) (A) (A)
                 (A) (A) (A) (A) (A) (A) (A) (A) (A) (A) (A) (A)
                 (A) (A) (A) (A) (A) (A) (A) (A) (A) (A) (A) (A)
                 (A) (A) (A) (A) (A) (A) (A) (A) (A) (A) (A) (A)
                 (A) (A) (A) (A) (A) (A) (A) (A) (A) (A) (A) (A)
                 (A) (A) (A) (A) (A) (A) (A) (A) (A) (A) (A) (A)
                 (A) (A) (A) (A) (A) (A) (A) (A) (A) (A) (A) (A)
                 (A) (A) (A) (A) (A) (A) (A) (A) (A) (A) (A) (A)
                 (A) (A) (A) (A) (A) (A) (A) (A) (A) (A) (A) (A)
                 (A) (A) (A) (A) (A) (A) (A) (A) (A) (A) (A) (A)
                 (A) (A) (A) (A) (A) (A) (A) (A) (A) (A) (A) (A)
                 (A) (A) (A) (A) (A) (A) (A) (A) (A) (A) (A) (A)
                 (A) (A) (A) (A) (A) (A) (A) (A) (A) (A) (A) (A)
                 (A) (A) (A) (A) (A) (A) (A) (A) (A) (A) (A) (A)
                 (A) (A) (A) (A) (A) (A) (A) (A) (A) (A) (A) (A)
                 (A) (A) (A) (A) (A) (A) (A) (A) (A) (A) (A) (A)
                 (A) (A) (A) (A) (A) (A) (A) (A) (A) (A) (A) (A)
                 (A) (A) (A) (A) (A) (A) (A) (A) (A) (A) (A) (A)
                 (A) (A) (A) (A) (A) (A) (A) (A) (A) (A) (A) (A)
                 (A) (A) (A) (A) (A) (A) (A) (A) (A) (A) (A) (A)
                 (A) (A) (A) (A) (A) (A) (A) (A) (A) (A) (A) (A)
                 (A) (A) (A) (A) (A) (A) (A) (A) (A) (A) (A) (A)
                 (A) (A) (A) (A) (A) (A) (A) (A) (A) (A) (A) (A)
                 (A) (A) (A) (A) (A) (A) (A) (A) (A) (A) (A) (A)
                 (A) (A) (A) (A) (A) (A) (A) (A) (A) (A) (A) (A)
                 (A) (A) (A) (A) (A) (A) (A) (A) (A) (A) (A) (A)
                 (A) (A) (A) (A) (A) (A) (A) (A) (A) (A) (A) (A)
                 (A) (A) (A) (A) (A) (A) (A) (A) (A) (A) (A) (A)
                 (A) (A) (A) (A) (A) (A) (A) (A) (A) (A) (A) (A)
                 (A) (A) (A) (A) (A) (A) (A) (A) (A) (A) (A) (A)
                 (A) (A) (A) (A) (A) (A) (A) (A) (A) (A) (A) (A)
                 (A) (A) (A) (A) (A) (A) (A) (A) (A) (A) (A) (A)
                 (A) (A) (A) (A) (A) (A) (A) (A) (A) (A) (A) (A)
                 (A) (A) (A) (A) (A) (A) (A) (A) (A) (A) (A) (A)
                 (A) (A) (A) (A) (A) (A) (A) (A) (A) (A) (A) (A)
                 (A) (A) (A) (A) (A) (A) (A) (A) (A) (A) (A) (A)
                 (A) (A) (A) (A) (A) (A) (A) (A) (A) (A)
 Beta  Orbitals:
       Occupied  (A) (A) (A) (A) (A) (A) (A) (A) (A) (A) (A) (A)
                 (A) (A) (A) (A) (A) (A) (A) (A) (A) (A) (A) (A)
                 (A) (A) (A) (A) (A) (A) (A) (A) (A) (A) (A) (A)
                 (A) (A) (A) (A) (A) (A) (A) (A) (A) (A) (A) (A)
                 (A) (A) (A) (A) (A) (A) (A) (A) (A) (A) (A) (A)
                 (A) (A) (A) (A) (A) (A) (A) (A) (A) (A) (A) (A)
                 (A) (A) (A) (A) (A) (A) (A) (A) (A) (A) (A) (A)
                 (A) (A) (A) (A) (A) (A) (A) (A) (A) (A) (A) (A)
                 (A) (A) (A) (A) (A) (A) (A) (A) (A) (A) (A) (A)
                 (A) (A) (A) (A) (A) (A) (A) (A) (A) (A) (A) (A)
                 (A) (A) (A) (A) (A) (A) (A) (A) (A) (A) (A) (A)
                 (A) (A)
       Virtual   (A) (A) (A) (A) (A) (A) (A) (A) (A) (A) (A) (A)
                 (A) (A) (A) (A) (A) (A) (A) (A) (A) (A) (A) (A)
                 (A) (A) (A) (A) (A) (A) (A) (A) (A) (A) (A) (A)
                 (A) (A) (A) (A) (A) (A) (A) (A) (A) (A) (A) (A)
                 (A) (A) (A) (A) (A) (A) (A) (A) (A) (A) (A) (A)
                 (A) (A) (A) (A) (A) (A) (A) (A) (A) (A) (A) (A)
                 (A) (A) (A) (A) (A) (A) (A) (A) (A) (A) (A) (A)
                 (A) (A) (A) (A) (A) (A) (A) (A) (A) (A) (A) (A)
                 (A) (A) (A) (A) (A) (A) (A) (A) (A) (A) (A) (A)
                 (A) (A) (A) (A) (A) (A) (A) (A) (A) (A) (A) (A)
                 (A) (A) (A) (A) (A) (A) (A) (A) (A) (A) (A) (A)
                 (A) (A) (A) (A) (A) (A) (A) (A) (A) (A) (A) (A)
                 (A) (A) (A) (A) (A) (A) (A) (A) (A) (A) (A) (A)
                 (A) (A) (A) (A) (A) (A) (A) (A) (A) (A) (A) (A)
                 (A) (A) (A) (A) (A) (A) (A) (A) (A) (A) (A) (A)
                 (A) (A) (A) (A) (A) (A) (A) (A) (A) (A) (A) (A)
                 (A) (A) (A) (A) (A) (A) (A) (A) (A) (A) (A) (A)
                 (A) (A) (A) (A) (A) (A) (A) (A) (A) (A) (A) (A)
                 (A) (A) (A) (A) (A) (A) (A) (A) (A) (A) (A) (A)
                 (A) (A) (A) (A) (A) (A) (A) (A) (A) (A) (A) (A)
                 (A) (A) (A) (A) (A) (A) (A) (A) (A) (A) (A) (A)
                 (A) (A) (A) (A) (A) (A) (A) (A) (A) (A) (A) (A)
                 (A) (A) (A) (A) (A) (A) (A) (A) (A) (A) (A) (A)
                 (A) (A) (A) (A) (A) (A) (A) (A) (A) (A) (A) (A)
                 (A) (A) (A) (A) (A) (A) (A) (A) (A) (A) (A) (A)
                 (A) (A) (A) (A) (A) (A) (A) (A) (A) (A) (A) (A)
                 (A) (A) (A) (A) (A) (A) (A) (A) (A) (A) (A) (A)
                 (A) (A) (A) (A) (A) (A) (A) (A) (A) (A) (A) (A)
                 (A) (A) (A) (A) (A) (A) (A) (A) (A) (A) (A) (A)
                 (A) (A) (A) (A) (A) (A) (A) (A) (A) (A) (A) (A)
                 (A) (A) (A) (A) (A) (A) (A) (A) (A) (A) (A) (A)
                 (A) (A) (A) (A) (A) (A) (A) (A) (A) (A) (A) (A)
                 (A) (A) (A) (A) (A) (A) (A) (A) (A) (A) (A) (A)
                 (A) (A) (A) (A) (A) (A) (A) (A) (A) (A) (A) (A)
                 (A) (A) (A) (A) (A) (A) (A) (A) (A) (A) (A) (A)
                 (A) (A) (A) (A) (A) (A) (A) (A) (A) (A) (A) (A)
                 (A) (A) (A) (A) (A) (A) (A) (A) (A) (A) (A) (A)
                 (A) (A) (A) (A) (A) (A) (A) (A) (A) (A) (A) (A)
                 (A) (A) (A) (A) (A) (A) (A) (A) (A) (A) (A) (A)
                 (A) (A) (A) (A) (A) (A) (A) (A) (A) (A) (A) (A)
                 (A) (A) (A) (A) (A) (A) (A) (A) (A) (A) (A) (A)
                 (A) (A) (A) (A) (A) (A) (A) (A) (A) (A) (A) (A)
                 (A) (A) (A) (A) (A) (A) (A) (A) (A) (A) (A) (A)
                 (A) (A) (A) (A) (A) (A) (A) (A) (A) (A) (A) (A)
                 (A) (A) (A) (A) (A) (A) (A) (A) (A) (A) (A) (A)
                 (A) (A) (A) (A) (A) (A) (A) (A) (A) (A) (A) (A)
                 (A) (A) (A) (A) (A) (A) (A) (A) (A) (A) (A) (A)
                 (A) (A) (A) (A) (A) (A) (A) (A) (A) (A) (A) (A)
                 (A) (A) (A) (A) (A) (A) (A) (A) (A) (A) (A) (A)
                 (A) (A) (A) (A) (A) (A) (A) (A) (A) (A) (A) (A)
                 (A) (A) (A) (A) (A) (A) (A) (A) (A) (A) (A) (A)
                 (A) (A) (A) (A) (A) (A) (A) (A) (A) (A) (A) (A)
                 (A) (A) (A) (A) (A) (A) (A) (A) (A) (A) (A) (A)
                 (A) (A) (A) (A) (A) (A) (A) (A) (A) (A) (A) (A)
                 (A) (A) (A) (A) (A) (A) (A) (A) (A) (A) (A) (A)
                 (A) (A) (A) (A) (A) (A) (A) (A) (A) (A) (A) (A)
                 (A) (A) (A) (A) (A) (A) (A) (A) (A) (A) (A) (A)
                 (A) (A) (A) (A) (A) (A) (A) (A) (A) (A) (A) (A)
                 (A) (A) (A) (A) (A) (A) (A) (A) (A) (A) (A) (A)
                 (A) (A) (A) (A) (A) (A) (A) (A) (A) (A) (A) (A)
                 (A) (A) (A) (A) (A) (A) (A) (A) (A) (A) (A) (A)
                 (A) (A) (A) (A) (A) (A) (A) (A) (A) (A) (A) (A)
                 (A) (A) (A) (A) (A) (A) (A) (A) (A) (A) (A) (A)
                 (A) (A) (A) (A) (A) (A) (A) (A) (A) (A) (A)
 The electronic state is 2-A.
 Alpha  occ. eigenvalues --  -88.79969 -88.77817 -19.08614 -19.07954 -18.99746
 Alpha  occ. eigenvalues --  -18.99576 -18.99136 -18.98898 -14.26677 -14.26198
 Alpha  occ. eigenvalues --  -10.18188 -10.17917 -10.17703 -10.17524 -10.16341
 Alpha  occ. eigenvalues --  -10.15776 -10.15316 -10.14657 -10.13065 -10.12408
 Alpha  occ. eigenvalues --  -10.11674 -10.11471 -10.10893 -10.10860 -10.10500
 Alpha  occ. eigenvalues --  -10.10373 -10.09870 -10.09458 -10.09085 -10.08414
 Alpha  occ. eigenvalues --  -10.08273 -10.08194 -10.08015 -10.07909 -10.07672
 Alpha  occ. eigenvalues --  -10.07618  -7.88524  -7.86390  -5.84831  -5.84451
 Alpha  occ. eigenvalues --   -5.84096  -5.82710  -5.82322  -5.81942  -1.00291
 Alpha  occ. eigenvalues --   -0.99469  -0.96107  -0.95727  -0.94161  -0.93698
 Alpha  occ. eigenvalues --   -0.84065  -0.83502  -0.81019  -0.79449  -0.78363
 Alpha  occ. eigenvalues --   -0.73798  -0.71312  -0.69533  -0.68191  -0.66607
 Alpha  occ. eigenvalues --   -0.65557  -0.65284  -0.63774  -0.63463  -0.61755
 Alpha  occ. eigenvalues --   -0.61294  -0.59911  -0.57829  -0.55160  -0.53725
 Alpha  occ. eigenvalues --   -0.53470  -0.52254  -0.51273  -0.49688  -0.48008
 Alpha  occ. eigenvalues --   -0.47249  -0.45694  -0.45494  -0.45052  -0.42878
 Alpha  occ. eigenvalues --   -0.41722  -0.40773  -0.40560  -0.39724  -0.39484
 Alpha  occ. eigenvalues --   -0.39212  -0.38462  -0.38014  -0.37689  -0.37307
 Alpha  occ. eigenvalues --   -0.36928  -0.36745  -0.36529  -0.34891  -0.34272
 Alpha  occ. eigenvalues --   -0.34165  -0.33623  -0.33082  -0.32942  -0.32675
 Alpha  occ. eigenvalues --   -0.32517  -0.32190  -0.31202  -0.30747  -0.30514
 Alpha  occ. eigenvalues --   -0.30415  -0.30023  -0.29856  -0.29493  -0.29358
 Alpha  occ. eigenvalues --   -0.29063  -0.28407  -0.27725  -0.27470  -0.26834
 Alpha  occ. eigenvalues --   -0.26042  -0.25411  -0.25157  -0.24665  -0.23465
 Alpha  occ. eigenvalues --   -0.22759  -0.20130  -0.19386  -0.18628  -0.17974
 Alpha  occ. eigenvalues --   -0.17629  -0.17384  -0.16820  -0.16500  -0.15953
 Alpha  occ. eigenvalues --   -0.15537  -0.14412  -0.13853  -0.09768  -0.04188
 Alpha virt. eigenvalues --    0.02961   0.05152   0.05865   0.06462   0.06959
 Alpha virt. eigenvalues --    0.07383   0.07598   0.08692   0.09032   0.09085
 Alpha virt. eigenvalues --    0.09502   0.09830   0.10245   0.10386   0.10692
 Alpha virt. eigenvalues --    0.11157   0.11432   0.11647   0.11960   0.12269
 Alpha virt. eigenvalues --    0.12435   0.12542   0.12690   0.12866   0.13139
 Alpha virt. eigenvalues --    0.13279   0.13493   0.13732   0.13998   0.14370
 Alpha virt. eigenvalues --    0.14529   0.14772   0.15122   0.15269   0.15454
 Alpha virt. eigenvalues --    0.15655   0.15918   0.16378   0.16844   0.17136
 Alpha virt. eigenvalues --    0.17249   0.17670   0.17839   0.18109   0.18489
 Alpha virt. eigenvalues --    0.18661   0.18840   0.19149   0.19470   0.19644
 Alpha virt. eigenvalues --    0.19812   0.20174   0.20425   0.20498   0.20583
 Alpha virt. eigenvalues --    0.21068   0.21345   0.21691   0.22076   0.22144
 Alpha virt. eigenvalues --    0.22367   0.22594   0.22965   0.23031   0.23506
 Alpha virt. eigenvalues --    0.23765   0.23789   0.24154   0.24187   0.24394
 Alpha virt. eigenvalues --    0.24579   0.24919   0.25153   0.25560   0.25665
 Alpha virt. eigenvalues --    0.25854   0.25950   0.25988   0.26171   0.26595
 Alpha virt. eigenvalues --    0.26656   0.26931   0.27405   0.27552   0.27619
 Alpha virt. eigenvalues --    0.27926   0.28121   0.28379   0.28410   0.28855
 Alpha virt. eigenvalues --    0.29032   0.29481   0.29566   0.29728   0.29823
 Alpha virt. eigenvalues --    0.29957   0.30187   0.30408   0.30614   0.30915
 Alpha virt. eigenvalues --    0.31181   0.31503   0.31603   0.32102   0.32263
 Alpha virt. eigenvalues --    0.32468   0.32689   0.32733   0.32912   0.33058
 Alpha virt. eigenvalues --    0.33191   0.33480   0.33509   0.33932   0.34100
 Alpha virt. eigenvalues --    0.34284   0.34634   0.34688   0.34904   0.35305
 Alpha virt. eigenvalues --    0.35457   0.35645   0.35679   0.36079   0.36129
 Alpha virt. eigenvalues --    0.36319   0.36561   0.36806   0.37004   0.37212
 Alpha virt. eigenvalues --    0.37383   0.37522   0.37695   0.37873   0.38221
 Alpha virt. eigenvalues --    0.38431   0.38682   0.38881   0.39038   0.39235
 Alpha virt. eigenvalues --    0.39493   0.39818   0.39937   0.40165   0.40368
 Alpha virt. eigenvalues --    0.41028   0.41251   0.41384   0.41833   0.41919
 Alpha virt. eigenvalues --    0.42386   0.42477   0.42686   0.42850   0.43023
 Alpha virt. eigenvalues --    0.43311   0.43511   0.43616   0.44248   0.44454
 Alpha virt. eigenvalues --    0.44705   0.44974   0.45092   0.45398   0.46155
 Alpha virt. eigenvalues --    0.46420   0.46891   0.47214   0.47492   0.47902
 Alpha virt. eigenvalues --    0.48294   0.48736   0.49043   0.49434   0.49593
 Alpha virt. eigenvalues --    0.50408   0.50647   0.50793   0.50892   0.51479
 Alpha virt. eigenvalues --    0.51895   0.52065   0.52550   0.52827   0.53315
 Alpha virt. eigenvalues --    0.53790   0.53946   0.54360   0.54574   0.55176
 Alpha virt. eigenvalues --    0.55464   0.55650   0.55821   0.56311   0.56736
 Alpha virt. eigenvalues --    0.57188   0.57506   0.58443   0.59030   0.59681
 Alpha virt. eigenvalues --    0.59834   0.60273   0.60902   0.61046   0.61873
 Alpha virt. eigenvalues --    0.62647   0.63137   0.63581   0.63719   0.64187
 Alpha virt. eigenvalues --    0.64901   0.65241   0.65325   0.65501   0.66250
 Alpha virt. eigenvalues --    0.66330   0.66511   0.66783   0.67164   0.67976
 Alpha virt. eigenvalues --    0.68533   0.68896   0.69027   0.69423   0.69690
 Alpha virt. eigenvalues --    0.69915   0.70738   0.71123   0.71438   0.71631
 Alpha virt. eigenvalues --    0.71901   0.72530   0.72805   0.73120   0.73872
 Alpha virt. eigenvalues --    0.74127   0.74431   0.74716   0.74884   0.75329
 Alpha virt. eigenvalues --    0.75464   0.75873   0.76282   0.76959   0.77140
 Alpha virt. eigenvalues --    0.77190   0.77997   0.78080   0.78686   0.79151
 Alpha virt. eigenvalues --    0.79550   0.80002   0.80542   0.80646   0.80905
 Alpha virt. eigenvalues --    0.81342   0.81614   0.82150   0.82646   0.83036
 Alpha virt. eigenvalues --    0.83200   0.83636   0.84306   0.84443   0.84591
 Alpha virt. eigenvalues --    0.85144   0.85285   0.85696   0.85910   0.86232
 Alpha virt. eigenvalues --    0.86803   0.87135   0.87458   0.87714   0.87918
 Alpha virt. eigenvalues --    0.88935   0.89067   0.89643   0.90054   0.90390
 Alpha virt. eigenvalues --    0.90650   0.91384   0.91752   0.91936   0.92635
 Alpha virt. eigenvalues --    0.93509   0.93978   0.94730   0.96096   0.97081
 Alpha virt. eigenvalues --    0.97582   0.97910   0.98460   0.98680   0.99533
 Alpha virt. eigenvalues --    0.99999   1.00374   1.00605   1.01060   1.02098
 Alpha virt. eigenvalues --    1.02870   1.03368   1.03731   1.04328   1.04838
 Alpha virt. eigenvalues --    1.05505   1.05805   1.05983   1.06492   1.06725
 Alpha virt. eigenvalues --    1.07396   1.07659   1.08153   1.08477   1.08681
 Alpha virt. eigenvalues --    1.08976   1.09112   1.09427   1.10615   1.10865
 Alpha virt. eigenvalues --    1.11411   1.11975   1.12280   1.12876   1.13542
 Alpha virt. eigenvalues --    1.13688   1.14314   1.14529   1.14724   1.15290
 Alpha virt. eigenvalues --    1.15579   1.15772   1.16190   1.16557   1.16869
 Alpha virt. eigenvalues --    1.17987   1.18049   1.18368   1.18653   1.19363
 Alpha virt. eigenvalues --    1.19529   1.20008   1.21057   1.21568   1.22553
 Alpha virt. eigenvalues --    1.23332   1.24031   1.24649   1.25130   1.26507
 Alpha virt. eigenvalues --    1.26651   1.27153   1.28317   1.28534   1.29413
 Alpha virt. eigenvalues --    1.29929   1.30584   1.31970   1.32510   1.33120
 Alpha virt. eigenvalues --    1.33628   1.33724   1.33913   1.35089   1.35860
 Alpha virt. eigenvalues --    1.36833   1.37597   1.38459   1.39057   1.39641
 Alpha virt. eigenvalues --    1.40093   1.40455   1.41373   1.41648   1.42675
 Alpha virt. eigenvalues --    1.43130   1.43283   1.44494   1.45104   1.46301
 Alpha virt. eigenvalues --    1.47367   1.47930   1.48243   1.49564   1.49578
 Alpha virt. eigenvalues --    1.50358   1.51494   1.52021   1.52653   1.53378
 Alpha virt. eigenvalues --    1.53481   1.53914   1.54304   1.54503   1.55193
 Alpha virt. eigenvalues --    1.55944   1.56139   1.56341   1.57534   1.57659
 Alpha virt. eigenvalues --    1.58275   1.59339   1.59976   1.60092   1.61107
 Alpha virt. eigenvalues --    1.61458   1.62600   1.62969   1.63139   1.63619
 Alpha virt. eigenvalues --    1.64046   1.64346   1.64630   1.65062   1.65648
 Alpha virt. eigenvalues --    1.65993   1.66098   1.66901   1.67666   1.69122
 Alpha virt. eigenvalues --    1.69602   1.70126   1.70823   1.71428   1.71803
 Alpha virt. eigenvalues --    1.72093   1.72524   1.73422   1.74301   1.75403
 Alpha virt. eigenvalues --    1.75831   1.76293   1.76514   1.76938   1.78121
 Alpha virt. eigenvalues --    1.78571   1.78906   1.79712   1.80656   1.81152
 Alpha virt. eigenvalues --    1.81887   1.82224   1.82672   1.83340   1.83570
 Alpha virt. eigenvalues --    1.83798   1.84353   1.85172   1.85872   1.86515
 Alpha virt. eigenvalues --    1.87043   1.87783   1.87879   1.88292   1.89067
 Alpha virt. eigenvalues --    1.89467   1.91071   1.91893   1.92419   1.93274
 Alpha virt. eigenvalues --    1.94395   1.95123   1.95925   1.96501   1.97766
 Alpha virt. eigenvalues --    1.98130   1.98728   1.99323   1.99860   2.00837
 Alpha virt. eigenvalues --    2.00972   2.02067   2.02721   2.02958   2.03613
 Alpha virt. eigenvalues --    2.03970   2.04704   2.04810   2.06550   2.07308
 Alpha virt. eigenvalues --    2.07959   2.08661   2.09252   2.09869   2.10453
 Alpha virt. eigenvalues --    2.10961   2.11435   2.12210   2.13049   2.13100
 Alpha virt. eigenvalues --    2.13442   2.13849   2.14960   2.15224   2.15707
 Alpha virt. eigenvalues --    2.16474   2.16755   2.17257   2.18566   2.18952
 Alpha virt. eigenvalues --    2.19383   2.19802   2.20346   2.20832   2.22470
 Alpha virt. eigenvalues --    2.22814   2.23609   2.24988   2.25687   2.27439
 Alpha virt. eigenvalues --    2.27716   2.28602   2.28977   2.29513   2.29965
 Alpha virt. eigenvalues --    2.30454   2.31407   2.32561   2.32909   2.35266
 Alpha virt. eigenvalues --    2.36918   2.38054   2.38481   2.40372   2.43036
 Alpha virt. eigenvalues --    2.44540   2.45236   2.47569   2.48832   2.49540
 Alpha virt. eigenvalues --    2.49864   2.50531   2.51141   2.51250   2.51844
 Alpha virt. eigenvalues --    2.53393   2.53619   2.55016   2.55253   2.56491
 Alpha virt. eigenvalues --    2.57372   2.57664   2.58968   2.59651   2.60329
 Alpha virt. eigenvalues --    2.61067   2.61268   2.61941   2.62203   2.62559
 Alpha virt. eigenvalues --    2.63077   2.63657   2.64698   2.65292   2.66439
 Alpha virt. eigenvalues --    2.67820   2.69734   2.69899   2.70687   2.71867
 Alpha virt. eigenvalues --    2.74655   2.75364   2.75555   2.76083   2.76387
 Alpha virt. eigenvalues --    2.77150   2.77998   2.79202   2.80072   2.80868
 Alpha virt. eigenvalues --    2.81174   2.81763   2.82452   2.83094   2.83300
 Alpha virt. eigenvalues --    2.83818   2.84259   2.85053   2.85520   2.86013
 Alpha virt. eigenvalues --    2.88328   2.88511   2.90704   2.90818   2.91374
 Alpha virt. eigenvalues --    2.92926   2.93092   2.94434   2.95434   2.95822
 Alpha virt. eigenvalues --    2.96330   2.97826   2.98134   2.99125   2.99855
 Alpha virt. eigenvalues --    3.00209   3.01236   3.01495   3.02087   3.02838
 Alpha virt. eigenvalues --    3.03280   3.04386   3.04814   3.05216   3.06203
 Alpha virt. eigenvalues --    3.07072   3.07862   3.08017   3.08554   3.10351
 Alpha virt. eigenvalues --    3.11719   3.13622   3.14634   3.15907   3.17187
 Alpha virt. eigenvalues --    3.17483   3.19101   3.19857   3.20684   3.23085
 Alpha virt. eigenvalues --    3.23278   3.25359   3.26143   3.26511   3.27091
 Alpha virt. eigenvalues --    3.29246   3.30356   3.31256   3.31859   3.32412
 Alpha virt. eigenvalues --    3.32854   3.34735   3.37422   3.38511   3.39469
 Alpha virt. eigenvalues --    3.40117   3.41538   3.41772   3.46060   3.46138
 Alpha virt. eigenvalues --    3.46697   3.46913   3.48128   3.48247   3.50112
 Alpha virt. eigenvalues --    3.51000   3.52437   3.54108   3.54942   3.55974
 Alpha virt. eigenvalues --    3.56969   3.57875   3.58874   3.61549   3.62358
 Alpha virt. eigenvalues --    3.64118   3.66926   3.70231   3.71698   3.72715
 Alpha virt. eigenvalues --    3.74274   3.77198   3.77886   3.78928   3.81340
 Alpha virt. eigenvalues --    3.82420   3.82496   3.83100   3.83433   3.84545
 Alpha virt. eigenvalues --    3.84949   3.89708   3.92573   3.93630   3.96184
 Alpha virt. eigenvalues --    3.97215   4.01968   4.03531   4.04790   4.05104
 Alpha virt. eigenvalues --    4.06122   4.08932   4.11870   4.13731   4.16239
 Alpha virt. eigenvalues --    4.17365   4.18651   4.22572   4.25186   4.29589
 Alpha virt. eigenvalues --    4.33423   4.37362   4.39111   4.48084   4.52354
 Alpha virt. eigenvalues --    4.52911   4.63150   4.80453   4.97288   4.98722
 Alpha virt. eigenvalues --    4.99002   5.02097   5.09802   5.11688   5.15900
 Alpha virt. eigenvalues --    5.17531   5.17743   5.21300   5.23609   5.25340
 Alpha virt. eigenvalues --    5.37203   5.39132   5.41144   5.42539   5.50685
 Alpha virt. eigenvalues --    5.52129   5.85171   5.87965   5.89004   5.92323
 Alpha virt. eigenvalues --    5.94340   5.96853   8.10667   8.14863  17.37425
 Alpha virt. eigenvalues --   17.42629  17.57978  17.60871  17.67892  17.72963
 Alpha virt. eigenvalues --   23.60591  23.67327  23.81643  23.90283  23.92714
 Alpha virt. eigenvalues --   23.95114  23.96586  23.97598  23.98366  23.99229
 Alpha virt. eigenvalues --   23.99647  24.00166  24.01224  24.04759  24.05282
 Alpha virt. eigenvalues --   24.07628  24.08763  24.11037  24.11300  24.11970
 Alpha virt. eigenvalues --   24.13572  24.18460  24.22190  24.22949  24.26639
 Alpha virt. eigenvalues --   24.27393  35.67942  35.70804  50.04566  50.06378
 Alpha virt. eigenvalues --   50.14623  50.16489  50.18388  50.20017 189.27933
 Alpha virt. eigenvalues --  189.32784
  Beta  occ. eigenvalues --  -88.79966 -88.77804 -19.08599 -19.07964 -18.99581
  Beta  occ. eigenvalues --  -18.99393 -18.98964 -18.98694 -14.26724 -14.26249
  Beta  occ. eigenvalues --  -10.18136 -10.17868 -10.17642 -10.17472 -10.16342
  Beta  occ. eigenvalues --  -10.15737 -10.15315 -10.14693 -10.13092 -10.12368
  Beta  occ. eigenvalues --  -10.11595 -10.11527 -10.10892 -10.10875 -10.10500
  Beta  occ. eigenvalues --  -10.10234 -10.09918 -10.09513 -10.08923 -10.08277
  Beta  occ. eigenvalues --  -10.08109 -10.08051 -10.07985 -10.07840 -10.07596
  Beta  occ. eigenvalues --  -10.07540  -7.88521  -7.86378  -5.84829  -5.84450
  Beta  occ. eigenvalues --   -5.84085  -5.82702  -5.82315  -5.81901  -1.00258
  Beta  occ. eigenvalues --   -0.99491  -0.95886  -0.95486  -0.93864  -0.93379
  Beta  occ. eigenvalues --   -0.83974  -0.83401  -0.80982  -0.79324  -0.78282
  Beta  occ. eigenvalues --   -0.73500  -0.71031  -0.69442  -0.68143  -0.66539
  Beta  occ. eigenvalues --   -0.65416  -0.64949  -0.63686  -0.63398  -0.61709
  Beta  occ. eigenvalues --   -0.61251  -0.59698  -0.57545  -0.55002  -0.53548
  Beta  occ. eigenvalues --   -0.53351  -0.52078  -0.51226  -0.49640  -0.47982
  Beta  occ. eigenvalues --   -0.47181  -0.45622  -0.45420  -0.44935  -0.42718
  Beta  occ. eigenvalues --   -0.41627  -0.40732  -0.40518  -0.39742  -0.39442
  Beta  occ. eigenvalues --   -0.39064  -0.38260  -0.37828  -0.37631  -0.37272
  Beta  occ. eigenvalues --   -0.36802  -0.36689  -0.36442  -0.34793  -0.34164
  Beta  occ. eigenvalues --   -0.34047  -0.33545  -0.32997  -0.32831  -0.32533
  Beta  occ. eigenvalues --   -0.32274  -0.31964  -0.31108  -0.30441  -0.30367
  Beta  occ. eigenvalues --   -0.30132  -0.29873  -0.29428  -0.29200  -0.29039
  Beta  occ. eigenvalues --   -0.28525  -0.28322  -0.27667  -0.27134  -0.26705
  Beta  occ. eigenvalues --   -0.25948  -0.25367  -0.25043  -0.24540  -0.23384
  Beta  occ. eigenvalues --   -0.22118  -0.19724  -0.18587  -0.18435  -0.17473
  Beta  occ. eigenvalues --   -0.17461  -0.17029  -0.16618  -0.16287  -0.15722
  Beta  occ. eigenvalues --   -0.15091  -0.14137  -0.12667  -0.09366
  Beta virt. eigenvalues --    0.00011   0.03365   0.05864   0.06168   0.06874
  Beta virt. eigenvalues --    0.06979   0.07589   0.08215   0.08699   0.09036
  Beta virt. eigenvalues --    0.09093   0.09510   0.10055   0.10273   0.10395
  Beta virt. eigenvalues --    0.10701   0.11175   0.11439   0.11654   0.11973
  Beta virt. eigenvalues --    0.12302   0.12537   0.12645   0.12838   0.12918
  Beta virt. eigenvalues --    0.13315   0.13505   0.13805   0.14005   0.14061
  Beta virt. eigenvalues --    0.14524   0.14641   0.14809   0.15168   0.15375
  Beta virt. eigenvalues --    0.15489   0.15670   0.15959   0.16394   0.16924
  Beta virt. eigenvalues --    0.17195   0.17361   0.17694   0.17865   0.18168
  Beta virt. eigenvalues --    0.18514   0.18691   0.18876   0.19201   0.19500
  Beta virt. eigenvalues --    0.19676   0.19838   0.20190   0.20515   0.20619
  Beta virt. eigenvalues --    0.20872   0.21124   0.21445   0.21740   0.22142
  Beta virt. eigenvalues --    0.22187   0.22496   0.22625   0.22986   0.23127
  Beta virt. eigenvalues --    0.23534   0.23885   0.23992   0.24196   0.24283
  Beta virt. eigenvalues --    0.24439   0.24687   0.24969   0.25197   0.25585
  Beta virt. eigenvalues --    0.25688   0.25890   0.25978   0.26032   0.26228
  Beta virt. eigenvalues --    0.26613   0.26686   0.26997   0.27445   0.27578
  Beta virt. eigenvalues --    0.27680   0.27952   0.28161   0.28405   0.28443
  Beta virt. eigenvalues --    0.28885   0.29050   0.29511   0.29599   0.29781
  Beta virt. eigenvalues --    0.29889   0.30002   0.30233   0.30435   0.30637
  Beta virt. eigenvalues --    0.30952   0.31194   0.31567   0.31666   0.32145
  Beta virt. eigenvalues --    0.32375   0.32510   0.32757   0.32800   0.32946
  Beta virt. eigenvalues --    0.33093   0.33245   0.33561   0.33799   0.33977
  Beta virt. eigenvalues --    0.34158   0.34396   0.34678   0.34786   0.34939
  Beta virt. eigenvalues --    0.35403   0.35507   0.35677   0.35749   0.36131
  Beta virt. eigenvalues --    0.36190   0.36378   0.36596   0.36867   0.37029
  Beta virt. eigenvalues --    0.37253   0.37437   0.37584   0.37778   0.37918
  Beta virt. eigenvalues --    0.38259   0.38490   0.38731   0.38950   0.39092
  Beta virt. eigenvalues --    0.39295   0.39555   0.39873   0.39985   0.40205
  Beta virt. eigenvalues --    0.40444   0.41072   0.41307   0.41424   0.41894
  Beta virt. eigenvalues --    0.41988   0.42454   0.42517   0.42742   0.42899
  Beta virt. eigenvalues --    0.43110   0.43378   0.43566   0.43662   0.44299
  Beta virt. eigenvalues --    0.44530   0.44750   0.45040   0.45153   0.45454
  Beta virt. eigenvalues --    0.46235   0.46483   0.46926   0.47311   0.47540
  Beta virt. eigenvalues --    0.47961   0.48328   0.48818   0.49131   0.49511
  Beta virt. eigenvalues --    0.49631   0.50476   0.50690   0.50825   0.50955
  Beta virt. eigenvalues --    0.51536   0.51940   0.52118   0.52605   0.52877
  Beta virt. eigenvalues --    0.53371   0.53831   0.53995   0.54409   0.54607
  Beta virt. eigenvalues --    0.55210   0.55497   0.55733   0.55867   0.56345
  Beta virt. eigenvalues --    0.56765   0.57232   0.57545   0.58470   0.59105
  Beta virt. eigenvalues --    0.59727   0.59931   0.60329   0.60993   0.61135
  Beta virt. eigenvalues --    0.61961   0.62678   0.63179   0.63637   0.63782
  Beta virt. eigenvalues --    0.64222   0.64934   0.65298   0.65414   0.65549
  Beta virt. eigenvalues --    0.66293   0.66416   0.66610   0.66846   0.67257
  Beta virt. eigenvalues --    0.68152   0.68614   0.68963   0.69130   0.69473
  Beta virt. eigenvalues --    0.69750   0.69973   0.70877   0.71228   0.71595
  Beta virt. eigenvalues --    0.71764   0.71948   0.72590   0.72885   0.73197
  Beta virt. eigenvalues --    0.74047   0.74219   0.74511   0.74758   0.75028
  Beta virt. eigenvalues --    0.75386   0.75577   0.75955   0.76410   0.77057
  Beta virt. eigenvalues --    0.77232   0.77265   0.78053   0.78192   0.78744
  Beta virt. eigenvalues --    0.79227   0.79638   0.80054   0.80602   0.80901
  Beta virt. eigenvalues --    0.81013   0.81454   0.81718   0.82272   0.82800
  Beta virt. eigenvalues --    0.83103   0.83266   0.83729   0.84374   0.84565
  Beta virt. eigenvalues --    0.84676   0.85295   0.85393   0.85775   0.85942
  Beta virt. eigenvalues --    0.86320   0.86889   0.87218   0.87562   0.87786
  Beta virt. eigenvalues --    0.88039   0.88983   0.89130   0.89697   0.90103
  Beta virt. eigenvalues --    0.90456   0.90723   0.91444   0.91802   0.91989
  Beta virt. eigenvalues --    0.92725   0.93583   0.94075   0.94845   0.96177
  Beta virt. eigenvalues --    0.97071   0.97634   0.97966   0.98516   0.98698
  Beta virt. eigenvalues --    0.99608   1.00046   1.00410   1.00644   1.01139
  Beta virt. eigenvalues --    1.02174   1.02940   1.03472   1.03882   1.04426
  Beta virt. eigenvalues --    1.04977   1.05677   1.05894   1.06136   1.06655
  Beta virt. eigenvalues --    1.06823   1.07512   1.07819   1.08237   1.08560
  Beta virt. eigenvalues --    1.08757   1.09084   1.09207   1.09551   1.10678
  Beta virt. eigenvalues --    1.11083   1.11491   1.12095   1.12361   1.12954
  Beta virt. eigenvalues --    1.13583   1.13838   1.14460   1.14658   1.14829
  Beta virt. eigenvalues --    1.15359   1.15663   1.15897   1.16296   1.16674
  Beta virt. eigenvalues --    1.17027   1.18077   1.18286   1.18439   1.18767
  Beta virt. eigenvalues --    1.19489   1.19777   1.20138   1.21320   1.21737
  Beta virt. eigenvalues --    1.22680   1.23583   1.24289   1.24716   1.25395
  Beta virt. eigenvalues --    1.26576   1.26880   1.27474   1.28512   1.28673
  Beta virt. eigenvalues --    1.29496   1.30241   1.30768   1.32175   1.32710
  Beta virt. eigenvalues --    1.33243   1.33699   1.33809   1.34001   1.35173
  Beta virt. eigenvalues --    1.35976   1.36920   1.37673   1.38636   1.39259
  Beta virt. eigenvalues --    1.39680   1.40206   1.40519   1.41458   1.41755
  Beta virt. eigenvalues --    1.42749   1.43196   1.43355   1.44598   1.45177
  Beta virt. eigenvalues --    1.46394   1.47439   1.47947   1.48318   1.49569
  Beta virt. eigenvalues --    1.49698   1.50421   1.51536   1.52095   1.52702
  Beta virt. eigenvalues --    1.53413   1.53517   1.53993   1.54373   1.54665
  Beta virt. eigenvalues --    1.55262   1.56043   1.56239   1.56454   1.57586
  Beta virt. eigenvalues --    1.57770   1.58474   1.59411   1.60138   1.60152
  Beta virt. eigenvalues --    1.61213   1.61524   1.62619   1.63042   1.63223
  Beta virt. eigenvalues --    1.63800   1.64131   1.64461   1.64689   1.65154
  Beta virt. eigenvalues --    1.65755   1.66037   1.66143   1.66975   1.67797
  Beta virt. eigenvalues --    1.69243   1.69803   1.70195   1.70846   1.71540
  Beta virt. eigenvalues --    1.71815   1.72152   1.72569   1.73453   1.74325
  Beta virt. eigenvalues --    1.75531   1.75889   1.76330   1.76568   1.76972
  Beta virt. eigenvalues --    1.78203   1.78606   1.78944   1.79903   1.80772
  Beta virt. eigenvalues --    1.81280   1.82063   1.82328   1.82757   1.83439
  Beta virt. eigenvalues --    1.83641   1.83969   1.84481   1.85242   1.85937
  Beta virt. eigenvalues --    1.86595   1.87218   1.87850   1.87969   1.88383
  Beta virt. eigenvalues --    1.89164   1.89569   1.91192   1.92003   1.92451
  Beta virt. eigenvalues --    1.93343   1.94458   1.95175   1.96030   1.96659
  Beta virt. eigenvalues --    1.97833   1.98329   1.98992   1.99564   1.99961
  Beta virt. eigenvalues --    2.00990   2.01162   2.02191   2.02851   2.03020
  Beta virt. eigenvalues --    2.03714   2.04119   2.04804   2.04961   2.06719
  Beta virt. eigenvalues --    2.07495   2.08054   2.08821   2.09416   2.10041
  Beta virt. eigenvalues --    2.10636   2.11231   2.11550   2.12320   2.13107
  Beta virt. eigenvalues --    2.13179   2.13506   2.13916   2.15017   2.15288
  Beta virt. eigenvalues --    2.15783   2.16560   2.16821   2.17337   2.18718
  Beta virt. eigenvalues --    2.19045   2.19462   2.19830   2.20386   2.20952
  Beta virt. eigenvalues --    2.22549   2.22902   2.23669   2.25063   2.25767
  Beta virt. eigenvalues --    2.27476   2.27782   2.28841   2.29041   2.29622
  Beta virt. eigenvalues --    2.30039   2.30523   2.31543   2.32634   2.33060
  Beta virt. eigenvalues --    2.35329   2.37010   2.38266   2.38727   2.40519
  Beta virt. eigenvalues --    2.43159   2.44638   2.45455   2.47656   2.48925
  Beta virt. eigenvalues --    2.49665   2.49890   2.50559   2.51161   2.51345
  Beta virt. eigenvalues --    2.52024   2.53480   2.53627   2.55073   2.55312
  Beta virt. eigenvalues --    2.56505   2.57386   2.57712   2.59099   2.59662
  Beta virt. eigenvalues --    2.60379   2.61105   2.61296   2.61958   2.62215
  Beta virt. eigenvalues --    2.62579   2.63194   2.63681   2.64737   2.65344
  Beta virt. eigenvalues --    2.66465   2.67853   2.69787   2.69928   2.70748
  Beta virt. eigenvalues --    2.71883   2.74724   2.75372   2.75791   2.76123
  Beta virt. eigenvalues --    2.76437   2.77255   2.78046   2.79269   2.80151
  Beta virt. eigenvalues --    2.80933   2.81548   2.81838   2.82532   2.83203
  Beta virt. eigenvalues --    2.83420   2.84157   2.84333   2.85128   2.85551
  Beta virt. eigenvalues --    2.86113   2.88443   2.88847   2.90831   2.91026
  Beta virt. eigenvalues --    2.91398   2.93042   2.93240   2.94693   2.95634
  Beta virt. eigenvalues --    2.95886   2.96415   2.98098   2.98331   2.99434
  Beta virt. eigenvalues --    3.00237   3.00409   3.01489   3.01852   3.02476
  Beta virt. eigenvalues --    3.03125   3.03557   3.04732   3.05074   3.05463
  Beta virt. eigenvalues --    3.06553   3.07410   3.08114   3.08400   3.08583
  Beta virt. eigenvalues --    3.10778   3.11770   3.13653   3.15086   3.15961
  Beta virt. eigenvalues --    3.17348   3.17625   3.19534   3.20033   3.20815
  Beta virt. eigenvalues --    3.23121   3.23391   3.25491   3.26298   3.26652
  Beta virt. eigenvalues --    3.27247   3.29273   3.30463   3.31290   3.31909
  Beta virt. eigenvalues --    3.32423   3.32875   3.34773   3.37505   3.38570
  Beta virt. eigenvalues --    3.39530   3.40155   3.41623   3.41843   3.46162
  Beta virt. eigenvalues --    3.46543   3.47164   3.47360   3.48272   3.48638
  Beta virt. eigenvalues --    3.50165   3.51080   3.52527   3.54131   3.55021
  Beta virt. eigenvalues --    3.56069   3.57052   3.57949   3.58939   3.61651
  Beta virt. eigenvalues --    3.62425   3.64192   3.66978   3.70331   3.71780
  Beta virt. eigenvalues --    3.72788   3.74370   3.77250   3.77939   3.79001
  Beta virt. eigenvalues --    3.81397   3.82399   3.82568   3.83083   3.83437
  Beta virt. eigenvalues --    3.84547   3.84975   3.89714   3.92589   3.93702
  Beta virt. eigenvalues --    3.96218   3.97253   4.02132   4.03652   4.04686
  Beta virt. eigenvalues --    4.05264   4.06004   4.09087   4.11905   4.13863
  Beta virt. eigenvalues --    4.16307   4.17443   4.18665   4.22579   4.25367
  Beta virt. eigenvalues --    4.29637   4.33491   4.37553   4.39297   4.48281
  Beta virt. eigenvalues --    4.52515   4.53128   4.63257   4.80559   4.97426
  Beta virt. eigenvalues --    4.98839   4.99124   5.02101   5.09863   5.11649
  Beta virt. eigenvalues --    5.16606   5.18272   5.18460   5.22139   5.23718
  Beta virt. eigenvalues --    5.25456   5.37343   5.39282   5.41292   5.42702
  Beta virt. eigenvalues --    5.50693   5.52127   5.85181   5.88115   5.89014
  Beta virt. eigenvalues --    5.92485   5.94482   5.97014   8.10673   8.14888
  Beta virt. eigenvalues --   17.37439  17.42679  17.57981  17.60873  17.67904
  Beta virt. eigenvalues --   17.72970  23.60641  23.67381  23.81659  23.90327
  Beta virt. eigenvalues --   23.92805  23.95179  23.96653  23.97602  23.98381
  Beta virt. eigenvalues --   23.99257  23.99728  24.00222  24.01326  24.04783
  Beta virt. eigenvalues --   24.05320  24.07698  24.08839  24.11049  24.11375
  Beta virt. eigenvalues --   24.12014  24.13567  24.18576  24.22204  24.22980
  Beta virt. eigenvalues --   24.26732  24.27493  35.67893  35.70753  50.04579
  Beta virt. eigenvalues --   50.06370  50.14797  50.16673  50.18569  50.20205
  Beta virt. eigenvalues --  189.27936 189.32797
          Condensed to atoms (all electrons):
          Atomic-Atomic Spin Densities.
 Mulliken charges and spin densities:
               1          2
     1  C    0.232834   0.020582
     2  C   -0.119978   0.120923
     3  C    0.153434  -0.035545
     4  C    0.157749   0.093426
     5  C    0.192371   0.022783
     6  C   -0.299824   0.020249
     7  C    0.220137  -0.032823
     8  C    0.331543   0.127807
     9  C    0.403163   0.102346
    10  C   -0.437691   0.024105
    11  C    0.172082   0.024125
    12  C    0.115690   0.096062
    13  C   -0.475764   0.054974
    14  C   -0.584824   0.065295
    15  H    0.128200  -0.004433
    16  H    0.131264  -0.003992
    17  H    0.157176  -0.001520
    18  N   -0.129918  -0.020951
    19  N   -0.135977  -0.019152
    20  O   -0.348439   0.067990
    21  O   -0.335618   0.061041
    22  O   -0.341256   0.064640
    23  O   -0.287836   0.075177
    24  C   -0.187583   0.001335
    25  H    0.157772  -0.000962
    26  H    0.150237  -0.000893
    27  H    0.168910  -0.000339
    28  C   -0.191761   0.001080
    29  H    0.155030  -0.000807
    30  H    0.154182  -0.000840
    31  H    0.168661  -0.000303
    32  C    0.036277  -0.042839
    33  C   -0.478113   0.048016
    34  S   -0.639966   0.023858
    35  C   -0.205100  -0.022992
    36  H    0.136137  -0.003226
    37  C    0.720595   0.048490
    38  O   -0.131877  -0.001523
    39  C    0.817393  -0.018356
    40  C   -0.246194   0.000229
    41  C   -0.047607   0.025992
    42  S   -0.294942   0.002752
    43  H    0.145672   0.000004
    44  H    0.137435  -0.000286
    45  H    0.165128  -0.000218
    46  C   -0.619526  -0.011418
    47  O   -0.112518   0.002485
    48  C   -0.298875   0.028269
    49  H    0.115163   0.000544
    50  C   -0.242827  -0.000176
    51  H    0.139249  -0.001753
    52  H    0.130547   0.000369
    53  H    0.166777  -0.000013
    54  H    0.133205   0.000412
 Sum of Mulliken charges =  -1.00000   1.00000
 Mulliken charges and spin densities with hydrogens summed into heavy atoms:
               1          2
     1  C    0.232834   0.020582
     2  C   -0.119978   0.120923
     3  C    0.153434  -0.035545
     4  C    0.157749   0.093426
[...]
     9   Atom        0.004297      0.019340      0.024933
    10   Atom       -0.009878     -0.011877      0.022805
    11   Atom        0.003301     -0.006478      0.009275
    12   Atom       -0.003559     -0.009249      0.024968
    13   Atom       -0.003626     -0.003196      0.014985
    14   Atom        0.000293     -0.003105      0.014235
    15   Atom       -0.004295      0.000726     -0.000137
    16   Atom        0.004578     -0.000655     -0.000704
    17   Atom        0.002630      0.000358     -0.000565
    18   Atom        0.001281      0.008370     -0.014451
    19   Atom       -0.000181      0.001663     -0.008808
    20   Atom       -0.001848     -0.005439      0.054664
    21   Atom       -0.001569     -0.011197      0.049510
    22   Atom       -0.006727     -0.037662      0.060635
    23   Atom       -0.022480     -0.061760      0.151369
    24   Atom        0.000209      0.000179     -0.000364
    25   Atom        0.000241     -0.000066     -0.001217
    26   Atom        0.000209      0.000197      0.000200
    27   Atom       -0.001109      0.000337     -0.000578
    28   Atom       -0.000118      0.000076     -0.000306
    29   Atom       -0.000625      0.000522     -0.000828
    30   Atom       -0.000792     -0.000299      0.000269
    31   Atom        0.000134      0.000009     -0.000406
    32   Atom       -0.001329     -0.001712      0.017506
    33   Atom       -0.006406      0.007758     -0.028232
    34   Atom        0.010224     -0.003578     -0.055984
    35   Atom        0.001282     -0.001379      0.012454
    36   Atom        0.000940     -0.000605     -0.000089
    37   Atom        0.000986     -0.003537     -0.026229
    38   Atom       -0.000508     -0.001833      0.007166
    39   Atom        0.001272     -0.000208      0.008152
    40   Atom       -0.000492     -0.000668     -0.000179
    41   Atom       -0.000540      0.001323     -0.014439
    42   Atom       -0.004943      0.002769     -0.011494
    43   Atom       -0.000292     -0.000280      0.000127
    44   Atom       -0.000490     -0.000630      0.000359
    45   Atom       -0.000827     -0.000582      0.000270
    46   Atom        0.000114     -0.000723      0.004411
    47   Atom       -0.000582      0.003294     -0.009982
    48   Atom       -0.001013      0.002136     -0.013694
    49   Atom       -0.000083     -0.000098      0.000138
    50   Atom        0.000351      0.000192      0.000370
    51   Atom       -0.000435     -0.000351     -0.000541
    52   Atom        0.000259      0.000198      0.000243
    53   Atom        0.000227      0.000146      0.000244
    54   Atom        0.000303      0.000049      0.000071
 --------------------------------------------------------


 ---------------------------------------------------------------------------------
              Anisotropic Spin Dipole Couplings in Principal Axis System
 ---------------------------------------------------------------------------------

       Atom             a.u.   MegaHertz   Gauss  10(-4) cm-1        Axes

              Baa    -0.0270    -3.627    -1.294    -1.210  0.9145 -0.3976  0.0746
     1 C(13)  Bbb    -0.0159    -2.132    -0.761    -0.711  0.4041  0.9068 -0.1204
              Bcc     0.0429     5.758     2.055     1.921 -0.0198  0.1402  0.9899
 
              Baa    -0.0787   -10.556    -3.767    -3.521  0.8039  0.5915 -0.0622
     2 C(13)  Bbb    -0.0737    -9.889    -3.529    -3.299 -0.5945  0.7967 -0.1084
              Bcc     0.1524    20.445     7.295     6.820 -0.0145  0.1241  0.9922
 
              Baa    -0.0405    -5.439    -1.941    -1.814 -0.0220  0.1184  0.9927
     3 C(13)  Bbb     0.0183     2.453     0.875     0.818 -0.2962  0.9476 -0.1196
              Bcc     0.0222     2.985     1.065     0.996  0.9549  0.2967 -0.0143
 
              Baa    -0.0651    -8.730    -3.115    -2.912  0.9523 -0.2979  0.0658
     4 C(13)  Bbb    -0.0603    -8.094    -2.888    -2.700  0.3038  0.9459 -0.1140
              Bcc     0.1254    16.824     6.003     5.612 -0.0283  0.1286  0.9913
 
              Baa    -0.0267    -3.577    -1.276    -1.193  0.5675  0.8194 -0.0805
     5 C(13)  Bbb    -0.0168    -2.253    -0.804    -0.751  0.8229 -0.5610  0.0906
              Bcc     0.0434     5.830     2.080     1.945 -0.0291  0.1177  0.9926
 
              Baa    -0.0237    -3.176    -1.133    -1.059  0.7299  0.6835  0.0112
     6 C(13)  Bbb    -0.0146    -1.966    -0.701    -0.656 -0.6835  0.7299  0.0035
              Bcc     0.0383     5.142     1.835     1.715 -0.0057 -0.0102  0.9999
 
              Baa    -0.0369    -4.958    -1.769    -1.654 -0.0068  0.1468  0.9891
     7 C(13)  Bbb     0.0159     2.131     0.760     0.711 -0.0923  0.9849 -0.1468
              Bcc     0.0211     2.827     1.009     0.943  0.9957  0.0923 -0.0068
 
              Baa    -0.0783   -10.504    -3.748    -3.504  0.9720 -0.2322  0.0359
     8 C(13)  Bbb    -0.0733    -9.843    -3.512    -3.283  0.2340  0.9424 -0.2391
              Bcc     0.1516    20.347     7.260     6.787  0.0217  0.2408  0.9703
 
              Baa    -0.0569    -7.638    -2.725    -2.548  0.9692 -0.2323 -0.0815
     9 C(13)  Bbb    -0.0515    -6.915    -2.467    -2.306  0.2146  0.9594 -0.1829
              Bcc     0.1084    14.552     5.193     4.854  0.1207  0.1597  0.9798
 
              Baa    -0.0311    -4.173    -1.489    -1.392  0.6383  0.7578 -0.1353
    10 C(13)  Bbb    -0.0201    -2.699    -0.963    -0.900  0.7448 -0.5635  0.3574
              Bcc     0.0512     6.872     2.452     2.292 -0.1946  0.3289  0.9241
 
              Baa    -0.0267    -3.584    -1.279    -1.196  0.8856 -0.4412  0.1451
    11 C(13)  Bbb    -0.0163    -2.186    -0.780    -0.729  0.4560  0.8852 -0.0917
              Bcc     0.0430     5.770     2.059     1.925 -0.0880  0.1474  0.9852
 
              Baa    -0.0665    -8.923    -3.184    -2.976  0.6728  0.7370 -0.0637
    12 C(13)  Bbb    -0.0618    -8.299    -2.961    -2.768  0.7381 -0.6629  0.1254
              Bcc     0.1283    17.222     6.145     5.745 -0.0502  0.1314  0.9901
 
              Baa    -0.0385    -5.160    -1.841    -1.721  0.7946  0.6040 -0.0611
    13 C(13)  Bbb    -0.0320    -4.291    -1.531    -1.431 -0.6061  0.7835 -0.1367
              Bcc     0.0704     9.451     3.372     3.152 -0.0347  0.1456  0.9887
 
              Baa    -0.0407    -5.455    -1.947    -1.820  0.9927 -0.1138  0.0412
    14 C(13)  Bbb    -0.0347    -4.660    -1.663    -1.555  0.1181  0.9849 -0.1262
              Bcc     0.0754    10.116     3.609     3.374 -0.0262  0.1302  0.9911
 
              Baa    -0.0043    -2.277    -0.813    -0.760  0.4448  0.8894 -0.1051
    15 H(1)   Bbb    -0.0024    -1.276    -0.455    -0.426 -0.0240  0.1291  0.9913
              Bcc     0.0067     3.553     1.268     1.185  0.8953 -0.4384  0.0788
 
              Baa    -0.0038    -2.046    -0.730    -0.682  0.8396 -0.5285  0.1257
    16 H(1)   Bbb    -0.0025    -1.333    -0.476    -0.445 -0.0480  0.1584  0.9862
              Bcc     0.0063     3.378     1.206     1.127  0.5412  0.8340 -0.1076
 
              Baa    -0.0033    -1.753    -0.626    -0.585 -0.2952  0.1926  0.9358
    17 H(1)   Bbb    -0.0015    -0.821    -0.293    -0.274  0.8458 -0.4029  0.3497
              Bcc     0.0048     2.574     0.919     0.859  0.4444  0.8948 -0.0440
 
              Baa    -0.0507    -1.956    -0.698    -0.652 -0.1125  0.1933  0.9747
    18 N(14)  Bbb     0.0248     0.956     0.341     0.319  0.9265  0.3750  0.0326
              Bcc     0.0259     0.999     0.357     0.333 -0.3592  0.9066 -0.2213
 
              Baa    -0.0477    -1.841    -0.657    -0.614 -0.0230  0.1228  0.9922
    19 N(14)  Bbb     0.0231     0.892     0.318     0.298  0.9615  0.2744 -0.0117
              Bcc     0.0246     0.948     0.338     0.316 -0.2737  0.9537 -0.1244
 
              Baa    -0.1553    11.240     4.011     3.749  0.8745  0.4827 -0.0474
    20 O(17)  Bbb    -0.1525    11.038     3.939     3.682 -0.4849  0.8676 -0.1103
              Bcc     0.3079   -22.279    -7.950    -7.431 -0.0122  0.1194  0.9928
 
              Baa    -0.1393    10.078     3.596     3.362  0.9975  0.0679  0.0191
    21 O(17)  Bbb    -0.1362     9.855     3.517     3.287 -0.0650  0.9903 -0.1228
              Bcc     0.2755   -19.934    -7.113    -6.649 -0.0273  0.1212  0.9923
 
              Baa    -0.1426    10.317     3.681     3.441  0.9058  0.4233  0.0205
    22 O(17)  Bbb    -0.1396    10.100     3.604     3.369 -0.4140  0.8942 -0.1706
              Bcc     0.2822   -20.417    -7.285    -6.810 -0.0905  0.1460  0.9851
 
              Baa    -0.1625    11.759     4.196     3.922  0.9801  0.1828  0.0778
    23 O(17)  Bbb    -0.1608    11.638     4.153     3.882 -0.1443  0.9242 -0.3537
              Bcc     0.3233   -23.397    -8.349    -7.804 -0.1366  0.3355  0.9321
 
              Baa    -0.0018    -0.241    -0.086    -0.081 -0.0798  0.1361  0.9875
    24 C(13)  Bbb     0.0007     0.092     0.033     0.031  0.8670 -0.4793  0.1362
              Bcc     0.0011     0.149     0.053     0.050  0.4919  0.8670 -0.0798
 
              Baa    -0.0015    -0.801    -0.286    -0.267 -0.0322  0.4288  0.9028
    25 H(1)   Bbb    -0.0002    -0.100    -0.036    -0.033  0.9907 -0.1058  0.0856
              Bcc     0.0017     0.901     0.321     0.300  0.1322  0.8972 -0.4214
 
              Baa    -0.0015    -0.791    -0.282    -0.264 -0.1588 -0.0506  0.9860
    26 H(1)   Bbb    -0.0003    -0.169    -0.060    -0.056  0.9818 -0.1132  0.1523
              Bcc     0.0018     0.960     0.342     0.320  0.1039  0.9923  0.0677
 
              Baa    -0.0016    -0.854    -0.305    -0.285 -0.0807  0.1669  0.9827
    27 H(1)   Bbb    -0.0005    -0.262    -0.094    -0.087  0.8487  0.5285 -0.0201
              Bcc     0.0021     1.116     0.398     0.372 -0.5227  0.8324 -0.1843
 
              Baa    -0.0017    -0.223    -0.080    -0.074 -0.0245  0.1224  0.9922
    28 C(13)  Bbb     0.0007     0.094     0.034     0.032  0.7144  0.6964 -0.0683
              Bcc     0.0010     0.128     0.046     0.043 -0.6993  0.7071 -0.1045
 
              Baa    -0.0014    -0.733    -0.262    -0.245 -0.1874  0.3039  0.9341
    29 H(1)   Bbb    -0.0002    -0.100    -0.036    -0.033  0.8433  0.5375 -0.0057
              Bcc     0.0016     0.833     0.297     0.278 -0.5038  0.7866 -0.3570
 
              Baa    -0.0014    -0.736    -0.263    -0.246  0.1529 -0.0586  0.9865
    30 H(1)   Bbb    -0.0002    -0.119    -0.043    -0.040  0.8403  0.5332 -0.0986
              Bcc     0.0016     0.856     0.305     0.285 -0.5202  0.8440  0.1307
 
              Baa    -0.0015    -0.818    -0.292    -0.273 -0.0245  0.1138  0.9932
    31 H(1)   Bbb    -0.0006    -0.299    -0.107    -0.100  0.9985 -0.0468  0.0300
              Bcc     0.0021     1.117     0.398     0.373  0.0499  0.9924 -0.1125
 
              Baa    -0.0306    -4.103    -1.464    -1.369  0.0192 -0.4512  0.8922
    32 C(13)  Bbb     0.0122     1.632     0.582     0.545  0.3326  0.8444  0.4199
              Bcc     0.0184     2.470     0.881     0.824  0.9429 -0.2887 -0.1663
 
              Baa    -0.0213    -2.860    -1.020    -0.954  0.1632  0.8080  0.5661
    33 C(13)  Bbb    -0.0182    -2.446    -0.873    -0.816  0.9707 -0.0288 -0.2386
              Bcc     0.0395     5.306     1.893     1.770  0.1765 -0.5885  0.7890
 
              Baa    -0.0447    -1.833    -0.654    -0.611  0.6727 -0.6171 -0.4081
    34 S(33)  Bbb    -0.0328    -1.344    -0.480    -0.448  0.7357  0.4993  0.4576
              Bcc     0.0775     3.177     1.134     1.060 -0.0786 -0.6081  0.7899
 
              Baa    -0.0196    -2.636    -0.941    -0.879  0.0612 -0.4997  0.8640
    35 C(13)  Bbb     0.0091     1.221     0.436     0.407 -0.3041  0.8152  0.4930
              Bcc     0.0105     1.415     0.505     0.472  0.9507  0.2929  0.1021
 
              Baa    -0.0013    -0.689    -0.246    -0.230  0.8338 -0.3752  0.4050
    36 H(1)   Bbb    -0.0000    -0.004    -0.002    -0.001 -0.2353  0.4220  0.8755
              Bcc     0.0013     0.693     0.247     0.231  0.4994  0.8253 -0.2635
 
              Baa    -0.0245    -3.287    -1.173    -1.097  0.2791  0.8733  0.3993
    37 C(13)  Bbb    -0.0226    -3.028    -1.080    -1.010  0.9588 -0.2761 -0.0665
              Bcc     0.0471     6.315     2.253     2.106 -0.0522 -0.4014  0.9144
 
              Baa    -0.0136     0.984     0.351     0.328  0.0709 -0.3921  0.9172
    38 O(17)  Bbb     0.0055    -0.395    -0.141    -0.132  0.5167  0.8009  0.3025
              Bcc     0.0081    -0.589    -0.210    -0.196  0.8532 -0.4525 -0.2594
 
              Baa    -0.0136    -1.823    -0.651    -0.608  0.0373 -0.4842  0.8742
    39 C(13)  Bbb     0.0053     0.714     0.255     0.238 -0.3698  0.8060  0.4622
              Bcc     0.0083     1.109     0.396     0.370  0.9284  0.3405  0.1490
 
              Baa    -0.0009    -0.120    -0.043    -0.040  0.5451  0.5651  0.6193
    40 C(13)  Bbb    -0.0000    -0.003    -0.001    -0.001 -0.0929  0.7748 -0.6253
              Bcc     0.0009     0.123     0.044     0.041  0.8332 -0.2833 -0.4749
 
              Baa    -0.0115    -1.548    -0.553    -0.517 -0.1537  0.8508  0.5025
    41 C(13)  Bbb    -0.0102    -1.373    -0.490    -0.458  0.9871  0.1549  0.0395
              Bcc     0.0218     2.922     1.043     0.975  0.0442 -0.5021  0.8637
 
              Baa    -0.0112    -0.458    -0.163    -0.153  0.5531  0.7488  0.3651
    42 S(33)  Bbb    -0.0056    -0.232    -0.083    -0.077  0.8050 -0.3676 -0.4657
              Bcc     0.0168     0.689     0.246     0.230  0.2145 -0.5515  0.8061
 
              Baa    -0.0003    -0.171    -0.061    -0.057  0.3542 -0.0826  0.9315
    43 H(1)   Bbb    -0.0003    -0.150    -0.053    -0.050  0.3946  0.9163 -0.0688
              Bcc     0.0006     0.321     0.114     0.107  0.8478 -0.3920 -0.3571
 
              Baa    -0.0006    -0.298    -0.106    -0.099  0.7093  0.3501  0.6119
    44 H(1)   Bbb    -0.0005    -0.257    -0.092    -0.086  0.0743  0.8260 -0.5587
              Bcc     0.0010     0.554     0.198     0.185  0.7010 -0.4418 -0.5598
 
              Baa    -0.0008    -0.412    -0.147    -0.138  0.5466  0.3791  0.7467
    45 H(1)   Bbb    -0.0006    -0.313    -0.112    -0.105  0.2555  0.7736 -0.5798
              Bcc     0.0014     0.726     0.259     0.242  0.7974 -0.5078 -0.3260
 
              Baa    -0.0072    -0.961    -0.343    -0.320  0.0620 -0.4872  0.8711
    46 C(13)  Bbb     0.0031     0.421     0.150     0.141  0.3013  0.8412  0.4490
              Bcc     0.0040     0.539     0.192     0.180  0.9515 -0.2346 -0.1989
 
              Baa    -0.0097     0.705     0.251     0.235  0.7408 -0.5669 -0.3604
    47 O(17)  Bbb    -0.0080     0.581     0.207     0.194  0.6606  0.7121  0.2376
              Bcc     0.0178    -1.285    -0.459    -0.429  0.1219 -0.4141  0.9020
 
              Baa    -0.0114    -1.532    -0.547    -0.511 -0.1115  0.8749  0.4713
    48 C(13)  Bbb    -0.0105    -1.408    -0.503    -0.470  0.9911  0.1328 -0.0120
              Bcc     0.0219     2.941     1.049     0.981  0.0730 -0.4658  0.8819
 
              Baa    -0.0004    -0.222    -0.079    -0.074  0.0521 -0.4667  0.8829
    49 H(1)   Bbb    -0.0001    -0.060    -0.021    -0.020  0.1887  0.8728  0.4502
              Bcc     0.0005     0.282     0.101     0.094  0.9807 -0.1431 -0.1335
 
              Baa    -0.0005    -0.070    -0.025    -0.023 -0.0200 -0.4504  0.8926
    50 C(13)  Bbb    -0.0002    -0.022    -0.008    -0.007  0.8085 -0.5325 -0.2506
              Bcc     0.0007     0.091     0.033     0.030  0.5882  0.7166  0.3748
 
              Baa    -0.0016    -0.836    -0.298    -0.279  0.1717  0.8796  0.4436
    51 H(1)   Bbb    -0.0001    -0.055    -0.020    -0.018  0.0663 -0.4596  0.8857
              Bcc     0.0017     0.891     0.318     0.297  0.9829 -0.1227 -0.1372
 
              Baa    -0.0003    -0.168    -0.060    -0.056 -0.0107 -0.5956  0.8032
    52 H(1)   Bbb    -0.0002    -0.091    -0.032    -0.030  0.7436 -0.5418 -0.3918
              Bcc     0.0005     0.259     0.092     0.086  0.6685  0.5931  0.4487
 
              Baa    -0.0004    -0.208    -0.074    -0.070 -0.0981 -0.3713  0.9233
    53 H(1)   Bbb    -0.0001    -0.043    -0.015    -0.014  0.7883 -0.5953 -0.1556
              Bcc     0.0005     0.251     0.090     0.084  0.6074  0.7126  0.3511
 
              Baa    -0.0004    -0.191    -0.068    -0.064 -0.0374 -0.1011  0.9942
    54 H(1)   Bbb    -0.0001    -0.071    -0.025    -0.024  0.7645 -0.6436 -0.0368
              Bcc     0.0005     0.262     0.093     0.087  0.6436  0.7586  0.1014
 

 ---------------------------------------------------------------------------------

 Unable to Open any file for archive entry.
 1\1\GINC-CX3-7-9\FOpt\UB3LYP\6-311+G(d,p)\C26H18N2O6S2(1-,2)\NS5018\05
 -Oct-2021\0\\# opt=modredundant b3lyp/6-311+g(d,p)\\NDI_-35.pdb\\-1,2\
 C,-2.6602054764,-3.007168684,-0.4138210043\C,-2.3179707411,-1.60226639
 1,-0.2112495808\C,-3.3350656642,-0.6253447495,-0.0999635906\C,-4.69850
 82637,-0.9870455159,-0.1847719278\C,-5.0836265045,-2.3833974292,-0.388
 020085\C,-0.9770069742,-1.2169521434,-0.1815186286\C,-2.9580618766,0.7
 440666674,0.1084269217\C,-1.5801706132,1.1122849161,0.1965733927\C,-0.
 5692545907,0.1075915727,-0.0049278812\C,-1.2675249114,2.4819277576,0.6
 077789807\C,-3.6952094648,3.104214291,0.4816378183\C,-3.9988965036,1.7
 005177975,0.2343066151\C,-5.3495126602,1.3140430134,0.1345626553\C,-5.
 6987319255,-0.0042968734,-0.0713521546\H,-6.7341441919,-0.3117425972,-
 0.1435504798\H,-6.1012263003,2.0871631916,0.2314945606\H,-0.2399728887
 ,-1.9897639442,-0.3576720757\N,-2.3391972049,3.4020662188,0.6634932373
 \N,-4.0303217506,-3.3136548826,-0.4846590005\O,-1.8324448084,-3.912906
 9285,-0.5226337882\O,-6.2545294799,-2.7571824458,-0.4720639019\O,-4.55
 29103045,3.9882126061,0.5537119512\O,-0.1500149891,2.8975962547,0.9199
 557306\C,-1.9788964475,4.775029832,1.0202998723\H,-1.5504785433,4.8043
 475097,2.0241649527\H,-1.2271434804,5.1545953979,0.3265527163\H,-2.883
 7995568,5.3739112457,0.9743180652\C,-4.3644307818,-4.7243012211,-0.683
 9360192\H,-3.9395811692,-5.0803194445,-1.624546719\H,-3.9399532515,-5.
 3241389643,0.1229685011\H,-5.4471004457,-4.8090131409,-0.6980013638\C,
 0.8679658981,0.3706247293,-0.1629394902\C,1.5136925097,1.4195129899,-0
 .7732621464\S,2.0315864847,-0.8007036656,0.426500177\C,2.9192548567,1.
 2822037293,-0.7837419851\H,0.9866540409,2.2643470228,-1.1836144377\C,3
 .3975236982,0.129144091,-0.1759856282\O,3.8050676941,2.1678296685,-1.3
 333005595\C,4.7656534597,-0.2904361748,-0.0218333266\C,3.2948875589,3.
 425870119,-1.7567790347\C,5.2507432919,-1.4451890408,0.578328788\S,6.1
 262312333,0.6629571737,-0.6087679224\H,4.1607117598,4.0139996951,-2.06
 04575575\H,2.6176956704,3.3122402927,-2.610541515\H,2.7692591287,3.933
 1779832,-0.9418595766\C,6.6684146539,-1.5664262914,0.5654475247\O,4.37
 16143252,-2.3349272152,1.1290204497\C,7.2739681251,-0.5024508081,-0.04
 37746425\H,7.2123961303,-2.3996812563,0.9874378463\C,4.8734208734,-3.5
 913215397,1.5504660688\H,8.3294169203,-0.3353704718,-0.193159362\H,5.5
 753929037,-3.4833024043,2.386178678\H,4.0084682352,-4.1647783011,1.881
 3109056\H,5.3668723124,-4.1203932424,0.7267689764\\Version=ES64L-G16Re
 vC.01\State=2-A\HF=-2359.4287055\S2=0.75851\S2-1=0.\S2A=0.750065\RMSD=
 6.543e-09\RMSF=3.956e-04\Dipole=4.4322124,-0.1016139,-0.2175374\Quadru
 pole=-36.7379549,7.3447236,29.3932313,-4.2606957,1.1326008,-12.0629856
 \PG=C01 [X(C26H18N2O6S2)]\\@
 The archive entry for this job was punched.


 EDUCATION IS NOT TRAINING BUT RATHER THE PROCESS THAT EQUIPS YOU TO
 ENTERTAIN YOURSELF, A FRIEND, OR AN IDEA.  -- WALLACE STERLING
 Job cpu time:       5 days  0 hours 36 minutes 31.5 seconds.
 Elapsed time:       0 days 15 hours 12 minutes  8.3 seconds.
 File lengths (MBytes):  RWF=    893 Int=      0 D2E=      0 Chk=     80 Scr=      1
 Normal termination of Gaussian 16 at Tue Oct  5 14:19:26 2021.
