 Entering Gaussian System, Link 0=g16
 Input=NDI_180.gjf
 Output=NDI_180.log
 Initial command:
 /apps/gaussian/g16-c01-avx/g16/l1.exe "/tmp/pbs.4643761[355].pbs/Gau-2736694.inp" -scrdir="/tmp/pbs.4643761[355].pbs/"
 Entering Link 1 = /apps/gaussian/g16-c01-avx/g16/l1.exe PID=   2736695.
  
 Copyright (c) 1988-2019, Gaussian, Inc.  All Rights Reserved.
  
 This is part of the Gaussian(R) 16 program.  It is based on
 the Gaussian(R) 09 system (copyright 2009, Gaussian, Inc.),
 the Gaussian(R) 03 system (copyright 2003, Gaussian, Inc.),
 the Gaussian(R) 98 system (copyright 1998, Gaussian, Inc.),
 the Gaussian(R) 94 system (copyright 1995, Gaussian, Inc.),
 the Gaussian 92(TM) system (copyright 1992, Gaussian, Inc.),
 the Gaussian 90(TM) system (copyright 1990, Gaussian, Inc.),
 the Gaussian 88(TM) system (copyright 1988, Gaussian, Inc.),
 the Gaussian 86(TM) system (copyright 1986, Carnegie Mellon
 University), and the Gaussian 82(TM) system (copyright 1983,
 Carnegie Mellon University). Gaussian is a federally registered
 trademark of Gaussian, Inc.
  
 This software contains proprietary and confidential information,
 including trade secrets, belonging to Gaussian, Inc.
  
 This software is provided under written license and may be
 used, copied, transmitted, or stored only in accord with that
 written license.
  
 The following legend is applicable only to US Government
 contracts under FAR:
  
                    RESTRICTED RIGHTS LEGEND
  
 Use, reproduction and disclosure by the US Government is
 subject to restrictions as set forth in subparagraphs (a)
 and (c) of the Commercial Computer Software - Restricted
 Rights clause in FAR 52.227-19.
  
 Gaussian, Inc.
 340 Quinnipiac St., Bldg. 40, Wallingford CT 06492
  
  
 ---------------------------------------------------------------
 Warning -- This program may not be used in any manner that
 competes with the business of Gaussian, Inc. or will provide
 assistance to any competitor of Gaussian, Inc.  The licensee
 of this program is prohibited from giving any competitor of
 Gaussian, Inc. access to this program.  By using this program,
 the user acknowledges that Gaussian, Inc. is engaged in the
 business of creating and licensing software in the field of
 computational chemistry and represents and warrants to the
 licensee that it is not a competitor of Gaussian, Inc. and that
 it will not use this program in any manner prohibited above.
 ---------------------------------------------------------------
  

 Cite this work as:
 Gaussian 16, Revision C.01,
 M. J. Frisch, G. W. Trucks, H. B. Schlegel, G. E. Scuseria, 
 M. A. Robb, J. R. Cheeseman, G. Scalmani, V. Barone, 
 G. A. Petersson, H. Nakatsuji, X. Li, M. Caricato, A. V. Marenich, 
 J. Bloino, B. G. Janesko, R. Gomperts, B. Mennucci, H. P. Hratchian, 
 J. V. Ortiz, A. F. Izmaylov, J. L. Sonnenberg, D. Williams-Young, 
 F. Ding, F. Lipparini, F. Egidi, J. Goings, B. Peng, A. Petrone, 
 T. Henderson, D. Ranasinghe, V. G. Zakrzewski, J. Gao, N. Rega, 
 G. Zheng, W. Liang, M. Hada, M. Ehara, K. Toyota, R. Fukuda, 
 J. Hasegawa, M. Ishida, T. Nakajima, Y. Honda, O. Kitao, H. Nakai, 
 T. Vreven, K. Throssell, J. A. Montgomery, Jr., J. E. Peralta, 
 F. Ogliaro, M. J. Bearpark, J. J. Heyd, E. N. Brothers, K. N. Kudin, 
 V. N. Staroverov, T. A. Keith, R. Kobayashi, J. Normand, 
 K. Raghavachari, A. P. Rendell, J. C. Burant, S. S. Iyengar, 
 J. Tomasi, M. Cossi, J. M. Millam, M. Klene, C. Adamo, R. Cammi, 
 J. W. Ochterski, R. L. Martin, K. Morokuma, O. Farkas, 
 J. B. Foresman, and D. J. Fox, Gaussian, Inc., Wallingford CT, 2019.
 
 ******************************************
 Gaussian 16:  ES64L-G16RevC.01  3-Jul-2019
                 5-Oct-2021 
 ******************************************
 %mem=10GB
 %nprocshared=8
 Will use up to    8 processors via shared memory.
 -------------------------------------
 # opt=modredundant b3lyp/6-311+g(d,p)
 -------------------------------------
 1/18=120,19=15,26=3,38=1/1,3;
 2/9=110,12=2,17=6,18=5,40=1/2;
 3/5=4,6=6,7=111,11=2,25=1,30=1,71=1,74=-5/1,2,3;
 4//1;
 5/5=2,38=5/2;
 6/7=2,8=2,9=2,10=2,28=1/1;
 7//1,2,3,16;
 1/18=20,19=15,26=3/3(2);
 2/9=110/2;
 99//99;
 2/9=110/2;
 3/5=4,6=6,7=111,11=2,25=1,30=1,71=1,74=-5/1,2,3;
 4/5=5,16=3,69=1/1;
 5/5=2,38=5/2;
 7//1,2,3,16;
 1/18=20,19=15,26=3/3(-5);
 2/9=110/2;
 6/7=2,8=2,9=2,10=2,19=2,28=1/1;
 99/9=1/99;
 -----------
 NDI_180.pdb
 -----------
 Symbolic Z-matrix:
 Charge = -1 Multiplicity = 2
 C                    -2.563    -2.994    -0.409 
 C                    -2.257    -1.551    -0.224 
 C                    -3.301    -0.607    -0.083 
 C                    -4.65     -1.024    -0.115 
 C                    -4.992    -2.459    -0.304 
 C                    -0.949    -1.137    -0.215 
 C                    -2.962     0.764     0.102 
 C                    -1.595     1.188     0.123 
 C                    -0.561     0.232    -0.072 
 C                    -1.328     2.616     0.446 
 C                    -3.777     3.115     0.508 
 C                    -4.035     1.679     0.268 
 C                    -5.356     1.252     0.23 
 C                    -5.672    -0.098     0.036 
 H                    -6.699    -0.442     0.008 
 H                    -6.133     1.997     0.361 
 H                    -0.19     -1.895    -0.369 
 N                    -2.432     3.476     0.608 
 N                    -3.916    -3.353    -0.438 
 O                    -1.695    -3.847    -0.532 
 O                    -6.149    -2.85     -0.34 
 O                    -4.676     3.938     0.629 
 O                    -0.212     3.097     0.596 
 C                    -2.111     4.875     0.912 
 H                    -1.54      4.931     1.84 
 H                    -1.5       5.299     0.111 
 H                    -3.05      5.414     1.003 
 C                    -4.206    -4.779    -0.625 
 H                    -3.759    -5.126    -1.559 
 H                    -3.775    -5.355     0.196 
 H                    -5.286    -4.897    -0.649 
 C                     0.876     0.482    -0.178 
 C                     1.933    -0.387    -0.366 
 S                     1.478     2.114     0.113 
 C                     3.195     0.235    -0.286 
 H                     1.797    -1.438    -0.564 
 C                     3.146     1.611    -0.039 
 O                     4.405    -0.368    -0.424 
 C                     4.249     2.525     0.054 
 C                     4.415    -1.738    -0.816 
 C                     4.2       3.892     0.324 
 S                     5.926     2.035    -0.169 
 H                     5.464    -2.004    -0.948 
 H                     3.974    -2.376    -0.041 
 H                     3.875    -1.885    -1.759 
 C                     5.474     4.527     0.349 
 O                     2.995     4.486     0.528 
 C                     6.49      3.644     0.1 
 H                     5.63      5.58      0.542 
 C                     2.979     5.875     0.836 
 H                     7.55      3.855     0.062 
 H                     3.4       6.469     0.015 
 H                     1.932     6.141     0.974 
 H                     3.534     6.085     1.758 
 
 The following ModRedundant input section has been read:
 D       8       9      32      33 F                                           
 

 GradGradGradGradGradGradGradGradGradGradGradGradGradGradGradGradGradGrad
 Berny optimization.
 Initialization pass.
                           ----------------------------
                           !    Initial Parameters    !
                           ! (Angstroms and Degrees)  !
 --------------------------                            --------------------------
 ! Name  Definition              Value          Derivative Info.                !
 --------------------------------------------------------------------------------
 ! R1    R(1,2)                  1.4866         estimate D2E/DX2                !
 ! R2    R(1,19)                 1.4001         estimate D2E/DX2                !
 ! R3    R(1,20)                 1.2232         estimate D2E/DX2                !
 ! R4    R(2,3)                  1.4146         estimate D2E/DX2                !
 ! R5    R(2,6)                  1.372          estimate D2E/DX2                !
 ! R6    R(3,4)                  1.4123         estimate D2E/DX2                !
 ! R7    R(3,7)                  1.4244         estimate D2E/DX2                !
 ! R8    R(4,5)                  1.4872         estimate D2E/DX2                !
 ! R9    R(4,14)                 1.3874         estimate D2E/DX2                !
 ! R10   R(5,19)                 1.4053         estimate D2E/DX2                !
 ! R11   R(5,21)                 1.2218         estimate D2E/DX2                !
 ! R12   R(6,9)                  1.4301         estimate D2E/DX2                !
 ! R13   R(6,17)                 1.0837         estimate D2E/DX2                !
 ! R14   R(7,8)                  1.4314         estimate D2E/DX2                !
 ! R15   R(7,12)                 1.4199         estimate D2E/DX2                !
 ! R16   R(8,9)                  1.4217         estimate D2E/DX2                !
 ! R17   R(8,10)                 1.4882         estimate D2E/DX2                !
 ! R18   R(9,32)                 1.4624         estimate D2E/DX2                !
 ! R19   R(10,18)                1.4088         estimate D2E/DX2                !
 ! R20   R(10,23)                1.2245         estimate D2E/DX2                !
 ! R21   R(11,12)                1.4786         estimate D2E/DX2                !
 ! R22   R(11,18)                1.3962         estimate D2E/DX2                !
 ! R23   R(11,22)                1.2248         estimate D2E/DX2                !
 ! R24   R(12,13)                1.3888         estimate D2E/DX2                !
 ! R25   R(13,14)                1.4            estimate D2E/DX2                !
 ! R26   R(13,16)                1.0844         estimate D2E/DX2                !
 ! R27   R(14,15)                1.0834         estimate D2E/DX2                !
 ! R28   R(18,24)                1.4672         estimate D2E/DX2                !
 ! R29   R(19,28)                1.4672         estimate D2E/DX2                !
 ! R30   R(24,25)                1.091          estimate D2E/DX2                !
 ! R31   R(24,26)                1.093          estimate D2E/DX2                !
 ! R32   R(24,27)                1.0865         estimate D2E/DX2                !
 ! R33   R(28,29)                1.0921         estimate D2E/DX2                !
 ! R34   R(28,30)                1.0916         estimate D2E/DX2                !
 ! R35   R(28,31)                1.0867         estimate D2E/DX2                !
 ! R36   R(32,33)                1.3812         estimate D2E/DX2                !
 ! R37   R(32,34)                1.7637         estimate D2E/DX2                !
 ! R38   R(33,35)                1.4092         estimate D2E/DX2                !
 ! R39   R(33,36)                1.0781         estimate D2E/DX2                !
 ! R40   R(34,37)                1.7488         estimate D2E/DX2                !
 ! R41   R(35,37)                1.3989         estimate D2E/DX2                !
 ! R42   R(35,38)                1.359          estimate D2E/DX2                !
 ! R43   R(37,39)                1.4355         estimate D2E/DX2                !
 ! R44   R(38,40)                1.425          estimate D2E/DX2                !
 ! R45   R(39,41)                1.3943         estimate D2E/DX2                !
 ! R46   R(39,42)                1.7613         estimate D2E/DX2                !
 ! R47   R(40,43)                1.0902         estimate D2E/DX2                !
 ! R48   R(40,44)                1.0964         estimate D2E/DX2                !
 ! R49   R(40,45)                1.0966         estimate D2E/DX2                !
 ! R50   R(41,46)                1.4237         estimate D2E/DX2                !
 ! R51   R(41,47)                1.3589         estimate D2E/DX2                !
 ! R52   R(42,48)                1.7261         estimate D2E/DX2                !
 ! R53   R(46,48)                1.3689         estimate D2E/DX2                !
 ! R54   R(46,49)                1.0818         estimate D2E/DX2                !
 ! R55   R(47,50)                1.4228         estimate D2E/DX2                !
 ! R56   R(48,51)                1.0815         estimate D2E/DX2                !
 ! R57   R(50,52)                1.0973         estimate D2E/DX2                !
 ! R58   R(50,53)                1.089          estimate D2E/DX2                !
 ! R59   R(50,54)                1.0965         estimate D2E/DX2                !
 ! A1    A(2,1,19)             116.767          estimate D2E/DX2                !
 ! A2    A(2,1,20)             122.9113         estimate D2E/DX2                !
 ! A3    A(19,1,20)            120.3217         estimate D2E/DX2                !
 ! A4    A(1,2,3)              120.5473         estimate D2E/DX2                !
 ! A5    A(1,2,6)              119.3369         estimate D2E/DX2                !
 ! A6    A(3,2,6)              120.1056         estimate D2E/DX2                !
 ! A7    A(2,3,4)              120.3743         estimate D2E/DX2                !
 ! A8    A(2,3,7)              118.662          estimate D2E/DX2                !
 ! A9    A(4,3,7)              120.9617         estimate D2E/DX2                !
 ! A10   A(3,4,5)              120.4909         estimate D2E/DX2                !
 ! A11   A(3,4,14)             120.2702         estimate D2E/DX2                !
 ! A12   A(5,4,14)             119.2382         estimate D2E/DX2                !
 ! A13   A(4,5,19)             116.7341         estimate D2E/DX2                !
 ! A14   A(4,5,21)             122.024          estimate D2E/DX2                !
 ! A15   A(19,5,21)            121.2418         estimate D2E/DX2                !
 ! A16   A(2,6,9)              123.2421         estimate D2E/DX2                !
 ! A17   A(2,6,17)             117.1119         estimate D2E/DX2                !
 ! A18   A(9,6,17)             119.589          estimate D2E/DX2                !
 ! A19   A(3,7,8)              120.9519         estimate D2E/DX2                !
 ! A20   A(3,7,12)             117.1037         estimate D2E/DX2                !
 ! A21   A(8,7,12)             121.944          estimate D2E/DX2                !
 ! A22   A(7,8,9)              119.5639         estimate D2E/DX2                !
 ! A23   A(7,8,10)             117.3064         estimate D2E/DX2                !
 ! A24   A(9,8,10)             122.9922         estimate D2E/DX2                !
 ! A25   A(6,9,8)              117.3944         estimate D2E/DX2                !
 ! A26   A(6,9,32)             115.0236         estimate D2E/DX2                !
 ! A27   A(8,9,32)             127.5648         estimate D2E/DX2                !
 ! A28   A(8,10,18)            118.042          estimate D2E/DX2                !
 ! A29   A(8,10,23)            124.5436         estimate D2E/DX2                !
 ! A30   A(18,10,23)           117.4097         estimate D2E/DX2                !
 ! A31   A(12,11,18)           115.5202         estimate D2E/DX2                !
 ! A32   A(12,11,22)           122.7205         estimate D2E/DX2                !
 ! A33   A(18,11,22)           121.7534         estimate D2E/DX2                !
 ! A34   A(7,12,11)            120.8614         estimate D2E/DX2                !
 ! A35   A(7,12,13)            121.162          estimate D2E/DX2                !
 ! A36   A(11,12,13)           117.9699         estimate D2E/DX2                !
 ! A37   A(12,13,14)           120.9948         estimate D2E/DX2                !
 ! A38   A(12,13,16)           117.8401         estimate D2E/DX2                !
 ! A39   A(14,13,16)           121.1642         estimate D2E/DX2                !
 ! A40   A(4,14,13)            119.5003         estimate D2E/DX2                !
 ! A41   A(4,14,15)            118.9169         estimate D2E/DX2                !
 ! A42   A(13,14,15)           121.5811         estimate D2E/DX2                !
 ! A43   A(10,18,11)           126.0753         estimate D2E/DX2                !
 ! A44   A(10,18,24)           115.7508         estimate D2E/DX2                !
 ! A45   A(11,18,24)           118.1737         estimate D2E/DX2                !
 ! A46   A(1,19,5)             125.0856         estimate D2E/DX2                !
 ! A47   A(1,19,28)            116.2868         estimate D2E/DX2                !
 ! A48   A(5,19,28)            118.6276         estimate D2E/DX2                !
 ! A49   A(18,24,25)           109.8574         estimate D2E/DX2                !
 ! A50   A(18,24,26)           109.8979         estimate D2E/DX2                !
 ! A51   A(18,24,27)           107.5355         estimate D2E/DX2                !
 ! A52   A(25,24,26)           108.1108         estimate D2E/DX2                !
 ! A53   A(25,24,27)           110.8301         estimate D2E/DX2                !
 ! A54   A(26,24,27)           110.6124         estimate D2E/DX2                !
 ! A55   A(19,28,29)           109.6906         estimate D2E/DX2                !
 ! A56   A(19,28,30)           109.8136         estimate D2E/DX2                !
 ! A57   A(19,28,31)           107.7461         estimate D2E/DX2                !
 ! A58   A(29,28,30)           108.2991         estimate D2E/DX2                !
 ! A59   A(29,28,31)           110.6959         estimate D2E/DX2                !
 ! A60   A(30,28,31)           110.5924         estimate D2E/DX2                !
 ! A61   A(9,32,33)            130.8646         estimate D2E/DX2                !
 ! A62   A(9,32,34)            118.7917         estimate D2E/DX2                !
 ! A63   A(33,32,34)           110.0862         estimate D2E/DX2                !
 ! A64   A(32,33,35)           113.5716         estimate D2E/DX2                !
 ! A65   A(32,33,36)           122.8064         estimate D2E/DX2                !
 ! A66   A(35,33,36)           123.6195         estimate D2E/DX2                !
 ! A67   A(32,34,37)            92.5832         estimate D2E/DX2                !
 ! A68   A(33,35,37)           114.3821         estimate D2E/DX2                !
 ! A69   A(33,35,38)           126.5664         estimate D2E/DX2                !
 ! A70   A(37,35,38)           119.0515         estimate D2E/DX2                !
 ! A71   A(34,37,35)           109.3709         estimate D2E/DX2                !
 ! A72   A(34,37,39)           122.9635         estimate D2E/DX2                !
 ! A73   A(35,37,39)           127.65           estimate D2E/DX2                !
 ! A74   A(35,38,40)           117.4372         estimate D2E/DX2                !
 ! A75   A(37,39,41)           127.5752         estimate D2E/DX2                !
 ! A76   A(37,39,42)           123.1109         estimate D2E/DX2                !
 ! A77   A(41,39,42)           109.3139         estimate D2E/DX2                !
 ! A78   A(38,40,43)           105.9398         estimate D2E/DX2                !
 ! A79   A(38,40,44)           111.233          estimate D2E/DX2                !
 ! A80   A(38,40,45)           111.2222         estimate D2E/DX2                !
 ! A81   A(43,40,44)           109.3062         estimate D2E/DX2                !
 ! A82   A(43,40,45)           109.6941         estimate D2E/DX2                !
 ! A83   A(44,40,45)           109.3768         estimate D2E/DX2                !
 ! A84   A(39,41,46)           114.1577         estimate D2E/DX2                !
 ! A85   A(39,41,47)           119.2631         estimate D2E/DX2                !
 ! A86   A(46,41,47)           126.5788         estimate D2E/DX2                !
 ! A87   A(39,42,48)            91.8365         estimate D2E/DX2                !
 ! A88   A(41,46,48)           111.9166         estimate D2E/DX2                !
 ! A89   A(41,46,49)           124.4923         estimate D2E/DX2                !
 ! A90   A(48,46,49)           123.591          estimate D2E/DX2                !
 ! A91   A(41,47,50)           117.9831         estimate D2E/DX2                !
 ! A92   A(42,48,46)           112.7752         estimate D2E/DX2                !
 ! A93   A(42,48,51)           119.7795         estimate D2E/DX2                !
 ! A94   A(46,48,51)           127.4451         estimate D2E/DX2                !
 ! A95   A(47,50,52)           111.2337         estimate D2E/DX2                !
 ! A96   A(47,50,53)           106.0625         estimate D2E/DX2                !
 ! A97   A(47,50,54)           111.3036         estimate D2E/DX2                !
 ! A98   A(52,50,53)           109.3562         estimate D2E/DX2                !
 ! A99   A(52,50,54)           109.3456         estimate D2E/DX2                !
 ! A100  A(53,50,54)           109.4693         estimate D2E/DX2                !
 ! D1    D(19,1,2,3)             0.1578         estimate D2E/DX2                !
 ! D2    D(19,1,2,6)          -178.6792         estimate D2E/DX2                !
 ! D3    D(20,1,2,3)          -179.8231         estimate D2E/DX2                !
 ! D4    D(20,1,2,6)             1.3399         estimate D2E/DX2                !
 ! D5    D(2,1,19,5)            -0.124          estimate D2E/DX2                !
 ! D6    D(2,1,19,28)          179.8267         estimate D2E/DX2                !
 ! D7    D(20,1,19,5)          179.8575         estimate D2E/DX2                !
 ! D8    D(20,1,19,28)          -0.1919         estimate D2E/DX2                !
 ! D9    D(1,2,3,4)              0.0571         estimate D2E/DX2                !
 ! D10   D(1,2,3,7)            179.5453         estimate D2E/DX2                !
 ! D11   D(6,2,3,4)            178.8851         estimate D2E/DX2                !
 ! D12   D(6,2,3,7)             -1.6266         estimate D2E/DX2                !
 ! D13   D(1,2,6,9)            178.625          estimate D2E/DX2                !
 ! D14   D(1,2,6,17)             1.3881         estimate D2E/DX2                !
 ! D15   D(3,2,6,9)             -0.2173         estimate D2E/DX2                !
 ! D16   D(3,2,6,17)          -177.4541         estimate D2E/DX2                !
 ! D17   D(2,3,4,5)             -0.3074         estimate D2E/DX2                !
 ! D18   D(2,3,4,14)           179.3968         estimate D2E/DX2                !
 ! D19   D(7,3,4,5)           -179.7837         estimate D2E/DX2                !
 ! D20   D(7,3,4,14)            -0.0795         estimate D2E/DX2                !
 ! D21   D(2,3,7,8)              1.0523         estimate D2E/DX2                !
 ! D22   D(2,3,7,12)          -178.712          estimate D2E/DX2                !
 ! D23   D(4,3,7,8)           -179.4626         estimate D2E/DX2                !
 ! D24   D(4,3,7,12)             0.7731         estimate D2E/DX2                !
 ! D25   D(3,4,5,19)             0.3343         estimate D2E/DX2                !
 ! D26   D(3,4,5,21)          -179.7799         estimate D2E/DX2                !
 ! D27   D(14,4,5,19)         -179.3729         estimate D2E/DX2                !
 ! D28   D(14,4,5,21)            0.5129         estimate D2E/DX2                !
 ! D29   D(3,4,14,13)           -0.4559         estimate D2E/DX2                !
 ! D30   D(3,4,14,15)         -179.9937         estimate D2E/DX2                !
 ! D31   D(5,4,14,13)          179.252          estimate D2E/DX2                !
 ! D32   D(5,4,14,15)           -0.2858         estimate D2E/DX2                !
 ! D33   D(4,5,19,1)            -0.1141         estimate D2E/DX2                !
 ! D34   D(4,5,19,28)          179.9364         estimate D2E/DX2                !
 ! D35   D(21,5,19,1)          179.9992         estimate D2E/DX2                !
 ! D36   D(21,5,19,28)           0.0496         estimate D2E/DX2                !
 ! D37   D(2,6,9,8)              2.5984         estimate D2E/DX2                !
 ! D38   D(2,6,9,32)          -176.0103         estimate D2E/DX2                !
 ! D39   D(17,6,9,8)           179.77           estimate D2E/DX2                !
 ! D40   D(17,6,9,32)            1.1613         estimate D2E/DX2                !
 ! D41   D(3,7,8,9)              1.3551         estimate D2E/DX2                !
 ! D42   D(3,7,8,10)          -174.5099         estimate D2E/DX2                !
 ! D43   D(12,7,8,9)          -178.8921         estimate D2E/DX2                !
 ! D44   D(12,7,8,10)            5.2428         estimate D2E/DX2                !
 ! D45   D(3,7,12,11)          178.0768         estimate D2E/DX2                !
 ! D46   D(3,7,12,13)           -0.9621         estimate D2E/DX2                !
 ! D47   D(8,7,12,11)           -1.685          estimate D2E/DX2                !
 ! D48   D(8,7,12,13)          179.2761         estimate D2E/DX2                !
 ! D49   D(7,8,9,6)             -3.0809         estimate D2E/DX2                !
 ! D50   D(7,8,9,32)           175.3285         estimate D2E/DX2                !
 ! D51   D(10,8,9,6)           172.5381         estimate D2E/DX2                !
 ! D52   D(10,8,9,32)           -9.0525         estimate D2E/DX2                !
 ! D53   D(7,8,10,18)           -4.7549         estimate D2E/DX2                !
 ! D54   D(7,8,10,23)          174.4235         estimate D2E/DX2                !
 ! D55   D(9,8,10,18)          179.5335         estimate D2E/DX2                !
 ! D56   D(9,8,10,23)           -1.2882         estimate D2E/DX2                !
 ! D57   D(6,9,32,33)           -1.5596         estimate D2E/DX2                !
 ! D58   D(6,9,32,34)         -175.0913         estimate D2E/DX2                !
 ! D59   D(8,9,32,33)          179.9988         Frozen                          !
 ! D60   D(8,9,32,34)            6.4672         estimate D2E/DX2                !
 ! D61   D(8,10,18,11)           0.7189         estimate D2E/DX2                !
 ! D62   D(8,10,18,24)        -179.4089         estimate D2E/DX2                !
 ! D63   D(23,10,18,11)       -178.5188         estimate D2E/DX2                !
 ! D64   D(23,10,18,24)          1.3535         estimate D2E/DX2                !
 ! D65   D(18,11,12,7)          -2.3856         estimate D2E/DX2                !
 ! D66   D(18,11,12,13)        176.6833         estimate D2E/DX2                !
 ! D67   D(22,11,12,7)         178.4862         estimate D2E/DX2                !
 ! D68   D(22,11,12,13)         -2.445          estimate D2E/DX2                !
 ! D69   D(12,11,18,10)          2.8444         estimate D2E/DX2                !
 ! D70   D(12,11,18,24)       -177.0251         estimate D2E/DX2                !
 ! D71   D(22,11,18,10)       -178.0181         estimate D2E/DX2                !
 ! D72   D(22,11,18,24)          2.1124         estimate D2E/DX2                !
 ! D73   D(7,12,13,14)           0.461          estimate D2E/DX2                !
 ! D74   D(7,12,13,16)        -179.8781         estimate D2E/DX2                !
 ! D75   D(11,12,13,14)       -178.6049         estimate D2E/DX2                !
 ! D76   D(11,12,13,16)          1.056          estimate D2E/DX2                !
 ! D77   D(12,13,14,4)           0.2708         estimate D2E/DX2                !
 ! D78   D(12,13,14,15)        179.7958         estimate D2E/DX2                !
 ! D79   D(16,13,14,4)        -179.3788         estimate D2E/DX2                !
 ! D80   D(16,13,14,15)          0.1463         estimate D2E/DX2                !
 ! D81   D(10,18,24,25)        -59.609          estimate D2E/DX2                !
 ! D82   D(10,18,24,26)         59.2209         estimate D2E/DX2                !
 ! D83   D(10,18,24,27)        179.6858         estimate D2E/DX2                !
 ! D84   D(11,18,24,25)        120.2739         estimate D2E/DX2                !
 ! D85   D(11,18,24,26)       -120.8962         estimate D2E/DX2                !
 ! D86   D(11,18,24,27)         -0.4313         estimate D2E/DX2                !
 ! D87   D(1,19,28,29)         -58.1407         estimate D2E/DX2                !
 ! D88   D(1,19,28,30)          60.7668         estimate D2E/DX2                !
 ! D89   D(1,19,28,31)        -178.7139         estimate D2E/DX2                !
 ! D90   D(5,19,28,29)         121.8132         estimate D2E/DX2                !
 ! D91   D(5,19,28,30)        -119.2792         estimate D2E/DX2                !
 ! D92   D(5,19,28,31)           1.2401         estimate D2E/DX2                !
 ! D93   D(9,32,33,35)        -174.2333         estimate D2E/DX2                !
 ! D94   D(9,32,33,36)           6.3175         estimate D2E/DX2                !
 ! D95   D(34,32,33,35)         -0.2674         estimate D2E/DX2                !
 ! D96   D(34,32,33,36)       -179.7167         estimate D2E/DX2                !
 ! D97   D(9,32,34,37)         175.3703         estimate D2E/DX2                !
 ! D98   D(33,32,34,37)          0.575          estimate D2E/DX2                !
 ! D99   D(32,33,35,37)         -0.2992         estimate D2E/DX2                !
 ! D100  D(32,33,35,38)        179.7246         estimate D2E/DX2                !
 ! D101  D(36,33,35,37)        179.1449         estimate D2E/DX2                !
 ! D102  D(36,33,35,38)         -0.8312         estimate D2E/DX2                !
 ! D103  D(32,34,37,35)         -0.7273         estimate D2E/DX2                !
 ! D104  D(32,34,37,39)        177.9339         estimate D2E/DX2                !
 ! D105  D(33,35,37,34)          0.719          estimate D2E/DX2                !
 ! D106  D(33,35,37,39)       -177.8623         estimate D2E/DX2                !
 ! D107  D(38,35,37,34)       -179.303          estimate D2E/DX2                !
 ! D108  D(38,35,37,39)          2.1157         estimate D2E/DX2                !
 ! D109  D(33,35,38,40)          6.5455         estimate D2E/DX2                !
 ! D110  D(37,35,38,40)       -173.4297         estimate D2E/DX2                !
 ! D111  D(34,37,39,41)          2.8486         estimate D2E/DX2                !
 ! D112  D(34,37,39,42)       -177.2146         estimate D2E/DX2                !
 ! D113  D(35,37,39,41)       -178.7466         estimate D2E/DX2                !
 ! D114  D(35,37,39,42)          1.1901         estimate D2E/DX2                !
 ! D115  D(35,38,40,43)        175.4843         estimate D2E/DX2                !
 ! D116  D(35,38,40,44)        -65.8403         estimate D2E/DX2                !
 ! D117  D(35,38,40,45)         56.3487         estimate D2E/DX2                !
 ! D118  D(37,39,41,46)       -179.979          estimate D2E/DX2                !
 ! D119  D(37,39,41,47)         -0.215          estimate D2E/DX2                !
 ! D120  D(42,39,41,46)          0.0772         estimate D2E/DX2                !
 ! D121  D(42,39,41,47)        179.8412         estimate D2E/DX2                !
 ! D122  D(37,39,42,48)       -179.996          estimate D2E/DX2                !
 ! D123  D(41,39,42,48)         -0.0492         estimate D2E/DX2                !
 ! D124  D(39,41,46,48)         -0.072          estimate D2E/DX2                !
 ! D125  D(39,41,46,49)       -179.9986         estimate D2E/DX2                !
 ! D126  D(47,41,46,48)       -179.8157         estimate D2E/DX2                !
 ! D127  D(47,41,46,49)          0.2578         estimate D2E/DX2                !
 ! D128  D(39,41,47,50)        178.3869         estimate D2E/DX2                !
 ! D129  D(46,41,47,50)         -1.8812         estimate D2E/DX2                !
 ! D130  D(39,42,48,46)          0.01           estimate D2E/DX2                !
 ! D131  D(39,42,48,51)        179.8823         estimate D2E/DX2                !
 ! D132  D(41,46,48,42)          0.0318         estimate D2E/DX2                !
 ! D133  D(41,46,48,51)       -179.8286         estimate D2E/DX2                !
 ! D134  D(49,46,48,42)        179.9592         estimate D2E/DX2                !
 ! D135  D(49,46,48,51)          0.0987         estimate D2E/DX2                !
 ! D136  D(41,47,50,52)         62.0462         estimate D2E/DX2                !
 ! D137  D(41,47,50,53)       -179.1442         estimate D2E/DX2                !
 ! D138  D(41,47,50,54)        -60.1606         estimate D2E/DX2                !
 --------------------------------------------------------------------------------
 Trust Radius=3.00D-01 FncErr=1.00D-07 GrdErr=1.00D-06 EigMax=2.50D+02 EigMin=1.00D-04
 Number of steps in this run=    307 maximum allowed number of steps=    324.
 GradGradGradGradGradGradGradGradGradGradGradGradGradGradGradGradGradGrad

 Stoichiometry    C26H18N2O6S2(1-,2)
 Framework group  C1[X(C26H18N2O6S2)]
 Deg. of freedom   156
 Full point group                 C1      NOp   1
 Largest Abelian subgroup         C1      NOp   1
 Largest concise Abelian subgroup C1      NOp   1
                         Standard orientation:                         
 ---------------------------------------------------------------------
 Center     Atomic      Atomic             Coordinates (Angstroms)
 Number     Number       Type             X           Y           Z
 ---------------------------------------------------------------------
      1          6           0       -3.877820   -2.536969    0.100103
      2          6           0       -2.973764   -1.357585    0.057160
      3          6           0       -3.503432   -0.047988   -0.016071
      4          6           0       -4.900518    0.156542   -0.048189
      5          6           0       -5.833674   -1.000977   -0.012396
      6          6           0       -1.615524   -1.551138    0.064998
      7          6           0       -2.600736    1.053408   -0.045268
      8          6           0       -1.184680    0.845443   -0.024212
      9          6           0       -0.670595   -0.479837   -0.002665
     10          6           0       -0.318729    2.052177    0.069191
     11          6           0       -2.309267    3.557416   -0.080673
     12          6           0       -3.168436    2.354091   -0.090551
     13          6           0       -4.544755    2.536689   -0.125448
     14          6           0       -5.417875    1.442464   -0.107421
     15          1           0       -6.493041    1.574026   -0.131023
     16          1           0       -4.919965    3.553469   -0.161378
     17          1           0       -1.262747   -2.575686    0.079517
     18          7           0       -0.938241    3.316744    0.027542
     19          7           0       -5.253376   -2.278799    0.061042
     20          8           0       -3.467034   -3.687179    0.166689
     21          8           0       -7.046544   -0.856595   -0.042795
     22          8           0       -2.761012    4.694012   -0.145832
     23          8           0        0.898986    2.024904    0.194663
     24          6           0       -0.036626    4.471286    0.109895
     25          1           0        0.526079    4.436189    1.043967
     26          1           0        0.676860    4.445883   -0.717747
     27          1           0       -0.647904    5.368184    0.060552
     28          6           0       -6.135714   -3.450339    0.100009
     29          1           0       -5.906597   -4.111586   -0.738341
     30          1           0       -5.975019   -4.003905    1.027004
     31          1           0       -7.160911   -3.095021    0.039836
     32          6           0        0.730134   -0.894066   -0.073940
     33          6           0        1.302722   -2.150915   -0.058835
     34         16           0        1.985402    0.343981   -0.028669
     35          6           0        2.711181   -2.128076   -0.018230
     36          1           0        0.720953   -3.058188   -0.085314
     37          6           0        3.267851   -0.844804   -0.007428
     38          8           0        3.537905   -3.206271    0.009643
     39          6           0        4.659470   -0.492615   -0.011079
     40          6           0        2.944956   -4.492565   -0.146956
     41          6           0        5.212841    0.786662    0.023871
     42         16           0        5.953832   -1.686034   -0.061446
     43          1           0        3.772300   -5.201881   -0.177851
     44          1           0        2.291595   -4.734363    0.699686
     45          1           0        2.370495   -4.554033   -1.078983
     46          6           0        6.636326    0.806347    0.008778
     47          8           0        4.388426    1.866156    0.062744
     48          6           0        7.164343   -0.455851   -0.035973
     49          1           0        7.236861    1.705933    0.031042
     50          6           0        4.982024    3.157328    0.133152
     51          1           0        8.210104   -0.730886   -0.053419
     52          1           0        5.597167    3.360763   -0.752472
     53          1           0        4.156637    3.866823    0.170059
     54          1           0        5.596690    3.264549    1.034761
 ---------------------------------------------------------------------
 Rotational constants (GHZ):           0.1753504           0.0587877           0.0441046
 Standard basis: 6-311+G(d,p) (5D, 7F)
 There are   952 symmetry adapted cartesian basis functions of A   symmetry.
 There are   916 symmetry adapted basis functions of A   symmetry.
   916 basis functions,  1468 primitive gaussians,   952 cartesian basis functions
   135 alpha electrons      134 beta electrons
       nuclear repulsion energy      4131.4675753602 Hartrees.
 NAtoms=   54 NActive=   54 NUniq=   54 SFac= 1.00D+00 NAtFMM=   60 NAOKFM=F Big=F
 Integral buffers will be    131072 words long.
 Raffenetti 2 integral format.
 Two-electron integral symmetry is turned on.
 One-electron integrals computed using PRISM.
 NBasis=   916 RedAO= T EigKep=  1.48D-06  NBF=   916
 NBsUse=   900 1.00D-06 EigRej=  9.29D-07 NBFU=   900
 ExpMin= 4.05D-02 ExpMax= 9.34D+04 ExpMxC= 3.17D+03 IAcc=3 IRadAn=         5 AccDes= 0.00D+00
 Harris functional with IExCor=  402 and IRadAn=       5 diagonalized for initial guess.
 HarFok:  IExCor=  402 AccDes= 0.00D+00 IRadAn=         5 IDoV= 1 UseB2=F ITyADJ=14
 ICtDFT=  3500011 ScaDFX=  1.000000  1.000000  1.000000  1.000000
 FoFCou: FMM=F IPFlag=           0 FMFlag=      100000 FMFlg1=           0
         NFxFlg=           0 DoJE=T BraDBF=F KetDBF=T FulRan=T
         wScrn=  0.000000 ICntrl=       500 IOpCl=  0 I1Cent=   200000004 NGrid=           0
         NMat0=    1 NMatS0=      1 NMatT0=    0 NMatD0=    1 NMtDS0=    0 NMtDT0=    0
 Petite list used in FoFCou.
 Initial guess <Sx>= 0.0000 <Sy>= 0.0000 <Sz>= 0.5000 <S**2>= 0.7500 S= 0.5000
 Requested convergence on RMS density matrix=1.00D-08 within 128 cycles.
 Requested convergence on MAX density matrix=1.00D-06.
 Requested convergence on             energy=1.00D-06.
 No special actions if energy rises.
 Restarting incremental Fock formation.
 SCF Done:  E(UB3LYP) =  -2359.37588154     A.U. after   23 cycles
            NFock= 23  Conv=0.73D-08     -V/T= 2.0029
 <Sx>= 0.0000 <Sy>= 0.0000 <Sz>= 0.5000 <S**2>= 0.7581 S= 0.5040
 <L.S>=  0.00000000000    
 Annihilation of the first spin contaminant:
 S**2 before annihilation     0.7581,   after     0.7501

 **********************************************************************

            Population analysis using the SCF Density.

 **********************************************************************

 Orbital symmetries:
 Alpha Orbitals:
       Occupied  (A) (A) (A) (A) (A) (A) (A) (A) (A) (A) (A) (A)
                 (A) (A) (A) (A) (A) (A) (A) (A) (A) (A) (A) (A)
                 (A) (A) (A) (A) (A) (A) (A) (A) (A) (A) (A) (A)
                 (A) (A) (A) (A) (A) (A) (A) (A) (A) (A) (A) (A)
                 (A) (A) (A) (A) (A) (A) (A) (A) (A) (A) (A) (A)
                 (A) (A) (A) (A) (A) (A) (A) (A) (A) (A) (A) (A)
                 (A) (A) (A) (A) (A) (A) (A) (A) (A) (A) (A) (A)
                 (A) (A) (A) (A) (A) (A) (A) (A) (A) (A) (A) (A)
                 (A) (A) (A) (A) (A) (A) (A) (A) (A) (A) (A) (A)
                 (A) (A) (A) (A) (A) (A) (A) (A) (A) (A) (A) (A)
                 (A) (A) (A) (A) (A) (A) (A) (A) (A) (A) (A) (A)
                 (A) (A) (A)
       Virtual   (A) (A) (A) (A) (A) (A) (A) (A) (A) (A) (A) (A)
                 (A) (A) (A) (A) (A) (A) (A) (A) (A) (A) (A) (A)
                 (A) (A) (A) (A) (A) (A) (A) (A) (A) (A) (A) (A)
                 (A) (A) (A) (A) (A) (A) (A) (A) (A) (A) (A) (A)
                 (A) (A) (A) (A) (A) (A) (A) (A) (A) (A) (A) (A)
                 (A) (A) (A) (A) (A) (A) (A) (A) (A) (A) (A) (A)
                 (A) (A) (A) (A) (A) (A) (A) (A) (A) (A) (A) (A)
                 (A) (A) (A) (A) (A) (A) (A) (A) (A) (A) (A) (A)
                 (A) (A) (A) (A) (A) (A) (A) (A) (A) (A) (A) (A)
                 (A) (A) (A) (A) (A) (A) (A) (A) (A) (A) (A) (A)
                 (A) (A) (A) (A) (A) (A) (A) (A) (A) (A) (A) (A)
                 (A) (A) (A) (A) (A) (A) (A) (A) (A) (A) (A) (A)
                 (A) (A) (A) (A) (A) (A) (A) (A) (A) (A) (A) (A)
                 (A) (A) (A) (A) (A) (A) (A) (A) (A) (A) (A) (A)
                 (A) (A) (A) (A) (A) (A) (A) (A) (A) (A) (A) (A)
                 (A) (A) (A) (A) (A) (A) (A) (A) (A) (A) (A) (A)
                 (A) (A) (A) (A) (A) (A) (A) (A) (A) (A) (A) (A)
                 (A) (A) (A) (A) (A) (A) (A) (A) (A) (A) (A) (A)
                 (A) (A) (A) (A) (A) (A) (A) (A) (A) (A) (A) (A)
                 (A) (A) (A) (A) (A) (A) (A) (A) (A) (A) (A) (A)
                 (A) (A) (A) (A) (A) (A) (A) (A) (A) (A) (A) (A)
                 (A) (A) (A) (A) (A) (A) (A) (A) (A) (A) (A) (A)
                 (A) (A) (A) (A) (A) (A) (A) (A) (A) (A) (A) (A)
                 (A) (A) (A) (A) (A) (A) (A) (A) (A) (A) (A) (A)
                 (A) (A) (A) (A) (A) (A) (A) (A) (A) (A) (A) (A)
                 (A) (A) (A) (A) (A) (A) (A) (A) (A) (A) (A) (A)
                 (A) (A) (A) (A) (A) (A) (A) (A) (A) (A) (A) (A)
                 (A) (A) (A) (A) (A) (A) (A) (A) (A) (A) (A) (A)
                 (A) (A) (A) (A) (A) (A) (A) (A) (A) (A) (A) (A)
                 (A) (A) (A) (A) (A) (A) (A) (A) (A) (A) (A) (A)
                 (A) (A) (A) (A) (A) (A) (A) (A) (A) (A) (A) (A)
                 (A) (A) (A) (A) (A) (A) (A) (A) (A) (A) (A) (A)
                 (A) (A) (A) (A) (A) (A) (A) (A) (A) (A) (A) (A)
                 (A) (A) (A) (A) (A) (A) (A) (A) (A) (A) (A) (A)
                 (A) (A) (A) (A) (A) (A) (A) (A) (A) (A) (A) (A)
                 (A) (A) (A) (A) (A) (A) (A) (A) (A) (A) (A) (A)
                 (A) (A) (A) (A) (A) (A) (A) (A) (A) (A) (A) (A)
                 (A) (A) (A) (A) (A) (A) (A) (A) (A) (A) (A) (A)
                 (A) (A) (A) (A) (A) (A) (A) (A) (A) (A) (A) (A)
                 (A) (A) (A) (A) (A) (A) (A) (A) (A) (A) (A) (A)
                 (A) (A) (A) (A) (A) (A) (A) (A) (A) (A) (A) (A)
                 (A) (A) (A) (A) (A) (A) (A) (A) (A) (A) (A) (A)
                 (A) (A) (A) (A) (A) (A) (A) (A) (A) (A) (A) (A)
                 (A) (A) (A) (A) (A) (A) (A) (A) (A) (A) (A) (A)
                 (A) (A) (A) (A) (A) (A) (A) (A) (A) (A) (A) (A)
                 (A) (A) (A) (A) (A) (A) (A) (A) (A) (A) (A) (A)
                 (A) (A) (A) (A) (A) (A) (A) (A) (A) (A) (A) (A)
                 (A) (A) (A) (A) (A) (A) (A) (A) (A) (A) (A) (A)
                 (A) (A) (A) (A) (A) (A) (A) (A) (A) (A) (A) (A)
                 (A) (A) (A) (A) (A) (A) (A) (A) (A) (A) (A) (A)
                 (A) (A) (A) (A) (A) (A) (A) (A) (A) (A) (A) (A)
                 (A) (A) (A) (A) (A) (A) (A) (A) (A) (A) (A) (A)
                 (A) (A) (A) (A) (A) (A) (A) (A) (A) (A) (A) (A)
                 (A) (A) (A) (A) (A) (A) (A) (A) (A) (A) (A) (A)
                 (A) (A) (A) (A) (A) (A) (A) (A) (A) (A) (A) (A)
                 (A) (A) (A) (A) (A) (A) (A) (A) (A) (A) (A) (A)
                 (A) (A) (A) (A) (A) (A) (A) (A) (A) (A) (A) (A)
                 (A) (A) (A) (A) (A) (A) (A) (A) (A) (A) (A) (A)
                 (A) (A) (A) (A) (A) (A) (A) (A) (A) (A) (A) (A)
                 (A) (A) (A) (A) (A) (A) (A) (A) (A) (A) (A) (A)
                 (A) (A) (A) (A) (A) (A) (A) (A) (A) (A) (A) (A)
                 (A) (A) (A) (A) (A) (A) (A) (A) (A) (A) (A) (A)
                 (A) (A) (A) (A) (A) (A) (A) (A) (A) (A) (A) (A)
                 (A) (A) (A) (A) (A) (A) (A) (A) (A)
 Beta  Orbitals:
       Occupied  (A) (A) (A) (A) (A) (A) (A) (A) (A) (A) (A) (A)
                 (A) (A) (A) (A) (A) (A) (A) (A) (A) (A) (A) (A)
                 (A) (A) (A) (A) (A) (A) (A) (A) (A) (A) (A) (A)
                 (A) (A) (A) (A) (A) (A) (A) (A) (A) (A) (A) (A)
                 (A) (A) (A) (A) (A) (A) (A) (A) (A) (A) (A) (A)
                 (A) (A) (A) (A) (A) (A) (A) (A) (A) (A) (A) (A)
                 (A) (A) (A) (A) (A) (A) (A) (A) (A) (A) (A) (A)
                 (A) (A) (A) (A) (A) (A) (A) (A) (A) (A) (A) (A)
                 (A) (A) (A) (A) (A) (A) (A) (A) (A) (A) (A) (A)
                 (A) (A) (A) (A) (A) (A) (A) (A) (A) (A) (A) (A)
                 (A) (A) (A) (A) (A) (A) (A) (A) (A) (A) (A) (A)
                 (A) (A)
       Virtual   (A) (A) (A) (A) (A) (A) (A) (A) (A) (A) (A) (A)
                 (A) (A) (A) (A) (A) (A) (A) (A) (A) (A) (A) (A)
                 (A) (A) (A) (A) (A) (A) (A) (A) (A) (A) (A) (A)
                 (A) (A) (A) (A) (A) (A) (A) (A) (A) (A) (A) (A)
                 (A) (A) (A) (A) (A) (A) (A) (A) (A) (A) (A) (A)
                 (A) (A) (A) (A) (A) (A) (A) (A) (A) (A) (A) (A)
                 (A) (A) (A) (A) (A) (A) (A) (A) (A) (A) (A) (A)
                 (A) (A) (A) (A) (A) (A) (A) (A) (A) (A) (A) (A)
                 (A) (A) (A) (A) (A) (A) (A) (A) (A) (A) (A) (A)
                 (A) (A) (A) (A) (A) (A) (A) (A) (A) (A) (A) (A)
                 (A) (A) (A) (A) (A) (A) (A) (A) (A) (A) (A) (A)
                 (A) (A) (A) (A) (A) (A) (A) (A) (A) (A) (A) (A)
                 (A) (A) (A) (A) (A) (A) (A) (A) (A) (A) (A) (A)
                 (A) (A) (A) (A) (A) (A) (A) (A) (A) (A) (A) (A)
                 (A) (A) (A) (A) (A) (A) (A) (A) (A) (A) (A) (A)
                 (A) (A) (A) (A) (A) (A) (A) (A) (A) (A) (A) (A)
                 (A) (A) (A) (A) (A) (A) (A) (A) (A) (A) (A) (A)
                 (A) (A) (A) (A) (A) (A) (A) (A) (A) (A) (A) (A)
                 (A) (A) (A) (A) (A) (A) (A) (A) (A) (A) (A) (A)
                 (A) (A) (A) (A) (A) (A) (A) (A) (A) (A) (A) (A)
                 (A) (A) (A) (A) (A) (A) (A) (A) (A) (A) (A) (A)
                 (A) (A) (A) (A) (A) (A) (A) (A) (A) (A) (A) (A)
                 (A) (A) (A) (A) (A) (A) (A) (A) (A) (A) (A) (A)
                 (A) (A) (A) (A) (A) (A) (A) (A) (A) (A) (A) (A)
                 (A) (A) (A) (A) (A) (A) (A) (A) (A) (A) (A) (A)
                 (A) (A) (A) (A) (A) (A) (A) (A) (A) (A) (A) (A)
                 (A) (A) (A) (A) (A) (A) (A) (A) (A) (A) (A) (A)
                 (A) (A) (A) (A) (A) (A) (A) (A) (A) (A) (A) (A)
                 (A) (A) (A) (A) (A) (A) (A) (A) (A) (A) (A) (A)
                 (A) (A) (A) (A) (A) (A) (A) (A) (A) (A) (A) (A)
                 (A) (A) (A) (A) (A) (A) (A) (A) (A) (A) (A) (A)
                 (A) (A) (A) (A) (A) (A) (A) (A) (A) (A) (A) (A)
                 (A) (A) (A) (A) (A) (A) (A) (A) (A) (A) (A) (A)
                 (A) (A) (A) (A) (A) (A) (A) (A) (A) (A) (A) (A)
                 (A) (A) (A) (A) (A) (A) (A) (A) (A) (A) (A) (A)
                 (A) (A) (A) (A) (A) (A) (A) (A) (A) (A) (A) (A)
                 (A) (A) (A) (A) (A) (A) (A) (A) (A) (A) (A) (A)
                 (A) (A) (A) (A) (A) (A) (A) (A) (A) (A) (A) (A)
                 (A) (A) (A) (A) (A) (A) (A) (A) (A) (A) (A) (A)
                 (A) (A) (A) (A) (A) (A) (A) (A) (A) (A) (A) (A)
                 (A) (A) (A) (A) (A) (A) (A) (A) (A) (A) (A) (A)
                 (A) (A) (A) (A) (A) (A) (A) (A) (A) (A) (A) (A)
                 (A) (A) (A) (A) (A) (A) (A) (A) (A) (A) (A) (A)
                 (A) (A) (A) (A) (A) (A) (A) (A) (A) (A) (A) (A)
                 (A) (A) (A) (A) (A) (A) (A) (A) (A) (A) (A) (A)
                 (A) (A) (A) (A) (A) (A) (A) (A) (A) (A) (A) (A)
                 (A) (A) (A) (A) (A) (A) (A) (A) (A) (A) (A) (A)
                 (A) (A) (A) (A) (A) (A) (A) (A) (A) (A) (A) (A)
                 (A) (A) (A) (A) (A) (A) (A) (A) (A) (A) (A) (A)
                 (A) (A) (A) (A) (A) (A) (A) (A) (A) (A) (A) (A)
                 (A) (A) (A) (A) (A) (A) (A) (A) (A) (A) (A) (A)
                 (A) (A) (A) (A) (A) (A) (A) (A) (A) (A) (A) (A)
                 (A) (A) (A) (A) (A) (A) (A) (A) (A) (A) (A) (A)
                 (A) (A) (A) (A) (A) (A) (A) (A) (A) (A) (A) (A)
                 (A) (A) (A) (A) (A) (A) (A) (A) (A) (A) (A) (A)
                 (A) (A) (A) (A) (A) (A) (A) (A) (A) (A) (A) (A)
                 (A) (A) (A) (A) (A) (A) (A) (A) (A) (A) (A) (A)
                 (A) (A) (A) (A) (A) (A) (A) (A) (A) (A) (A) (A)
                 (A) (A) (A) (A) (A) (A) (A) (A) (A) (A) (A) (A)
                 (A) (A) (A) (A) (A) (A) (A) (A) (A) (A) (A) (A)
                 (A) (A) (A) (A) (A) (A) (A) (A) (A) (A) (A) (A)
                 (A) (A) (A) (A) (A) (A) (A) (A) (A) (A) (A) (A)
                 (A) (A) (A) (A) (A) (A) (A) (A) (A) (A) (A) (A)
                 (A) (A) (A) (A) (A) (A) (A) (A) (A) (A)
 The electronic state is 2-A.
 Alpha  occ. eigenvalues --  -88.79179 -88.75876 -19.07545 -19.07262 -19.01074
 Alpha  occ. eigenvalues --  -18.99818 -18.99748 -18.99425 -14.27011 -14.26810
 Alpha  occ. eigenvalues --  -10.18902 -10.18245 -10.18039 -10.17872 -10.15523
 Alpha  occ. eigenvalues --  -10.15137 -10.14993 -10.13662 -10.12036 -10.11771
 Alpha  occ. eigenvalues --  -10.11101 -10.11050 -10.11018 -10.10780 -10.10210
 Alpha  occ. eigenvalues --  -10.10174 -10.09607 -10.09601 -10.08725 -10.08572
 Alpha  occ. eigenvalues --  -10.08492 -10.08424 -10.08100 -10.07930 -10.07820
 Alpha  occ. eigenvalues --  -10.07767  -7.87745  -7.84309  -5.84045  -5.83670
 Alpha  occ. eigenvalues --   -5.83324  -5.80659  -5.80201  -5.79824  -0.99241
 Alpha  occ. eigenvalues --   -0.98836  -0.98042  -0.96234  -0.94731  -0.94297
 Alpha  occ. eigenvalues --   -0.84624  -0.84186  -0.80133  -0.79486  -0.77571
 Alpha  occ. eigenvalues --   -0.73864  -0.71582  -0.68967  -0.67441  -0.66041
 Alpha  occ. eigenvalues --   -0.65604  -0.65344  -0.63926  -0.62906  -0.61797
 Alpha  occ. eigenvalues --   -0.61213  -0.59871  -0.57731  -0.55352  -0.54309
 Alpha  occ. eigenvalues --   -0.53699  -0.52631  -0.50471  -0.49034  -0.47382
 Alpha  occ. eigenvalues --   -0.47201  -0.45997  -0.45484  -0.45101  -0.43064
 Alpha  occ. eigenvalues --   -0.41929  -0.40548  -0.39907  -0.39605  -0.39425
 Alpha  occ. eigenvalues --   -0.39140  -0.38908  -0.38532  -0.38364  -0.37474
 Alpha  occ. eigenvalues --   -0.37069  -0.36842  -0.36648  -0.35583  -0.34604
 Alpha  occ. eigenvalues --   -0.34472  -0.33532  -0.33024  -0.32984  -0.32695
 Alpha  occ. eigenvalues --   -0.32310  -0.32139  -0.31525  -0.31324  -0.30974
 Alpha  occ. eigenvalues --   -0.30888  -0.30164  -0.30116  -0.29917  -0.29294
 Alpha  occ. eigenvalues --   -0.28291  -0.27910  -0.27755  -0.27562  -0.26313
 Alpha  occ. eigenvalues --   -0.25379  -0.24970  -0.24905  -0.24478  -0.22889
 Alpha  occ. eigenvalues --   -0.22158  -0.20245  -0.19419  -0.18495  -0.18244
 Alpha  occ. eigenvalues --   -0.17914  -0.17502  -0.16564  -0.16511  -0.15173
 Alpha  occ. eigenvalues --   -0.14432  -0.13911  -0.12523  -0.09212  -0.04148
 Alpha virt. eigenvalues --    0.03441   0.04872   0.06180   0.06474   0.06977
 Alpha virt. eigenvalues --    0.07129   0.07687   0.08776   0.08961   0.09212
 Alpha virt. eigenvalues --    0.09889   0.10214   0.10509   0.10706   0.10742
 Alpha virt. eigenvalues --    0.11487   0.11589   0.11751   0.12176   0.12202
 Alpha virt. eigenvalues --    0.12367   0.12684   0.13080   0.13112   0.13307
 Alpha virt. eigenvalues --    0.13412   0.13459   0.14031   0.14468   0.14841
 Alpha virt. eigenvalues --    0.15037   0.15181   0.15249   0.15630   0.15690
 Alpha virt. eigenvalues --    0.16115   0.16594   0.17094   0.17286   0.17552
 Alpha virt. eigenvalues --    0.17665   0.18091   0.18364   0.18588   0.18720
 Alpha virt. eigenvalues --    0.19104   0.19210   0.19338   0.19511   0.19949
 Alpha virt. eigenvalues --    0.20218   0.20337   0.21087   0.21169   0.21274
 Alpha virt. eigenvalues --    0.21551   0.21885   0.22098   0.22319   0.22458
 Alpha virt. eigenvalues --    0.22591   0.22824   0.23161   0.23282   0.23698
 Alpha virt. eigenvalues --    0.23862   0.23921   0.24089   0.24303   0.24953
 Alpha virt. eigenvalues --    0.24994   0.25096   0.25424   0.25616   0.25827
 Alpha virt. eigenvalues --    0.26005   0.26506   0.26565   0.26662   0.26818
 Alpha virt. eigenvalues --    0.27059   0.27157   0.27308   0.27673   0.27833
 Alpha virt. eigenvalues --    0.28052   0.28465   0.28517   0.28910   0.29034
 Alpha virt. eigenvalues --    0.29317   0.29455   0.29538   0.29712   0.29976
 Alpha virt. eigenvalues --    0.30402   0.30609   0.30756   0.31037   0.31245
 Alpha virt. eigenvalues --    0.31470   0.31857   0.32119   0.32232   0.32290
 Alpha virt. eigenvalues --    0.32517   0.33009   0.33019   0.33319   0.33411
 Alpha virt. eigenvalues --    0.33604   0.33825   0.33902   0.34289   0.34329
 Alpha virt. eigenvalues --    0.34492   0.34974   0.34984   0.35109   0.35248
 Alpha virt. eigenvalues --    0.35412   0.35518   0.35780   0.35844   0.36330
 Alpha virt. eigenvalues --    0.36473   0.36633   0.36874   0.37018   0.37236
 Alpha virt. eigenvalues --    0.37403   0.37705   0.37899   0.38245   0.38514
 Alpha virt. eigenvalues --    0.38583   0.38894   0.39209   0.39540   0.39582
 Alpha virt. eigenvalues --    0.39931   0.40276   0.40478   0.40903   0.40927
 Alpha virt. eigenvalues --    0.41139   0.41484   0.41571   0.41904   0.42298
 Alpha virt. eigenvalues --    0.42367   0.42666   0.42987   0.43269   0.43363
 Alpha virt. eigenvalues --    0.43731   0.43958   0.44412   0.44621   0.44814
 Alpha virt. eigenvalues --    0.45547   0.45717   0.46201   0.46421   0.46931
 Alpha virt. eigenvalues --    0.47620   0.47743   0.48411   0.48687   0.49126
 Alpha virt. eigenvalues --    0.49233   0.49484   0.50047   0.50645   0.51178
 Alpha virt. eigenvalues --    0.51409   0.51689   0.52117   0.52691   0.52740
 Alpha virt. eigenvalues --    0.53223   0.53611   0.53857   0.54401   0.54695
 Alpha virt. eigenvalues --    0.54831   0.55218   0.55312   0.55462   0.55976
 Alpha virt. eigenvalues --    0.56377   0.57135   0.57323   0.57704   0.58434
 Alpha virt. eigenvalues --    0.58622   0.58778   0.59676   0.60829   0.61059
 Alpha virt. eigenvalues --    0.61383   0.62430   0.62727   0.62961   0.63165
 Alpha virt. eigenvalues --    0.63817   0.64145   0.64424   0.64677   0.65046
 Alpha virt. eigenvalues --    0.65309   0.65735   0.66028   0.66268   0.66676
 Alpha virt. eigenvalues --    0.67019   0.67106   0.67537   0.67663   0.68008
 Alpha virt. eigenvalues --    0.68601   0.69129   0.69652   0.69996   0.70302
 Alpha virt. eigenvalues --    0.70668   0.70794   0.71002   0.71443   0.71896
 Alpha virt. eigenvalues --    0.72082   0.73058   0.73157   0.73383   0.73745
 Alpha virt. eigenvalues --    0.74202   0.74719   0.75014   0.75180   0.75736
 Alpha virt. eigenvalues --    0.75880   0.76168   0.76703   0.76929   0.77258
 Alpha virt. eigenvalues --    0.77480   0.78005   0.78681   0.79174   0.79463
 Alpha virt. eigenvalues --    0.79858   0.80047   0.80462   0.80941   0.81195
 Alpha virt. eigenvalues --    0.81357   0.82180   0.82450   0.82807   0.83451
 Alpha virt. eigenvalues --    0.83584   0.84002   0.84541   0.85040   0.85251
 Alpha virt. eigenvalues --    0.85381   0.85730   0.85839   0.86375   0.86791
 Alpha virt. eigenvalues --    0.86996   0.87291   0.87698   0.88558   0.89077
 Alpha virt. eigenvalues --    0.89317   0.90181   0.90957   0.91237   0.91609
 Alpha virt. eigenvalues --    0.91778   0.92119   0.93503   0.94141   0.95087
 Alpha virt. eigenvalues --    0.95394   0.95810   0.96395   0.97723   0.98501
 Alpha virt. eigenvalues --    0.98797   0.99252   0.99836   0.99987   1.00592
 Alpha virt. eigenvalues --    1.01569   1.02119   1.02828   1.03379   1.03584
 Alpha virt. eigenvalues --    1.04180   1.04419   1.04891   1.05158   1.05676
 Alpha virt. eigenvalues --    1.06286   1.06938   1.07166   1.07445   1.08106
 Alpha virt. eigenvalues --    1.08304   1.08760   1.09183   1.09532   1.09798
 Alpha virt. eigenvalues --    1.10034   1.10554   1.10756   1.11056   1.11794
 Alpha virt. eigenvalues --    1.12692   1.13216   1.13518   1.13841   1.13910
 Alpha virt. eigenvalues --    1.14994   1.15289   1.15989   1.16025   1.16153
 Alpha virt. eigenvalues --    1.16477   1.17284   1.17613   1.17999   1.18474
 Alpha virt. eigenvalues --    1.18900   1.19506   1.20501   1.20568   1.21008
 Alpha virt. eigenvalues --    1.21464   1.22362   1.22428   1.23783   1.24718
 Alpha virt. eigenvalues --    1.25209   1.25906   1.26284   1.26610   1.27469
 Alpha virt. eigenvalues --    1.28962   1.29581   1.29873   1.29962   1.30582
 Alpha virt. eigenvalues --    1.31399   1.31524   1.32763   1.33274   1.33999
 Alpha virt. eigenvalues --    1.34482   1.35260   1.36226   1.36773   1.37525
 Alpha virt. eigenvalues --    1.38027   1.38517   1.39336   1.40132   1.40349
 Alpha virt. eigenvalues --    1.41443   1.41685   1.42212   1.43412   1.43975
 Alpha virt. eigenvalues --    1.45018   1.45257   1.46453   1.47415   1.47889
 Alpha virt. eigenvalues --    1.48845   1.49964   1.50196   1.50612   1.51183
 Alpha virt. eigenvalues --    1.51932   1.53081   1.53345   1.53997   1.54139
 Alpha virt. eigenvalues --    1.54286   1.54673   1.55174   1.55371   1.55595
 Alpha virt. eigenvalues --    1.56083   1.57322   1.57941   1.58869   1.59227
 Alpha virt. eigenvalues --    1.59561   1.60490   1.61075   1.61314   1.61901
 Alpha virt. eigenvalues --    1.62864   1.62994   1.63073   1.63957   1.64289
 Alpha virt. eigenvalues --    1.64680   1.64819   1.65270   1.65665   1.66329
 Alpha virt. eigenvalues --    1.67390   1.67499   1.68427   1.69415   1.69927
 Alpha virt. eigenvalues --    1.70598   1.71018   1.71811   1.72306   1.72618
 Alpha virt. eigenvalues --    1.73369   1.74943   1.75183   1.75585   1.76646
 Alpha virt. eigenvalues --    1.76981   1.77231   1.77768   1.78094   1.78292
 Alpha virt. eigenvalues --    1.79031   1.80016   1.80401   1.80524   1.81504
 Alpha virt. eigenvalues --    1.82276   1.82736   1.83451   1.83773   1.84187
 Alpha virt. eigenvalues --    1.85694   1.85950   1.86398   1.86975   1.87128
 Alpha virt. eigenvalues --    1.87977   1.88718   1.89083   1.89498   1.91095
 Alpha virt. eigenvalues --    1.91368   1.92237   1.93600   1.94048   1.94642
 Alpha virt. eigenvalues --    1.96161   1.96514   1.97804   1.98200   1.98836
 Alpha virt. eigenvalues --    1.99427   1.99711   2.00076   2.00829   2.01075
 Alpha virt. eigenvalues --    2.01853   2.02545   2.03292   2.03808   2.04206
 Alpha virt. eigenvalues --    2.04845   2.05574   2.06049   2.07733   2.07830
 Alpha virt. eigenvalues --    2.08774   2.10360   2.10527   2.10821   2.11843
 Alpha virt. eigenvalues --    2.12350   2.12531   2.13137   2.13576   2.14142
 Alpha virt. eigenvalues --    2.14390   2.15136   2.15507   2.15762   2.16901
 Alpha virt. eigenvalues --    2.17290   2.18680   2.19276   2.19824   2.20239
 Alpha virt. eigenvalues --    2.20624   2.21342   2.22876   2.23580   2.24234
 Alpha virt. eigenvalues --    2.25240   2.25619   2.26880   2.27409   2.28611
 Alpha virt. eigenvalues --    2.29167   2.29578   2.30703   2.30884   2.31361
 Alpha virt. eigenvalues --    2.32304   2.32919   2.34837   2.36382   2.37221
 Alpha virt. eigenvalues --    2.38517   2.39751   2.41124   2.44405   2.45254
 Alpha virt. eigenvalues --    2.46714   2.47354   2.48569   2.48860   2.50872
 Alpha virt. eigenvalues --    2.51314   2.51400   2.51897   2.52410   2.52956
 Alpha virt. eigenvalues --    2.54236   2.54826   2.55600   2.56660   2.57260
 Alpha virt. eigenvalues --    2.58459   2.58853   2.59986   2.60314   2.60704
 Alpha virt. eigenvalues --    2.61253   2.62169   2.62235   2.62757   2.63378
 Alpha virt. eigenvalues --    2.64116   2.64623   2.65829   2.67682   2.68556
 Alpha virt. eigenvalues --    2.69561   2.69774   2.70445   2.72966   2.74526
 Alpha virt. eigenvalues --    2.75010   2.75914   2.76384   2.76423   2.77081
 Alpha virt. eigenvalues --    2.78396   2.78498   2.80218   2.80448   2.80883
 Alpha virt. eigenvalues --    2.81996   2.82378   2.82696   2.83275   2.83702
 Alpha virt. eigenvalues --    2.84350   2.84885   2.86474   2.86895   2.87679
 Alpha virt. eigenvalues --    2.88318   2.88665   2.90450   2.91223   2.92598
 Alpha virt. eigenvalues --    2.92859   2.93146   2.95098   2.95874   2.96888
 Alpha virt. eigenvalues --    2.97024   2.97565   2.98153   2.98840   2.99664
 Alpha virt. eigenvalues --    3.00722   3.01123   3.01295   3.03099   3.03258
 Alpha virt. eigenvalues --    3.03873   3.05356   3.05701   3.06154   3.07001
 Alpha virt. eigenvalues --    3.08449   3.08907   3.09372   3.11156   3.12600
 Alpha virt. eigenvalues --    3.12835   3.13959   3.14544   3.17517   3.17696
 Alpha virt. eigenvalues --    3.18306   3.20011   3.20505   3.22565   3.24485
 Alpha virt. eigenvalues --    3.25166   3.25871   3.26784   3.27986   3.29263
 Alpha virt. eigenvalues --    3.30435   3.31655   3.32650   3.33222   3.33772
 Alpha virt. eigenvalues --    3.35610   3.37447   3.39811   3.40352   3.41161
 Alpha virt. eigenvalues --    3.41678   3.43940   3.45032   3.45906   3.46377
 Alpha virt. eigenvalues --    3.46565   3.46844   3.50009   3.51001   3.52200
 Alpha virt. eigenvalues --    3.52802   3.54699   3.55575   3.56138   3.57119
 Alpha virt. eigenvalues --    3.57866   3.60438   3.61517   3.62603   3.65803
 Alpha virt. eigenvalues --    3.66632   3.70145   3.71371   3.72115   3.73604
 Alpha virt. eigenvalues --    3.76921   3.78148   3.79131   3.81906   3.82143
 Alpha virt. eigenvalues --    3.82386   3.82882   3.84166   3.84635   3.86644
 Alpha virt. eigenvalues --    3.90344   3.92962   3.93944   3.95992   3.96915
 Alpha virt. eigenvalues --    4.01172   4.03017   4.04478   4.05010   4.05427
 Alpha virt. eigenvalues --    4.09238   4.13531   4.13751   4.17153   4.18147
 Alpha virt. eigenvalues --    4.20102   4.24282   4.25482   4.31459   4.35281
 Alpha virt. eigenvalues --    4.37486   4.39716   4.48058   4.53105   4.53755
 Alpha virt. eigenvalues --    4.64773   4.83591   4.97222   4.98879   5.00035
 Alpha virt. eigenvalues --    5.01806   5.10880   5.11963   5.15727   5.17215
 Alpha virt. eigenvalues --    5.17374   5.17815   5.23460   5.25508   5.37158
 Alpha virt. eigenvalues --    5.39362   5.41775   5.48060   5.52412   5.53443
 Alpha virt. eigenvalues --    5.86081   5.88157   5.89936   5.92972   5.94297
 Alpha virt. eigenvalues --    5.96774   8.12555   8.22790  17.38163  17.44269
 Alpha virt. eigenvalues --   17.59497  17.62814  17.74442  17.87862  23.61740
 Alpha virt. eigenvalues --   23.69132  23.82281  23.90851  23.92847  23.95014
 Alpha virt. eigenvalues --   23.97301  23.98552  23.98960  23.99268  23.99544
 Alpha virt. eigenvalues --   24.00732  24.02526  24.04608  24.04947  24.07202
 Alpha virt. eigenvalues --   24.08447  24.11245  24.12081  24.13519  24.14300
 Alpha virt. eigenvalues --   24.18330  24.22894  24.23671  24.26866  24.27283
 Alpha virt. eigenvalues --   35.68154  35.70927  50.05768  50.07669  50.14647
 Alpha virt. eigenvalues --   50.16753  50.18149  50.19528 189.30145 189.41296
  Beta  occ. eigenvalues --  -88.79176 -88.75861 -19.07532 -19.07267 -19.00866
  Beta  occ. eigenvalues --  -18.99633 -18.99557 -18.99262 -14.27063 -14.26860
  Beta  occ. eigenvalues --  -10.18832 -10.18189 -10.17982 -10.17817 -10.15524
  Beta  occ. eigenvalues --  -10.15137 -10.14956 -10.13683 -10.12062 -10.11734
  Beta  occ. eigenvalues --  -10.11100 -10.11092 -10.11017 -10.10635 -10.10249
  Beta  occ. eigenvalues --  -10.10188 -10.09666 -10.09493 -10.08655 -10.08420
  Beta  occ. eigenvalues --  -10.08322 -10.08303 -10.08034 -10.07881 -10.07751
  Beta  occ. eigenvalues --  -10.07691  -7.87742  -7.84296  -5.84044  -5.83668
  Beta  occ. eigenvalues --   -5.83315  -5.80652  -5.80193  -5.79777  -0.99211
  Beta  occ. eigenvalues --   -0.98846  -0.97744  -0.95992  -0.94465  -0.93975
  Beta  occ. eigenvalues --   -0.84541  -0.84088  -0.80093  -0.79344  -0.77497
  Beta  occ. eigenvalues --   -0.73565  -0.71312  -0.68867  -0.67393  -0.65930
  Beta  occ. eigenvalues --   -0.65348  -0.65154  -0.63868  -0.62845  -0.61749
  Beta  occ. eigenvalues --   -0.61162  -0.59632  -0.57479  -0.55213  -0.54138
  Beta  occ. eigenvalues --   -0.53535  -0.52503  -0.50411  -0.48962  -0.47315
  Beta  occ. eigenvalues --   -0.47172  -0.45862  -0.45415  -0.45027  -0.42924
  Beta  occ. eigenvalues --   -0.41812  -0.40442  -0.39869  -0.39553  -0.39428
  Beta  occ. eigenvalues --   -0.39037  -0.38697  -0.38341  -0.38265  -0.37404
  Beta  occ. eigenvalues --   -0.36974  -0.36793  -0.36628  -0.35501  -0.34439
  Beta  occ. eigenvalues --   -0.34368  -0.33404  -0.32911  -0.32708  -0.32572
  Beta  occ. eigenvalues --   -0.32262  -0.31966  -0.31248  -0.31034  -0.30923
  Beta  occ. eigenvalues --   -0.30331  -0.30066  -0.29839  -0.29224  -0.29050
  Beta  occ. eigenvalues --   -0.28134  -0.27692  -0.27576  -0.27503  -0.26289
  Beta  occ. eigenvalues --   -0.25187  -0.24893  -0.24698  -0.24341  -0.22337
  Beta  occ. eigenvalues --   -0.22014  -0.19404  -0.19014  -0.18307  -0.17869
  Beta  occ. eigenvalues --   -0.17537  -0.17332  -0.16333  -0.16238  -0.14764
  Beta  occ. eigenvalues --   -0.13886  -0.13027  -0.12354  -0.08767
  Beta virt. eigenvalues --    0.00026   0.03892   0.05886   0.06180   0.06926
  Beta virt. eigenvalues --    0.07135   0.07686   0.07876   0.08777   0.08968
  Beta virt. eigenvalues --    0.09218   0.09892   0.10445   0.10515   0.10739
  Beta virt. eigenvalues --    0.10757   0.11487   0.11606   0.11758   0.12198
  Beta virt. eigenvalues --    0.12372   0.12542   0.12699   0.13099   0.13353
  Beta virt. eigenvalues --    0.13456   0.13651   0.13936   0.14035   0.14682
  Beta virt. eigenvalues --    0.14846   0.15045   0.15187   0.15317   0.15656
  Beta virt. eigenvalues --    0.15752   0.16117   0.16768   0.17196   0.17310
  Beta virt. eigenvalues --    0.17632   0.17675   0.18114   0.18395   0.18623
  Beta virt. eigenvalues --    0.18748   0.19137   0.19249   0.19358   0.19600
  Beta virt. eigenvalues --    0.19950   0.20228   0.20378   0.21164   0.21371
  Beta virt. eigenvalues --    0.21550   0.21574   0.21948   0.22133   0.22391
  Beta virt. eigenvalues --    0.22478   0.22723   0.22846   0.23197   0.23314
  Beta virt. eigenvalues --    0.23756   0.23929   0.24164   0.24375   0.24446
  Beta virt. eigenvalues --    0.24981   0.25035   0.25121   0.25446   0.25660
  Beta virt. eigenvalues --    0.25845   0.26028   0.26534   0.26584   0.26691
  Beta virt. eigenvalues --    0.26867   0.27099   0.27190   0.27344   0.27727
  Beta virt. eigenvalues --    0.27876   0.28076   0.28513   0.28544   0.28942
  Beta virt. eigenvalues --    0.29089   0.29354   0.29482   0.29581   0.29748
  Beta virt. eigenvalues --    0.29993   0.30419   0.30638   0.30794   0.31065
  Beta virt. eigenvalues --    0.31324   0.31527   0.31880   0.32146   0.32284
  Beta virt. eigenvalues --    0.32362   0.32664   0.33090   0.33159   0.33375
  Beta virt. eigenvalues --    0.33464   0.33639   0.33948   0.34041   0.34325
  Beta virt. eigenvalues --    0.34449   0.34538   0.35034   0.35051   0.35193
  Beta virt. eigenvalues --    0.35311   0.35468   0.35589   0.35826   0.35896
  Beta virt. eigenvalues --    0.36385   0.36529   0.36682   0.36909   0.37065
  Beta virt. eigenvalues --    0.37251   0.37445   0.37753   0.37962   0.38284
  Beta virt. eigenvalues --    0.38556   0.38655   0.38933   0.39261   0.39602
  Beta virt. eigenvalues --    0.39639   0.39980   0.40330   0.40537   0.40941
  Beta virt. eigenvalues --    0.40962   0.41188   0.41520   0.41660   0.42006
  Beta virt. eigenvalues --    0.42364   0.42447   0.42697   0.43041   0.43336
  Beta virt. eigenvalues --    0.43438   0.43777   0.44000   0.44470   0.44651
  Beta virt. eigenvalues --    0.44931   0.45581   0.45747   0.46276   0.46512
  Beta virt. eigenvalues --    0.46986   0.47694   0.47814   0.48509   0.48766
  Beta virt. eigenvalues --    0.49171   0.49310   0.49523   0.50129   0.50681
  Beta virt. eigenvalues --    0.51230   0.51446   0.51717   0.52173   0.52725
  Beta virt. eigenvalues --    0.52792   0.53249   0.53652   0.53925   0.54460
  Beta virt. eigenvalues --    0.54730   0.54884   0.55255   0.55358   0.55490
  Beta virt. eigenvalues --    0.56018   0.56419   0.57180   0.57354   0.57725
  Beta virt. eigenvalues --    0.58475   0.58704   0.58833   0.59730   0.60939
  Beta virt. eigenvalues --    0.61139   0.61423   0.62488   0.62791   0.63028
  Beta virt. eigenvalues --    0.63221   0.63847   0.64182   0.64541   0.64737
  Beta virt. eigenvalues --    0.65111   0.65412   0.65788   0.66120   0.66313
  Beta virt. eigenvalues --    0.66746   0.67093   0.67175   0.67684   0.67747
  Beta virt. eigenvalues --    0.68130   0.68720   0.69199   0.69727   0.70045
  Beta virt. eigenvalues --    0.70362   0.70779   0.70887   0.71072   0.71566
  Beta virt. eigenvalues --    0.72011   0.72137   0.73199   0.73230   0.73467
  Beta virt. eigenvalues --    0.73871   0.74325   0.74839   0.75103   0.75253
  Beta virt. eigenvalues --    0.75814   0.76003   0.76286   0.76787   0.77035
  Beta virt. eigenvalues --    0.77372   0.77548   0.78084   0.78833   0.79264
  Beta virt. eigenvalues --    0.79504   0.79951   0.80149   0.80505   0.81027
  Beta virt. eigenvalues --    0.81264   0.81725   0.82227   0.82525   0.82898
  Beta virt. eigenvalues --    0.83511   0.83823   0.84190   0.84653   0.85100
  Beta virt. eigenvalues --    0.85291   0.85445   0.85815   0.85880   0.86430
  Beta virt. eigenvalues --    0.86851   0.87106   0.87330   0.87777   0.88602
  Beta virt. eigenvalues --    0.89148   0.89347   0.90249   0.91010   0.91327
  Beta virt. eigenvalues --    0.91632   0.91826   0.92166   0.93564   0.94201
  Beta virt. eigenvalues --    0.95157   0.95440   0.95904   0.96445   0.97753
  Beta virt. eigenvalues --    0.98569   0.98849   0.99307   0.99876   1.00021
  Beta virt. eigenvalues --    1.00694   1.01619   1.02188   1.02903   1.03552
  Beta virt. eigenvalues --    1.03694   1.04303   1.04579   1.04997   1.05299
  Beta virt. eigenvalues --    1.05782   1.06369   1.07103   1.07301   1.07579
  Beta virt. eigenvalues --    1.08196   1.08406   1.08872   1.09265   1.09614
  Beta virt. eigenvalues --    1.09879   1.10116   1.10597   1.10907   1.11185
  Beta virt. eigenvalues --    1.11904   1.12837   1.13323   1.13591   1.13927
  Beta virt. eigenvalues --    1.14098   1.15155   1.15357   1.16109   1.16143
  Beta virt. eigenvalues --    1.16305   1.16635   1.17486   1.17717   1.18113
  Beta virt. eigenvalues --    1.18659   1.19095   1.19585   1.20595   1.20711
  Beta virt. eigenvalues --    1.21206   1.21683   1.22593   1.22648   1.24015
  Beta virt. eigenvalues --    1.24897   1.25438   1.25991   1.26407   1.26935
  Beta virt. eigenvalues --    1.27662   1.29109   1.29880   1.29998   1.30100
  Beta virt. eigenvalues --    1.30770   1.31546   1.31669   1.32871   1.33358
  Beta virt. eigenvalues --    1.34093   1.34538   1.35327   1.36308   1.36863
  Beta virt. eigenvalues --    1.37617   1.38091   1.38756   1.39552   1.40209
  Beta virt. eigenvalues --    1.40426   1.41521   1.41751   1.42285   1.43497
  Beta virt. eigenvalues --    1.44042   1.45098   1.45316   1.46528   1.47503
  Beta virt. eigenvalues --    1.47944   1.48901   1.50026   1.50218   1.50658
  Beta virt. eigenvalues --    1.51213   1.52013   1.53201   1.53387   1.54056
  Beta virt. eigenvalues --    1.54247   1.54348   1.54775   1.55227   1.55481
  Beta virt. eigenvalues --    1.55705   1.56161   1.57419   1.58128   1.58962
  Beta virt. eigenvalues --    1.59305   1.59665   1.60627   1.61218   1.61379
  Beta virt. eigenvalues --    1.61924   1.62897   1.63044   1.63262   1.64038
  Beta virt. eigenvalues --    1.64344   1.64747   1.64904   1.65335   1.65746
  Beta virt. eigenvalues --    1.66462   1.67472   1.67616   1.68502   1.69469
  Beta virt. eigenvalues --    1.70068   1.70692   1.71105   1.71836   1.72330
  Beta virt. eigenvalues --    1.72637   1.73437   1.75076   1.75197   1.75656
  Beta virt. eigenvalues --    1.76731   1.77029   1.77280   1.77809   1.78153
  Beta virt. eigenvalues --    1.78380   1.79162   1.80116   1.80520   1.80706
  Beta virt. eigenvalues --    1.81646   1.82418   1.82851   1.83585   1.83945
  Beta virt. eigenvalues --    1.84263   1.85736   1.86065   1.86469   1.87125
  Beta virt. eigenvalues --    1.87227   1.88051   1.88791   1.89176   1.89588
  Beta virt. eigenvalues --    1.91186   1.91463   1.92329   1.93694   1.94113
  Beta virt. eigenvalues --    1.94768   1.96191   1.96603   1.97874   1.98365
  Beta virt. eigenvalues --    1.99004   1.99701   1.99891   2.00234   2.01071
  Beta virt. eigenvalues --    2.01176   2.01925   2.02681   2.03420   2.03920
  Beta virt. eigenvalues --    2.04333   2.04974   2.05686   2.06152   2.08028
  Beta virt. eigenvalues --    2.08062   2.08948   2.10471   2.10779   2.10934
  Beta virt. eigenvalues --    2.11922   2.12444   2.12610   2.13235   2.13643
  Beta virt. eigenvalues --    2.14221   2.14413   2.15199   2.15587   2.15826
  Beta virt. eigenvalues --    2.16966   2.17420   2.18774   2.19412   2.19869
  Beta virt. eigenvalues --    2.20270   2.20715   2.21441   2.22945   2.23662
  Beta virt. eigenvalues --    2.24286   2.25302   2.25667   2.26958   2.27478
  Beta virt. eigenvalues --    2.28678   2.29564   2.29609   2.30735   2.30964
  Beta virt. eigenvalues --    2.31423   2.32466   2.33056   2.35039   2.36488
  Beta virt. eigenvalues --    2.37306   2.38704   2.39865   2.41267   2.44498
  Beta virt. eigenvalues --    2.45357   2.46883   2.47434   2.48747   2.48944
  Beta virt. eigenvalues --    2.50886   2.51350   2.51603   2.51936   2.52441
  Beta virt. eigenvalues --    2.53055   2.54247   2.54868   2.55618   2.56687
  Beta virt. eigenvalues --    2.57324   2.58608   2.58867   2.59999   2.60397
  Beta virt. eigenvalues --    2.60730   2.61259   2.62197   2.62254   2.62783
  Beta virt. eigenvalues --    2.63395   2.64208   2.64661   2.65880   2.67724
  Beta virt. eigenvalues --    2.68577   2.69621   2.69805   2.70506   2.72985
  Beta virt. eigenvalues --    2.74794   2.75096   2.75952   2.76417   2.76443
  Beta virt. eigenvalues --    2.77151   2.78533   2.78784   2.80299   2.80530
  Beta virt. eigenvalues --    2.80933   2.82070   2.82662   2.82813   2.83375
  Beta virt. eigenvalues --    2.83868   2.84439   2.84958   2.86582   2.87118
  Beta virt. eigenvalues --    2.87726   2.88650   2.88726   2.90700   2.91272
  Beta virt. eigenvalues --    2.92684   2.93012   2.93295   2.95269   2.96000
  Beta virt. eigenvalues --    2.96954   2.97148   2.97875   2.98477   2.99247
  Beta virt. eigenvalues --    2.99952   3.00978   3.01478   3.01606   3.03443
  Beta virt. eigenvalues --    3.03526   3.04269   3.05689   3.05994   3.06377
  Beta virt. eigenvalues --    3.07436   3.08528   3.09282   3.09530   3.11371
  Beta virt. eigenvalues --    3.12751   3.13116   3.13986   3.14998   3.17586
  Beta virt. eigenvalues --    3.17807   3.18798   3.20055   3.20644   3.22684
  Beta virt. eigenvalues --    3.24506   3.25420   3.25969   3.26932   3.28053
  Beta virt. eigenvalues --    3.29293   3.30525   3.31689   3.32679   3.33243
  Beta virt. eigenvalues --    3.33817   3.35647   3.37544   3.39909   3.40376
  Beta virt. eigenvalues --    3.41235   3.41695   3.44070   3.45506   3.46317
  Beta virt. eigenvalues --    3.46632   3.46956   3.47242   3.50063   3.51092
  Beta virt. eigenvalues --    3.52230   3.52894   3.54777   3.55643   3.56192
  Beta virt. eigenvalues --    3.57206   3.57962   3.60500   3.61618   3.62686
  Beta virt. eigenvalues --    3.65837   3.66686   3.70247   3.71462   3.72188
  Beta virt. eigenvalues --    3.73717   3.76978   3.78194   3.79209   3.81962
  Beta virt. eigenvalues --    3.82126   3.82370   3.82936   3.84170   3.84634
  Beta virt. eigenvalues --    3.86670   3.90367   3.93009   3.93971   3.96023
  Beta virt. eigenvalues --    3.96952   4.01304   4.03195   4.04349   4.05174
  Beta virt. eigenvalues --    4.05296   4.09388   4.13563   4.13887   4.17289
  Beta virt. eigenvalues --    4.18162   4.20113   4.24297   4.25659   4.31488
  Beta virt. eigenvalues --    4.35351   4.37688   4.39917   4.48254   4.53276
  Beta virt. eigenvalues --    4.53952   4.64866   4.83693   4.97363   4.98883
  Beta virt. eigenvalues --    5.00250   5.01822   5.10938   5.11947   5.16504
  Beta virt. eigenvalues --    5.17970   5.18144   5.18599   5.23577   5.25617
  Beta virt. eigenvalues --    5.37309   5.39512   5.41924   5.48227   5.52412
  Beta virt. eigenvalues --    5.53453   5.86090   5.88325   5.89944   5.93129
  Beta virt. eigenvalues --    5.94451   5.96936   8.12560   8.22818  17.38175
  Beta virt. eigenvalues --   17.44327  17.59498  17.62817  17.74454  17.87871
  Beta virt. eigenvalues --   23.61807  23.69165  23.82301  23.90938  23.92892
  Beta virt. eigenvalues --   23.95085  23.97375  23.98553  23.98976  23.99354
  Beta virt. eigenvalues --   23.99619  24.00810  24.02552  24.04622  24.04993
  Beta virt. eigenvalues --   24.07271  24.08534  24.11323  24.12091  24.13512
  Beta virt. eigenvalues --   24.14331  24.18442  24.22908  24.23692  24.26982
  Beta virt. eigenvalues --   24.27380  35.68101  35.70874  50.05781  50.07665
  Beta virt. eigenvalues --   50.14835  50.16934  50.18340  50.19716 189.30147
  Beta virt. eigenvalues --  189.41309
          Condensed to atoms (all electrons):
          Atomic-Atomic Spin Densities.
 Mulliken charges and spin densities:
               1          2
     1  C    0.311838   0.029804
     2  C   -0.242340   0.119832
     3  C    0.112481  -0.041299
     4  C    0.281532   0.109349
     5  C    0.150241   0.026755
     6  C   -0.229747   0.049116
     7  C    0.120739  -0.025086
     8  C   -0.130705   0.082590
     9  C    0.630978   0.103765
    10  C   -0.044385   0.037791
    11  C    0.007821   0.027849
    12  C    0.149997   0.076343
    13  C   -0.505763   0.066679
    14  C   -0.626334   0.042952
    15  H    0.129219  -0.003146
    16  H    0.130874  -0.004714
    17  H    0.136088  -0.003144
    18  N   -0.134757  -0.023361
    19  N   -0.140696  -0.020877
    20  O   -0.353631   0.071299
    21  O   -0.335595   0.068323
    22  O   -0.330536   0.061314
    23  O   -0.103974   0.071913
    24  C   -0.188618   0.001270
    25  H    0.157337  -0.000891
    26  H    0.158041  -0.000946
    27  H    0.174640  -0.000345
    28  C   -0.194987   0.001240
    29  H    0.154300  -0.000868
    30  H    0.153839  -0.000907
    31  H    0.167324  -0.000333
    32  C   -0.351942  -0.021877
    33  C   -0.247829   0.033185
    34  S    0.402488   0.016898
    35  C   -0.607491  -0.018377
    36  H    0.114526  -0.001503
    37  C    0.175516   0.041748
    38  O   -0.140749  -0.000363
    39  C    0.834463  -0.016222
    40  C   -0.235996   0.000158
    41  C   -0.118589   0.024211
    42  S   -0.344265   0.002022
    43  H    0.147127  -0.000013
    44  H    0.138978  -0.000166
    45  H    0.144734  -0.000192
    46  C   -0.451949  -0.010574
    47  O   -0.062929   0.002918
    48  C   -0.384878   0.026540
    49  H    0.113288   0.000508
    50  C   -0.249186  -0.000268
    51  H    0.136214  -0.001665
    52  H    0.127425   0.000367
    53  H    0.167243  -0.000020
    54  H    0.128583   0.000417
 Sum of Mulliken charges =  -1.00000   1.00000
 Mulliken charges and spin densities with hydrogens summed into heavy atoms:
               1          2
     1  C    0.311838   0.029804
     2  C   -0.242340   0.119832
     3  C    0.112481  -0.041299
     4  C    0.281532   0.109349
     5  C    0.150241   0.026755
     6  C   -0.093659   0.045972
[...]
     8   Atom        0.005923     -0.050063     -0.024250
     9   Atom        0.001158     -0.014548     -0.010107
    10   Atom        0.008919     -0.031480     -0.007922
    11   Atom       -0.002320     -0.019589      0.001869
    12   Atom       -0.000952     -0.051103      0.009611
    13   Atom        0.002336     -0.022631      0.003377
    14   Atom       -0.000170     -0.028595      0.005246
    15   Atom        0.001399      0.001977      0.000446
    16   Atom       -0.001916     -0.000036     -0.000729
    17   Atom       -0.000132      0.000788     -0.000813
    18   Atom        0.000502      0.025993      0.000123
    19   Atom        0.001385      0.015503     -0.003265
    20   Atom       -0.003609     -0.090341      0.022786
    21   Atom       -0.004145     -0.091593      0.021298
    22   Atom       -0.005053     -0.125239      0.019836
    23   Atom        0.032680     -0.207639     -0.057396
    24   Atom       -0.000036      0.000744     -0.000163
    25   Atom        0.000032      0.000505      0.000802
    26   Atom        0.000610      0.000229     -0.000584
    27   Atom        0.001175      0.000693      0.000296
    28   Atom        0.000134      0.000548     -0.000092
    29   Atom        0.000670      0.000850      0.000483
    30   Atom        0.000839     -0.000124     -0.000284
    31   Atom        0.000673      0.000207     -0.000048
    32   Atom       -0.002890     -0.004739     -0.011378
    33   Atom        0.002464      0.018668      0.013492
    34   Atom        0.011805      0.019902      0.011689
    35   Atom       -0.001169     -0.008960     -0.008132
    36   Atom        0.002598      0.000165     -0.001198
    37   Atom        0.002599      0.026109      0.013682
    38   Atom       -0.002136     -0.005573     -0.004464
    39   Atom       -0.000052     -0.006339     -0.006341
    40   Atom       -0.000835      0.000172      0.000162
    41   Atom        0.001905      0.008769      0.011691
    42   Atom       -0.003802      0.002995      0.011736
    43   Atom       -0.000365      0.000014     -0.000016
    44   Atom       -0.000725      0.000259     -0.000275
    45   Atom       -0.000745     -0.000053      0.000132
    46   Atom       -0.001153     -0.002613     -0.003334
    47   Atom        0.001388      0.002580      0.004352
    48   Atom        0.001530      0.008239      0.010062
    49   Atom       -0.000391     -0.000128     -0.000046
    50   Atom        0.000488     -0.000282     -0.000341
    51   Atom       -0.001436     -0.000110      0.000580
    52   Atom        0.000338     -0.000240     -0.000284
    53   Atom        0.000282     -0.000191     -0.000152
    54   Atom        0.000413      0.000005      0.000102
 --------------------------------------------------------


 ---------------------------------------------------------------------------------
              Anisotropic Spin Dipole Couplings in Principal Axis System
 ---------------------------------------------------------------------------------

       Atom             a.u.   MegaHertz   Gauss  10(-4) cm-1        Axes

              Baa    -0.0271    -3.637    -1.298    -1.213  0.9671  0.1076  0.2303
     1 C(13)  Bbb    -0.0168    -2.259    -0.806    -0.754 -0.0965  0.9936 -0.0590
              Bcc     0.0439     5.896     2.104     1.967 -0.2352  0.0348  0.9713
 
              Baa    -0.0710    -9.533    -3.402    -3.180 -0.5654  0.8075 -0.1680
     2 C(13)  Bbb    -0.0660    -8.851    -3.158    -2.952  0.7935  0.5882  0.1562
              Bcc     0.1370    18.384     6.560     6.132 -0.2249  0.0450  0.9733
 
              Baa    -0.0394    -5.284    -1.885    -1.762 -0.2328  0.0543  0.9710
     3 C(13)  Bbb     0.0179     2.399     0.856     0.800  0.5192  0.8512  0.0768
              Bcc     0.0215     2.885     1.029     0.962  0.8223 -0.5221  0.2263
 
              Baa    -0.0599    -8.036    -2.867    -2.680  0.9699 -0.0039  0.2436
     4 C(13)  Bbb    -0.0551    -7.397    -2.639    -2.467  0.0150  0.9989 -0.0437
              Bcc     0.1150    15.433     5.507     5.148 -0.2432  0.0460  0.9689
 
              Baa    -0.0264    -3.542    -1.264    -1.181 -0.2641  0.9565 -0.1237
     5 C(13)  Bbb    -0.0171    -2.292    -0.818    -0.765  0.9343  0.2856  0.2135
              Bcc     0.0435     5.834     2.082     1.946 -0.2396  0.0592  0.9691
 
              Baa    -0.0212    -2.847    -1.016    -0.950 -0.4632  0.8497 -0.2520
     6 C(13)  Bbb    -0.0117    -1.574    -0.562    -0.525  0.8706  0.4894  0.0501
              Bcc     0.0329     4.421     1.577     1.475 -0.1659  0.1962  0.9664
 
              Baa    -0.0371    -4.973    -1.774    -1.659 -0.2180  0.0137  0.9759
     7 C(13)  Bbb     0.0157     2.102     0.750     0.701  0.3673  0.9275  0.0691
              Bcc     0.0214     2.871     1.025     0.958  0.9042 -0.3735  0.2072
 
              Baa    -0.0767   -10.291    -3.672    -3.433  0.9731 -0.0282  0.2285
     8 C(13)  Bbb    -0.0716    -9.612    -3.430    -3.206  0.0011  0.9931  0.1177
              Bcc     0.1483    19.903     7.102     6.639 -0.2302 -0.1142  0.9664
 
              Baa    -0.0612    -8.207    -2.929    -2.738  0.9947 -0.0664  0.0781
     9 C(13)  Bbb    -0.0563    -7.552    -2.695    -2.519  0.0614  0.9961  0.0638
              Bcc     0.1174    15.759     5.623     5.257 -0.0820 -0.0586  0.9949
 
              Baa    -0.0301    -4.039    -1.441    -1.347 -0.3511  0.9342 -0.0628
    10 C(13)  Bbb    -0.0199    -2.665    -0.951    -0.889  0.7647  0.3248  0.5566
              Bcc     0.0500     6.704     2.392     2.236 -0.5404 -0.1474  0.8284
 
              Baa    -0.0261    -3.505    -1.251    -1.169  0.9422  0.1583  0.2952
    11 C(13)  Bbb    -0.0156    -2.099    -0.749    -0.700 -0.1378  0.9865 -0.0890
              Bcc     0.0418     5.605     2.000     1.869 -0.3053  0.0432  0.9513
 
              Baa    -0.0677    -9.086    -3.242    -3.031 -0.3965  0.9044 -0.1576
    12 C(13)  Bbb    -0.0633    -8.490    -3.030    -2.832  0.8767  0.4240  0.2272
              Bcc     0.1310    17.576     6.272     5.863 -0.2723  0.0481  0.9610
 
              Baa    -0.0336    -4.504    -1.607    -1.502 -0.5288  0.8319 -0.1686
    13 C(13)  Bbb    -0.0268    -3.590    -1.281    -1.198  0.8072  0.5542  0.2029
              Bcc     0.0603     8.094     2.888     2.700 -0.2622  0.0288  0.9646
 
              Baa    -0.0424    -5.691    -2.031    -1.898  0.9453 -0.2147  0.2457
    14 C(13)  Bbb    -0.0371    -4.983    -1.778    -1.662  0.2189  0.9757  0.0104
              Bcc     0.0795    10.675     3.809     3.561 -0.2420  0.0439  0.9693
 
              Baa    -0.0046    -2.433    -0.868    -0.812 -0.1156  0.9904 -0.0761
    15 H(1)   Bbb    -0.0022    -1.186    -0.423    -0.396 -0.2376  0.0468  0.9702
              Bcc     0.0068     3.620     1.292     1.207  0.9644  0.1302  0.2299
 
              Baa    -0.0032    -1.692    -0.604    -0.565  0.9195  0.2384  0.3125
    16 H(1)   Bbb    -0.0025    -1.337    -0.477    -0.446 -0.3239  0.0090  0.9461
              Bcc     0.0057     3.029     1.081     1.010 -0.2227  0.9711 -0.0855
 
              Baa    -0.0035    -1.881    -0.671    -0.627 -0.3115  0.0924  0.9458
    17 H(1)   Bbb    -0.0009    -0.495    -0.177    -0.165  0.9495  0.0707  0.3058
              Bcc     0.0045     2.376     0.848     0.793 -0.0387  0.9932 -0.1097
 
              Baa    -0.0503    -1.939    -0.692    -0.647 -0.3719  0.0010  0.9283
    18 N(14)  Bbb     0.0246     0.949     0.339     0.317  0.7317 -0.6151  0.2938
              Bcc     0.0257     0.990     0.353     0.330  0.5713  0.7884  0.2281
 
              Baa    -0.0457    -1.763    -0.629    -0.588 -0.2341  0.0509  0.9709
    19 N(14)  Bbb     0.0222     0.857     0.306     0.286  0.7950 -0.5648  0.2213
              Bcc     0.0235     0.905     0.323     0.302  0.5596  0.8237  0.0917
 
              Baa    -0.1448    10.479     3.739     3.496 -0.6496  0.7377 -0.1839
    20 O(17)  Bbb    -0.1420    10.277     3.667     3.428  0.7291  0.6730  0.1240
              Bcc     0.2869   -20.757    -7.406    -6.924 -0.2152  0.0536  0.9751
 
              Baa    -0.1334     9.653     3.444     3.220  0.9009 -0.3607  0.2415
    21 O(17)  Bbb    -0.1303     9.427     3.364     3.145  0.3630  0.9311  0.0362
              Bcc     0.2637   -19.080    -6.808    -6.365 -0.2380  0.0550  0.9697
 
              Baa    -0.1422    10.289     3.671     3.432 -0.6789  0.6872 -0.2586
    22 O(17)  Bbb    -0.1394    10.085     3.599     3.364  0.6645  0.7248  0.1818
              Bcc     0.2816   -20.374    -7.270    -6.796 -0.3124  0.0484  0.9487
 
              Baa    -0.1654    11.968     4.270     3.992  0.8710 -0.1499  0.4678
    23 O(17)  Bbb    -0.1636    11.837     4.224     3.948  0.0661  0.9794  0.1908
              Bcc     0.3290   -23.804    -8.494    -7.940 -0.4867 -0.1353  0.8630
 
              Baa    -0.0018    -0.239    -0.085    -0.080 -0.3117  0.0508  0.9488
    24 C(13)  Bbb     0.0007     0.094     0.034     0.032  0.9271  0.2351  0.2920
              Bcc     0.0011     0.144     0.052     0.048 -0.2082  0.9706 -0.1203
 
              Baa    -0.0015    -0.783    -0.279    -0.261 -0.3716 -0.2540  0.8930
    25 H(1)   Bbb    -0.0001    -0.057    -0.020    -0.019  0.9229 -0.2058  0.3255
              Bcc     0.0016     0.840     0.300     0.280  0.1011  0.9451  0.3108
 
              Baa    -0.0015    -0.785    -0.280    -0.262 -0.3200  0.2378  0.9171
    26 H(1)   Bbb    -0.0004    -0.207    -0.074    -0.069  0.9150 -0.1735  0.3643
              Bcc     0.0019     0.992     0.354     0.331  0.2457  0.9557 -0.1621
 
              Baa    -0.0016    -0.834    -0.297    -0.278 -0.2951  0.0305  0.9550
    27 H(1)   Bbb    -0.0004    -0.240    -0.086    -0.080 -0.6046  0.7680 -0.2114
              Bcc     0.0020     1.074     0.383     0.358  0.7398  0.6398  0.2082
 
              Baa    -0.0016    -0.214    -0.077    -0.072 -0.2335  0.0515  0.9710
    28 C(13)  Bbb     0.0007     0.091     0.033     0.031 -0.5355  0.8267 -0.1726
              Bcc     0.0009     0.123     0.044     0.041  0.8116  0.5603  0.1654
 
              Baa    -0.0013    -0.697    -0.249    -0.232 -0.4313 -0.0799  0.8987
    29 H(1)   Bbb    -0.0002    -0.092    -0.033    -0.031 -0.6121  0.7577 -0.2263
              Bcc     0.0015     0.789     0.282     0.263  0.6628  0.6477  0.3757
 
              Baa    -0.0013    -0.701    -0.250    -0.234 -0.0075  0.1651  0.9863
    30 H(1)   Bbb    -0.0002    -0.113    -0.040    -0.038 -0.6256  0.7687 -0.1334
              Bcc     0.0015     0.814     0.290     0.272  0.7801  0.6180 -0.0975
 
              Baa    -0.0015    -0.786    -0.280    -0.262 -0.2283  0.0606  0.9717
    31 H(1)   Bbb    -0.0005    -0.293    -0.104    -0.098  0.9363 -0.2599  0.2362
              Bcc     0.0020     1.078     0.385     0.360  0.2668  0.9637  0.0026
 
              Baa    -0.0453    -6.080    -2.169    -2.028  0.0739  0.1788  0.9811
    32 C(13)  Bbb     0.0196     2.632     0.939     0.878  0.3500  0.9166 -0.1934
              Bcc     0.0257     3.448     1.230     1.150  0.9338 -0.3577 -0.0052
 
              Baa    -0.0352    -4.722    -1.685    -1.575  0.0477  0.9882 -0.1453
    33 C(13)  Bbb    -0.0330    -4.428    -1.580    -1.477  0.9807 -0.0740 -0.1809
              Bcc     0.0682     9.150     3.265     3.052  0.1895  0.1339  0.9727
 
              Baa    -0.0286    -1.172    -0.418    -0.391 -0.5976  0.8007  0.0420
    34 S(33)  Bbb    -0.0146    -0.599    -0.214    -0.200  0.7073  0.5512 -0.4427
              Bcc     0.0432     1.771     0.632     0.591  0.3776  0.2348  0.8957
 
              Baa    -0.0312    -4.187    -1.494    -1.397  0.1939  0.1808  0.9642
    35 C(13)  Bbb     0.0148     1.985     0.708     0.662 -0.3304  0.9375 -0.1093
              Bcc     0.0164     2.202     0.786     0.734  0.9237  0.2974 -0.2415
 
              Baa    -0.0027    -1.433    -0.511    -0.478  0.6623 -0.5300 -0.5297
    36 H(1)   Bbb    -0.0010    -0.509    -0.182    -0.170  0.5403 -0.1521  0.8276
              Bcc     0.0036     1.942     0.693     0.648  0.5192  0.8343 -0.1856
 
              Baa    -0.0400    -5.364    -1.914    -1.789  0.3600  0.9116 -0.1985
    37 C(13)  Bbb    -0.0381    -5.119    -1.827    -1.708  0.9038 -0.3935 -0.1681
              Bcc     0.0781    10.483     3.741     3.497  0.2314  0.1189  0.9656
 
              Baa    -0.0207     1.501     0.536     0.501  0.1909  0.1558  0.9692
    38 O(17)  Bbb     0.0091    -0.660    -0.236    -0.220  0.6791  0.6920 -0.2450
              Bcc     0.0116    -0.841    -0.300    -0.281  0.7088 -0.7049 -0.0263
 
              Baa    -0.0228    -3.054    -1.090    -1.019  0.1765  0.1967  0.9644
    39 C(13)  Bbb     0.0093     1.249     0.446     0.417 -0.3085  0.9415 -0.1355
              Bcc     0.0135     1.806     0.644     0.602  0.9347  0.2736 -0.2269
 
              Baa    -0.0008    -0.113    -0.040    -0.038  0.6493  0.6896 -0.3207
    40 C(13)  Bbb    -0.0001    -0.009    -0.003    -0.003  0.2089  0.2438  0.9471
              Bcc     0.0009     0.122     0.044     0.041  0.7312 -0.6820  0.0143
 
              Baa    -0.0197    -2.643    -0.943    -0.882  0.0086  0.9765 -0.2153
    41 C(13)  Bbb    -0.0180    -2.420    -0.864    -0.807  0.9866 -0.0434 -0.1574
              Bcc     0.0377     5.064     1.807     1.689  0.1631  0.2110  0.9638
 
              Baa    -0.0183    -0.750    -0.268    -0.250  0.6346  0.7314 -0.2496
    42 S(33)  Bbb    -0.0091    -0.373    -0.133    -0.124  0.7716 -0.6180  0.1506
              Bcc     0.0274     1.123     0.401     0.375  0.0441  0.2882  0.9566
 
              Baa    -0.0003    -0.160    -0.057    -0.053  0.0117  0.0550  0.9984
    43 H(1)   Bbb    -0.0002    -0.120    -0.043    -0.040  0.6244  0.7795 -0.0503
              Bcc     0.0005     0.279     0.100     0.093  0.7810 -0.6240  0.0253
 
              Baa    -0.0006    -0.317    -0.113    -0.106 -0.3633 -0.0065  0.9317
    44 H(1)   Bbb    -0.0005    -0.259    -0.093    -0.087  0.7045  0.6524  0.2793
              Bcc     0.0011     0.577     0.206     0.192 -0.6097  0.7578 -0.2324
 
              Baa    -0.0006    -0.331    -0.118    -0.110 -0.1530 -0.2123  0.9651
    45 H(1)   Bbb    -0.0005    -0.249    -0.089    -0.083  0.7878  0.5635  0.2488
              Bcc     0.0011     0.580     0.207     0.193 -0.5967  0.7984  0.0811
 
              Baa    -0.0121    -1.629    -0.581    -0.543  0.1518  0.1984  0.9683
    46 C(13)  Bbb     0.0053     0.717     0.256     0.239  0.4769  0.8434 -0.2476
              Bcc     0.0068     0.912     0.325     0.304  0.8657 -0.4994 -0.0335
 
              Baa    -0.0157     1.134     0.404     0.378  0.7096 -0.7041  0.0279
    47 O(17)  Bbb    -0.0134     0.972     0.347     0.324  0.7019  0.7027 -0.1162
              Bcc     0.0291    -2.105    -0.751    -0.702  0.0622  0.1020  0.9928
 
              Baa    -0.0195    -2.618    -0.934    -0.873  0.0019  0.9831 -0.1831
    48 C(13)  Bbb    -0.0182    -2.448    -0.874    -0.817  0.9885 -0.0296 -0.1485
              Bcc     0.0378     5.066     1.808     1.690  0.1514  0.1807  0.9718
 
              Baa    -0.0006    -0.335    -0.120    -0.112  0.1529  0.1766  0.9723
    49 H(1)   Bbb    -0.0002    -0.104    -0.037    -0.035  0.3854  0.8954 -0.2232
              Bcc     0.0008     0.439     0.157     0.147  0.9100 -0.4088 -0.0688
 
              Baa    -0.0008    -0.105    -0.038    -0.035  0.1888  0.1851  0.9644
    50 C(13)  Bbb    -0.0002    -0.024    -0.009    -0.008  0.7974 -0.6021 -0.0406
              Bcc     0.0010     0.130     0.046     0.043  0.5731  0.7767 -0.2613
 
              Baa    -0.0026    -1.406    -0.502    -0.469  0.2703  0.9396 -0.2100
    51 H(1)   Bbb    -0.0001    -0.050    -0.018    -0.017  0.1509  0.1741  0.9731
              Bcc     0.0027     1.456     0.519     0.486  0.9509 -0.2947 -0.0947
 
              Baa    -0.0004    -0.233    -0.083    -0.078  0.1718  0.3551  0.9189
    52 H(1)   Bbb    -0.0002    -0.103    -0.037    -0.034  0.7398 -0.6625  0.1177
              Bcc     0.0006     0.336     0.120     0.112  0.6506  0.6596 -0.3765
 
              Baa    -0.0005    -0.286    -0.102    -0.095  0.2118  0.1075  0.9714
    53 H(1)   Bbb    -0.0000    -0.023    -0.008    -0.008  0.7313 -0.6767 -0.0845
              Bcc     0.0006     0.309     0.110     0.103  0.6483  0.7283 -0.2219
 
              Baa    -0.0005    -0.267    -0.095    -0.089  0.0975 -0.1851  0.9779
    54 H(1)   Bbb    -0.0002    -0.084    -0.030    -0.028  0.7154 -0.6700 -0.1982
              Bcc     0.0007     0.352     0.125     0.117  0.6919  0.7189  0.0671
 

 ---------------------------------------------------------------------------------

 Unable to Open any file for archive entry.
 1\1\GINC-CX3-3-3\FOpt\UB3LYP\6-311+G(d,p)\C26H18N2O6S2(1-,2)\NS5018\06
 -Oct-2021\0\\# opt=modredundant b3lyp/6-311+g(d,p)\\NDI_180.pdb\\-1,2\
 C,-2.4090799003,-2.8589607802,-0.5495146899\C,-2.1972538461,-1.4651820
 287,-0.1675809631\C,-3.2809871766,-0.5571611274,-0.1418731304\C,-4.584
 0770563,-0.9705265848,-0.4905054232\C,-4.8389325541,-2.3566310864,-0.8
 816185807\C,-0.907501778,-1.0197211896,0.1044821275\C,-3.0228893564,0.
 7941862091,0.25741308\C,-1.7030963957,1.2090983543,0.6147874464\C,-0.5
 931444077,0.2967390489,0.4694202894\C,-1.5741336671,2.5108609434,1.257
 3320973\C,-3.9546932105,3.0672616737,0.7307347796\C,-4.1265865143,1.68
 7009147,0.2951410634\C,-5.41537423,1.2546847242,-0.0733580777\C,-5.647
 50276,-0.0490642848,-0.4597104833\H,-6.6365286544,-0.3909278797,-0.736
 6423426\H,-6.2173939256,1.9810744907,-0.0346734359\H,-0.1282162947,-1.
 7524237551,-0.0376680961\N,-2.6743690093,3.3906012002,1.1944020604\N,-
 3.7251152658,-3.2222487193,-0.8791942309\O,-1.5166326553,-3.7081879629
 ,-0.5966187474\O,-5.9520677584,-2.7777867345,-1.1979301257\O,-4.859313
 6888,3.9059668764,0.7313847599\O,-0.5737498274,2.8908275215,1.87109485
 59\C,-2.4637879625,4.7204589306,1.7681000501\H,-2.3333279545,4.6531208
 586,2.850837887\H,-1.5587373617,5.1601859617,1.3489574792\H,-3.3374417
 037,5.3215032578,1.5326653433\C,-3.9316472017,-4.6204928922,-1.2583633
 429\H,-3.3382784773,-4.8602199259,-2.1429536891\H,-3.6065662025,-5.276
 7094123,-0.4491982698\H,-4.9900081363,-4.755198665,-1.4614495949\C,0.8
 490648506,0.6179091722,0.4796020058\C,1.8660007235,-0.3213650979,0.332
 7841489\S,1.5264192376,2.2256314629,0.3274969687\C,3.1354051518,0.2327
 869942,0.0942221874\H,1.7004838649,-1.3845142426,0.3976926411\C,3.1483
 376931,1.6190303642,0.0194839532\O,4.3057554644,-0.4643704225,-0.05095
 07152\C,4.2849039377,2.4804298606,-0.1746306624\C,4.2388764855,-1.8814
 335728,-0.007625323\C,4.3131148271,3.8673400691,-0.258439327\S,5.92849
 50618,1.8659841976,-0.3505325113\H,5.2590723912,-2.2357188062,-0.15372
 37528\H,3.8672486051,-2.2338182484,0.9610019702\H,3.598995405,-2.27521
 9915,-0.8048611796\C,5.609725305,4.4214932186,-0.4482912046\O,3.144307
 4712,4.5684976744,-0.1806670461\C,6.5801256926,3.460427527,-0.51614568
 5\H,5.8123113881,5.4798041028,-0.5342104199\C,3.2208868619,5.971310974
 9,0.0045655908\H,7.6408460292,3.596893392,-0.6596047769\H,3.6543397432
 ,6.4695049043,-0.8712666347\H,2.1953369726,6.3125018875,0.1392551378\H
 ,3.8083817699,6.2237583339,0.8949445386\\Version=ES64L-G16RevC.01\Stat
 e=2-A\HF=-2359.4224307\S2=0.760086\S2-1=0.\S2A=0.750092\RMSD=5.929e-09
 \RMSF=5.792e-04\Dipole=4.1785457,1.1966011,-0.1018641\Quadrupole=-33.7
 985681,10.7400132,23.0585548,-8.7890363,-4.3524653,-8.4679408\PG=C01 [
 X(C26H18N2O6S2)]\\@
 The archive entry for this job was punched.


 IF YOU DON'T HAVE THE LAW - ARGUE THE FACTS.
 IF YOU DON'T HAVE THE FACTS - ARGUE THE LAW.
 IF YOU DON'T HAVE EITHER - POUND THE TABLE.
 Job cpu time:       9 days  0 hours 40 minutes  6.0 seconds.
 Elapsed time:       1 days  3 hours 19 minutes 46.2 seconds.
 File lengths (MBytes):  RWF=    901 Int=      0 D2E=      0 Chk=     99 Scr=      1
 Normal termination of Gaussian 16 at Wed Oct  6 10:03:33 2021.
