 Entering Gaussian System, Link 0=g16
 Input=NDI_110.gjf
 Output=NDI_110.log
 Initial command:
 /apps/gaussian/g16-c01-avx/g16/l1.exe "/tmp/pbs.4643761[285].pbs/Gau-1813844.inp" -scrdir="/tmp/pbs.4643761[285].pbs/"
 Entering Link 1 = /apps/gaussian/g16-c01-avx/g16/l1.exe PID=   1813845.
  
 Copyright (c) 1988-2019, Gaussian, Inc.  All Rights Reserved.
  
 This is part of the Gaussian(R) 16 program.  It is based on
 the Gaussian(R) 09 system (copyright 2009, Gaussian, Inc.),
 the Gaussian(R) 03 system (copyright 2003, Gaussian, Inc.),
 the Gaussian(R) 98 system (copyright 1998, Gaussian, Inc.),
 the Gaussian(R) 94 system (copyright 1995, Gaussian, Inc.),
 the Gaussian 92(TM) system (copyright 1992, Gaussian, Inc.),
 the Gaussian 90(TM) system (copyright 1990, Gaussian, Inc.),
 the Gaussian 88(TM) system (copyright 1988, Gaussian, Inc.),
 the Gaussian 86(TM) system (copyright 1986, Carnegie Mellon
 University), and the Gaussian 82(TM) system (copyright 1983,
 Carnegie Mellon University). Gaussian is a federally registered
 trademark of Gaussian, Inc.
  
 This software contains proprietary and confidential information,
 including trade secrets, belonging to Gaussian, Inc.
  
 This software is provided under written license and may be
 used, copied, transmitted, or stored only in accord with that
 written license.
  
 The following legend is applicable only to US Government
 contracts under FAR:
  
                    RESTRICTED RIGHTS LEGEND
  
 Use, reproduction and disclosure by the US Government is
 subject to restrictions as set forth in subparagraphs (a)
 and (c) of the Commercial Computer Software - Restricted
 Rights clause in FAR 52.227-19.
  
 Gaussian, Inc.
 340 Quinnipiac St., Bldg. 40, Wallingford CT 06492
  
  
 ---------------------------------------------------------------
 Warning -- This program may not be used in any manner that
 competes with the business of Gaussian, Inc. or will provide
 assistance to any competitor of Gaussian, Inc.  The licensee
 of this program is prohibited from giving any competitor of
 Gaussian, Inc. access to this program.  By using this program,
 the user acknowledges that Gaussian, Inc. is engaged in the
 business of creating and licensing software in the field of
 computational chemistry and represents and warrants to the
 licensee that it is not a competitor of Gaussian, Inc. and that
 it will not use this program in any manner prohibited above.
 ---------------------------------------------------------------
  

 Cite this work as:
 Gaussian 16, Revision C.01,
 M. J. Frisch, G. W. Trucks, H. B. Schlegel, G. E. Scuseria, 
 M. A. Robb, J. R. Cheeseman, G. Scalmani, V. Barone, 
 G. A. Petersson, H. Nakatsuji, X. Li, M. Caricato, A. V. Marenich, 
 J. Bloino, B. G. Janesko, R. Gomperts, B. Mennucci, H. P. Hratchian, 
 J. V. Ortiz, A. F. Izmaylov, J. L. Sonnenberg, D. Williams-Young, 
 F. Ding, F. Lipparini, F. Egidi, J. Goings, B. Peng, A. Petrone, 
 T. Henderson, D. Ranasinghe, V. G. Zakrzewski, J. Gao, N. Rega, 
 G. Zheng, W. Liang, M. Hada, M. Ehara, K. Toyota, R. Fukuda, 
 J. Hasegawa, M. Ishida, T. Nakajima, Y. Honda, O. Kitao, H. Nakai, 
 T. Vreven, K. Throssell, J. A. Montgomery, Jr., J. E. Peralta, 
 F. Ogliaro, M. J. Bearpark, J. J. Heyd, E. N. Brothers, K. N. Kudin, 
 V. N. Staroverov, T. A. Keith, R. Kobayashi, J. Normand, 
 K. Raghavachari, A. P. Rendell, J. C. Burant, S. S. Iyengar, 
 J. Tomasi, M. Cossi, J. M. Millam, M. Klene, C. Adamo, R. Cammi, 
 J. W. Ochterski, R. L. Martin, K. Morokuma, O. Farkas, 
 J. B. Foresman, and D. J. Fox, Gaussian, Inc., Wallingford CT, 2019.
 
 ******************************************
 Gaussian 16:  ES64L-G16RevC.01  3-Jul-2019
                 5-Oct-2021 
 ******************************************
 %mem=10GB
 %nprocshared=8
 Will use up to    8 processors via shared memory.
 -------------------------------------
 # opt=modredundant b3lyp/6-311+g(d,p)
 -------------------------------------
 1/18=120,19=15,26=3,38=1/1,3;
 2/9=110,12=2,17=6,18=5,40=1/2;
 3/5=4,6=6,7=111,11=2,25=1,30=1,71=1,74=-5/1,2,3;
 4//1;
 5/5=2,38=5/2;
 6/7=2,8=2,9=2,10=2,28=1/1;
 7//1,2,3,16;
 1/18=20,19=15,26=3/3(2);
 2/9=110/2;
 99//99;
 2/9=110/2;
 3/5=4,6=6,7=111,11=2,25=1,30=1,71=1,74=-5/1,2,3;
 4/5=5,16=3,69=1/1;
 5/5=2,38=5/2;
 7//1,2,3,16;
 1/18=20,19=15,26=3/3(-5);
 2/9=110/2;
 6/7=2,8=2,9=2,10=2,19=2,28=1/1;
 99/9=1/99;
 -----------
 NDI_110.pdb
 -----------
 Symbolic Z-matrix:
 Charge = -1 Multiplicity = 2
 C                    -2.563    -2.994    -0.409 
 C                    -2.257    -1.551    -0.224 
 C                    -3.301    -0.607    -0.083 
 C                    -4.65     -1.024    -0.115 
 C                    -4.992    -2.459    -0.304 
 C                    -0.949    -1.137    -0.215 
 C                    -2.962     0.764     0.102 
 C                    -1.595     1.188     0.123 
 C                    -0.561     0.232    -0.072 
 C                    -1.328     2.616     0.446 
 C                    -3.777     3.115     0.508 
 C                    -4.035     1.679     0.268 
 C                    -5.356     1.252     0.23 
 C                    -5.672    -0.098     0.036 
 H                    -6.699    -0.442     0.008 
 H                    -6.133     1.997     0.361 
 H                    -0.19     -1.895    -0.369 
 N                    -2.432     3.476     0.608 
 N                    -3.916    -3.353    -0.438 
 O                    -1.695    -3.847    -0.532 
 O                    -6.149    -2.85     -0.34 
 O                    -4.676     3.938     0.629 
 O                    -0.212     3.097     0.596 
 C                    -2.111     4.875     0.912 
 H                    -1.54      4.931     1.84 
 H                    -1.5       5.299     0.111 
 H                    -3.05      5.414     1.003 
 C                    -4.206    -4.779    -0.625 
 H                    -3.759    -5.126    -1.559 
 H                    -3.775    -5.355     0.196 
 H                    -5.286    -4.897    -0.649 
 C                     0.876     0.482    -0.178 
 C                     1.912     0.185     0.687 
 S                     1.474     1.445    -1.529 
 C                     3.154     0.708     0.278 
 H                     1.775    -0.4       1.582 
 C                     3.114     1.423    -0.923 
 O                     4.34      0.58      0.931 
 C                     4.211     2.035    -1.617 
 C                     4.373    -0.272     2.073 
 C                     4.165     2.767    -2.803 
 S                     5.875     1.953    -1.047 
 H                     5.414    -0.302     2.394 
 H                     3.754     0.129     2.884 
 H                     4.034    -1.284     1.822 
 C                     5.432     3.247    -3.241 
 O                     2.97      2.953    -3.423 
 C                     6.439     2.882    -2.389 
 H                     5.588     3.832    -4.137 
 C                     2.95      3.734    -4.612 
 H                     7.492     3.112    -2.478 
 H                     3.557     3.272    -5.402 
 H                     1.909     3.769    -4.932 
 H                     3.309     4.753    -4.425 
 
 The following ModRedundant input section has been read:
 D       8       9      32      33 F                                           
 

 GradGradGradGradGradGradGradGradGradGradGradGradGradGradGradGradGradGrad
 Berny optimization.
 Initialization pass.
                           ----------------------------
                           !    Initial Parameters    !
                           ! (Angstroms and Degrees)  !
 --------------------------                            --------------------------
 ! Name  Definition              Value          Derivative Info.                !
 --------------------------------------------------------------------------------
 ! R1    R(1,2)                  1.4866         estimate D2E/DX2                !
 ! R2    R(1,19)                 1.4001         estimate D2E/DX2                !
 ! R3    R(1,20)                 1.2232         estimate D2E/DX2                !
 ! R4    R(2,3)                  1.4146         estimate D2E/DX2                !
 ! R5    R(2,6)                  1.372          estimate D2E/DX2                !
 ! R6    R(3,4)                  1.4123         estimate D2E/DX2                !
 ! R7    R(3,7)                  1.4244         estimate D2E/DX2                !
 ! R8    R(4,5)                  1.4872         estimate D2E/DX2                !
 ! R9    R(4,14)                 1.3874         estimate D2E/DX2                !
 ! R10   R(5,19)                 1.4053         estimate D2E/DX2                !
 ! R11   R(5,21)                 1.2218         estimate D2E/DX2                !
 ! R12   R(6,9)                  1.4301         estimate D2E/DX2                !
 ! R13   R(6,17)                 1.0837         estimate D2E/DX2                !
 ! R14   R(7,8)                  1.4314         estimate D2E/DX2                !
 ! R15   R(7,12)                 1.4199         estimate D2E/DX2                !
 ! R16   R(8,9)                  1.4217         estimate D2E/DX2                !
 ! R17   R(8,10)                 1.4882         estimate D2E/DX2                !
 ! R18   R(9,32)                 1.4624         estimate D2E/DX2                !
 ! R19   R(10,18)                1.4088         estimate D2E/DX2                !
 ! R20   R(10,23)                1.2245         estimate D2E/DX2                !
 ! R21   R(11,12)                1.4786         estimate D2E/DX2                !
 ! R22   R(11,18)                1.3962         estimate D2E/DX2                !
 ! R23   R(11,22)                1.2248         estimate D2E/DX2                !
 ! R24   R(12,13)                1.3888         estimate D2E/DX2                !
 ! R25   R(13,14)                1.4            estimate D2E/DX2                !
 ! R26   R(13,16)                1.0844         estimate D2E/DX2                !
 ! R27   R(14,15)                1.0834         estimate D2E/DX2                !
 ! R28   R(18,24)                1.4672         estimate D2E/DX2                !
 ! R29   R(19,28)                1.4672         estimate D2E/DX2                !
 ! R30   R(24,25)                1.091          estimate D2E/DX2                !
 ! R31   R(24,26)                1.093          estimate D2E/DX2                !
 ! R32   R(24,27)                1.0865         estimate D2E/DX2                !
 ! R33   R(28,29)                1.0921         estimate D2E/DX2                !
 ! R34   R(28,30)                1.0916         estimate D2E/DX2                !
 ! R35   R(28,31)                1.0867         estimate D2E/DX2                !
 ! R36   R(32,33)                1.3819         estimate D2E/DX2                !
 ! R37   R(32,34)                1.7636         estimate D2E/DX2                !
 ! R38   R(33,35)                1.4083         estimate D2E/DX2                !
 ! R39   R(33,36)                1.078          estimate D2E/DX2                !
 ! R40   R(34,37)                1.7485         estimate D2E/DX2                !
 ! R41   R(35,37)                1.3983         estimate D2E/DX2                !
 ! R42   R(35,38)                1.3599         estimate D2E/DX2                !
 ! R43   R(37,39)                1.4351         estimate D2E/DX2                !
 ! R44   R(38,40)                1.4252         estimate D2E/DX2                !
 ! R45   R(39,41)                1.3945         estimate D2E/DX2                !
 ! R46   R(39,42)                1.7608         estimate D2E/DX2                !
 ! R47   R(40,43)                1.0898         estimate D2E/DX2                !
 ! R48   R(40,44)                1.0962         estimate D2E/DX2                !
 ! R49   R(40,45)                1.0964         estimate D2E/DX2                !
 ! R50   R(41,46)                1.4239         estimate D2E/DX2                !
 ! R51   R(41,47)                1.3591         estimate D2E/DX2                !
 ! R52   R(42,48)                1.7269         estimate D2E/DX2                !
 ! R53   R(46,48)                1.3686         estimate D2E/DX2                !
 ! R54   R(46,49)                1.0814         estimate D2E/DX2                !
 ! R55   R(47,50)                1.4227         estimate D2E/DX2                !
 ! R56   R(48,51)                1.0815         estimate D2E/DX2                !
 ! R57   R(50,52)                1.0982         estimate D2E/DX2                !
 ! R58   R(50,53)                1.0896         estimate D2E/DX2                !
 ! R59   R(50,54)                1.0965         estimate D2E/DX2                !
 ! A1    A(2,1,19)             116.767          estimate D2E/DX2                !
 ! A2    A(2,1,20)             122.9113         estimate D2E/DX2                !
 ! A3    A(19,1,20)            120.3217         estimate D2E/DX2                !
 ! A4    A(1,2,3)              120.5473         estimate D2E/DX2                !
 ! A5    A(1,2,6)              119.3369         estimate D2E/DX2                !
 ! A6    A(3,2,6)              120.1056         estimate D2E/DX2                !
 ! A7    A(2,3,4)              120.3743         estimate D2E/DX2                !
 ! A8    A(2,3,7)              118.662          estimate D2E/DX2                !
 ! A9    A(4,3,7)              120.9617         estimate D2E/DX2                !
 ! A10   A(3,4,5)              120.4909         estimate D2E/DX2                !
 ! A11   A(3,4,14)             120.2702         estimate D2E/DX2                !
 ! A12   A(5,4,14)             119.2382         estimate D2E/DX2                !
 ! A13   A(4,5,19)             116.7341         estimate D2E/DX2                !
 ! A14   A(4,5,21)             122.024          estimate D2E/DX2                !
 ! A15   A(19,5,21)            121.2418         estimate D2E/DX2                !
 ! A16   A(2,6,9)              123.2421         estimate D2E/DX2                !
 ! A17   A(2,6,17)             117.1119         estimate D2E/DX2                !
 ! A18   A(9,6,17)             119.589          estimate D2E/DX2                !
 ! A19   A(3,7,8)              120.9519         estimate D2E/DX2                !
 ! A20   A(3,7,12)             117.1037         estimate D2E/DX2                !
 ! A21   A(8,7,12)             121.944          estimate D2E/DX2                !
 ! A22   A(7,8,9)              119.5639         estimate D2E/DX2                !
 ! A23   A(7,8,10)             117.3064         estimate D2E/DX2                !
 ! A24   A(9,8,10)             122.9922         estimate D2E/DX2                !
 ! A25   A(6,9,8)              117.3944         estimate D2E/DX2                !
 ! A26   A(6,9,32)             115.0236         estimate D2E/DX2                !
 ! A27   A(8,9,32)             127.5648         estimate D2E/DX2                !
 ! A28   A(8,10,18)            118.042          estimate D2E/DX2                !
 ! A29   A(8,10,23)            124.5436         estimate D2E/DX2                !
 ! A30   A(18,10,23)           117.4097         estimate D2E/DX2                !
 ! A31   A(12,11,18)           115.5202         estimate D2E/DX2                !
 ! A32   A(12,11,22)           122.7205         estimate D2E/DX2                !
 ! A33   A(18,11,22)           121.7534         estimate D2E/DX2                !
 ! A34   A(7,12,11)            120.8614         estimate D2E/DX2                !
 ! A35   A(7,12,13)            121.162          estimate D2E/DX2                !
 ! A36   A(11,12,13)           117.9699         estimate D2E/DX2                !
 ! A37   A(12,13,14)           120.9948         estimate D2E/DX2                !
 ! A38   A(12,13,16)           117.8401         estimate D2E/DX2                !
 ! A39   A(14,13,16)           121.1642         estimate D2E/DX2                !
 ! A40   A(4,14,13)            119.5003         estimate D2E/DX2                !
 ! A41   A(4,14,15)            118.9169         estimate D2E/DX2                !
 ! A42   A(13,14,15)           121.5811         estimate D2E/DX2                !
 ! A43   A(10,18,11)           126.0753         estimate D2E/DX2                !
 ! A44   A(10,18,24)           115.7508         estimate D2E/DX2                !
 ! A45   A(11,18,24)           118.1737         estimate D2E/DX2                !
 ! A46   A(1,19,5)             125.0856         estimate D2E/DX2                !
 ! A47   A(1,19,28)            116.2868         estimate D2E/DX2                !
 ! A48   A(5,19,28)            118.6276         estimate D2E/DX2                !
 ! A49   A(18,24,25)           109.8574         estimate D2E/DX2                !
 ! A50   A(18,24,26)           109.8979         estimate D2E/DX2                !
 ! A51   A(18,24,27)           107.5355         estimate D2E/DX2                !
 ! A52   A(25,24,26)           108.1108         estimate D2E/DX2                !
 ! A53   A(25,24,27)           110.8301         estimate D2E/DX2                !
 ! A54   A(26,24,27)           110.6124         estimate D2E/DX2                !
 ! A55   A(19,28,29)           109.6906         estimate D2E/DX2                !
 ! A56   A(19,28,30)           109.8136         estimate D2E/DX2                !
 ! A57   A(19,28,31)           107.7461         estimate D2E/DX2                !
 ! A58   A(29,28,30)           108.2991         estimate D2E/DX2                !
 ! A59   A(29,28,31)           110.6959         estimate D2E/DX2                !
 ! A60   A(30,28,31)           110.5924         estimate D2E/DX2                !
 ! A61   A(9,32,33)            130.8841         estimate D2E/DX2                !
 ! A62   A(9,32,34)            118.8201         estimate D2E/DX2                !
 ! A63   A(33,32,34)           110.0388         estimate D2E/DX2                !
 ! A64   A(32,33,35)           113.5497         estimate D2E/DX2                !
 ! A65   A(32,33,36)           122.755          estimate D2E/DX2                !
 ! A66   A(35,33,36)           123.6927         estimate D2E/DX2                !
 ! A67   A(32,34,37)            92.6176         estimate D2E/DX2                !
 ! A68   A(33,35,37)           114.4629         estimate D2E/DX2                !
 ! A69   A(33,35,38)           126.4918         estimate D2E/DX2                !
 ! A70   A(37,35,38)           119.0452         estimate D2E/DX2                !
 ! A71   A(34,37,35)           109.326          estimate D2E/DX2                !
 ! A72   A(34,37,39)           122.9555         estimate D2E/DX2                !
 ! A73   A(35,37,39)           127.7009         estimate D2E/DX2                !
 ! A74   A(35,38,40)           117.4662         estimate D2E/DX2                !
 ! A75   A(37,39,41)           127.5842         estimate D2E/DX2                !
 ! A76   A(37,39,42)           123.0902         estimate D2E/DX2                !
 ! A77   A(41,39,42)           109.3256         estimate D2E/DX2                !
 ! A78   A(38,40,43)           105.9383         estimate D2E/DX2                !
 ! A79   A(38,40,44)           111.1652         estimate D2E/DX2                !
 ! A80   A(38,40,45)           111.1739         estimate D2E/DX2                !
 ! A81   A(43,40,44)           109.3628         estimate D2E/DX2                !
 ! A82   A(43,40,45)           109.7174         estimate D2E/DX2                !
 ! A83   A(44,40,45)           109.416          estimate D2E/DX2                !
 ! A84   A(39,41,46)           114.1558         estimate D2E/DX2                !
 ! A85   A(39,41,47)           119.2649         estimate D2E/DX2                !
 ! A86   A(46,41,47)           126.5789         estimate D2E/DX2                !
 ! A87   A(39,42,48)            91.8352         estimate D2E/DX2                !
 ! A88   A(41,46,48)           111.9191         estimate D2E/DX2                !
 ! A89   A(41,46,49)           124.4438         estimate D2E/DX2                !
 ! A90   A(48,46,49)           123.637          estimate D2E/DX2                !
 ! A91   A(41,47,50)           117.9534         estimate D2E/DX2                !
 ! A92   A(42,48,46)           112.7642         estimate D2E/DX2                !
 ! A93   A(42,48,51)           119.7593         estimate D2E/DX2                !
 ! A94   A(46,48,51)           127.4765         estimate D2E/DX2                !
 ! A95   A(47,50,52)           111.2532         estimate D2E/DX2                !
 ! A96   A(47,50,53)           106.0513         estimate D2E/DX2                !
 ! A97   A(47,50,54)           111.287          estimate D2E/DX2                !
 ! A98   A(52,50,53)           109.2878         estimate D2E/DX2                !
 ! A99   A(52,50,54)           109.4323         estimate D2E/DX2                !
 ! A100  A(53,50,54)           109.4534         estimate D2E/DX2                !
 ! D1    D(19,1,2,3)             0.1578         estimate D2E/DX2                !
 ! D2    D(19,1,2,6)          -178.6792         estimate D2E/DX2                !
 ! D3    D(20,1,2,3)          -179.8231         estimate D2E/DX2                !
 ! D4    D(20,1,2,6)             1.3399         estimate D2E/DX2                !
 ! D5    D(2,1,19,5)            -0.124          estimate D2E/DX2                !
 ! D6    D(2,1,19,28)          179.8267         estimate D2E/DX2                !
 ! D7    D(20,1,19,5)          179.8575         estimate D2E/DX2                !
 ! D8    D(20,1,19,28)          -0.1919         estimate D2E/DX2                !
 ! D9    D(1,2,3,4)              0.0571         estimate D2E/DX2                !
 ! D10   D(1,2,3,7)            179.5453         estimate D2E/DX2                !
 ! D11   D(6,2,3,4)            178.8851         estimate D2E/DX2                !
 ! D12   D(6,2,3,7)             -1.6266         estimate D2E/DX2                !
 ! D13   D(1,2,6,9)            178.625          estimate D2E/DX2                !
 ! D14   D(1,2,6,17)             1.3881         estimate D2E/DX2                !
 ! D15   D(3,2,6,9)             -0.2173         estimate D2E/DX2                !
 ! D16   D(3,2,6,17)          -177.4541         estimate D2E/DX2                !
 ! D17   D(2,3,4,5)             -0.3074         estimate D2E/DX2                !
 ! D18   D(2,3,4,14)           179.3968         estimate D2E/DX2                !
 ! D19   D(7,3,4,5)           -179.7837         estimate D2E/DX2                !
 ! D20   D(7,3,4,14)            -0.0795         estimate D2E/DX2                !
 ! D21   D(2,3,7,8)              1.0523         estimate D2E/DX2                !
 ! D22   D(2,3,7,12)          -178.712          estimate D2E/DX2                !
 ! D23   D(4,3,7,8)           -179.4626         estimate D2E/DX2                !
 ! D24   D(4,3,7,12)             0.7731         estimate D2E/DX2                !
 ! D25   D(3,4,5,19)             0.3343         estimate D2E/DX2                !
 ! D26   D(3,4,5,21)          -179.7799         estimate D2E/DX2                !
 ! D27   D(14,4,5,19)         -179.3729         estimate D2E/DX2                !
 ! D28   D(14,4,5,21)            0.5129         estimate D2E/DX2                !
 ! D29   D(3,4,14,13)           -0.4559         estimate D2E/DX2                !
 ! D30   D(3,4,14,15)         -179.9937         estimate D2E/DX2                !
 ! D31   D(5,4,14,13)          179.252          estimate D2E/DX2                !
 ! D32   D(5,4,14,15)           -0.2858         estimate D2E/DX2                !
 ! D33   D(4,5,19,1)            -0.1141         estimate D2E/DX2                !
 ! D34   D(4,5,19,28)          179.9364         estimate D2E/DX2                !
 ! D35   D(21,5,19,1)          179.9992         estimate D2E/DX2                !
 ! D36   D(21,5,19,28)           0.0496         estimate D2E/DX2                !
 ! D37   D(2,6,9,8)              2.5984         estimate D2E/DX2                !
 ! D38   D(2,6,9,32)          -176.0103         estimate D2E/DX2                !
 ! D39   D(17,6,9,8)           179.77           estimate D2E/DX2                !
 ! D40   D(17,6,9,32)            1.1613         estimate D2E/DX2                !
 ! D41   D(3,7,8,9)              1.3551         estimate D2E/DX2                !
 ! D42   D(3,7,8,10)          -174.5099         estimate D2E/DX2                !
 ! D43   D(12,7,8,9)          -178.8921         estimate D2E/DX2                !
 ! D44   D(12,7,8,10)            5.2428         estimate D2E/DX2                !
 ! D45   D(3,7,12,11)          178.0768         estimate D2E/DX2                !
 ! D46   D(3,7,12,13)           -0.9621         estimate D2E/DX2                !
 ! D47   D(8,7,12,11)           -1.685          estimate D2E/DX2                !
 ! D48   D(8,7,12,13)          179.2761         estimate D2E/DX2                !
 ! D49   D(7,8,9,6)             -3.0809         estimate D2E/DX2                !
 ! D50   D(7,8,9,32)           175.3285         estimate D2E/DX2                !
 ! D51   D(10,8,9,6)           172.5381         estimate D2E/DX2                !
 ! D52   D(10,8,9,32)           -9.0525         estimate D2E/DX2                !
 ! D53   D(7,8,10,18)           -4.7549         estimate D2E/DX2                !
 ! D54   D(7,8,10,23)          174.4235         estimate D2E/DX2                !
 ! D55   D(9,8,10,18)          179.5335         estimate D2E/DX2                !
 ! D56   D(9,8,10,23)           -1.2882         estimate D2E/DX2                !
 ! D57   D(6,9,32,33)          -71.5673         estimate D2E/DX2                !
 ! D58   D(6,9,32,34)          114.8965         estimate D2E/DX2                !
 ! D59   D(8,9,32,33)          109.9911         Frozen                          !
 ! D60   D(8,9,32,34)          -63.545          estimate D2E/DX2                !
 ! D61   D(8,10,18,11)           0.7189         estimate D2E/DX2                !
 ! D62   D(8,10,18,24)        -179.4089         estimate D2E/DX2                !
 ! D63   D(23,10,18,11)       -178.5188         estimate D2E/DX2                !
 ! D64   D(23,10,18,24)          1.3535         estimate D2E/DX2                !
 ! D65   D(18,11,12,7)          -2.3856         estimate D2E/DX2                !
 ! D66   D(18,11,12,13)        176.6833         estimate D2E/DX2                !
 ! D67   D(22,11,12,7)         178.4862         estimate D2E/DX2                !
 ! D68   D(22,11,12,13)         -2.445          estimate D2E/DX2                !
 ! D69   D(12,11,18,10)          2.8444         estimate D2E/DX2                !
 ! D70   D(12,11,18,24)       -177.0251         estimate D2E/DX2                !
 ! D71   D(22,11,18,10)       -178.0181         estimate D2E/DX2                !
 ! D72   D(22,11,18,24)          2.1124         estimate D2E/DX2                !
 ! D73   D(7,12,13,14)           0.461          estimate D2E/DX2                !
 ! D74   D(7,12,13,16)        -179.8781         estimate D2E/DX2                !
 ! D75   D(11,12,13,14)       -178.6049         estimate D2E/DX2                !
 ! D76   D(11,12,13,16)          1.056          estimate D2E/DX2                !
 ! D77   D(12,13,14,4)           0.2708         estimate D2E/DX2                !
 ! D78   D(12,13,14,15)        179.7958         estimate D2E/DX2                !
 ! D79   D(16,13,14,4)        -179.3788         estimate D2E/DX2                !
 ! D80   D(16,13,14,15)          0.1463         estimate D2E/DX2                !
 ! D81   D(10,18,24,25)        -59.609          estimate D2E/DX2                !
 ! D82   D(10,18,24,26)         59.2209         estimate D2E/DX2                !
 ! D83   D(10,18,24,27)        179.6858         estimate D2E/DX2                !
 ! D84   D(11,18,24,25)        120.2739         estimate D2E/DX2                !
 ! D85   D(11,18,24,26)       -120.8962         estimate D2E/DX2                !
 ! D86   D(11,18,24,27)         -0.4313         estimate D2E/DX2                !
 ! D87   D(1,19,28,29)         -58.1407         estimate D2E/DX2                !
 ! D88   D(1,19,28,30)          60.7668         estimate D2E/DX2                !
 ! D89   D(1,19,28,31)        -178.7139         estimate D2E/DX2                !
 ! D90   D(5,19,28,29)         121.8132         estimate D2E/DX2                !
 ! D91   D(5,19,28,30)        -119.2792         estimate D2E/DX2                !
 ! D92   D(5,19,28,31)           1.2401         estimate D2E/DX2                !
 ! D93   D(9,32,33,35)        -174.2522         estimate D2E/DX2                !
 ! D94   D(9,32,33,36)           6.3127         estimate D2E/DX2                !
 ! D95   D(34,32,33,35)         -0.2787         estimate D2E/DX2                !
 ! D96   D(34,32,33,36)       -179.7137         estimate D2E/DX2                !
 ! D97   D(9,32,34,37)         175.3469         estimate D2E/DX2                !
 ! D98   D(33,32,34,37)          0.5447         estimate D2E/DX2                !
 ! D99   D(32,33,35,37)         -0.2374         estimate D2E/DX2                !
 ! D100  D(32,33,35,38)        179.6926         estimate D2E/DX2                !
 ! D101  D(36,33,35,37)        179.1916         estimate D2E/DX2                !
 ! D102  D(36,33,35,38)         -0.8784         estimate D2E/DX2                !
 ! D103  D(32,34,37,35)         -0.6642         estimate D2E/DX2                !
 ! D104  D(32,34,37,39)        177.9143         estimate D2E/DX2                !
 ! D105  D(33,35,37,34)          0.637          estimate D2E/DX2                !
 ! D106  D(33,35,37,39)       -177.8554         estimate D2E/DX2                !
 ! D107  D(38,35,37,34)       -179.2986         estimate D2E/DX2                !
 ! D108  D(38,35,37,39)          2.2089         estimate D2E/DX2                !
 ! D109  D(33,35,38,40)          6.6037         estimate D2E/DX2                !
 ! D110  D(37,35,38,40)       -173.4692         estimate D2E/DX2                !
 ! D111  D(34,37,39,41)          2.8853         estimate D2E/DX2                !
 ! D112  D(34,37,39,42)       -177.1636         estimate D2E/DX2                !
 ! D113  D(35,37,39,41)       -178.8101         estimate D2E/DX2                !
 ! D114  D(35,37,39,42)          1.141          estimate D2E/DX2                !
 ! D115  D(35,38,40,43)        175.4173         estimate D2E/DX2                !
 ! D116  D(35,38,40,44)        -65.8767         estimate D2E/DX2                !
 ! D117  D(35,38,40,45)         56.2809         estimate D2E/DX2                !
 ! D118  D(37,39,41,46)       -179.9943         estimate D2E/DX2                !
 ! D119  D(37,39,41,47)         -0.2159         estimate D2E/DX2                !
 ! D120  D(42,39,41,46)          0.0491         estimate D2E/DX2                !
 ! D121  D(42,39,41,47)        179.8275         estimate D2E/DX2                !
 ! D122  D(37,39,42,48)       -179.9733         estimate D2E/DX2                !
 ! D123  D(41,39,42,48)         -0.0144         estimate D2E/DX2                !
 ! D124  D(39,41,46,48)         -0.0688         estimate D2E/DX2                !
 ! D125  D(39,41,46,49)       -179.9547         estimate D2E/DX2                !
 ! D126  D(47,41,46,48)       -179.8281         estimate D2E/DX2                !
 ! D127  D(47,41,46,49)          0.2861         estimate D2E/DX2                !
 ! D128  D(39,41,47,50)        178.3621         estimate D2E/DX2                !
 ! D129  D(46,41,47,50)         -1.8897         estimate D2E/DX2                !
 ! D130  D(39,42,48,46)         -0.0244         estimate D2E/DX2                !
 ! D131  D(39,42,48,51)        179.917          estimate D2E/DX2                !
 ! D132  D(41,46,48,42)          0.0561         estimate D2E/DX2                !
 ! D133  D(41,46,48,51)       -179.8797         estimate D2E/DX2                !
 ! D134  D(49,46,48,42)        179.943          estimate D2E/DX2                !
 ! D135  D(49,46,48,51)          0.0072         estimate D2E/DX2                !
 ! D136  D(41,47,50,52)         62.0917         estimate D2E/DX2                !
 ! D137  D(41,47,50,53)       -179.1772         estimate D2E/DX2                !
 ! D138  D(41,47,50,54)        -60.2285         estimate D2E/DX2                !
 --------------------------------------------------------------------------------
 Trust Radius=3.00D-01 FncErr=1.00D-07 GrdErr=1.00D-06 EigMax=2.50D+02 EigMin=1.00D-04
 Number of steps in this run=    307 maximum allowed number of steps=    324.
 GradGradGradGradGradGradGradGradGradGradGradGradGradGradGradGradGradGrad

 Stoichiometry    C26H18N2O6S2(1-,2)
 Framework group  C1[X(C26H18N2O6S2)]
 Deg. of freedom   156
 Full point group                 C1      NOp   1
 Largest Abelian subgroup         C1      NOp   1
 Largest concise Abelian subgroup C1      NOp   1
                         Standard orientation:                         
 ---------------------------------------------------------------------
 Center     Atomic      Atomic             Coordinates (Angstroms)
 Number     Number       Type             X           Y           Z
 ---------------------------------------------------------------------
      1          6           0        3.536094   -2.717671    0.400302
      2          6           0        2.783551   -1.467087    0.117762
      3          6           0        3.443623   -0.215989    0.114419
      4          6           0        4.828856   -0.138677    0.378746
      5          6           0        5.611220   -1.369342    0.670772
      6          6           0        1.433459   -1.533504   -0.117146
      7          6           0        2.685560    0.955634   -0.170932
      8          6           0        1.279476    0.878366   -0.427566
      9          6           0        0.623955   -0.381782   -0.368931
     10          6           0        0.590751    2.131712   -0.839372
     11          6           0        2.689786    3.452231   -0.521999
     12          6           0        3.386564    2.190222   -0.193223
     13          6           0        4.748420    2.248286    0.072843
     14          6           0        5.476487    1.088138    0.362615
     15          1           0        6.539674    1.122037    0.568366
     16          1           0        5.229242    3.219803    0.043166
     17          1           0        0.970002   -2.511493   -0.061420
     18          7           0        1.338797    3.325428   -0.850777
     19          7           0        4.905406   -2.584531    0.660283
     20          8           0        3.009975   -3.821864    0.411162
     21          8           0        6.809456   -1.334496    0.907084
     22          8           0        3.254609    4.539033   -0.524820
     23          8           0       -0.582147    2.198177   -1.184639
     24          6           0        0.607140    4.532370   -1.251559
     25          1           0        0.212334    4.408331   -2.261066
     26          1           0       -0.235328    4.698450   -0.575274
     27          1           0        1.302444    5.366163   -1.208366
     28          6           0        5.636952   -3.824789    0.941612
     29          1           0        5.191441   -4.327534    1.802624
     30          1           0        5.573011   -4.495090    0.082435
     31          1           0        6.671400   -3.560533    1.144063
     32          6           0       -0.807261   -0.649486   -0.505532
     33          6           0       -1.519482   -1.267539   -1.515720
     34         16           0       -1.914641    0.013322    0.696370
     35          6           0       -2.914857   -1.218735   -1.331541
     36          1           0       -1.043588   -1.747078   -2.355712
     37          6           0       -3.322454   -0.563056   -0.165704
     38          8           0       -3.858919   -1.735538   -2.162834
     39          6           0       -4.661434   -0.387168    0.319873
     40          6           0       -3.407028   -2.518596   -3.264548
     41          6           0       -5.066926    0.286887    1.471291
     42         16           0       -6.076509   -1.028980   -0.508473
     43          1           0       -4.305513   -2.900992   -3.748407
     44          1           0       -2.841523   -1.908355   -3.978336
     45          1           0       -2.784223   -3.355277   -2.926696
     46          6           0       -6.475233    0.286009    1.681536
     47          8           0       -4.129253    0.861966    2.269461
     48          6           0       -7.139227   -0.386010    0.691243
     49          1           0       -6.968839    0.758919    2.519442
     50          6           0       -4.576235    1.572841    3.417914
     51          1           0       -8.206069   -0.538572    0.600673
     52          1           0       -5.106072    0.910091    4.115071
     53          1           0       -3.679320    1.959947    3.900612
     54          1           0       -5.230420    2.407617    3.139701
 ---------------------------------------------------------------------
 Rotational constants (GHZ):           0.1642650           0.0550191           0.0473021
 Standard basis: 6-311+G(d,p) (5D, 7F)
 There are   952 symmetry adapted cartesian basis functions of A   symmetry.
 There are   916 symmetry adapted basis functions of A   symmetry.
   916 basis functions,  1468 primitive gaussians,   952 cartesian basis functions
   135 alpha electrons      134 beta electrons
       nuclear repulsion energy      4092.6942091775 Hartrees.
 NAtoms=   54 NActive=   54 NUniq=   54 SFac= 1.00D+00 NAtFMM=   60 NAOKFM=F Big=F
 Integral buffers will be    131072 words long.
 Raffenetti 2 integral format.
 Two-electron integral symmetry is turned on.
 One-electron integrals computed using PRISM.
 NBasis=   916 RedAO= T EigKep=  1.00D-06  NBF=   916
 NBsUse=   902 1.00D-06 EigRej=  6.79D-07 NBFU=   902
 ExpMin= 4.05D-02 ExpMax= 9.34D+04 ExpMxC= 3.17D+03 IAcc=3 IRadAn=         5 AccDes= 0.00D+00
 Harris functional with IExCor=  402 and IRadAn=       5 diagonalized for initial guess.
 HarFok:  IExCor=  402 AccDes= 0.00D+00 IRadAn=         5 IDoV= 1 UseB2=F ITyADJ=14
 ICtDFT=  3500011 ScaDFX=  1.000000  1.000000  1.000000  1.000000
 FoFCou: FMM=F IPFlag=           0 FMFlag=      100000 FMFlg1=           0
         NFxFlg=           0 DoJE=T BraDBF=F KetDBF=T FulRan=T
         wScrn=  0.000000 ICntrl=       500 IOpCl=  0 I1Cent=   200000004 NGrid=           0
         NMat0=    1 NMatS0=      1 NMatT0=    0 NMatD0=    1 NMtDS0=    0 NMtDT0=    0
 Petite list used in FoFCou.
 Initial guess <Sx>= 0.0000 <Sy>= 0.0000 <Sz>= 0.5000 <S**2>= 0.7500 S= 0.5000
 Requested convergence on RMS density matrix=1.00D-08 within 128 cycles.
 Requested convergence on MAX density matrix=1.00D-06.
 Requested convergence on             energy=1.00D-06.
 No special actions if energy rises.
 Restarting incremental Fock formation.
 SCF Done:  E(UB3LYP) =  -2359.41982701     A.U. after   23 cycles
            NFock= 23  Conv=0.63D-08     -V/T= 2.0031
 <Sx>= 0.0000 <Sy>= 0.0000 <Sz>= 0.5000 <S**2>= 0.7574 S= 0.5037
 <L.S>=  0.00000000000    
 Annihilation of the first spin contaminant:
 S**2 before annihilation     0.7574,   after     0.7500

 **********************************************************************

            Population analysis using the SCF Density.

 **********************************************************************

 Orbital symmetries:
 Alpha Orbitals:
       Occupied  (A) (A) (A) (A) (A) (A) (A) (A) (A) (A) (A) (A)
                 (A) (A) (A) (A) (A) (A) (A) (A) (A) (A) (A) (A)
                 (A) (A) (A) (A) (A) (A) (A) (A) (A) (A) (A) (A)
                 (A) (A) (A) (A) (A) (A) (A) (A) (A) (A) (A) (A)
                 (A) (A) (A) (A) (A) (A) (A) (A) (A) (A) (A) (A)
                 (A) (A) (A) (A) (A) (A) (A) (A) (A) (A) (A) (A)
                 (A) (A) (A) (A) (A) (A) (A) (A) (A) (A) (A) (A)
                 (A) (A) (A) (A) (A) (A) (A) (A) (A) (A) (A) (A)
                 (A) (A) (A) (A) (A) (A) (A) (A) (A) (A) (A) (A)
                 (A) (A) (A) (A) (A) (A) (A) (A) (A) (A) (A) (A)
                 (A) (A) (A) (A) (A) (A) (A) (A) (A) (A) (A) (A)
                 (A) (A) (A)
       Virtual   (A) (A) (A) (A) (A) (A) (A) (A) (A) (A) (A) (A)
                 (A) (A) (A) (A) (A) (A) (A) (A) (A) (A) (A) (A)
                 (A) (A) (A) (A) (A) (A) (A) (A) (A) (A) (A) (A)
                 (A) (A) (A) (A) (A) (A) (A) (A) (A) (A) (A) (A)
                 (A) (A) (A) (A) (A) (A) (A) (A) (A) (A) (A) (A)
                 (A) (A) (A) (A) (A) (A) (A) (A) (A) (A) (A) (A)
                 (A) (A) (A) (A) (A) (A) (A) (A) (A) (A) (A) (A)
                 (A) (A) (A) (A) (A) (A) (A) (A) (A) (A) (A) (A)
                 (A) (A) (A) (A) (A) (A) (A) (A) (A) (A) (A) (A)
                 (A) (A) (A) (A) (A) (A) (A) (A) (A) (A) (A) (A)
                 (A) (A) (A) (A) (A) (A) (A) (A) (A) (A) (A) (A)
                 (A) (A) (A) (A) (A) (A) (A) (A) (A) (A) (A) (A)
                 (A) (A) (A) (A) (A) (A) (A) (A) (A) (A) (A) (A)
                 (A) (A) (A) (A) (A) (A) (A) (A) (A) (A) (A) (A)
                 (A) (A) (A) (A) (A) (A) (A) (A) (A) (A) (A) (A)
                 (A) (A) (A) (A) (A) (A) (A) (A) (A) (A) (A) (A)
                 (A) (A) (A) (A) (A) (A) (A) (A) (A) (A) (A) (A)
                 (A) (A) (A) (A) (A) (A) (A) (A) (A) (A) (A) (A)
                 (A) (A) (A) (A) (A) (A) (A) (A) (A) (A) (A) (A)
                 (A) (A) (A) (A) (A) (A) (A) (A) (A) (A) (A) (A)
                 (A) (A) (A) (A) (A) (A) (A) (A) (A) (A) (A) (A)
                 (A) (A) (A) (A) (A) (A) (A) (A) (A) (A) (A) (A)
                 (A) (A) (A) (A) (A) (A) (A) (A) (A) (A) (A) (A)
                 (A) (A) (A) (A) (A) (A) (A) (A) (A) (A) (A) (A)
                 (A) (A) (A) (A) (A) (A) (A) (A) (A) (A) (A) (A)
                 (A) (A) (A) (A) (A) (A) (A) (A) (A) (A) (A) (A)
                 (A) (A) (A) (A) (A) (A) (A) (A) (A) (A) (A) (A)
                 (A) (A) (A) (A) (A) (A) (A) (A) (A) (A) (A) (A)
                 (A) (A) (A) (A) (A) (A) (A) (A) (A) (A) (A) (A)
                 (A) (A) (A) (A) (A) (A) (A) (A) (A) (A) (A) (A)
                 (A) (A) (A) (A) (A) (A) (A) (A) (A) (A) (A) (A)
                 (A) (A) (A) (A) (A) (A) (A) (A) (A) (A) (A) (A)
                 (A) (A) (A) (A) (A) (A) (A) (A) (A) (A) (A) (A)
                 (A) (A) (A) (A) (A) (A) (A) (A) (A) (A) (A) (A)
                 (A) (A) (A) (A) (A) (A) (A) (A) (A) (A) (A) (A)
                 (A) (A) (A) (A) (A) (A) (A) (A) (A) (A) (A) (A)
                 (A) (A) (A) (A) (A) (A) (A) (A) (A) (A) (A) (A)
                 (A) (A) (A) (A) (A) (A) (A) (A) (A) (A) (A) (A)
                 (A) (A) (A) (A) (A) (A) (A) (A) (A) (A) (A) (A)
                 (A) (A) (A) (A) (A) (A) (A) (A) (A) (A) (A) (A)
                 (A) (A) (A) (A) (A) (A) (A) (A) (A) (A) (A) (A)
                 (A) (A) (A) (A) (A) (A) (A) (A) (A) (A) (A) (A)
                 (A) (A) (A) (A) (A) (A) (A) (A) (A) (A) (A) (A)
                 (A) (A) (A) (A) (A) (A) (A) (A) (A) (A) (A) (A)
                 (A) (A) (A) (A) (A) (A) (A) (A) (A) (A) (A) (A)
                 (A) (A) (A) (A) (A) (A) (A) (A) (A) (A) (A) (A)
                 (A) (A) (A) (A) (A) (A) (A) (A) (A) (A) (A) (A)
                 (A) (A) (A) (A) (A) (A) (A) (A) (A) (A) (A) (A)
                 (A) (A) (A) (A) (A) (A) (A) (A) (A) (A) (A) (A)
                 (A) (A) (A) (A) (A) (A) (A) (A) (A) (A) (A) (A)
                 (A) (A) (A) (A) (A) (A) (A) (A) (A) (A) (A) (A)
                 (A) (A) (A) (A) (A) (A) (A) (A) (A) (A) (A) (A)
                 (A) (A) (A) (A) (A) (A) (A) (A) (A) (A) (A) (A)
                 (A) (A) (A) (A) (A) (A) (A) (A) (A) (A) (A) (A)
                 (A) (A) (A) (A) (A) (A) (A) (A) (A) (A) (A) (A)
                 (A) (A) (A) (A) (A) (A) (A) (A) (A) (A) (A) (A)
                 (A) (A) (A) (A) (A) (A) (A) (A) (A) (A) (A) (A)
                 (A) (A) (A) (A) (A) (A) (A) (A) (A) (A) (A) (A)
                 (A) (A) (A) (A) (A) (A) (A) (A) (A) (A) (A) (A)
                 (A) (A) (A) (A) (A) (A) (A) (A) (A) (A) (A) (A)
                 (A) (A) (A) (A) (A) (A) (A) (A) (A) (A) (A) (A)
                 (A) (A) (A) (A) (A) (A) (A) (A) (A) (A) (A) (A)
                 (A) (A) (A) (A) (A) (A) (A) (A) (A) (A) (A) (A)
                 (A) (A) (A) (A) (A) (A) (A) (A) (A) (A) (A)
 Beta  Orbitals:
       Occupied  (A) (A) (A) (A) (A) (A) (A) (A) (A) (A) (A) (A)
                 (A) (A) (A) (A) (A) (A) (A) (A) (A) (A) (A) (A)
                 (A) (A) (A) (A) (A) (A) (A) (A) (A) (A) (A) (A)
                 (A) (A) (A) (A) (A) (A) (A) (A) (A) (A) (A) (A)
                 (A) (A) (A) (A) (A) (A) (A) (A) (A) (A) (A) (A)
                 (A) (A) (A) (A) (A) (A) (A) (A) (A) (A) (A) (A)
                 (A) (A) (A) (A) (A) (A) (A) (A) (A) (A) (A) (A)
                 (A) (A) (A) (A) (A) (A) (A) (A) (A) (A) (A) (A)
                 (A) (A) (A) (A) (A) (A) (A) (A) (A) (A) (A) (A)
                 (A) (A) (A) (A) (A) (A) (A) (A) (A) (A) (A) (A)
                 (A) (A) (A) (A) (A) (A) (A) (A) (A) (A) (A) (A)
                 (A) (A)
       Virtual   (A) (A) (A) (A) (A) (A) (A) (A) (A) (A) (A) (A)
                 (A) (A) (A) (A) (A) (A) (A) (A) (A) (A) (A) (A)
                 (A) (A) (A) (A) (A) (A) (A) (A) (A) (A) (A) (A)
                 (A) (A) (A) (A) (A) (A) (A) (A) (A) (A) (A) (A)
                 (A) (A) (A) (A) (A) (A) (A) (A) (A) (A) (A) (A)
                 (A) (A) (A) (A) (A) (A) (A) (A) (A) (A) (A) (A)
                 (A) (A) (A) (A) (A) (A) (A) (A) (A) (A) (A) (A)
                 (A) (A) (A) (A) (A) (A) (A) (A) (A) (A) (A) (A)
                 (A) (A) (A) (A) (A) (A) (A) (A) (A) (A) (A) (A)
                 (A) (A) (A) (A) (A) (A) (A) (A) (A) (A) (A) (A)
                 (A) (A) (A) (A) (A) (A) (A) (A) (A) (A) (A) (A)
                 (A) (A) (A) (A) (A) (A) (A) (A) (A) (A) (A) (A)
                 (A) (A) (A) (A) (A) (A) (A) (A) (A) (A) (A) (A)
                 (A) (A) (A) (A) (A) (A) (A) (A) (A) (A) (A) (A)
                 (A) (A) (A) (A) (A) (A) (A) (A) (A) (A) (A) (A)
                 (A) (A) (A) (A) (A) (A) (A) (A) (A) (A) (A) (A)
                 (A) (A) (A) (A) (A) (A) (A) (A) (A) (A) (A) (A)
                 (A) (A) (A) (A) (A) (A) (A) (A) (A) (A) (A) (A)
                 (A) (A) (A) (A) (A) (A) (A) (A) (A) (A) (A) (A)
                 (A) (A) (A) (A) (A) (A) (A) (A) (A) (A) (A) (A)
                 (A) (A) (A) (A) (A) (A) (A) (A) (A) (A) (A) (A)
                 (A) (A) (A) (A) (A) (A) (A) (A) (A) (A) (A) (A)
                 (A) (A) (A) (A) (A) (A) (A) (A) (A) (A) (A) (A)
                 (A) (A) (A) (A) (A) (A) (A) (A) (A) (A) (A) (A)
                 (A) (A) (A) (A) (A) (A) (A) (A) (A) (A) (A) (A)
                 (A) (A) (A) (A) (A) (A) (A) (A) (A) (A) (A) (A)
                 (A) (A) (A) (A) (A) (A) (A) (A) (A) (A) (A) (A)
                 (A) (A) (A) (A) (A) (A) (A) (A) (A) (A) (A) (A)
                 (A) (A) (A) (A) (A) (A) (A) (A) (A) (A) (A) (A)
                 (A) (A) (A) (A) (A) (A) (A) (A) (A) (A) (A) (A)
                 (A) (A) (A) (A) (A) (A) (A) (A) (A) (A) (A) (A)
                 (A) (A) (A) (A) (A) (A) (A) (A) (A) (A) (A) (A)
                 (A) (A) (A) (A) (A) (A) (A) (A) (A) (A) (A) (A)
                 (A) (A) (A) (A) (A) (A) (A) (A) (A) (A) (A) (A)
                 (A) (A) (A) (A) (A) (A) (A) (A) (A) (A) (A) (A)
                 (A) (A) (A) (A) (A) (A) (A) (A) (A) (A) (A) (A)
                 (A) (A) (A) (A) (A) (A) (A) (A) (A) (A) (A) (A)
                 (A) (A) (A) (A) (A) (A) (A) (A) (A) (A) (A) (A)
                 (A) (A) (A) (A) (A) (A) (A) (A) (A) (A) (A) (A)
                 (A) (A) (A) (A) (A) (A) (A) (A) (A) (A) (A) (A)
                 (A) (A) (A) (A) (A) (A) (A) (A) (A) (A) (A) (A)
                 (A) (A) (A) (A) (A) (A) (A) (A) (A) (A) (A) (A)
                 (A) (A) (A) (A) (A) (A) (A) (A) (A) (A) (A) (A)
                 (A) (A) (A) (A) (A) (A) (A) (A) (A) (A) (A) (A)
                 (A) (A) (A) (A) (A) (A) (A) (A) (A) (A) (A) (A)
                 (A) (A) (A) (A) (A) (A) (A) (A) (A) (A) (A) (A)
                 (A) (A) (A) (A) (A) (A) (A) (A) (A) (A) (A) (A)
                 (A) (A) (A) (A) (A) (A) (A) (A) (A) (A) (A) (A)
                 (A) (A) (A) (A) (A) (A) (A) (A) (A) (A) (A) (A)
                 (A) (A) (A) (A) (A) (A) (A) (A) (A) (A) (A) (A)
                 (A) (A) (A) (A) (A) (A) (A) (A) (A) (A) (A) (A)
                 (A) (A) (A) (A) (A) (A) (A) (A) (A) (A) (A) (A)
                 (A) (A) (A) (A) (A) (A) (A) (A) (A) (A) (A) (A)
                 (A) (A) (A) (A) (A) (A) (A) (A) (A) (A) (A) (A)
                 (A) (A) (A) (A) (A) (A) (A) (A) (A) (A) (A) (A)
                 (A) (A) (A) (A) (A) (A) (A) (A) (A) (A) (A) (A)
                 (A) (A) (A) (A) (A) (A) (A) (A) (A) (A) (A) (A)
                 (A) (A) (A) (A) (A) (A) (A) (A) (A) (A) (A) (A)
                 (A) (A) (A) (A) (A) (A) (A) (A) (A) (A) (A) (A)
                 (A) (A) (A) (A) (A) (A) (A) (A) (A) (A) (A) (A)
                 (A) (A) (A) (A) (A) (A) (A) (A) (A) (A) (A) (A)
                 (A) (A) (A) (A) (A) (A) (A) (A) (A) (A) (A) (A)
                 (A) (A) (A) (A) (A) (A) (A) (A) (A) (A) (A) (A)
                 (A) (A) (A) (A) (A) (A) (A) (A) (A) (A) (A) (A)
 The electronic state is 2-A.
 Alpha  occ. eigenvalues --  -88.80052 -88.77678 -19.08637 -19.08276 -18.99496
 Alpha  occ. eigenvalues --  -18.99388 -18.98951 -18.98641 -14.26499 -14.25903
 Alpha  occ. eigenvalues --  -10.17941 -10.17707 -10.17379 -10.17324 -10.16429
 Alpha  occ. eigenvalues --  -10.15911 -10.15838 -10.14856 -10.13109 -10.12484
 Alpha  occ. eigenvalues --  -10.11796 -10.11667 -10.10928 -10.10768 -10.10144
 Alpha  occ. eigenvalues --  -10.10119 -10.09739 -10.09406 -10.09205 -10.08704
 Alpha  occ. eigenvalues --  -10.08193 -10.08053 -10.08048 -10.07903 -10.07548
 Alpha  occ. eigenvalues --  -10.07478  -7.88608  -7.86229  -5.84914  -5.84535
 Alpha  occ. eigenvalues --   -5.84180  -5.82553  -5.82160  -5.81778  -1.00296
 Alpha  occ. eigenvalues --   -0.99788  -0.95912  -0.95395  -0.93967  -0.93362
 Alpha  occ. eigenvalues --   -0.83881  -0.83194  -0.81064  -0.79362  -0.78340
 Alpha  occ. eigenvalues --   -0.73684  -0.71181  -0.69602  -0.68248  -0.66647
 Alpha  occ. eigenvalues --   -0.65753  -0.65089  -0.63840  -0.63341  -0.61878
 Alpha  occ. eigenvalues --   -0.61079  -0.59879  -0.57885  -0.54908  -0.53656
 Alpha  occ. eigenvalues --   -0.53205  -0.52064  -0.51411  -0.49709  -0.48059
 Alpha  occ. eigenvalues --   -0.47487  -0.45844  -0.45495  -0.44873  -0.42665
 Alpha  occ. eigenvalues --   -0.41569  -0.40807  -0.40596  -0.40204  -0.39987
 Alpha  occ. eigenvalues --   -0.39018  -0.38308  -0.37814  -0.37727  -0.37386
 Alpha  occ. eigenvalues --   -0.36795  -0.36595  -0.36441  -0.34967  -0.34314
 Alpha  occ. eigenvalues --   -0.34086  -0.33648  -0.33239  -0.32898  -0.32501
 Alpha  occ. eigenvalues --   -0.32276  -0.32142  -0.31535  -0.30525  -0.30341
 Alpha  occ. eigenvalues --   -0.30230  -0.29963  -0.29598  -0.29448  -0.29084
 Alpha  occ. eigenvalues --   -0.28842  -0.28624  -0.27889  -0.27307  -0.26681
 Alpha  occ. eigenvalues --   -0.26003  -0.25494  -0.24785  -0.24281  -0.23959
 Alpha  occ. eigenvalues --   -0.22483  -0.19713  -0.19354  -0.18420  -0.17818
 Alpha  occ. eigenvalues --   -0.17375  -0.17150  -0.16603  -0.16245  -0.15684
 Alpha  occ. eigenvalues --   -0.15504  -0.14512  -0.13795  -0.09870  -0.04135
 Alpha virt. eigenvalues --    0.03451   0.05189   0.05801   0.06656   0.06735
 Alpha virt. eigenvalues --    0.07294   0.07570   0.08571   0.08717   0.09053
 Alpha virt. eigenvalues --    0.09111   0.09432   0.09967   0.10497   0.10610
 Alpha virt. eigenvalues --    0.10837   0.11272   0.11329   0.11674   0.12297
 Alpha virt. eigenvalues --    0.12317   0.12523   0.12728   0.12898   0.12938
 Alpha virt. eigenvalues --    0.13303   0.13606   0.13702   0.13843   0.13965
 Alpha virt. eigenvalues --    0.14377   0.14464   0.15172   0.15241   0.15377
 Alpha virt. eigenvalues --    0.15527   0.16041   0.16243   0.16648   0.17070
 Alpha virt. eigenvalues --    0.17256   0.17622   0.17894   0.17999   0.18097
 Alpha virt. eigenvalues --    0.18445   0.18636   0.18929   0.19227   0.19715
 Alpha virt. eigenvalues --    0.19872   0.19959   0.20264   0.20652   0.20695
 Alpha virt. eigenvalues --    0.20786   0.21166   0.21413   0.21607   0.21978
 Alpha virt. eigenvalues --    0.22195   0.22510   0.22735   0.22965   0.23203
 Alpha virt. eigenvalues --    0.23747   0.23980   0.24076   0.24138   0.24466
 Alpha virt. eigenvalues --    0.24609   0.24848   0.24982   0.25274   0.25386
 Alpha virt. eigenvalues --    0.25749   0.25974   0.26088   0.26165   0.26446
 Alpha virt. eigenvalues --    0.26732   0.26920   0.27136   0.27233   0.27510
 Alpha virt. eigenvalues --    0.27796   0.28110   0.28350   0.28412   0.28691
 Alpha virt. eigenvalues --    0.29050   0.29154   0.29437   0.29602   0.29733
 Alpha virt. eigenvalues --    0.29997   0.30083   0.30531   0.30861   0.30915
 Alpha virt. eigenvalues --    0.31081   0.31356   0.31429   0.31740   0.32032
 Alpha virt. eigenvalues --    0.32120   0.32450   0.32701   0.32834   0.33030
 Alpha virt. eigenvalues --    0.33084   0.33305   0.33550   0.33737   0.33958
 Alpha virt. eigenvalues --    0.34057   0.34497   0.34818   0.34930   0.35209
 Alpha virt. eigenvalues --    0.35413   0.35608   0.35751   0.35879   0.35974
 Alpha virt. eigenvalues --    0.36123   0.36197   0.36573   0.36872   0.36950
 Alpha virt. eigenvalues --    0.37093   0.37395   0.37535   0.37760   0.37830
 Alpha virt. eigenvalues --    0.38117   0.38708   0.38789   0.38902   0.39205
 Alpha virt. eigenvalues --    0.39423   0.39476   0.39873   0.40246   0.40280
 Alpha virt. eigenvalues --    0.40538   0.40604   0.41210   0.41399   0.41554
 Alpha virt. eigenvalues --    0.41746   0.42065   0.42455   0.42771   0.42981
 Alpha virt. eigenvalues --    0.43238   0.43274   0.43374   0.43499   0.43935
 Alpha virt. eigenvalues --    0.44284   0.44518   0.44643   0.45274   0.45748
 Alpha virt. eigenvalues --    0.45982   0.46267   0.46928   0.47050   0.47296
 Alpha virt. eigenvalues --    0.48163   0.48317   0.48660   0.49139   0.49728
 Alpha virt. eigenvalues --    0.50090   0.50343   0.50516   0.50970   0.51244
 Alpha virt. eigenvalues --    0.51418   0.51998   0.52603   0.52837   0.53170
 Alpha virt. eigenvalues --    0.53355   0.53932   0.54212   0.54788   0.55214
 Alpha virt. eigenvalues --    0.55486   0.55621   0.55836   0.56379   0.56551
 Alpha virt. eigenvalues --    0.56793   0.57497   0.57993   0.58236   0.58708
 Alpha virt. eigenvalues --    0.59569   0.60205   0.60721   0.60957   0.61473
 Alpha virt. eigenvalues --    0.62168   0.62308   0.63089   0.63437   0.63458
 Alpha virt. eigenvalues --    0.64017   0.64624   0.64845   0.65775   0.65835
 Alpha virt. eigenvalues --    0.66327   0.66605   0.66783   0.67422   0.67535
 Alpha virt. eigenvalues --    0.68271   0.68378   0.68686   0.68747   0.69537
 Alpha virt. eigenvalues --    0.69989   0.70225   0.71105   0.71686   0.71786
 Alpha virt. eigenvalues --    0.71917   0.72442   0.72639   0.73067   0.73656
 Alpha virt. eigenvalues --    0.74162   0.74376   0.74729   0.74991   0.75176
 Alpha virt. eigenvalues --    0.75707   0.76013   0.76181   0.76947   0.77017
 Alpha virt. eigenvalues --    0.77608   0.77851   0.78256   0.78737   0.79018
 Alpha virt. eigenvalues --    0.79341   0.79750   0.80152   0.80467   0.80635
 Alpha virt. eigenvalues --    0.81150   0.81511   0.81824   0.82246   0.82707
 Alpha virt. eigenvalues --    0.83329   0.83489   0.84069   0.84332   0.84395
 Alpha virt. eigenvalues --    0.84788   0.85109   0.85342   0.85456   0.86084
 Alpha virt. eigenvalues --    0.86226   0.86448   0.87078   0.87310   0.87571
 Alpha virt. eigenvalues --    0.87936   0.88618   0.88955   0.89359   0.89706
 Alpha virt. eigenvalues --    0.90299   0.90742   0.90862   0.91239   0.91594
 Alpha virt. eigenvalues --    0.92339   0.92923   0.93709   0.94990   0.95785
 Alpha virt. eigenvalues --    0.96747   0.97316   0.98433   0.98726   0.98927
 Alpha virt. eigenvalues --    0.99713   1.00181   1.00859   1.01271   1.01436
 Alpha virt. eigenvalues --    1.01966   1.02558   1.03684   1.03877   1.04287
 Alpha virt. eigenvalues --    1.04826   1.05851   1.06132   1.06287   1.06489
 Alpha virt. eigenvalues --    1.06970   1.07540   1.07683   1.08139   1.08791
 Alpha virt. eigenvalues --    1.09070   1.09275   1.09882   1.10159   1.10716
 Alpha virt. eigenvalues --    1.11007   1.11605   1.12253   1.12503   1.13265
 Alpha virt. eigenvalues --    1.13665   1.13945   1.14124   1.14722   1.15096
 Alpha virt. eigenvalues --    1.15399   1.15751   1.16401   1.16604   1.16972
 Alpha virt. eigenvalues --    1.17364   1.17418   1.18051   1.18516   1.18668
 Alpha virt. eigenvalues --    1.18982   1.20737   1.20992   1.21848   1.22137
 Alpha virt. eigenvalues --    1.22508   1.23370   1.24309   1.24662   1.25291
 Alpha virt. eigenvalues --    1.26173   1.26450   1.26861   1.27920   1.28668
 Alpha virt. eigenvalues --    1.29860   1.30147   1.30785   1.31831   1.32481
 Alpha virt. eigenvalues --    1.33176   1.33431   1.33676   1.34227   1.35650
 Alpha virt. eigenvalues --    1.36576   1.36743   1.37810   1.38875   1.39084
 Alpha virt. eigenvalues --    1.39430   1.39918   1.40490   1.41141   1.41682
 Alpha virt. eigenvalues --    1.42028   1.43078   1.43608   1.44559   1.45234
 Alpha virt. eigenvalues --    1.47113   1.47834   1.48047   1.48784   1.49534
 Alpha virt. eigenvalues --    1.50065   1.50815   1.51339   1.52133   1.52997
 Alpha virt. eigenvalues --    1.53077   1.53594   1.53999   1.54069   1.54816
 Alpha virt. eigenvalues --    1.55307   1.55684   1.56838   1.57206   1.57624
 Alpha virt. eigenvalues --    1.58281   1.58449   1.59163   1.60082   1.60492
 Alpha virt. eigenvalues --    1.61099   1.61330   1.62307   1.63088   1.63573
 Alpha virt. eigenvalues --    1.63936   1.64363   1.64773   1.64969   1.65323
 Alpha virt. eigenvalues --    1.65660   1.66090   1.66238   1.66961   1.69025
 Alpha virt. eigenvalues --    1.69551   1.69927   1.70588   1.71031   1.71586
 Alpha virt. eigenvalues --    1.71863   1.71957   1.72711   1.73708   1.74129
 Alpha virt. eigenvalues --    1.74491   1.75125   1.75594   1.76451   1.77375
 Alpha virt. eigenvalues --    1.77676   1.78074   1.78812   1.79429   1.80290
 Alpha virt. eigenvalues --    1.81047   1.82026   1.82120   1.82360   1.83163
 Alpha virt. eigenvalues --    1.83860   1.84094   1.85160   1.85728   1.85939
 Alpha virt. eigenvalues --    1.86209   1.87115   1.87711   1.87910   1.88466
 Alpha virt. eigenvalues --    1.90213   1.90457   1.92193   1.92622   1.93415
 Alpha virt. eigenvalues --    1.93561   1.94274   1.94897   1.95632   1.96198
 Alpha virt. eigenvalues --    1.97672   1.98217   1.98454   2.00011   2.00641
 Alpha virt. eigenvalues --    2.01172   2.01432   2.01912   2.02420   2.02906
 Alpha virt. eigenvalues --    2.03361   2.04135   2.04339   2.04967   2.06753
 Alpha virt. eigenvalues --    2.07196   2.07880   2.08387   2.08926   2.09297
 Alpha virt. eigenvalues --    2.10041   2.11245   2.11561   2.12343   2.12647
 Alpha virt. eigenvalues --    2.12873   2.13839   2.14518   2.14744   2.14864
 Alpha virt. eigenvalues --    2.15588   2.16205   2.16481   2.17945   2.18417
 Alpha virt. eigenvalues --    2.19100   2.19492   2.20304   2.20717   2.21522
 Alpha virt. eigenvalues --    2.22522   2.22795   2.23426   2.23644   2.25331
 Alpha virt. eigenvalues --    2.25981   2.27490   2.27652   2.28982   2.29261
 Alpha virt. eigenvalues --    2.29762   2.30255   2.30961   2.33120   2.33254
 Alpha virt. eigenvalues --    2.33786   2.36556   2.37922   2.38994   2.40687
 Alpha virt. eigenvalues --    2.44305   2.44656   2.45178   2.47085   2.48554
 Alpha virt. eigenvalues --    2.49428   2.49638   2.50180   2.50763   2.51812
 Alpha virt. eigenvalues --    2.51963   2.52408   2.53478   2.55307   2.56111
 Alpha virt. eigenvalues --    2.56936   2.57383   2.58050   2.59276   2.59676
 Alpha virt. eigenvalues --    2.60281   2.60754   2.61012   2.61672   2.61985
 Alpha virt. eigenvalues --    2.62444   2.62815   2.63897   2.64864   2.66066
 Alpha virt. eigenvalues --    2.67526   2.67787   2.69983   2.70038   2.71221
 Alpha virt. eigenvalues --    2.71846   2.73535   2.75157   2.76137   2.76433
 Alpha virt. eigenvalues --    2.76850   2.77236   2.77778   2.78360   2.79852
 Alpha virt. eigenvalues --    2.80573   2.81099   2.81716   2.82195   2.83110
 Alpha virt. eigenvalues --    2.83486   2.83803   2.84363   2.85044   2.86008
 Alpha virt. eigenvalues --    2.87210   2.88286   2.88436   2.88891   2.90766
 Alpha virt. eigenvalues --    2.91342   2.92691   2.94242   2.95385   2.95983
 Alpha virt. eigenvalues --    2.96515   2.97114   2.97192   2.98453   2.98734
 Alpha virt. eigenvalues --    3.00000   3.00441   3.01495   3.02225   3.02483
 Alpha virt. eigenvalues --    3.03092   3.04084   3.04508   3.05031   3.05259
 Alpha virt. eigenvalues --    3.06274   3.07290   3.07654   3.08301   3.09123
 Alpha virt. eigenvalues --    3.10947   3.11734   3.13280   3.14591   3.15659
 Alpha virt. eigenvalues --    3.17066   3.18007   3.18351   3.19251   3.20680
 Alpha virt. eigenvalues --    3.22995   3.23068   3.25938   3.26129   3.26471
 Alpha virt. eigenvalues --    3.27325   3.28465   3.30491   3.31234   3.31847
 Alpha virt. eigenvalues --    3.32253   3.33141   3.34442   3.37425   3.38830
 Alpha virt. eigenvalues --    3.39852   3.40427   3.42042   3.42877   3.44916
 Alpha virt. eigenvalues --    3.46322   3.46881   3.47114   3.47914   3.48506
 Alpha virt. eigenvalues --    3.49988   3.50700   3.52664   3.54229   3.54966
 Alpha virt. eigenvalues --    3.55797   3.57254   3.57979   3.58508   3.61589
 Alpha virt. eigenvalues --    3.62798   3.63395   3.67255   3.70406   3.71828
 Alpha virt. eigenvalues --    3.72830   3.74304   3.77260   3.77753   3.78835
 Alpha virt. eigenvalues --    3.81716   3.82363   3.82589   3.83353   3.83506
 Alpha virt. eigenvalues --    3.84190   3.85177   3.89735   3.92338   3.94440
 Alpha virt. eigenvalues --    3.96376   3.97510   4.02740   4.04596   4.05043
 Alpha virt. eigenvalues --    4.05310   4.06465   4.09204   4.12030   4.14020
 Alpha virt. eigenvalues --    4.16412   4.17220   4.18638   4.22557   4.25596
 Alpha virt. eigenvalues --    4.29178   4.32817   4.37266   4.38662   4.48169
 Alpha virt. eigenvalues --    4.49507   4.53071   4.62077   4.76746   4.97378
 Alpha virt. eigenvalues --    4.98941   4.99488   5.02347   5.10394   5.11381
 Alpha virt. eigenvalues --    5.16178   5.17804   5.18082   5.21173   5.23738
 Alpha virt. eigenvalues --    5.25382   5.37254   5.39215   5.41298   5.44143
 Alpha virt. eigenvalues --    5.51016   5.52353   5.84939   5.88141   5.88741
 Alpha virt. eigenvalues --    5.92693   5.94264   5.98130   8.10580   8.16300
 Alpha virt. eigenvalues --   17.37362  17.45910  17.58169  17.61032  17.68416
 Alpha virt. eigenvalues --   17.72782  23.61025  23.67375  23.82150  23.90100
 Alpha virt. eigenvalues --   23.93119  23.95410  23.96845  23.97464  23.98119
 Alpha virt. eigenvalues --   23.99637  23.99821  24.00564  24.01669  24.04930
 Alpha virt. eigenvalues --   24.05639  24.07853  24.08905  24.10884  24.11223
 Alpha virt. eigenvalues --   24.12389  24.13631  24.18515  24.22236  24.22880
 Alpha virt. eigenvalues --   24.26757  24.27555  35.67989  35.70996  50.04506
 Alpha virt. eigenvalues --   50.05952  50.14799  50.16673  50.18578  50.20155
 Alpha virt. eigenvalues --  189.27855 189.34629
  Beta  occ. eigenvalues --  -88.80052 -88.77669 -19.08633 -19.08279 -18.99321
  Beta  occ. eigenvalues --  -18.99196 -18.98774 -18.98421 -14.26549 -14.25955
  Beta  occ. eigenvalues --  -10.17885 -10.17653 -10.17328 -10.17273 -10.16429
  Beta  occ. eigenvalues --  -10.15911 -10.15829 -10.14865 -10.13115 -10.12474
  Beta  occ. eigenvalues --  -10.11819 -10.11648 -10.10932 -10.10767 -10.10118
  Beta  occ. eigenvalues --  -10.10014 -10.09794 -10.09458 -10.09017 -10.08679
  Beta  occ. eigenvalues --  -10.08050 -10.07903 -10.07892 -10.07839 -10.07458
  Beta  occ. eigenvalues --  -10.07402  -7.88607  -7.86220  -5.84914  -5.84534
  Beta  occ. eigenvalues --   -5.84177  -5.82540  -5.82149  -5.81764  -1.00287
  Beta  occ. eigenvalues --   -0.99793  -0.95678  -0.95149  -0.93654  -0.93026
  Beta  occ. eigenvalues --   -0.83784  -0.83085  -0.81051  -0.79240  -0.78259
  Beta  occ. eigenvalues --   -0.73371  -0.70884  -0.69526  -0.68216  -0.66604
  Beta  occ. eigenvalues --   -0.65591  -0.64699  -0.63787  -0.63285  -0.61852
  Beta  occ. eigenvalues --   -0.61034  -0.59687  -0.57556  -0.54752  -0.53497
  Beta  occ. eigenvalues --   -0.53051  -0.51936  -0.51355  -0.49644  -0.48043
  Beta  occ. eigenvalues --   -0.47418  -0.45835  -0.45366  -0.44746  -0.42495
  Beta  occ. eigenvalues --   -0.41466  -0.40797  -0.40553  -0.40207  -0.39955
  Beta  occ. eigenvalues --   -0.38870  -0.38095  -0.37744  -0.37549  -0.37361
  Beta  occ. eigenvalues --   -0.36701  -0.36501  -0.36346  -0.34881  -0.34171
  Beta  occ. eigenvalues --   -0.34000  -0.33559  -0.33164  -0.32857  -0.32355
  Beta  occ. eigenvalues --   -0.32011  -0.31899  -0.31417  -0.30298  -0.30160
  Beta  occ. eigenvalues --   -0.30039  -0.29645  -0.29357  -0.29066  -0.28766
  Beta  occ. eigenvalues --   -0.28636  -0.28060  -0.27844  -0.26946  -0.26547
  Beta  occ. eigenvalues --   -0.25976  -0.25466  -0.24672  -0.24175  -0.23925
  Beta  occ. eigenvalues --   -0.21646  -0.19548  -0.18442  -0.18235  -0.17289
  Beta  occ. eigenvalues --   -0.17201  -0.16765  -0.16484  -0.16060  -0.15331
  Beta  occ. eigenvalues --   -0.15025  -0.14408  -0.12356  -0.09761
  Beta virt. eigenvalues --    0.00346   0.03588   0.05799   0.06327   0.06719
  Beta virt. eigenvalues --    0.07139   0.07341   0.08420   0.08623   0.08822
  Beta virt. eigenvalues --    0.09064   0.09121   0.09438   0.09980   0.10503
  Beta virt. eigenvalues --    0.10621   0.10840   0.11277   0.11330   0.11686
  Beta virt. eigenvalues --    0.12313   0.12331   0.12625   0.12793   0.13016
  Beta virt. eigenvalues --    0.13288   0.13425   0.13666   0.13884   0.14202
  Beta virt. eigenvalues --    0.14298   0.14396   0.14566   0.15193   0.15266
  Beta virt. eigenvalues --    0.15387   0.15605   0.16047   0.16245   0.16676
  Beta virt. eigenvalues --    0.17162   0.17389   0.17658   0.17934   0.18019
  Beta virt. eigenvalues --    0.18174   0.18475   0.18643   0.18936   0.19260
  Beta virt. eigenvalues --    0.19758   0.19895   0.19978   0.20560   0.20693
  Beta virt. eigenvalues --    0.20800   0.20884   0.21222   0.21457   0.21803
  Beta virt. eigenvalues --    0.22019   0.22251   0.22534   0.22751   0.22990
  Beta virt. eigenvalues --    0.23252   0.23875   0.24018   0.24140   0.24339
  Beta virt. eigenvalues --    0.24625   0.24667   0.24923   0.25010   0.25317
  Beta virt. eigenvalues --    0.25414   0.25789   0.26006   0.26118   0.26195
  Beta virt. eigenvalues --    0.26467   0.26780   0.26946   0.27160   0.27282
  Beta virt. eigenvalues --    0.27539   0.27821   0.28140   0.28399   0.28458
  Beta virt. eigenvalues --    0.28725   0.29116   0.29205   0.29484   0.29654
  Beta virt. eigenvalues --    0.29765   0.30013   0.30125   0.30567   0.30891
  Beta virt. eigenvalues --    0.30977   0.31114   0.31387   0.31452   0.31764
  Beta virt. eigenvalues --    0.32066   0.32233   0.32511   0.32772   0.32896
  Beta virt. eigenvalues --    0.33092   0.33148   0.33500   0.33760   0.33803
  Beta virt. eigenvalues --    0.34019   0.34110   0.34627   0.34896   0.34965
  Beta virt. eigenvalues --    0.35242   0.35444   0.35688   0.35811   0.35913
  Beta virt. eigenvalues --    0.36044   0.36182   0.36242   0.36620   0.36905
  Beta virt. eigenvalues --    0.37009   0.37130   0.37489   0.37580   0.37797
  Beta virt. eigenvalues --    0.37900   0.38175   0.38743   0.38840   0.38934
  Beta virt. eigenvalues --    0.39258   0.39485   0.39530   0.39925   0.40299
  Beta virt. eigenvalues --    0.40359   0.40568   0.40668   0.41261   0.41455
  Beta virt. eigenvalues --    0.41621   0.41804   0.42130   0.42493   0.42810
  Beta virt. eigenvalues --    0.43056   0.43277   0.43319   0.43405   0.43568
  Beta virt. eigenvalues --    0.44014   0.44380   0.44579   0.44685   0.45346
  Beta virt. eigenvalues --    0.45868   0.46031   0.46331   0.46991   0.47111
  Beta virt. eigenvalues --    0.47404   0.48213   0.48386   0.48711   0.49193
  Beta virt. eigenvalues --    0.49802   0.50121   0.50391   0.50594   0.51015
  Beta virt. eigenvalues --    0.51307   0.51489   0.52041   0.52639   0.52854
  Beta virt. eigenvalues --    0.53237   0.53406   0.53970   0.54249   0.54843
  Beta virt. eigenvalues --    0.55286   0.55513   0.55673   0.55912   0.56413
  Beta virt. eigenvalues --    0.56604   0.56826   0.57526   0.58041   0.58274
  Beta virt. eigenvalues --    0.58763   0.59626   0.60293   0.60754   0.61062
  Beta virt. eigenvalues --    0.61572   0.62186   0.62385   0.63127   0.63489
  Beta virt. eigenvalues --    0.63513   0.64040   0.64642   0.64939   0.65815
  Beta virt. eigenvalues --    0.65918   0.66404   0.66821   0.66865   0.67473
  Beta virt. eigenvalues --    0.67565   0.68322   0.68483   0.68757   0.68902
  Beta virt. eigenvalues --    0.69612   0.70005   0.70320   0.71196   0.71744
  Beta virt. eigenvalues --    0.71879   0.71967   0.72577   0.72799   0.73162
  Beta virt. eigenvalues --    0.73710   0.74283   0.74502   0.74780   0.75083
  Beta virt. eigenvalues --    0.75258   0.75866   0.76131   0.76293   0.77038
  Beta virt. eigenvalues --    0.77132   0.77699   0.77931   0.78321   0.78809
  Beta virt. eigenvalues --    0.79150   0.79414   0.79892   0.80219   0.80524
  Beta virt. eigenvalues --    0.80714   0.81232   0.81581   0.81907   0.82334
  Beta virt. eigenvalues --    0.82833   0.83474   0.83532   0.84182   0.84404
  Beta virt. eigenvalues --    0.84616   0.84831   0.85137   0.85428   0.85508
  Beta virt. eigenvalues --    0.86140   0.86351   0.86525   0.87155   0.87393
  Beta virt. eigenvalues --    0.87634   0.88016   0.88710   0.89097   0.89420
  Beta virt. eigenvalues --    0.89824   0.90363   0.90798   0.90903   0.91300
  Beta virt. eigenvalues --    0.91635   0.92393   0.93026   0.93755   0.95090
  Beta virt. eigenvalues --    0.95854   0.96773   0.97337   0.98429   0.98780
  Beta virt. eigenvalues --    0.98950   0.99769   1.00204   1.00927   1.01319
  Beta virt. eigenvalues --    1.01500   1.02088   1.02631   1.03776   1.04018
  Beta virt. eigenvalues --    1.04436   1.04935   1.06002   1.06273   1.06396
  Beta virt. eigenvalues --    1.06587   1.07081   1.07587   1.07843   1.08263
  Beta virt. eigenvalues --    1.08918   1.09161   1.09368   1.09948   1.10287
  Beta virt. eigenvalues --    1.10882   1.11112   1.11704   1.12335   1.12580
  Beta virt. eigenvalues --    1.13372   1.13777   1.14010   1.14352   1.14813
  Beta virt. eigenvalues --    1.15260   1.15452   1.15873   1.16533   1.16713
  Beta virt. eigenvalues --    1.17039   1.17457   1.17613   1.18155   1.18666
  Beta virt. eigenvalues --    1.18870   1.19138   1.20949   1.21134   1.22005
  Beta virt. eigenvalues --    1.22269   1.22649   1.23615   1.24516   1.24867
  Beta virt. eigenvalues --    1.25510   1.26258   1.26643   1.27081   1.28256
  Beta virt. eigenvalues --    1.28854   1.29936   1.30442   1.30919   1.32099
  Beta virt. eigenvalues --    1.32796   1.33278   1.33533   1.33761   1.34253
  Beta virt. eigenvalues --    1.35731   1.36631   1.36844   1.37910   1.38938
  Beta virt. eigenvalues --    1.39319   1.39521   1.40058   1.40587   1.41218
  Beta virt. eigenvalues --    1.41774   1.42085   1.43100   1.43647   1.44669
  Beta virt. eigenvalues --    1.45348   1.47169   1.47882   1.48060   1.48882
  Beta virt. eigenvalues --    1.49542   1.50138   1.50932   1.51403   1.52164
  Beta virt. eigenvalues --    1.53051   1.53210   1.53638   1.54072   1.54103
  Beta virt. eigenvalues --    1.54993   1.55321   1.55793   1.56984   1.57329
  Beta virt. eigenvalues --    1.57702   1.58402   1.58594   1.59230   1.60262
  Beta virt. eigenvalues --    1.60602   1.61187   1.61340   1.62316   1.63182
  Beta virt. eigenvalues --    1.63679   1.64083   1.64468   1.64851   1.65045
  Beta virt. eigenvalues --    1.65410   1.65687   1.66259   1.66310   1.67056
  Beta virt. eigenvalues --    1.69098   1.69672   1.70037   1.70614   1.71157
  Beta virt. eigenvalues --    1.71601   1.71928   1.72042   1.72765   1.73735
  Beta virt. eigenvalues --    1.74141   1.74511   1.75240   1.75712   1.76466
  Beta virt. eigenvalues --    1.77432   1.77735   1.78098   1.78869   1.79523
  Beta virt. eigenvalues --    1.80431   1.81167   1.82141   1.82262   1.82532
  Beta virt. eigenvalues --    1.83265   1.83918   1.84269   1.85258   1.85839
  Beta virt. eigenvalues --    1.85966   1.86288   1.87238   1.87762   1.88061
  Beta virt. eigenvalues --    1.88538   1.90313   1.90565   1.92229   1.92744
  Beta virt. eigenvalues --    1.93518   1.93651   1.94336   1.95034   1.95717
  Beta virt. eigenvalues --    1.96375   1.97746   1.98441   1.98666   2.00094
  Beta virt. eigenvalues --    2.00815   2.01426   2.01596   2.02026   2.02526
  Beta virt. eigenvalues --    2.02981   2.03471   2.04299   2.04512   2.05015
  Beta virt. eigenvalues --    2.06958   2.07389   2.08073   2.08506   2.09014
  Beta virt. eigenvalues --    2.09435   2.10233   2.11458   2.11641   2.12492
  Beta virt. eigenvalues --    2.12728   2.12994   2.13926   2.14602   2.14791
  Beta virt. eigenvalues --    2.14892   2.15637   2.16264   2.16518   2.18111
  Beta virt. eigenvalues --    2.18464   2.19199   2.19504   2.20343   2.20830
  Beta virt. eigenvalues --    2.21606   2.22616   2.22847   2.23498   2.23670
  Beta virt. eigenvalues --    2.25389   2.26121   2.27533   2.27724   2.29042
  Beta virt. eigenvalues --    2.29327   2.30027   2.30339   2.31101   2.33297
  Beta virt. eigenvalues --    2.33394   2.33871   2.36657   2.38078   2.39234
  Beta virt. eigenvalues --    2.40810   2.44485   2.44811   2.45319   2.47196
  Beta virt. eigenvalues --    2.48751   2.49449   2.49686   2.50188   2.50769
  Beta virt. eigenvalues --    2.51930   2.52171   2.52429   2.53481   2.55349
  Beta virt. eigenvalues --    2.56115   2.56959   2.57411   2.58156   2.59373
  Beta virt. eigenvalues --    2.59692   2.60322   2.60825   2.61015   2.61751
  Beta virt. eigenvalues --    2.61995   2.62535   2.62854   2.63922   2.64905
  Beta virt. eigenvalues --    2.66097   2.67573   2.67829   2.70038   2.70071
  Beta virt. eigenvalues --    2.71262   2.71872   2.73611   2.75169   2.76161
  Beta virt. eigenvalues --    2.76471   2.77084   2.77373   2.77866   2.78401
  Beta virt. eigenvalues --    2.79882   2.80669   2.81145   2.81731   2.82329
  Beta virt. eigenvalues --    2.83522   2.83620   2.83890   2.84633   2.85094
  Beta virt. eigenvalues --    2.86144   2.87254   2.88451   2.88537   2.89198
  Beta virt. eigenvalues --    2.90926   2.91347   2.92831   2.94298   2.95617
  Beta virt. eigenvalues --    2.96095   2.96626   2.97250   2.97538   2.98658
  Beta virt. eigenvalues --    2.99102   3.00423   3.00760   3.01958   3.02652
  Beta virt. eigenvalues --    3.02767   3.03300   3.04366   3.04765   3.05154
  Beta virt. eigenvalues --    3.05691   3.06607   3.07620   3.08019   3.08320
  Beta virt. eigenvalues --    3.09463   3.11341   3.11783   3.13288   3.15081
  Beta virt. eigenvalues --    3.15665   3.17158   3.18108   3.18458   3.19840
  Beta virt. eigenvalues --    3.20826   3.23059   3.23171   3.25987   3.26413
  Beta virt. eigenvalues --    3.26602   3.27490   3.28493   3.30564   3.31270
  Beta virt. eigenvalues --    3.31868   3.32269   3.33190   3.34488   3.37516
  Beta virt. eigenvalues --    3.38843   3.39934   3.40465   3.42124   3.42979
  Beta virt. eigenvalues --    3.44960   3.46791   3.47362   3.47582   3.48048
  Beta virt. eigenvalues --    3.48931   3.50089   3.50749   3.52762   3.54240
  Beta virt. eigenvalues --    3.55049   3.55886   3.57331   3.58044   3.58595
  Beta virt. eigenvalues --    3.61694   3.62910   3.63432   3.67313   3.70511
  Beta virt. eigenvalues --    3.71914   3.72905   3.74408   3.77313   3.77808
  Beta virt. eigenvalues --    3.78901   3.81781   3.82432   3.82567   3.83353
  Beta virt. eigenvalues --    3.83487   3.84190   3.85201   3.89737   3.92342
  Beta virt. eigenvalues --    3.94515   3.96415   3.97549   4.02947   4.04639
  Beta virt. eigenvalues --    4.04960   4.05484   4.06350   4.09361   4.12063
  Beta virt. eigenvalues --    4.14158   4.16426   4.17349   4.18650   4.22563
  Beta virt. eigenvalues --    4.25790   4.29229   4.32875   4.37432   4.38868
  Beta virt. eigenvalues --    4.48377   4.49669   4.53304   4.62204   4.76819
  Beta virt. eigenvalues --    4.97530   4.98979   4.99701   5.02354   5.10412
  Beta virt. eigenvalues --    5.11374   5.16923   5.18581   5.18819   5.22077
  Beta virt. eigenvalues --    5.23855   5.25501   5.37402   5.39369   5.41450
  Beta virt. eigenvalues --    5.44320   5.51022   5.52353   5.84944   5.88281
  Beta virt. eigenvalues --    5.88768   5.92858   5.94415   5.98299   8.10582
  Beta virt. eigenvalues --    8.16317  17.37365  17.45928  17.58170  17.61034
  Beta virt. eigenvalues --   17.68437  17.72790  23.61069  23.67428  23.82163
  Beta virt. eigenvalues --   23.90127  23.93224  23.95481  23.96900  23.97469
  Beta virt. eigenvalues --   23.98128  23.99687  23.99910  24.00617  24.01761
  Beta virt. eigenvalues --   24.04956  24.05678  24.07919  24.08981  24.10892
  Beta virt. eigenvalues --   24.11282  24.12443  24.13627  24.18640  24.22246
  Beta virt. eigenvalues --   24.22896  24.26855  24.27663  35.67937  35.70943
  Beta virt. eigenvalues --   50.04510  50.05950  50.14982  50.16865  50.18769
  Beta virt. eigenvalues --   50.20353 189.27856 189.34638
          Condensed to atoms (all electrons):
          Atomic-Atomic Spin Densities.
 Mulliken charges and spin densities:
               1          2
     1  C    0.322977   0.022238
     2  C   -0.140053   0.128148
     3  C    0.100057  -0.039138
     4  C    0.246271   0.098375
     5  C    0.208048   0.024479
     6  C   -0.574197   0.036970
     7  C    0.179808  -0.034232
     8  C    0.120966   0.138391
     9  C    0.412074   0.087318
    10  C   -0.302378   0.024128
    11  C    0.251060   0.024126
    12  C    0.247090   0.108598
    13  C   -0.518309   0.056366
    14  C   -0.650001   0.075049
    15  H    0.128493  -0.005043
    16  H    0.131660  -0.003989
    17  H    0.132937  -0.002071
    18  N   -0.121298  -0.020274
    19  N   -0.133325  -0.020397
    20  O   -0.349675   0.071239
    21  O   -0.342357   0.064975
    22  O   -0.347299   0.066283
    23  O   -0.250284   0.082457
    24  C   -0.188766   0.001280
    25  H    0.156235  -0.000960
    26  H    0.158235  -0.000912
    27  H    0.168622  -0.000345
    28  C   -0.192912   0.001210
    29  H    0.154890  -0.000878
    30  H    0.152930  -0.000893
    31  H    0.168844  -0.000326
    32  C    0.610395  -0.021118
    33  C   -1.124442   0.023424
    34  S   -0.367212   0.009551
    35  C   -0.339577  -0.007256
    36  H    0.108580  -0.000872
    37  C    0.562838   0.003689
    38  O   -0.116636  -0.000467
    39  C    0.990594  -0.002637
    40  C   -0.259952   0.000109
    41  C   -0.028743   0.007554
    42  S   -0.281789   0.000703
    43  H    0.149121  -0.000000
    44  H    0.143591  -0.000056
    45  H    0.148429  -0.000027
    46  C   -0.541366  -0.001822
    47  O   -0.119815   0.000055
    48  C   -0.306898   0.007094
    49  H    0.115427   0.000136
    50  C   -0.239182   0.000018
    51  H    0.139282  -0.000438
    52  H    0.130336   0.000122
    53  H    0.163124  -0.000001
    54  H    0.133554   0.000069
 Sum of Mulliken charges =  -1.00000   1.00000
 Mulliken charges and spin densities with hydrogens summed into heavy atoms:
               1          2
     1  C    0.322977   0.022238
     2  C   -0.140053   0.128148
     3  C    0.100057  -0.039138
[...]
    14   Atom       -0.002555     -0.022559      0.008906
    15   Atom       -0.002205      0.001809     -0.000282
    16   Atom        0.003143     -0.000335     -0.000093
    17   Atom        0.002299      0.000038     -0.000239
    18   Atom        0.001095      0.018034     -0.007436
    19   Atom        0.000399      0.013893     -0.005432
    20   Atom       -0.006702     -0.084565      0.028259
    21   Atom       -0.006787     -0.080925      0.031023
    22   Atom       -0.008574     -0.090833      0.032815
    23   Atom       -0.022844     -0.148598      0.068967
    24   Atom        0.000110      0.000541     -0.000179
    25   Atom       -0.000073      0.000371     -0.001035
    26   Atom       -0.000463      0.000228      0.000438
    27   Atom       -0.001339      0.000594     -0.000427
    28   Atom       -0.000048      0.000488     -0.000200
    29   Atom       -0.000668      0.000922     -0.000729
    30   Atom       -0.000904     -0.000126      0.000168
    31   Atom       -0.000507      0.000237     -0.000378
    32   Atom       -0.000053      0.001447      0.001715
    33   Atom        0.004177      0.001365      0.000121
    34   Atom       -0.024422     -0.015605      0.014214
    35   Atom        0.001199     -0.000508      0.000580
    36   Atom        0.000329      0.001574      0.001189
    37   Atom       -0.001229      0.000825     -0.002330
    38   Atom        0.001067      0.000299      0.000715
    39   Atom        0.000343     -0.000480      0.000382
    40   Atom        0.000249      0.000479      0.000174
    41   Atom       -0.000042     -0.000206     -0.000673
    42   Atom        0.001429      0.000036     -0.000087
    43   Atom        0.000165      0.000304      0.000119
    44   Atom        0.000185      0.000593      0.000187
    45   Atom        0.000322      0.000484      0.000286
    46   Atom        0.000047     -0.000114      0.000218
    47   Atom        0.000812     -0.001008     -0.001132
    48   Atom        0.000084     -0.000077     -0.000923
    49   Atom        0.000014     -0.000116      0.000001
    50   Atom       -0.000058     -0.000337      0.000057
    51   Atom        0.000049      0.000005     -0.000046
    52   Atom       -0.000008     -0.000252      0.000004
    53   Atom       -0.000068     -0.000375      0.000066
    54   Atom       -0.000098     -0.000264      0.000064
 --------------------------------------------------------


 ---------------------------------------------------------------------------------
              Anisotropic Spin Dipole Couplings in Principal Axis System
 ---------------------------------------------------------------------------------

       Atom             a.u.   MegaHertz   Gauss  10(-4) cm-1        Axes

              Baa    -0.0290    -3.886    -1.386    -1.296  0.9691 -0.1544  0.1924
     1 C(13)  Bbb    -0.0173    -2.326    -0.830    -0.776  0.1639  0.9859 -0.0345
              Bcc     0.0463     6.212     2.217     2.072 -0.1843  0.0650  0.9807
 
              Baa    -0.0788   -10.580    -3.775    -3.529  0.5771  0.8156  0.0418
     2 C(13)  Bbb    -0.0737    -9.893    -3.530    -3.300  0.7986 -0.5743  0.1800
              Bcc     0.1526    20.473     7.305     6.829 -0.1708  0.0705  0.9828
 
              Baa    -0.0397    -5.326    -1.900    -1.777 -0.1788  0.0727  0.9812
     3 C(13)  Bbb     0.0177     2.376     0.848     0.793 -0.5038  0.8498 -0.1548
              Bcc     0.0220     2.950     1.053     0.984  0.8451  0.5220  0.1153
 
              Baa    -0.0703    -9.430    -3.365    -3.146  0.9819 -0.0308  0.1871
     4 C(13)  Bbb    -0.0652    -8.750    -3.122    -2.919  0.0443  0.9967 -0.0683
              Bcc     0.1355    18.180     6.487     6.064 -0.1843  0.0753  0.9800
 
              Baa    -0.0292    -3.925    -1.400    -1.309  0.3484  0.9373 -0.0015
     5 C(13)  Bbb    -0.0186    -2.492    -0.889    -0.831  0.9196 -0.3415  0.1939
              Bcc     0.0478     6.416     2.290     2.140 -0.1812  0.0690  0.9810
 
              Baa    -0.0322    -4.320    -1.542    -1.441  0.5957  0.8017  0.0485
     6 C(13)  Bbb    -0.0239    -3.202    -1.143    -1.068  0.7905 -0.5959  0.1416
              Bcc     0.0561     7.523     2.684     2.509 -0.1424  0.0460  0.9887
 
              Baa    -0.0409    -5.491    -1.959    -1.832 -0.1761  0.0881  0.9804
     7 C(13)  Bbb     0.0179     2.402     0.857     0.801 -0.3863  0.9099 -0.1511
              Bcc     0.0230     3.089     1.102     1.030  0.9054  0.4053  0.1262
 
              Baa    -0.0834   -11.192    -3.994    -3.733  0.9842  0.0120  0.1767
     8 C(13)  Bbb    -0.0783   -10.508    -3.750    -3.505  0.0147  0.9887 -0.1494
              Bcc     0.1617    21.700     7.743     7.238 -0.1765  0.1497  0.9729
 
              Baa    -0.0498    -6.679    -2.383    -2.228  0.9939  0.0497  0.0984
     9 C(13)  Bbb    -0.0435    -5.841    -2.084    -1.948 -0.0373  0.9915 -0.1247
              Bcc     0.0933    12.520     4.468     4.176 -0.1037  0.1203  0.9873
 
              Baa    -0.0278    -3.734    -1.332    -1.246  0.3916  0.9199 -0.0200
    10 C(13)  Bbb    -0.0156    -2.099    -0.749    -0.700  0.8579 -0.3572  0.3694
              Bcc     0.0435     5.833     2.081     1.946 -0.3327  0.1618  0.9290
 
              Baa    -0.0283    -3.803    -1.357    -1.269  0.9603 -0.1794  0.2134
    11 C(13)  Bbb    -0.0174    -2.330    -0.831    -0.777  0.1920  0.9806 -0.0397
              Bcc     0.0457     6.133     2.188     2.046 -0.2022  0.0791  0.9762
 
              Baa    -0.0739    -9.918    -3.539    -3.308  0.4842  0.8744  0.0306
    12 C(13)  Bbb    -0.0690    -9.256    -3.303    -3.087  0.8527 -0.4794  0.2073
              Bcc     0.1429    19.174     6.842     6.396 -0.1959  0.0742  0.9778
 
              Baa    -0.0400    -5.370    -1.916    -1.791  0.6073  0.7928  0.0514
    13 C(13)  Bbb    -0.0329    -4.418    -1.577    -1.474  0.7712 -0.6038  0.2015
              Bcc     0.0729     9.788     3.493     3.265 -0.1908  0.0828  0.9781
 
              Baa    -0.0443    -5.949    -2.123    -1.984  0.9755  0.1387  0.1707
    14 C(13)  Bbb    -0.0379    -5.087    -1.815    -1.697 -0.1229  0.9873 -0.1003
              Bcc     0.0822    11.036     3.938     3.681 -0.1825  0.0769  0.9802
 
              Baa    -0.0046    -2.465    -0.879    -0.822  0.2026  0.9785 -0.0372
    15 H(1)   Bbb    -0.0025    -1.358    -0.485    -0.453 -0.1807  0.0747  0.9807
              Bcc     0.0072     3.822     1.364     1.275  0.9624 -0.1920  0.1919
 
              Baa    -0.0040    -2.133    -0.761    -0.711  0.9274 -0.3008  0.2223
    16 H(1)   Bbb    -0.0027    -1.421    -0.507    -0.474 -0.2049  0.0886  0.9748
              Bcc     0.0067     3.554     1.268     1.185  0.3130  0.9495 -0.0206
 
              Baa    -0.0031    -1.631    -0.582    -0.544  0.8789 -0.2566 -0.4022
    17 H(1)   Bbb    -0.0028    -1.485    -0.530    -0.495  0.3937 -0.0861  0.9152
              Bcc     0.0058     3.116     1.112     1.039  0.2695  0.9627 -0.0254
 
              Baa    -0.0527    -2.034    -0.726    -0.678 -0.2356  0.0948  0.9672
    18 N(14)  Bbb     0.0256     0.989     0.353     0.330  0.7922  0.5952  0.1346
              Bcc     0.0271     1.045     0.373     0.349 -0.5629  0.7980 -0.2153
 
              Baa    -0.0518    -1.997    -0.713    -0.666 -0.1829  0.0695  0.9807
    19 N(14)  Bbb     0.0252     0.970     0.346     0.324  0.8745  0.4674  0.1299
              Bcc     0.0266     1.027     0.366     0.342 -0.4493  0.8813 -0.1462
 
              Baa    -0.1620    11.723     4.183     3.910  0.7211  0.6870  0.0892
    20 O(17)  Bbb    -0.1590    11.502     4.104     3.837 -0.6693  0.7241 -0.1665
              Bcc     0.3210   -23.225    -8.287    -7.747 -0.1790  0.0604  0.9820
 
              Baa    -0.1522    11.015     3.930     3.674  0.9404  0.3036  0.1530
    21 O(17)  Bbb    -0.1488    10.764     3.841     3.591 -0.2869  0.9502 -0.1219
              Bcc     0.3010   -21.779    -7.771    -7.265 -0.1824  0.0707  0.9807
 
              Baa    -0.1510    10.928     3.899     3.645  0.7563  0.6448  0.1111
    22 O(17)  Bbb    -0.1479    10.701     3.818     3.569 -0.6204  0.7606 -0.1914
              Bcc     0.2989   -21.628    -7.718    -7.214 -0.2079  0.0758  0.9752
 
              Baa    -0.1750    12.666     4.519     4.225  0.9354  0.2342  0.2647
    23 O(17)  Bbb    -0.1720    12.443     4.440     4.150 -0.1834  0.9619 -0.2030
              Bcc     0.3470   -25.108    -8.959    -8.375 -0.3022  0.1414  0.9427
 
              Baa    -0.0018    -0.245    -0.087    -0.082 -0.2141  0.0696  0.9743
    24 C(13)  Bbb     0.0008     0.104     0.037     0.035  0.9403 -0.2556  0.2248
              Bcc     0.0011     0.141     0.050     0.047  0.2647  0.9643 -0.0108
 
              Baa    -0.0015    -0.806    -0.288    -0.269 -0.2368  0.3389  0.9105
    25 H(1)   Bbb    -0.0001    -0.072    -0.026    -0.024  0.9651  0.1901  0.1802
              Bcc     0.0016     0.878     0.313     0.293 -0.1120  0.9214 -0.3721
 
              Baa    -0.0015    -0.819    -0.292    -0.273 -0.2390 -0.1635  0.9571
    26 H(1)   Bbb    -0.0003    -0.171    -0.061    -0.057  0.9509  0.1601  0.2648
              Bcc     0.0019     0.989     0.353     0.330 -0.1966  0.9735  0.1172
 
              Baa    -0.0017    -0.884    -0.315    -0.295 -0.1996  0.0640  0.9778
    27 H(1)   Bbb    -0.0006    -0.309    -0.110    -0.103  0.6681  0.7388  0.0880
              Bcc     0.0022     1.192     0.425     0.398  0.7168 -0.6708  0.1903
 
              Baa    -0.0018    -0.239    -0.085    -0.080 -0.1832  0.0708  0.9805
    28 C(13)  Bbb     0.0008     0.108     0.039     0.036  0.6435  0.7627  0.0652
              Bcc     0.0010     0.131     0.047     0.044  0.7432 -0.6429  0.1853
 
              Baa    -0.0015    -0.776    -0.277    -0.259 -0.3842  0.2010  0.9011
    29 H(1)   Bbb    -0.0002    -0.105    -0.038    -0.035  0.6714  0.7308  0.1232
              Bcc     0.0017     0.881     0.315     0.294 -0.6338  0.6523 -0.4157
 
              Baa    -0.0015    -0.774    -0.276    -0.258  0.0300 -0.0658  0.9974
    30 H(1)   Bbb    -0.0002    -0.100    -0.036    -0.033  0.6921  0.7213  0.0268
              Bcc     0.0016     0.874     0.312     0.291  0.7212 -0.6895 -0.0672
 
              Baa    -0.0016    -0.879    -0.314    -0.293 -0.1833  0.0731  0.9803
    31 H(1)   Bbb    -0.0006    -0.343    -0.122    -0.114  0.9662  0.1975  0.1659
              Bcc     0.0023     1.222     0.436     0.408 -0.1814  0.9776 -0.1068
 
              Baa    -0.0042    -0.560    -0.200    -0.187 -0.1290 -0.6380  0.7591
    32 C(13)  Bbb    -0.0007    -0.098    -0.035    -0.033 -0.1602  0.7689  0.6190
              Bcc     0.0049     0.658     0.235     0.219  0.9786  0.0418  0.2014
 
              Baa    -0.0043    -0.578    -0.206    -0.193 -0.4277  0.2328  0.8734
    33 C(13)  Bbb    -0.0019    -0.259    -0.092    -0.086  0.6594 -0.5806  0.4776
              Bcc     0.0062     0.837     0.299     0.279  0.6183  0.7802  0.0948
 
              Baa    -0.0197    -0.809    -0.289    -0.270  0.5388  0.0516  0.8409
    34 S(33)  Bbb    -0.0191    -0.782    -0.279    -0.261  0.5066  0.7777 -0.3723
              Bcc     0.0388     1.591     0.568     0.531  0.6731 -0.6266 -0.3928
 
              Baa    -0.0026    -0.354    -0.126    -0.118 -0.2583  0.9307 -0.2588
    35 C(13)  Bbb     0.0001     0.012     0.004     0.004  0.0688  0.2850  0.9561
              Bcc     0.0025     0.342     0.122     0.114  0.9636  0.2292 -0.1377
 
              Baa    -0.0017    -0.926    -0.331    -0.309 -0.4618 -0.5450  0.6998
    36 H(1)   Bbb    -0.0005    -0.276    -0.098    -0.092 -0.6421  0.7497  0.1602
              Bcc     0.0023     1.202     0.429     0.401  0.6119  0.3754  0.6961
 
              Baa    -0.0027    -0.357    -0.127    -0.119 -0.0605  0.4700  0.8806
    37 C(13)  Bbb    -0.0008    -0.105    -0.037    -0.035  0.9245  0.3591 -0.1282
              Bcc     0.0034     0.462     0.165     0.154 -0.3765  0.8063 -0.4563
 
              Baa    -0.0017     0.123     0.044     0.041 -0.2721  0.8813 -0.3863
    38 O(17)  Bbb    -0.0002     0.013     0.005     0.004 -0.3691  0.2752  0.8877
              Bcc     0.0019    -0.136    -0.049    -0.045  0.8887  0.3841  0.2504
 
              Baa    -0.0014    -0.187    -0.067    -0.062 -0.1783  0.9231 -0.3407
    39 C(13)  Bbb    -0.0001    -0.009    -0.003    -0.003  0.2222  0.3751  0.8999
              Bcc     0.0015     0.196     0.070     0.065  0.9585  0.0848 -0.2720
 
              Baa    -0.0004    -0.055    -0.020    -0.018 -0.5814  0.0179  0.8134
    40 C(13)  Bbb    -0.0003    -0.041    -0.014    -0.014 -0.2475  0.9485 -0.1978
              Bcc     0.0007     0.095     0.034     0.032  0.7751  0.3163  0.5470
 
              Baa    -0.0011    -0.145    -0.052    -0.048  0.2328  0.3014  0.9246
    41 C(13)  Bbb    -0.0002    -0.021    -0.008    -0.007  0.9724 -0.0891 -0.2158
              Bcc     0.0012     0.166     0.059     0.055  0.0173  0.9493 -0.3138
 
              Baa    -0.0012    -0.048    -0.017    -0.016 -0.2574  0.1977  0.9459
    42 S(33)  Bbb    -0.0009    -0.038    -0.013    -0.013  0.7785 -0.5375  0.3241
              Bcc     0.0021     0.086     0.031     0.029  0.5725  0.8198 -0.0156
 
              Baa    -0.0003    -0.136    -0.049    -0.045 -0.5055 -0.1641  0.8471
    43 H(1)   Bbb    -0.0002    -0.115    -0.041    -0.038 -0.3509  0.9360 -0.0281
              Bcc     0.0005     0.251     0.090     0.084  0.7882  0.3114  0.5308
 
              Baa    -0.0005    -0.242    -0.086    -0.081 -0.6370 -0.1474  0.7566
    44 H(1)   Bbb    -0.0004    -0.188    -0.067    -0.063 -0.2725  0.9612 -0.0421
              Bcc     0.0008     0.429     0.153     0.143  0.7211  0.2330  0.6525
 
              Baa    -0.0004    -0.237    -0.084    -0.079 -0.5061 -0.2380  0.8290
    45 H(1)   Bbb    -0.0003    -0.175    -0.063    -0.058 -0.4888  0.8711 -0.0483
              Bcc     0.0008     0.412     0.147     0.137  0.7106  0.4296  0.5572
 
              Baa    -0.0006    -0.087    -0.031    -0.029 -0.0672  0.9412 -0.3311
    46 C(13)  Bbb     0.0001     0.007     0.003     0.002  0.1723  0.3378  0.9253
              Bcc     0.0006     0.080     0.028     0.027  0.9828  0.0051 -0.1849
 
              Baa    -0.0014     0.100     0.036     0.033  0.4599  0.3027  0.8348
    47 O(17)  Bbb    -0.0006     0.045     0.016     0.015  0.7232 -0.6732 -0.1543
              Bcc     0.0020    -0.146    -0.052    -0.049  0.5153  0.6746 -0.5286
 
              Baa    -0.0009    -0.125    -0.045    -0.042  0.0668  0.4420  0.8945
    48 C(13)  Bbb    -0.0005    -0.061    -0.022    -0.020  0.9960 -0.0830 -0.0334
              Bcc     0.0014     0.186     0.066     0.062  0.0595  0.8932 -0.4458
 
              Baa    -0.0002    -0.082    -0.029    -0.027 -0.1234  0.9392 -0.3205
    49 H(1)   Bbb    -0.0001    -0.073    -0.026    -0.024  0.2534  0.3421  0.9049
              Bcc     0.0003     0.155     0.055     0.052  0.9595  0.0305 -0.2802
 
              Baa    -0.0003    -0.034    -0.012    -0.011 -0.3643  0.6680 -0.6489
    50 C(13)  Bbb    -0.0002    -0.031    -0.011    -0.010  0.4543  0.7357  0.5024
              Bcc     0.0005     0.065     0.023     0.022  0.8130 -0.1117 -0.5715
 
              Baa    -0.0002    -0.114    -0.041    -0.038 -0.0541  0.4924  0.8687
    51 H(1)   Bbb    -0.0001    -0.057    -0.020    -0.019 -0.0942  0.8636 -0.4954
              Bcc     0.0003     0.171     0.061     0.057  0.9941  0.1087  0.0003
 
              Baa    -0.0002    -0.096    -0.034    -0.032  0.5030  0.4875  0.7137
    52 H(1)   Bbb    -0.0002    -0.095    -0.034    -0.032 -0.2662  0.8730 -0.4087
              Bcc     0.0004     0.191     0.068     0.064  0.8223 -0.0156 -0.5689
 
              Baa    -0.0003    -0.141    -0.050    -0.047 -0.3159  0.7968 -0.5151
    53 H(1)   Bbb    -0.0003    -0.134    -0.048    -0.045  0.5819  0.5915  0.5582
              Bcc     0.0005     0.274     0.098     0.092  0.7494 -0.1234 -0.6505
 
              Baa    -0.0002    -0.118    -0.042    -0.039  0.4208 -0.2982  0.8567
    54 H(1)   Bbb    -0.0002    -0.106    -0.038    -0.035  0.3100  0.9348  0.1731
              Bcc     0.0004     0.223     0.080     0.075  0.8525 -0.1927 -0.4858
 

 ---------------------------------------------------------------------------------

 Unable to Open any file for archive entry.
 1\1\GINC-CX3-2-6\FOpt\UB3LYP\6-311+G(d,p)\C26H18N2O6S2(1-,2)\NS5018\05
 -Oct-2021\0\\# opt=modredundant b3lyp/6-311+g(d,p)\\NDI_110.pdb\\-1,2\
 C,-2.5235450709,-2.9352904563,-0.5552382356\C,-2.2441872918,-1.5246078
 946,-0.3123210576\C,-3.3037765136,-0.6172534587,-0.0792406337\C,-4.650
 352584,-1.0523183335,-0.0833590826\C,-4.9722493959,-2.4551464178,-0.33
 10833792\C,-0.9198499143,-1.0632186576,-0.3300551681\C,-2.9971528856,0
 .7619873965,0.1727183969\C,-1.6430034485,1.2014710761,0.1824964507\C,-
 0.5997241147,0.2699029997,-0.1020951543\C,-1.3558692669,2.5871103767,0
 .5527219073\C,-3.8139193241,3.0657410251,0.6934795802\C,-4.0698774075,
 1.656980945,0.416349916\C,-5.4009705271,1.1955998469,0.4000227017\C,-5
 .6887094774,-0.1317751531,0.1552637775\H,-6.7085345821,-0.4951171993,0
 .1440051008\H,-6.1871295157,1.9159033858,0.5881809572\H,-0.1349611632,
 -1.7750215445,-0.5519089456\N,-2.4622119882,3.44188215,0.7398242402\N,
 -3.8774004827,-3.3152572663,-0.5526180708\O,-1.6567835197,-3.788446494
 7,-0.7570914184\O,-6.1238543352,-2.8949512043,-0.3500334117\O,-4.70500
 05476,3.8957619046,0.8902327993\O,-0.2272166277,3.0496693715,0.7172540
 511\C,-2.1426124788,4.8327065045,1.0648467438\H,-1.6378424849,4.889555
 0122,2.0319741508\H,-1.4672021794,5.2405870382,0.3119997\H,-3.07609440
 35,5.3871718676,1.0933691557\C,-4.1470846188,-4.7316319957,-0.80182159
 08\H,-3.7419230222,-5.0229526274,-1.7726265345\H,-3.6613976623,-5.3441
 352473,-0.0397282823\H,-5.2237431486,-4.8723834706,-0.7772772699\C,0.8
 333184607,0.6350504504,-0.20047523\C,1.836287357,0.3070791192,0.672194
 7784\S,1.4642496496,1.4445083948,-1.6056299376\C,3.1157844117,0.739751
 3882,0.2318869283\H,1.6448582768,-0.2009693279,1.6059580638\C,3.114674
 3632,1.385004386,-0.9930978431\O,4.2964757677,0.566409091,0.9022650132
 \C,4.2386770717,1.9467197704,-1.7010620804\C,4.2378401725,-0.002369082
 1,2.2016052111\C,4.2491046884,2.5807670115,-2.9346355236\S,5.877206307
 4,1.9253423864,-1.0555971462\H,5.2631971432,-0.0165451489,2.5705435453
 \H,3.6168642098,0.6019142524,2.8716340495\H,3.8498066197,-1.0265384741
 ,2.171500031\C,5.5288780798,3.0476273342,-3.3483544379\O,3.0874503517,
 2.6857035126,-3.648713705\C,6.503443894,2.766172914,-2.4323856803\H,5.
 7169077694,3.5638066337,-4.2793207358\C,3.0532887814,3.6086409244,-4.7
 240191769\H,7.5551530473,3.0009312099,-2.4877305202\H,3.7114179843,3.2
 957943185,-5.5437165673\H,2.0234214797,3.6197417424,-5.0791140788\H,3.
 3358740962,4.6149337142,-4.3939763519\\Version=ES64L-G16RevC.01\State=
 2-A\HF=-2359.4278792\S2=0.757939\S2-1=0.\S2A=0.750053\RMSD=2.088e-09\R
 MSF=5.870e-05\Dipole=4.2621519,1.2480324,-0.7334397\Quadrupole=-34.948
 876,-3.8404471,38.7893231,-9.1802819,9.7879733,-13.2752046\PG=C01 [X(C
 26H18N2O6S2)]\\@
 The archive entry for this job was punched.


 THERE IS AN OLD, OLD RECIPE IN MAINE FOR STEWING COOT. PLACE THE
 BIRD IN A KETTLE OF WATER WITH A RED BUILDING BRICK FREE OF MORTAR AND
 BLEMISHES. PARBOIL THE COOT AND BRICK TOGETHER FOR THREE HOURS.
 POUR OFF THE WATER, REFILL THE KETTLE, AND AGAIN PARBOIL FOR THREE HOURS.
 ONCE AGAIN POUR OFF THE WATER, FOR THE LAST TIME ADD FRESH WATER,
 AND LET THE COOT AND BRICK SIMMER TOGETHER OVERNIGHT. IN THE MORNING,
 THROW AWAY THE COOT AND EAT THE BRICK.
 Job cpu time:       3 days 19 hours 59 minutes 17.4 seconds.
 Elapsed time:       0 days 11 hours 34 minutes 58.6 seconds.
 File lengths (MBytes):  RWF=    893 Int=      0 D2E=      0 Chk=     99 Scr=      1
 Normal termination of Gaussian 16 at Tue Oct  5 17:21:28 2021.
