 Entering Gaussian System, Link 0=g16
 Input=NDI_-70.gjf
 Output=NDI_-70.log
 Initial command:
 /apps/gaussian/g16-c01-avx/g16/l1.exe "/tmp/pbs.2575733[11].pbs/Gau-1705593.inp" -scrdir="/tmp/pbs.2575733[11].pbs/"
 Entering Link 1 = /apps/gaussian/g16-c01-avx/g16/l1.exe PID=   1705594.
  
 Copyright (c) 1988-2019, Gaussian, Inc.  All Rights Reserved.
  
 This is part of the Gaussian(R) 16 program.  It is based on
 the Gaussian(R) 09 system (copyright 2009, Gaussian, Inc.),
 the Gaussian(R) 03 system (copyright 2003, Gaussian, Inc.),
 the Gaussian(R) 98 system (copyright 1998, Gaussian, Inc.),
 the Gaussian(R) 94 system (copyright 1995, Gaussian, Inc.),
 the Gaussian 92(TM) system (copyright 1992, Gaussian, Inc.),
 the Gaussian 90(TM) system (copyright 1990, Gaussian, Inc.),
 the Gaussian 88(TM) system (copyright 1988, Gaussian, Inc.),
 the Gaussian 86(TM) system (copyright 1986, Carnegie Mellon
 University), and the Gaussian 82(TM) system (copyright 1983,
 Carnegie Mellon University). Gaussian is a federally registered
 trademark of Gaussian, Inc.
  
 This software contains proprietary and confidential information,
 including trade secrets, belonging to Gaussian, Inc.
  
 This software is provided under written license and may be
 used, copied, transmitted, or stored only in accord with that
 written license.
  
 The following legend is applicable only to US Government
 contracts under FAR:
  
                    RESTRICTED RIGHTS LEGEND
  
 Use, reproduction and disclosure by the US Government is
 subject to restrictions as set forth in subparagraphs (a)
 and (c) of the Commercial Computer Software - Restricted
 Rights clause in FAR 52.227-19.
  
 Gaussian, Inc.
 340 Quinnipiac St., Bldg. 40, Wallingford CT 06492
  
  
 ---------------------------------------------------------------
 Warning -- This program may not be used in any manner that
 competes with the business of Gaussian, Inc. or will provide
 assistance to any competitor of Gaussian, Inc.  The licensee
 of this program is prohibited from giving any competitor of
 Gaussian, Inc. access to this program.  By using this program,
 the user acknowledges that Gaussian, Inc. is engaged in the
 business of creating and licensing software in the field of
 computational chemistry and represents and warrants to the
 licensee that it is not a competitor of Gaussian, Inc. and that
 it will not use this program in any manner prohibited above.
 ---------------------------------------------------------------
  

 Cite this work as:
 Gaussian 16, Revision C.01,
 M. J. Frisch, G. W. Trucks, H. B. Schlegel, G. E. Scuseria, 
 M. A. Robb, J. R. Cheeseman, G. Scalmani, V. Barone, 
 G. A. Petersson, H. Nakatsuji, X. Li, M. Caricato, A. V. Marenich, 
 J. Bloino, B. G. Janesko, R. Gomperts, B. Mennucci, H. P. Hratchian, 
 J. V. Ortiz, A. F. Izmaylov, J. L. Sonnenberg, D. Williams-Young, 
 F. Ding, F. Lipparini, F. Egidi, J. Goings, B. Peng, A. Petrone, 
 T. Henderson, D. Ranasinghe, V. G. Zakrzewski, J. Gao, N. Rega, 
 G. Zheng, W. Liang, M. Hada, M. Ehara, K. Toyota, R. Fukuda, 
 J. Hasegawa, M. Ishida, T. Nakajima, Y. Honda, O. Kitao, H. Nakai, 
 T. Vreven, K. Throssell, J. A. Montgomery, Jr., J. E. Peralta, 
 F. Ogliaro, M. J. Bearpark, J. J. Heyd, E. N. Brothers, K. N. Kudin, 
 V. N. Staroverov, T. A. Keith, R. Kobayashi, J. Normand, 
 K. Raghavachari, A. P. Rendell, J. C. Burant, S. S. Iyengar, 
 J. Tomasi, M. Cossi, J. M. Millam, M. Klene, C. Adamo, R. Cammi, 
 J. W. Ochterski, R. L. Martin, K. Morokuma, O. Farkas, 
 J. B. Foresman, and D. J. Fox, Gaussian, Inc., Wallingford CT, 2019.
 
 ******************************************
 Gaussian 16:  ES64L-G16RevC.01  3-Jul-2019
                17-Nov-2020 
 ******************************************
 %mem=10GB
 %nprocshared=8
 Will use up to    8 processors via shared memory.
 -------------------------------------
 # opt=modredundant b3lyp/6-311+g(d,p)
 -------------------------------------
 1/18=120,19=15,26=3,38=1/1,3;
 2/9=110,12=2,17=6,18=5,40=1/2;
 3/5=4,6=6,7=111,11=2,25=1,30=1,71=1,74=-5/1,2,3;
 4//1;
 5/5=2,38=5/2;
 6/7=2,8=2,9=2,10=2,28=1/1;
 7//1,2,3,16;
 1/18=20,19=15,26=3/3(2);
 2/9=110/2;
 99//99;
 2/9=110/2;
 3/5=4,6=6,7=111,11=2,25=1,30=1,71=1,74=-5/1,2,3;
 4/5=5,16=3,69=1/1;
 5/5=2,38=5/2;
 7//1,2,3,16;
 1/18=20,19=15,26=3/3(-5);
 2/9=110/2;
 6/7=2,8=2,9=2,10=2,19=2,28=1/1;
 99/9=1/99;
 -----------
 NDI_-70.pdb
 -----------
 Symbolic Z-matrix:
 Charge =  0 Multiplicity = 1
 C                    -2.563    -2.994    -0.409 
 C                    -2.257    -1.551    -0.224 
 C                    -3.301    -0.607    -0.083 
 C                    -4.65     -1.024    -0.115 
 C                    -4.992    -2.459    -0.304 
 C                    -0.949    -1.137    -0.215 
 C                    -2.962     0.764     0.102 
 C                    -1.595     1.188     0.123 
 C                    -0.561     0.232    -0.072 
 C                    -1.328     2.616     0.446 
 C                    -3.777     3.115     0.508 
 C                    -4.035     1.679     0.268 
 C                    -5.356     1.252     0.23 
 C                    -5.672    -0.098     0.036 
 H                    -6.699    -0.442     0.008 
 H                    -6.133     1.997     0.361 
 H                    -0.19     -1.895    -0.369 
 N                    -2.432     3.476     0.608 
 N                    -3.916    -3.353    -0.438 
 O                    -1.695    -3.847    -0.532 
 O                    -6.149    -2.85     -0.34 
 O                    -4.676     3.938     0.629 
 O                    -0.212     3.097     0.596 
 C                    -2.111     4.875     0.912 
 H                    -1.54      4.931     1.84 
 H                    -1.5       5.299     0.111 
 H                    -3.05      5.414     1.003 
 C                    -4.206    -4.779    -0.625 
 H                    -3.759    -5.126    -1.559 
 H                    -3.775    -5.355     0.196 
 H                    -5.286    -4.897    -0.649 
 C                     0.876     0.482    -0.178 
 C                     1.617     1.088    -1.174 
 S                     1.948    -0.191     1.05 
 C                     3.008     1.023    -0.96 
 H                     1.166     1.571    -2.026 
 C                     3.381     0.367     0.218 
 O                     3.976     1.526    -1.771 
 C                     4.708     0.175     0.733 
 C                     3.558     2.311    -2.884 
 C                     5.08     -0.499     1.894 
 S                     6.148     0.798    -0.067 
 H                     4.472     2.681    -3.35 
 H                     3.001     1.706    -3.609 
 H                     2.938     3.157    -2.563 
 C                     6.483    -0.515     2.135 
 O                     4.118    -1.061     2.673 
 C                     7.177     0.146     1.158 
 H                     6.953    -0.991     2.985 
 C                     4.531    -1.773     3.834 
 H                     8.247     0.285     1.09 
 H                     5.054    -1.115     4.54 
 H                     3.619    -2.148     4.297 
 H                     5.181    -2.617     3.572 
 
 The following ModRedundant input section has been read:
 D       8       9      32      33 F                                           
 

 GradGradGradGradGradGradGradGradGradGradGradGradGradGradGradGradGradGrad
 Berny optimization.
 Initialization pass.
                           ----------------------------
                           !    Initial Parameters    !
                           ! (Angstroms and Degrees)  !
 --------------------------                            --------------------------
 ! Name  Definition              Value          Derivative Info.                !
 --------------------------------------------------------------------------------
 ! R1    R(1,2)                  1.4866         estimate D2E/DX2                !
 ! R2    R(1,19)                 1.4001         estimate D2E/DX2                !
 ! R3    R(1,20)                 1.2232         estimate D2E/DX2                !
 ! R4    R(2,3)                  1.4146         estimate D2E/DX2                !
 ! R5    R(2,6)                  1.372          estimate D2E/DX2                !
 ! R6    R(3,4)                  1.4123         estimate D2E/DX2                !
 ! R7    R(3,7)                  1.4244         estimate D2E/DX2                !
 ! R8    R(4,5)                  1.4872         estimate D2E/DX2                !
 ! R9    R(4,14)                 1.3874         estimate D2E/DX2                !
 ! R10   R(5,19)                 1.4053         estimate D2E/DX2                !
 ! R11   R(5,21)                 1.2218         estimate D2E/DX2                !
 ! R12   R(6,9)                  1.4301         estimate D2E/DX2                !
 ! R13   R(6,17)                 1.0837         estimate D2E/DX2                !
 ! R14   R(7,8)                  1.4314         estimate D2E/DX2                !
 ! R15   R(7,12)                 1.4199         estimate D2E/DX2                !
 ! R16   R(8,9)                  1.4217         estimate D2E/DX2                !
 ! R17   R(8,10)                 1.4882         estimate D2E/DX2                !
 ! R18   R(9,32)                 1.4624         estimate D2E/DX2                !
 ! R19   R(10,18)                1.4088         estimate D2E/DX2                !
 ! R20   R(10,23)                1.2245         estimate D2E/DX2                !
 ! R21   R(11,12)                1.4786         estimate D2E/DX2                !
 ! R22   R(11,18)                1.3962         estimate D2E/DX2                !
 ! R23   R(11,22)                1.2248         estimate D2E/DX2                !
 ! R24   R(12,13)                1.3888         estimate D2E/DX2                !
 ! R25   R(13,14)                1.4            estimate D2E/DX2                !
 ! R26   R(13,16)                1.0844         estimate D2E/DX2                !
 ! R27   R(14,15)                1.0834         estimate D2E/DX2                !
 ! R28   R(18,24)                1.4672         estimate D2E/DX2                !
 ! R29   R(19,28)                1.4672         estimate D2E/DX2                !
 ! R30   R(24,25)                1.091          estimate D2E/DX2                !
 ! R31   R(24,26)                1.093          estimate D2E/DX2                !
 ! R32   R(24,27)                1.0865         estimate D2E/DX2                !
 ! R33   R(28,29)                1.0921         estimate D2E/DX2                !
 ! R34   R(28,30)                1.0916         estimate D2E/DX2                !
 ! R35   R(28,31)                1.0867         estimate D2E/DX2                !
 ! R36   R(32,33)                1.3814         estimate D2E/DX2                !
 ! R37   R(32,34)                1.7635         estimate D2E/DX2                !
 ! R38   R(33,35)                1.4089         estimate D2E/DX2                !
 ! R39   R(33,36)                1.0782         estimate D2E/DX2                !
 ! R40   R(34,37)                1.7484         estimate D2E/DX2                !
 ! R41   R(35,37)                1.399          estimate D2E/DX2                !
 ! R42   R(35,38)                1.3593         estimate D2E/DX2                !
 ! R43   R(37,39)                1.4363         estimate D2E/DX2                !
 ! R44   R(38,40)                1.4247         estimate D2E/DX2                !
 ! R45   R(39,41)                1.393          estimate D2E/DX2                !
 ! R46   R(39,42)                1.7612         estimate D2E/DX2                !
 ! R47   R(40,43)                1.0906         estimate D2E/DX2                !
 ! R48   R(40,44)                1.0963         estimate D2E/DX2                !
 ! R49   R(40,45)                1.0969         estimate D2E/DX2                !
 ! R50   R(41,46)                1.4236         estimate D2E/DX2                !
 ! R51   R(41,47)                1.3595         estimate D2E/DX2                !
 ! R52   R(42,48)                1.7276         estimate D2E/DX2                !
 ! R53   R(46,48)                1.3686         estimate D2E/DX2                !
 ! R54   R(46,49)                1.0817         estimate D2E/DX2                !
 ! R55   R(47,50)                1.4232         estimate D2E/DX2                !
 ! R56   R(48,51)                1.0811         estimate D2E/DX2                !
 ! R57   R(50,52)                1.0977         estimate D2E/DX2                !
 ! R58   R(50,53)                1.0894         estimate D2E/DX2                !
 ! R59   R(50,54)                1.097          estimate D2E/DX2                !
 ! A1    A(2,1,19)             116.767          estimate D2E/DX2                !
 ! A2    A(2,1,20)             122.9113         estimate D2E/DX2                !
 ! A3    A(19,1,20)            120.3217         estimate D2E/DX2                !
 ! A4    A(1,2,3)              120.5473         estimate D2E/DX2                !
 ! A5    A(1,2,6)              119.3369         estimate D2E/DX2                !
 ! A6    A(3,2,6)              120.1056         estimate D2E/DX2                !
 ! A7    A(2,3,4)              120.3743         estimate D2E/DX2                !
 ! A8    A(2,3,7)              118.662          estimate D2E/DX2                !
 ! A9    A(4,3,7)              120.9617         estimate D2E/DX2                !
 ! A10   A(3,4,5)              120.4909         estimate D2E/DX2                !
 ! A11   A(3,4,14)             120.2702         estimate D2E/DX2                !
 ! A12   A(5,4,14)             119.2382         estimate D2E/DX2                !
 ! A13   A(4,5,19)             116.7341         estimate D2E/DX2                !
 ! A14   A(4,5,21)             122.024          estimate D2E/DX2                !
 ! A15   A(19,5,21)            121.2418         estimate D2E/DX2                !
 ! A16   A(2,6,9)              123.2421         estimate D2E/DX2                !
 ! A17   A(2,6,17)             117.1119         estimate D2E/DX2                !
 ! A18   A(9,6,17)             119.589          estimate D2E/DX2                !
 ! A19   A(3,7,8)              120.9519         estimate D2E/DX2                !
 ! A20   A(3,7,12)             117.1037         estimate D2E/DX2                !
 ! A21   A(8,7,12)             121.944          estimate D2E/DX2                !
 ! A22   A(7,8,9)              119.5639         estimate D2E/DX2                !
 ! A23   A(7,8,10)             117.3064         estimate D2E/DX2                !
 ! A24   A(9,8,10)             122.9922         estimate D2E/DX2                !
 ! A25   A(6,9,8)              117.3944         estimate D2E/DX2                !
 ! A26   A(6,9,32)             115.0236         estimate D2E/DX2                !
 ! A27   A(8,9,32)             127.5648         estimate D2E/DX2                !
 ! A28   A(8,10,18)            118.042          estimate D2E/DX2                !
 ! A29   A(8,10,23)            124.5436         estimate D2E/DX2                !
 ! A30   A(18,10,23)           117.4097         estimate D2E/DX2                !
 ! A31   A(12,11,18)           115.5202         estimate D2E/DX2                !
 ! A32   A(12,11,22)           122.7205         estimate D2E/DX2                !
 ! A33   A(18,11,22)           121.7534         estimate D2E/DX2                !
 ! A34   A(7,12,11)            120.8614         estimate D2E/DX2                !
 ! A35   A(7,12,13)            121.162          estimate D2E/DX2                !
 ! A36   A(11,12,13)           117.9699         estimate D2E/DX2                !
 ! A37   A(12,13,14)           120.9948         estimate D2E/DX2                !
 ! A38   A(12,13,16)           117.8401         estimate D2E/DX2                !
 ! A39   A(14,13,16)           121.1642         estimate D2E/DX2                !
 ! A40   A(4,14,13)            119.5003         estimate D2E/DX2                !
 ! A41   A(4,14,15)            118.9169         estimate D2E/DX2                !
 ! A42   A(13,14,15)           121.5811         estimate D2E/DX2                !
 ! A43   A(10,18,11)           126.0753         estimate D2E/DX2                !
 ! A44   A(10,18,24)           115.7508         estimate D2E/DX2                !
 ! A45   A(11,18,24)           118.1737         estimate D2E/DX2                !
 ! A46   A(1,19,5)             125.0856         estimate D2E/DX2                !
 ! A47   A(1,19,28)            116.2868         estimate D2E/DX2                !
 ! A48   A(5,19,28)            118.6276         estimate D2E/DX2                !
 ! A49   A(18,24,25)           109.8574         estimate D2E/DX2                !
 ! A50   A(18,24,26)           109.8979         estimate D2E/DX2                !
 ! A51   A(18,24,27)           107.5355         estimate D2E/DX2                !
 ! A52   A(25,24,26)           108.1108         estimate D2E/DX2                !
 ! A53   A(25,24,27)           110.8301         estimate D2E/DX2                !
 ! A54   A(26,24,27)           110.6124         estimate D2E/DX2                !
 ! A55   A(19,28,29)           109.6906         estimate D2E/DX2                !
 ! A56   A(19,28,30)           109.8136         estimate D2E/DX2                !
 ! A57   A(19,28,31)           107.7461         estimate D2E/DX2                !
 ! A58   A(29,28,30)           108.2991         estimate D2E/DX2                !
 ! A59   A(29,28,31)           110.6959         estimate D2E/DX2                !
 ! A60   A(30,28,31)           110.5924         estimate D2E/DX2                !
 ! A61   A(9,32,33)            130.8685         estimate D2E/DX2                !
 ! A62   A(9,32,34)            118.7891         estimate D2E/DX2                !
 ! A63   A(33,32,34)           110.0837         estimate D2E/DX2                !
 ! A64   A(32,33,35)           113.5686         estimate D2E/DX2                !
 ! A65   A(32,33,36)           122.8102         estimate D2E/DX2                !
 ! A66   A(35,33,36)           123.6187         estimate D2E/DX2                !
 ! A67   A(32,34,37)            92.5827         estimate D2E/DX2                !
 ! A68   A(33,35,37)           114.3794         estimate D2E/DX2                !
 ! A69   A(33,35,38)           126.5407         estimate D2E/DX2                !
 ! A70   A(37,35,38)           119.0798         estimate D2E/DX2                !
 ! A71   A(34,37,35)           109.379          estimate D2E/DX2                !
 ! A72   A(34,37,39)           122.9511         estimate D2E/DX2                !
 ! A73   A(35,37,39)           127.6567         estimate D2E/DX2                !
 ! A74   A(35,38,40)           117.455          estimate D2E/DX2                !
 ! A75   A(37,39,41)           127.6054         estimate D2E/DX2                !
 ! A76   A(37,39,42)           123.0416         estimate D2E/DX2                !
 ! A77   A(41,39,42)           109.3529         estimate D2E/DX2                !
 ! A78   A(38,40,43)           105.953          estimate D2E/DX2                !
 ! A79   A(38,40,44)           111.2003         estimate D2E/DX2                !
 ! A80   A(38,40,45)           111.2347         estimate D2E/DX2                !
 ! A81   A(43,40,44)           109.2957         estimate D2E/DX2                !
 ! A82   A(43,40,45)           109.6992         estimate D2E/DX2                !
 ! A83   A(44,40,45)           109.389          estimate D2E/DX2                !
 ! A84   A(39,41,46)           114.1855         estimate D2E/DX2                !
 ! A85   A(39,41,47)           119.2499         estimate D2E/DX2                !
 ! A86   A(46,41,47)           126.5644         estimate D2E/DX2                !
 ! A87   A(39,42,48)            91.7999         estimate D2E/DX2                !
 ! A88   A(41,46,48)           111.9291         estimate D2E/DX2                !
 ! A89   A(41,46,49)           124.4854         estimate D2E/DX2                !
 ! A90   A(48,46,49)           123.5855         estimate D2E/DX2                !
 ! A91   A(41,47,50)           117.9647         estimate D2E/DX2                !
 ! A92   A(42,48,46)           112.7325         estimate D2E/DX2                !
 ! A93   A(42,48,51)           119.7603         estimate D2E/DX2                !
 ! A94   A(46,48,51)           127.5071         estimate D2E/DX2                !
 ! A95   A(47,50,52)           111.2879         estimate D2E/DX2                !
 ! A96   A(47,50,53)           106.021          estimate D2E/DX2                !
 ! A97   A(47,50,54)           111.2237         estimate D2E/DX2                !
 ! A98   A(52,50,53)           109.3822         estimate D2E/DX2                !
 ! A99   A(52,50,54)           109.4194         estimate D2E/DX2                !
 ! A100  A(53,50,54)           109.4329         estimate D2E/DX2                !
 ! D1    D(19,1,2,3)             0.1578         estimate D2E/DX2                !
 ! D2    D(19,1,2,6)          -178.6792         estimate D2E/DX2                !
 ! D3    D(20,1,2,3)          -179.8231         estimate D2E/DX2                !
 ! D4    D(20,1,2,6)             1.3399         estimate D2E/DX2                !
 ! D5    D(2,1,19,5)            -0.124          estimate D2E/DX2                !
 ! D6    D(2,1,19,28)          179.8267         estimate D2E/DX2                !
 ! D7    D(20,1,19,5)          179.8575         estimate D2E/DX2                !
 ! D8    D(20,1,19,28)          -0.1919         estimate D2E/DX2                !
 ! D9    D(1,2,3,4)              0.0571         estimate D2E/DX2                !
 ! D10   D(1,2,3,7)            179.5453         estimate D2E/DX2                !
 ! D11   D(6,2,3,4)            178.8851         estimate D2E/DX2                !
 ! D12   D(6,2,3,7)             -1.6266         estimate D2E/DX2                !
 ! D13   D(1,2,6,9)            178.625          estimate D2E/DX2                !
 ! D14   D(1,2,6,17)             1.3881         estimate D2E/DX2                !
 ! D15   D(3,2,6,9)             -0.2173         estimate D2E/DX2                !
 ! D16   D(3,2,6,17)          -177.4541         estimate D2E/DX2                !
 ! D17   D(2,3,4,5)             -0.3074         estimate D2E/DX2                !
 ! D18   D(2,3,4,14)           179.3968         estimate D2E/DX2                !
 ! D19   D(7,3,4,5)           -179.7837         estimate D2E/DX2                !
 ! D20   D(7,3,4,14)            -0.0795         estimate D2E/DX2                !
 ! D21   D(2,3,7,8)              1.0523         estimate D2E/DX2                !
 ! D22   D(2,3,7,12)          -178.712          estimate D2E/DX2                !
 ! D23   D(4,3,7,8)           -179.4626         estimate D2E/DX2                !
 ! D24   D(4,3,7,12)             0.7731         estimate D2E/DX2                !
 ! D25   D(3,4,5,19)             0.3343         estimate D2E/DX2                !
 ! D26   D(3,4,5,21)          -179.7799         estimate D2E/DX2                !
 ! D27   D(14,4,5,19)         -179.3729         estimate D2E/DX2                !
 ! D28   D(14,4,5,21)            0.5129         estimate D2E/DX2                !
 ! D29   D(3,4,14,13)           -0.4559         estimate D2E/DX2                !
 ! D30   D(3,4,14,15)         -179.9937         estimate D2E/DX2                !
 ! D31   D(5,4,14,13)          179.252          estimate D2E/DX2                !
 ! D32   D(5,4,14,15)           -0.2858         estimate D2E/DX2                !
 ! D33   D(4,5,19,1)            -0.1141         estimate D2E/DX2                !
 ! D34   D(4,5,19,28)          179.9364         estimate D2E/DX2                !
 ! D35   D(21,5,19,1)          179.9992         estimate D2E/DX2                !
 ! D36   D(21,5,19,28)           0.0496         estimate D2E/DX2                !
 ! D37   D(2,6,9,8)              2.5984         estimate D2E/DX2                !
 ! D38   D(2,6,9,32)          -176.0103         estimate D2E/DX2                !
 ! D39   D(17,6,9,8)           179.77           estimate D2E/DX2                !
 ! D40   D(17,6,9,32)            1.1613         estimate D2E/DX2                !
 ! D41   D(3,7,8,9)              1.3551         estimate D2E/DX2                !
 ! D42   D(3,7,8,10)          -174.5099         estimate D2E/DX2                !
 ! D43   D(12,7,8,9)          -178.8921         estimate D2E/DX2                !
 ! D44   D(12,7,8,10)            5.2428         estimate D2E/DX2                !
 ! D45   D(3,7,12,11)          178.0768         estimate D2E/DX2                !
 ! D46   D(3,7,12,13)           -0.9621         estimate D2E/DX2                !
 ! D47   D(8,7,12,11)           -1.685          estimate D2E/DX2                !
 ! D48   D(8,7,12,13)          179.2761         estimate D2E/DX2                !
 ! D49   D(7,8,9,6)             -3.0809         estimate D2E/DX2                !
 ! D50   D(7,8,9,32)           175.3285         estimate D2E/DX2                !
 ! D51   D(10,8,9,6)           172.5381         estimate D2E/DX2                !
 ! D52   D(10,8,9,32)           -9.0525         estimate D2E/DX2                !
 ! D53   D(7,8,10,18)           -4.7549         estimate D2E/DX2                !
 ! D54   D(7,8,10,23)          174.4235         estimate D2E/DX2                !
 ! D55   D(9,8,10,18)          179.5335         estimate D2E/DX2                !
 ! D56   D(9,8,10,23)           -1.2882         estimate D2E/DX2                !
 ! D57   D(6,9,32,33)          108.4273         estimate D2E/DX2                !
 ! D58   D(6,9,32,34)          -65.0908         estimate D2E/DX2                !
 ! D59   D(8,9,32,33)          -70.0142         Frozen                          !
 ! D60   D(8,9,32,34)          116.4677         estimate D2E/DX2                !
 ! D61   D(8,10,18,11)           0.7189         estimate D2E/DX2                !
 ! D62   D(8,10,18,24)        -179.4089         estimate D2E/DX2                !
 ! D63   D(23,10,18,11)       -178.5188         estimate D2E/DX2                !
 ! D64   D(23,10,18,24)          1.3535         estimate D2E/DX2                !
 ! D65   D(18,11,12,7)          -2.3856         estimate D2E/DX2                !
 ! D66   D(18,11,12,13)        176.6833         estimate D2E/DX2                !
 ! D67   D(22,11,12,7)         178.4862         estimate D2E/DX2                !
 ! D68   D(22,11,12,13)         -2.445          estimate D2E/DX2                !
 ! D69   D(12,11,18,10)          2.8444         estimate D2E/DX2                !
 ! D70   D(12,11,18,24)       -177.0251         estimate D2E/DX2                !
 ! D71   D(22,11,18,10)       -178.0181         estimate D2E/DX2                !
 ! D72   D(22,11,18,24)          2.1124         estimate D2E/DX2                !
 ! D73   D(7,12,13,14)           0.461          estimate D2E/DX2                !
 ! D74   D(7,12,13,16)        -179.8781         estimate D2E/DX2                !
 ! D75   D(11,12,13,14)       -178.6049         estimate D2E/DX2                !
 ! D76   D(11,12,13,16)          1.056          estimate D2E/DX2                !
 ! D77   D(12,13,14,4)           0.2708         estimate D2E/DX2                !
 ! D78   D(12,13,14,15)        179.7958         estimate D2E/DX2                !
 ! D79   D(16,13,14,4)        -179.3788         estimate D2E/DX2                !
 ! D80   D(16,13,14,15)          0.1463         estimate D2E/DX2                !
 ! D81   D(10,18,24,25)        -59.609          estimate D2E/DX2                !
 ! D82   D(10,18,24,26)         59.2209         estimate D2E/DX2                !
 ! D83   D(10,18,24,27)        179.6858         estimate D2E/DX2                !
 ! D84   D(11,18,24,25)        120.2739         estimate D2E/DX2                !
 ! D85   D(11,18,24,26)       -120.8962         estimate D2E/DX2                !
 ! D86   D(11,18,24,27)         -0.4313         estimate D2E/DX2                !
 ! D87   D(1,19,28,29)         -58.1407         estimate D2E/DX2                !
 ! D88   D(1,19,28,30)          60.7668         estimate D2E/DX2                !
 ! D89   D(1,19,28,31)        -178.7139         estimate D2E/DX2                !
 ! D90   D(5,19,28,29)         121.8132         estimate D2E/DX2                !
 ! D91   D(5,19,28,30)        -119.2792         estimate D2E/DX2                !
 ! D92   D(5,19,28,31)           1.2401         estimate D2E/DX2                !
 ! D93   D(9,32,33,35)        -174.2334         estimate D2E/DX2                !
 ! D94   D(9,32,33,36)           6.3273         estimate D2E/DX2                !
 ! D95   D(34,32,33,35)         -0.2803         estimate D2E/DX2                !
 ! D96   D(34,32,33,36)       -179.7196         estimate D2E/DX2                !
 ! D97   D(9,32,34,37)         175.3911         estimate D2E/DX2                !
 ! D98   D(33,32,34,37)          0.6063         estimate D2E/DX2                !
 ! D99   D(32,33,35,37)         -0.3185         estimate D2E/DX2                !
 ! D100  D(32,33,35,38)        179.7377         estimate D2E/DX2                !
 ! D101  D(36,33,35,37)        179.1156         estimate D2E/DX2                !
 ! D102  D(36,33,35,38)         -0.8282         estimate D2E/DX2                !
 ! D103  D(32,34,37,35)         -0.7685         estimate D2E/DX2                !
 ! D104  D(32,34,37,39)        178.0032         estimate D2E/DX2                !
 ! D105  D(33,35,37,34)          0.761          estimate D2E/DX2                !
 ! D106  D(33,35,37,39)       -177.9371         estimate D2E/DX2                !
 ! D107  D(38,35,37,34)       -179.2906         estimate D2E/DX2                !
 ! D108  D(38,35,37,39)          2.0113         estimate D2E/DX2                !
 ! D109  D(33,35,38,40)          6.5641         estimate D2E/DX2                !
 ! D110  D(37,35,38,40)       -173.3774         estimate D2E/DX2                !
 ! D111  D(34,37,39,41)          2.7088         estimate D2E/DX2                !
 ! D112  D(34,37,39,42)       -177.2118         estimate D2E/DX2                !
 ! D113  D(35,37,39,41)       -178.7549         estimate D2E/DX2                !
 ! D114  D(35,37,39,42)          1.3246         estimate D2E/DX2                !
 ! D115  D(35,38,40,43)        175.475          estimate D2E/DX2                !
 ! D116  D(35,38,40,44)        -65.8719         estimate D2E/DX2                !
 ! D117  D(35,38,40,45)         56.3185         estimate D2E/DX2                !
 ! D118  D(37,39,41,46)       -179.9304         estimate D2E/DX2                !
 ! D119  D(37,39,41,47)         -0.0731         estimate D2E/DX2                !
 ! D120  D(42,39,41,46)         -0.0009         estimate D2E/DX2                !
 ! D121  D(42,39,41,47)        179.8563         estimate D2E/DX2                !
 ! D122  D(37,39,42,48)        179.943          estimate D2E/DX2                !
 ! D123  D(41,39,42,48)          0.0097         estimate D2E/DX2                !
 ! D124  D(39,41,46,48)         -0.0116         estimate D2E/DX2                !
 ! D125  D(39,41,46,49)       -179.9443         estimate D2E/DX2                !
 ! D126  D(47,41,46,48)       -179.8565         estimate D2E/DX2                !
 ! D127  D(47,41,46,49)          0.2108         estimate D2E/DX2                !
 ! D128  D(39,41,47,50)        178.3811         estimate D2E/DX2                !
 ! D129  D(46,41,47,50)         -1.7811         estimate D2E/DX2                !
 ! D130  D(39,42,48,46)         -0.0167         estimate D2E/DX2                !
 ! D131  D(39,42,48,51)        179.8735         estimate D2E/DX2                !
 ! D132  D(41,46,48,42)          0.019          estimate D2E/DX2                !
 ! D133  D(41,46,48,51)       -179.8609         estimate D2E/DX2                !
 ! D134  D(49,46,48,42)        179.9525         estimate D2E/DX2                !
 ! D135  D(49,46,48,51)          0.0726         estimate D2E/DX2                !
 ! D136  D(41,47,50,52)         61.9764         estimate D2E/DX2                !
 ! D137  D(41,47,50,53)       -179.1783         estimate D2E/DX2                !
 ! D138  D(41,47,50,54)        -60.307          estimate D2E/DX2                !
 --------------------------------------------------------------------------------
 Trust Radius=3.00D-01 FncErr=1.00D-07 GrdErr=1.00D-06 EigMax=2.50D+02 EigMin=1.00D-04
 Number of steps in this run=    307 maximum allowed number of steps=    324.
 GradGradGradGradGradGradGradGradGradGradGradGradGradGradGradGradGradGrad

 Stoichiometry    C26H18N2O6S2
 Framework group  C1[X(C26H18N2O6S2)]
 Deg. of freedom   156
 Full point group                 C1      NOp   1
 Largest Abelian subgroup         C1      NOp   1
 Largest concise Abelian subgroup C1      NOp   1
                         Standard orientation:                         
 ---------------------------------------------------------------------
 Center     Atomic      Atomic             Coordinates (Angstroms)
 Number     Number       Type             X           Y           Z
 ---------------------------------------------------------------------
      1          6           0        2.848803   -2.907111    0.564741
      2          6           0        2.410973   -1.503797    0.343098
      3          6           0        3.358447   -0.489855    0.068931
      4          6           0        4.735021   -0.798281    0.000893
      5          6           0        5.208282   -2.190618    0.222998
      6          6           0        1.077292   -1.193978    0.430556
      7          6           0        2.893753    0.839202   -0.146599
      8          6           0        1.499652    1.153762   -0.066346
      9          6           0        0.567628    0.131435    0.261215
     10          6           0        1.090193    2.538067   -0.428074
     11          6           0        3.476099    3.222491   -0.727176
     12          6           0        3.870306    1.825242   -0.446897
     13          6           0        5.220399    1.504988   -0.506058
     14          6           0        5.661285    0.195511   -0.280488
     15          1           0        6.711761   -0.065528   -0.327481
     16          1           0        5.919889    2.300514   -0.737935
     17          1           0        0.398676   -1.999859    0.684320
     18          7           0        2.102381    3.471969   -0.724659
     19          7           0        4.224339   -3.157633    0.490777
     20          8           0        2.067133   -3.817666    0.801473
     21          8           0        6.392388   -2.487911    0.174646
     22          8           0        4.291184    4.105696   -0.963301
     23          8           0       -0.070155    2.922284   -0.500787
     24          6           0        1.643271    4.824172   -1.061441
     25          1           0        0.993692    4.787607   -1.937267
     26          1           0        1.068972    5.240002   -0.229597
     27          1           0        2.523904    5.429282   -1.258546
     28          6           0        4.645053   -4.545165    0.715057
     29          1           0        4.308057   -4.877330    1.699270
     30          1           0        4.195353   -5.194543   -0.038371
     31          1           0        5.729281   -4.577268    0.649339
     32          6           0       -0.871045    0.273849    0.481767
     33          6           0       -1.573003    0.870806    1.510956
     34         16           0       -1.983531   -0.543025   -0.616043
     35          6           0       -2.967019    0.686687    1.423088
     36          1           0       -1.093206    1.430748    2.297629
     37          6           0       -3.382537   -0.056225    0.312874
     38          8           0       -3.901492    1.153873    2.292716
     39          6           0       -4.727852   -0.377318   -0.074481
     40          6           0       -3.457329    2.025376    3.328535
     41          6           0       -5.139472   -1.137197   -1.167063
     42         16           0       -6.141830    0.172003    0.820304
     43          1           0       -4.356234    2.346568    3.856036
     44          1           0       -2.793651    1.503788    4.028089
     45          1           0       -2.937997    2.899435    2.916865
     46          6           0       -6.551694   -1.274857   -1.282933
     47          8           0       -4.203429   -1.661943   -2.001685
     48          6           0       -7.213086   -0.620458   -0.279235
     49          1           0       -7.050765   -1.829207   -2.066259
     50          6           0       -4.652647   -2.462850   -3.088968
     51          1           0       -8.281380   -0.561925   -0.123781
     52          1           0       -5.285314   -1.884866   -3.774968
     53          1           0       -3.755066   -2.789022   -3.613085
     54          1           0       -5.206891   -3.340296   -2.733465
 ---------------------------------------------------------------------
 Rotational constants (GHZ):           0.1557757           0.0557499           0.0463277
 Standard basis: 6-311+G(d,p) (5D, 7F)
 There are   952 symmetry adapted cartesian basis functions of A   symmetry.
 There are   916 symmetry adapted basis functions of A   symmetry.
   916 basis functions,  1468 primitive gaussians,   952 cartesian basis functions
   134 alpha electrons      134 beta electrons
       nuclear repulsion energy      4075.4525383420 Hartrees.
 NAtoms=   54 NActive=   54 NUniq=   54 SFac= 1.00D+00 NAtFMM=   60 NAOKFM=F Big=F
 Integral buffers will be    131072 words long.
 Raffenetti 2 integral format.
 Two-electron integral symmetry is turned on.
 One-electron integrals computed using PRISM.
 NBasis=   916 RedAO= T EigKep=  1.07D-06  NBF=   916
 NBsUse=   902 1.00D-06 EigRej=  6.62D-07 NBFU=   902
 ExpMin= 4.05D-02 ExpMax= 9.34D+04 ExpMxC= 3.17D+03 IAcc=3 IRadAn=         5 AccDes= 0.00D+00
 Harris functional with IExCor=  402 and IRadAn=       5 diagonalized for initial guess.
 HarFok:  IExCor=  402 AccDes= 0.00D+00 IRadAn=         5 IDoV= 1 UseB2=F ITyADJ=14
 ICtDFT=  3500011 ScaDFX=  1.000000  1.000000  1.000000  1.000000
 FoFCou: FMM=F IPFlag=           0 FMFlag=      100000 FMFlg1=           0
         NFxFlg=           0 DoJE=T BraDBF=F KetDBF=T FulRan=T
         wScrn=  0.000000 ICntrl=       500 IOpCl=  0 I1Cent=   200000004 NGrid=           0
         NMat0=    1 NMatS0=      1 NMatT0=    0 NMatD0=    1 NMtDS0=    0 NMtDT0=    0
 Petite list used in FoFCou.
 Requested convergence on RMS density matrix=1.00D-08 within 128 cycles.
 Requested convergence on MAX density matrix=1.00D-06.
 Requested convergence on             energy=1.00D-06.
 No special actions if energy rises.
 SCF Done:  E(RB3LYP) =  -2359.33298888     A.U. after   19 cycles
            NFock= 19  Conv=0.25D-08     -V/T= 2.0032

 **********************************************************************

            Population analysis using the SCF Density.

 **********************************************************************

 Orbital symmetries:
       Occupied  (A) (A) (A) (A) (A) (A) (A) (A) (A) (A) (A) (A)
                 (A) (A) (A) (A) (A) (A) (A) (A) (A) (A) (A) (A)
                 (A) (A) (A) (A) (A) (A) (A) (A) (A) (A) (A) (A)
                 (A) (A) (A) (A) (A) (A) (A) (A) (A) (A) (A) (A)
                 (A) (A) (A) (A) (A) (A) (A) (A) (A) (A) (A) (A)
                 (A) (A) (A) (A) (A) (A) (A) (A) (A) (A) (A) (A)
                 (A) (A) (A) (A) (A) (A) (A) (A) (A) (A) (A) (A)
                 (A) (A) (A) (A) (A) (A) (A) (A) (A) (A) (A) (A)
                 (A) (A) (A) (A) (A) (A) (A) (A) (A) (A) (A) (A)
                 (A) (A) (A) (A) (A) (A) (A) (A) (A) (A) (A) (A)
                 (A) (A) (A) (A) (A) (A) (A) (A) (A) (A) (A) (A)
                 (A) (A)
       Virtual   (A) (A) (A) (A) (A) (A) (A) (A) (A) (A) (A) (A)
                 (A) (A) (A) (A) (A) (A) (A) (A) (A) (A) (A) (A)
                 (A) (A) (A) (A) (A) (A) (A) (A) (A) (A) (A) (A)
                 (A) (A) (A) (A) (A) (A) (A) (A) (A) (A) (A) (A)
                 (A) (A) (A) (A) (A) (A) (A) (A) (A) (A) (A) (A)
                 (A) (A) (A) (A) (A) (A) (A) (A) (A) (A) (A) (A)
                 (A) (A) (A) (A) (A) (A) (A) (A) (A) (A) (A) (A)
                 (A) (A) (A) (A) (A) (A) (A) (A) (A) (A) (A) (A)
                 (A) (A) (A) (A) (A) (A) (A) (A) (A) (A) (A) (A)
                 (A) (A) (A) (A) (A) (A) (A) (A) (A) (A) (A) (A)
                 (A) (A) (A) (A) (A) (A) (A) (A) (A) (A) (A) (A)
                 (A) (A) (A) (A) (A) (A) (A) (A) (A) (A) (A) (A)
                 (A) (A) (A) (A) (A) (A) (A) (A) (A) (A) (A) (A)
                 (A) (A) (A) (A) (A) (A) (A) (A) (A) (A) (A) (A)
                 (A) (A) (A) (A) (A) (A) (A) (A) (A) (A) (A) (A)
                 (A) (A) (A) (A) (A) (A) (A) (A) (A) (A) (A) (A)
                 (A) (A) (A) (A) (A) (A) (A) (A) (A) (A) (A) (A)
                 (A) (A) (A) (A) (A) (A) (A) (A) (A) (A) (A) (A)
                 (A) (A) (A) (A) (A) (A) (A) (A) (A) (A) (A) (A)
                 (A) (A) (A) (A) (A) (A) (A) (A) (A) (A) (A) (A)
                 (A) (A) (A) (A) (A) (A) (A) (A) (A) (A) (A) (A)
                 (A) (A) (A) (A) (A) (A) (A) (A) (A) (A) (A) (A)
                 (A) (A) (A) (A) (A) (A) (A) (A) (A) (A) (A) (A)
                 (A) (A) (A) (A) (A) (A) (A) (A) (A) (A) (A) (A)
                 (A) (A) (A) (A) (A) (A) (A) (A) (A) (A) (A) (A)
                 (A) (A) (A) (A) (A) (A) (A) (A) (A) (A) (A) (A)
                 (A) (A) (A) (A) (A) (A) (A) (A) (A) (A) (A) (A)
                 (A) (A) (A) (A) (A) (A) (A) (A) (A) (A) (A) (A)
                 (A) (A) (A) (A) (A) (A) (A) (A) (A) (A) (A) (A)
                 (A) (A) (A) (A) (A) (A) (A) (A) (A) (A) (A) (A)
                 (A) (A) (A) (A) (A) (A) (A) (A) (A) (A) (A) (A)
                 (A) (A) (A) (A) (A) (A) (A) (A) (A) (A) (A) (A)
                 (A) (A) (A) (A) (A) (A) (A) (A) (A) (A) (A) (A)
                 (A) (A) (A) (A) (A) (A) (A) (A) (A) (A) (A) (A)
                 (A) (A) (A) (A) (A) (A) (A) (A) (A) (A) (A) (A)
                 (A) (A) (A) (A) (A) (A) (A) (A) (A) (A) (A) (A)
                 (A) (A) (A) (A) (A) (A) (A) (A) (A) (A) (A) (A)
                 (A) (A) (A) (A) (A) (A) (A) (A) (A) (A) (A) (A)
                 (A) (A) (A) (A) (A) (A) (A) (A) (A) (A) (A) (A)
                 (A) (A) (A) (A) (A) (A) (A) (A) (A) (A) (A) (A)
                 (A) (A) (A) (A) (A) (A) (A) (A) (A) (A) (A) (A)
                 (A) (A) (A) (A) (A) (A) (A) (A) (A) (A) (A) (A)
                 (A) (A) (A) (A) (A) (A) (A) (A) (A) (A) (A) (A)
                 (A) (A) (A) (A) (A) (A) (A) (A) (A) (A) (A) (A)
                 (A) (A) (A) (A) (A) (A) (A) (A) (A) (A) (A) (A)
                 (A) (A) (A) (A) (A) (A) (A) (A) (A) (A) (A) (A)
                 (A) (A) (A) (A) (A) (A) (A) (A) (A) (A) (A) (A)
                 (A) (A) (A) (A) (A) (A) (A) (A) (A) (A) (A) (A)
                 (A) (A) (A) (A) (A) (A) (A) (A) (A) (A) (A) (A)
                 (A) (A) (A) (A) (A) (A) (A) (A) (A) (A) (A) (A)
                 (A) (A) (A) (A) (A) (A) (A) (A) (A) (A) (A) (A)
                 (A) (A) (A) (A) (A) (A) (A) (A) (A) (A) (A) (A)
                 (A) (A) (A) (A) (A) (A) (A) (A) (A) (A) (A) (A)
                 (A) (A) (A) (A) (A) (A) (A) (A) (A) (A) (A) (A)
                 (A) (A) (A) (A) (A) (A) (A) (A) (A) (A) (A) (A)
                 (A) (A) (A) (A) (A) (A) (A) (A) (A) (A) (A) (A)
                 (A) (A) (A) (A) (A) (A) (A) (A) (A) (A) (A) (A)
                 (A) (A) (A) (A) (A) (A) (A) (A) (A) (A) (A) (A)
                 (A) (A) (A) (A) (A) (A) (A) (A) (A) (A) (A) (A)
                 (A) (A) (A) (A) (A) (A) (A) (A) (A) (A) (A) (A)
                 (A) (A) (A) (A) (A) (A) (A) (A) (A) (A) (A) (A)
                 (A) (A) (A) (A) (A) (A) (A) (A) (A) (A) (A) (A)
                 (A) (A) (A) (A) (A) (A) (A) (A) (A) (A) (A) (A)
                 (A) (A) (A) (A) (A) (A) (A) (A) (A) (A) (A) (A)
 The electronic state is 1-A.
 Alpha  occ. eigenvalues --  -88.88170 -88.87956 -19.16788 -19.16674 -19.12679
 Alpha  occ. eigenvalues --  -19.12593 -19.12112 -19.11999 -14.38889 -14.38400
 Alpha  occ. eigenvalues --  -10.31356 -10.31134 -10.30916 -10.30729 -10.24281
 Alpha  occ. eigenvalues --  -10.24213 -10.24209 -10.23665 -10.23551 -10.23508
 Alpha  occ. eigenvalues --  -10.23409 -10.23054 -10.22696 -10.22562 -10.22535
 Alpha  occ. eigenvalues --  -10.21992 -10.21678 -10.21656 -10.21600 -10.21518
 Alpha  occ. eigenvalues --  -10.21307 -10.21180 -10.20760 -10.20525 -10.18854
 Alpha  occ. eigenvalues --  -10.18587  -7.96695  -7.96499  -5.93018  -5.92809
 Alpha  occ. eigenvalues --   -5.92627  -5.92422  -5.92241  -5.92066  -1.08650
 Alpha  occ. eigenvalues --   -1.08345  -1.08231  -1.08185  -1.06762  -1.06196
 Alpha  occ. eigenvalues --   -0.96438  -0.95834  -0.92649  -0.89928  -0.88401
 Alpha  occ. eigenvalues --   -0.86702  -0.84551  -0.80506  -0.78732  -0.77448
 Alpha  occ. eigenvalues --   -0.76132  -0.75392  -0.74973  -0.72974  -0.72537
 Alpha  occ. eigenvalues --   -0.72009  -0.70104  -0.68807  -0.67331  -0.66065
 Alpha  occ. eigenvalues --   -0.65683  -0.64837  -0.60976  -0.59700  -0.58702
 Alpha  occ. eigenvalues --   -0.57561  -0.56731  -0.56015  -0.55484  -0.54489
 Alpha  occ. eigenvalues --   -0.53696  -0.51883  -0.50354  -0.49991  -0.49838
 Alpha  occ. eigenvalues --   -0.49457  -0.48830  -0.48683  -0.48437  -0.48163
 Alpha  occ. eigenvalues --   -0.47946  -0.47342  -0.46708  -0.46422  -0.45751
 Alpha  occ. eigenvalues --   -0.45306  -0.45001  -0.44663  -0.44414  -0.44027
 Alpha  occ. eigenvalues --   -0.42707  -0.42604  -0.42233  -0.42022  -0.41736
 Alpha  occ. eigenvalues --   -0.41302  -0.41263  -0.41221  -0.40603  -0.39879
 Alpha  occ. eigenvalues --   -0.39560  -0.39029  -0.38548  -0.37785  -0.37385
 Alpha  occ. eigenvalues --   -0.36195  -0.35498  -0.34076  -0.33647  -0.33522
 Alpha  occ. eigenvalues --   -0.33172  -0.32361  -0.31135  -0.30340  -0.29845
 Alpha  occ. eigenvalues --   -0.29290  -0.29075  -0.28803  -0.28269  -0.27385
 Alpha  occ. eigenvalues --   -0.26416  -0.24629  -0.24299  -0.18985
 Alpha virt. eigenvalues --   -0.13492  -0.07293  -0.06330  -0.05037  -0.04650
 Alpha virt. eigenvalues --   -0.01007  -0.00408  -0.00257   0.00057   0.00546
 Alpha virt. eigenvalues --    0.00646   0.00922   0.00947   0.01210   0.01818
 Alpha virt. eigenvalues --    0.01959   0.02181   0.02456   0.02982   0.03129
 Alpha virt. eigenvalues --    0.03587   0.03648   0.04092   0.04251   0.04443
 Alpha virt. eigenvalues --    0.04589   0.04855   0.05070   0.05620   0.05808
 Alpha virt. eigenvalues --    0.06082   0.06116   0.06225   0.06389   0.06564
 Alpha virt. eigenvalues --    0.07137   0.07630   0.07751   0.07793   0.07955
 Alpha virt. eigenvalues --    0.08563   0.08713   0.08841   0.09085   0.09258
 Alpha virt. eigenvalues --    0.09445   0.09640   0.09895   0.10217   0.10469
 Alpha virt. eigenvalues --    0.10796   0.11337   0.11410   0.11557   0.12079
 Alpha virt. eigenvalues --    0.12255   0.12451   0.12640   0.13079   0.13271
 Alpha virt. eigenvalues --    0.13466   0.13709   0.13803   0.14294   0.14346
 Alpha virt. eigenvalues --    0.14526   0.14746   0.14918   0.14993   0.15220
 Alpha virt. eigenvalues --    0.15460   0.15586   0.15681   0.16005   0.16241
 Alpha virt. eigenvalues --    0.16400   0.16641   0.16956   0.17467   0.17544
 Alpha virt. eigenvalues --    0.17777   0.17863   0.18177   0.18307   0.18438
 Alpha virt. eigenvalues --    0.18707   0.19100   0.19187   0.19403   0.19450
 Alpha virt. eigenvalues --    0.19662   0.19865   0.19990   0.20354   0.20389
 Alpha virt. eigenvalues --    0.20506   0.20579   0.20790   0.20833   0.21100
 Alpha virt. eigenvalues --    0.21465   0.21524   0.21765   0.21873   0.22345
 Alpha virt. eigenvalues --    0.22518   0.22636   0.22868   0.23056   0.23254
 Alpha virt. eigenvalues --    0.23483   0.23560   0.23714   0.23905   0.24208
 Alpha virt. eigenvalues --    0.24357   0.24802   0.24855   0.25008   0.25221
 Alpha virt. eigenvalues --    0.25485   0.25731   0.25824   0.26136   0.26184
 Alpha virt. eigenvalues --    0.26284   0.26373   0.26660   0.26761   0.27186
 Alpha virt. eigenvalues --    0.27565   0.27995   0.28070   0.28160   0.28185
 Alpha virt. eigenvalues --    0.28493   0.28608   0.28943   0.29001   0.29109
 Alpha virt. eigenvalues --    0.29436   0.29520   0.29980   0.30252   0.30439
 Alpha virt. eigenvalues --    0.30705   0.30746   0.31214   0.31481   0.31493
 Alpha virt. eigenvalues --    0.31614   0.32015   0.32365   0.32724   0.32814
 Alpha virt. eigenvalues --    0.32859   0.33299   0.33670   0.33751   0.34113
 Alpha virt. eigenvalues --    0.34388   0.34811   0.35215   0.35545   0.35626
 Alpha virt. eigenvalues --    0.35993   0.36246   0.36420   0.37266   0.37622
 Alpha virt. eigenvalues --    0.37993   0.38378   0.38729   0.38928   0.38992
 Alpha virt. eigenvalues --    0.39396   0.40158   0.40343   0.40971   0.41148
 Alpha virt. eigenvalues --    0.41784   0.41870   0.42492   0.42721   0.43319
 Alpha virt. eigenvalues --    0.43842   0.44179   0.44531   0.44735   0.45205
 Alpha virt. eigenvalues --    0.45474   0.45853   0.45927   0.46048   0.46305
 Alpha virt. eigenvalues --    0.46485   0.47064   0.47347   0.47928   0.48970
 Alpha virt. eigenvalues --    0.49539   0.49764   0.49985   0.50257   0.51121
 Alpha virt. eigenvalues --    0.51272   0.51464   0.52155   0.52947   0.53402
 Alpha virt. eigenvalues --    0.53958   0.54261   0.55128   0.55140   0.55868
 Alpha virt. eigenvalues --    0.56031   0.56162   0.56575   0.56851   0.56917
 Alpha virt. eigenvalues --    0.57199   0.58096   0.58308   0.58702   0.59377
 Alpha virt. eigenvalues --    0.59966   0.60019   0.60646   0.60747   0.61098
 Alpha virt. eigenvalues --    0.61374   0.61888   0.62105   0.62367   0.63073
 Alpha virt. eigenvalues --    0.63332   0.63822   0.64140   0.64395   0.64803
 Alpha virt. eigenvalues --    0.64946   0.65285   0.65678   0.66379   0.66514
 Alpha virt. eigenvalues --    0.66982   0.67016   0.67373   0.67920   0.68309
 Alpha virt. eigenvalues --    0.68963   0.69007   0.69132   0.69643   0.70085
 Alpha virt. eigenvalues --    0.70698   0.71144   0.71216   0.71665   0.71878
 Alpha virt. eigenvalues --    0.72245   0.72679   0.73286   0.73668   0.73863
 Alpha virt. eigenvalues --    0.74209   0.74454   0.74741   0.74901   0.75389
 Alpha virt. eigenvalues --    0.75615   0.75772   0.76208   0.76490   0.76989
 Alpha virt. eigenvalues --    0.77119   0.77450   0.78046   0.78817   0.79002
 Alpha virt. eigenvalues --    0.79133   0.79260   0.80117   0.80525   0.81224
 Alpha virt. eigenvalues --    0.81332   0.83242   0.83439   0.83832   0.84565
 Alpha virt. eigenvalues --    0.86235   0.86384   0.86907   0.87306   0.87770
 Alpha virt. eigenvalues --    0.88377   0.89034   0.89453   0.89693   0.89990
 Alpha virt. eigenvalues --    0.91049   0.91440   0.91551   0.92156   0.92566
 Alpha virt. eigenvalues --    0.93217   0.93681   0.93817   0.94785   0.95323
 Alpha virt. eigenvalues --    0.95704   0.95771   0.96180   0.96650   0.96697
 Alpha virt. eigenvalues --    0.97447   0.97875   0.98475   0.99330   0.99803
 Alpha virt. eigenvalues --    1.00376   1.00850   1.01383   1.01440   1.01878
 Alpha virt. eigenvalues --    1.02075   1.02722   1.03412   1.03680   1.04287
 Alpha virt. eigenvalues --    1.04500   1.04943   1.05084   1.05292   1.05767
 Alpha virt. eigenvalues --    1.06366   1.06702   1.07035   1.07354   1.07801
 Alpha virt. eigenvalues --    1.08222   1.09238   1.09774   1.10143   1.10267
 Alpha virt. eigenvalues --    1.11140   1.11359   1.12045   1.12627   1.13758
 Alpha virt. eigenvalues --    1.14540   1.15458   1.15809   1.16661   1.17518
 Alpha virt. eigenvalues --    1.18046   1.18151   1.18987   1.19178   1.19487
 Alpha virt. eigenvalues --    1.21053   1.22140   1.22831   1.24520   1.24619
 Alpha virt. eigenvalues --    1.25277   1.25792   1.26126   1.26598   1.26615
 Alpha virt. eigenvalues --    1.27089   1.27642   1.29030   1.29324   1.31161
 Alpha virt. eigenvalues --    1.31815   1.31947   1.32748   1.33512   1.34423
 Alpha virt. eigenvalues --    1.35085   1.35575   1.36580   1.37408   1.38024
 Alpha virt. eigenvalues --    1.39490   1.40252   1.40673   1.41892   1.42261
 Alpha virt. eigenvalues --    1.42334   1.42707   1.42947   1.43392   1.43870
 Alpha virt. eigenvalues --    1.44285   1.44703   1.45078   1.45229   1.45633
 Alpha virt. eigenvalues --    1.45858   1.45965   1.47239   1.47619   1.47949
 Alpha virt. eigenvalues --    1.49542   1.50418   1.50765   1.51322   1.51762
 Alpha virt. eigenvalues --    1.52283   1.53028   1.53620   1.53856   1.54368
 Alpha virt. eigenvalues --    1.54694   1.54870   1.55266   1.55696   1.56363
 Alpha virt. eigenvalues --    1.56850   1.58183   1.58959   1.59917   1.60884
 Alpha virt. eigenvalues --    1.61613   1.61895   1.62683   1.63173   1.63761
 Alpha virt. eigenvalues --    1.64227   1.65296   1.65693   1.66200   1.66584
 Alpha virt. eigenvalues --    1.67125   1.68084   1.68527   1.68927   1.69467
 Alpha virt. eigenvalues --    1.69800   1.70005   1.70623   1.70816   1.71294
 Alpha virt. eigenvalues --    1.71529   1.72635   1.73709   1.74558   1.74650
 Alpha virt. eigenvalues --    1.75305   1.76331   1.76598   1.77441   1.77891
 Alpha virt. eigenvalues --    1.79054   1.79384   1.79828   1.80517   1.80759
 Alpha virt. eigenvalues --    1.82224   1.83093   1.83954   1.85099   1.86032
 Alpha virt. eigenvalues --    1.86223   1.86384   1.86631   1.87107   1.87829
 Alpha virt. eigenvalues --    1.88571   1.89737   1.89883   1.90025   1.90422
 Alpha virt. eigenvalues --    1.91450   1.91635   1.92310   1.93937   1.94759
 Alpha virt. eigenvalues --    1.95023   1.95232   1.96631   1.97545   1.97784
 Alpha virt. eigenvalues --    1.98601   1.99840   2.00538   2.01041   2.01491
 Alpha virt. eigenvalues --    2.01795   2.02800   2.03497   2.03562   2.04076
 Alpha virt. eigenvalues --    2.04894   2.05808   2.05895   2.06317   2.06853
 Alpha virt. eigenvalues --    2.07500   2.08602   2.08929   2.10616   2.11072
 Alpha virt. eigenvalues --    2.11606   2.12213   2.12775   2.14154   2.14667
 Alpha virt. eigenvalues --    2.15259   2.15785   2.16098   2.16516   2.17977
 Alpha virt. eigenvalues --    2.18819   2.19440   2.19674   2.20963   2.21588
 Alpha virt. eigenvalues --    2.22456   2.22776   2.25731   2.25928   2.26391
 Alpha virt. eigenvalues --    2.27653   2.31464   2.32049   2.32847   2.34409
 Alpha virt. eigenvalues --    2.36575   2.37432   2.39049   2.39398   2.41385
 Alpha virt. eigenvalues --    2.42661   2.43418   2.43758   2.44317   2.45240
 Alpha virt. eigenvalues --    2.45840   2.46270   2.46790   2.48117   2.48273
 Alpha virt. eigenvalues --    2.49534   2.50152   2.51430   2.51915   2.52289
 Alpha virt. eigenvalues --    2.52633   2.52857   2.53106   2.53787   2.54469
 Alpha virt. eigenvalues --    2.55567   2.56130   2.57981   2.58566   2.58884
 Alpha virt. eigenvalues --    2.59783   2.62131   2.63165   2.63668   2.64707
 Alpha virt. eigenvalues --    2.65792   2.66890   2.67344   2.67819   2.68290
 Alpha virt. eigenvalues --    2.68409   2.69012   2.69969   2.70248   2.70635
 Alpha virt. eigenvalues --    2.71044   2.71983   2.72511   2.72906   2.74419
 Alpha virt. eigenvalues --    2.75343   2.75892   2.77583   2.78086   2.78575
 Alpha virt. eigenvalues --    2.80622   2.82326   2.82460   2.83541   2.83784
 Alpha virt. eigenvalues --    2.84035   2.84217   2.84677   2.85828   2.86193
 Alpha virt. eigenvalues --    2.86452   2.87154   2.88261   2.88754   2.89219
 Alpha virt. eigenvalues --    2.90286   2.91566   2.91952   2.92780   2.93684
 Alpha virt. eigenvalues --    2.94283   2.94857   2.96192   2.96835   2.98365
 Alpha virt. eigenvalues --    2.99110   3.00296   3.01580   3.03600   3.04487
 Alpha virt. eigenvalues --    3.04870   3.05384   3.06451   3.08345   3.08610
 Alpha virt. eigenvalues --    3.09995   3.11271   3.12639   3.13837   3.14831
 Alpha virt. eigenvalues --    3.14979   3.16569   3.17193   3.19134   3.19849
 Alpha virt. eigenvalues --    3.21270   3.23612   3.23700   3.23950   3.24554
 Alpha virt. eigenvalues --    3.26344   3.28192   3.28862   3.30826   3.32028
 Alpha virt. eigenvalues --    3.33700   3.34186   3.34369   3.34566   3.35711
 Alpha virt. eigenvalues --    3.37005   3.37843   3.39044   3.41447   3.41912
 Alpha virt. eigenvalues --    3.43054   3.44094   3.45346   3.46127   3.48391
 Alpha virt. eigenvalues --    3.49115   3.50431   3.53351   3.56025   3.57348
 Alpha virt. eigenvalues --    3.59387   3.59972   3.61741   3.64825   3.65392
 Alpha virt. eigenvalues --    3.66596   3.68890   3.70743   3.71947   3.72646
 Alpha virt. eigenvalues --    3.75780   3.76088   3.76391   3.81347   3.82249
 Alpha virt. eigenvalues --    3.84444   3.85196   3.86241   3.90100   3.91895
 Alpha virt. eigenvalues --    3.92618   3.93094   3.94122   3.96898   4.01155
 Alpha virt. eigenvalues --    4.03240   4.04369   4.08367   4.10659   4.12349
 Alpha virt. eigenvalues --    4.14117   4.18536   4.23332   4.24974   4.27171
 Alpha virt. eigenvalues --    4.34933   4.37880   4.39692   4.50307   4.66573
 Alpha virt. eigenvalues --    4.83653   4.86188   4.86948   4.90112   5.01831
 Alpha virt. eigenvalues --    5.03019   5.03628   5.05064   5.05398   5.08050
 Alpha virt. eigenvalues --    5.10946   5.12543   5.24722   5.26513   5.28521
 Alpha virt. eigenvalues --    5.30593   5.42629   5.44179   5.75283   5.76756
 Alpha virt. eigenvalues --    5.79748   5.80384   5.81703   5.85128   8.02546
 Alpha virt. eigenvalues --    8.05189  17.29447  17.33870  17.49826  17.52900
 Alpha virt. eigenvalues --   17.57275  17.63123  23.48855  23.56568  23.72276
 Alpha virt. eigenvalues --   23.78880  23.81993  23.82491  23.83443  23.86155
 Alpha virt. eigenvalues --   23.86519  23.87674  23.89329  23.90139  23.91082
 Alpha virt. eigenvalues --   23.92675  23.94400  23.95249  23.95774  23.97674
 Alpha virt. eigenvalues --   23.99789  24.02180  24.03027  24.04371  24.12161
 Alpha virt. eigenvalues --   24.13027  24.13459  24.14766  35.55626  35.58485
 Alpha virt. eigenvalues --   49.96283  49.97616  50.01592  50.03351  50.05385
 Alpha virt. eigenvalues --   50.06967 189.19739 189.23108
          Condensed to atoms (all electrons):
 Mulliken charges:
               1
     1  C    0.353625
     2  C   -0.054059
     3  C    0.107959
     4  C    0.203888
     5  C    0.224090
     6  C   -0.717295
     7  C    0.216434
     8  C    0.229113
     9  C    0.670920
    10  C   -0.482332
    11  C    0.319542
    12  C    0.117421
    13  C   -0.520935
    14  C   -0.616682
    15  H    0.161760
    16  H    0.164124
    17  H    0.177201
    18  N   -0.145892
    19  N   -0.139782
    20  O   -0.274244
    21  O   -0.269762
    22  O   -0.278135
    23  O   -0.132680
    24  C   -0.194670
    25  H    0.178567
    26  H    0.173885
    27  H    0.183499
    28  C   -0.196375
    29  H    0.175071
    30  H    0.175455
    31  H    0.183125
    32  C    0.123911
    33  C   -0.387296
    34  S   -0.391436
    35  C   -0.349790
    36  H    0.117065
    37  C    0.553328
    38  O   -0.119224
    39  C    0.887359
    40  C   -0.237838
    41  C    0.018711
    42  S   -0.249428
    43  H    0.165593
    44  H    0.144868
    45  H    0.154879
    46  C   -0.500113
    47  O   -0.134392
    48  C   -0.293496
    49  H    0.130670
    50  C   -0.239369
    51  H    0.159131
    52  H    0.144729
    53  H    0.164907
    54  H    0.144394
 Sum of Mulliken charges =  -0.00000
 Mulliken charges with hydrogens summed into heavy atoms:
               1
     1  C    0.353625
     2  C   -0.054059
     3  C    0.107959
     4  C    0.203888
     5  C    0.224090
     6  C   -0.540094
     7  C    0.216434
     8  C    0.229113
     9  C    0.670920
    10  C   -0.482332
    11  C    0.319542
    12  C    0.117421
    13  C   -0.356811
    14  C   -0.454922
    18  N   -0.145892
    19  N   -0.139782
    20  O   -0.274244
    21  O   -0.269762
    22  O   -0.278135
    23  O   -0.132680
    24  C    0.341280
    28  C    0.337276
    32  C    0.123911
    33  C   -0.270230
    34  S   -0.391436
    35  C   -0.349790
    37  C    0.553328
    38  O   -0.119224
    39  C    0.887359
    40  C    0.227501
    41  C    0.018711
    42  S   -0.249428
    46  C   -0.369443
    47  O   -0.134392
    48  C   -0.134365
    50  C    0.214662
 Electronic spatial extent (au):  <R**2>=          22421.7928
 Charge=              0.0000 electrons
 Dipole moment (field-independent basis, Debye):
    X=             -2.7819    Y=             -0.3849    Z=              0.1658  Tot=              2.8133
 Quadrupole moment (field-independent basis, Debye-Ang):
   XX=           -219.7684   YY=           -225.9125   ZZ=           -204.9247
   XY=              1.6950   XZ=              7.8637   YZ=             16.3263
 Traceless Quadrupole moment (field-independent basis, Debye-Ang):
   XX=             -2.8999   YY=             -9.0439   ZZ=             11.9439
   XY=              1.6950   XZ=              7.8637   YZ=             16.3263
 Octapole moment (field-independent basis, Debye-Ang**2):
  XXX=           -318.4370  YYY=            -17.5332  ZZZ=              3.2084  XYY=            -60.7261
  XXY=            -60.1233  XXZ=            -41.4466  XZZ=            -59.0587  YZZ=             -0.2523
  YYZ=             -3.8301  XYZ=            -52.6033
 Hexadecapole moment (field-independent basis, Debye-Ang**3):
 XXXX=         -21240.5217 YYYY=          -6616.8464 ZZZZ=          -1885.9465 XXXY=            454.4140
 XXXZ=            324.9080 YYYX=           -407.2066 YYYZ=            104.8764 ZZZX=             37.1686
 ZZZY=            143.5300 XXYY=          -4930.3930 XXZZ=          -3732.4204 YYZZ=          -1339.5757
 XXYZ=            312.8579 YYXZ=            124.5614 ZZXY=             -8.0959
 N-N= 4.075452538342D+03 E-N=-1.369068857574D+04  KE= 2.351788712365D+03
 Calling FoFJK, ICntrl=      2127 FMM=F ISym2X=0 I1Cent= 0 IOpClX= 0 NMat=1 NMatS=1 NMatT=0.
 ***** Axes restored to original set *****
 -------------------------------------------------------------------
 Center     Atomic                   Forces (Hartrees/Bohr)
 Number     Number              X              Y              Z
 -------------------------------------------------------------------
      1        6           0.004862263   -0.006074469   -0.000955919
      2        6          -0.002530977    0.001116090   -0.000097758
      3        6           0.003002534   -0.000901093   -0.000219215
      4        6          -0.001906742    0.001860655    0.000429529
      5        6          -0.005729499   -0.003027080   -0.000253818
      6        6           0.004010496    0.003202069    0.000667478
      7        6          -0.001591877   -0.000632200   -0.000008009
      8        6           0.003648237   -0.007978519   -0.001345723
      9        6          -0.018128388   -0.001953139   -0.000844134
     10        6           0.012784954    0.009122285    0.000834012
     11        6          -0.003253531    0.007147068    0.000996443
     12        6          -0.001626160   -0.001383477   -0.000098928
     13        6           0.001272175    0.000784462    0.000080438
     14        6           0.002498998   -0.001543186   -0.000267082
     15        1           0.000578094    0.000650830    0.000047219
     16        1           0.000622647   -0.001078501   -0.000172140
     17        1           0.001453019    0.001853224    0.001099191
     18        7          -0.001968576   -0.001789563   -0.000623881
     19        7           0.000293703    0.001846236    0.000196771
     20        8          -0.006678559    0.006967207    0.000948489
     21        8           0.007412946    0.002556394    0.000177961
     22        8           0.006339518   -0.006703570   -0.001019971
     23        8          -0.007320786   -0.009990511   -0.003151267
     24        6           0.000983443    0.002602621   -0.000464760
     25        1          -0.000580360   -0.000069457   -0.000484301
     26        1          -0.001175615   -0.000637941    0.001220619
     27        1           0.001032510    0.000022660    0.000076190
     28        6          -0.000534327   -0.002131650   -0.000682766
     29        1          -0.000680052    0.000409616    0.001018236
     30        1          -0.000458866    0.000429796   -0.000521000
     31        1           0.000963454   -0.000389547   -0.000009299
     32        6           0.016817048    0.004528249    0.002809087
     33        6          -0.010893078    0.000479642    0.005005667
     34       16          -0.006395777    0.000336262   -0.004190006
     35        6           0.004559505   -0.004316273    0.009074336
     36        1          -0.001665345    0.000121000   -0.001018752
     37        6          -0.001488707    0.003773717   -0.007147724
     38        8          -0.001198797    0.001249025   -0.001932003
     39        6           0.002288348   -0.001586588    0.002768699
     40        6           0.000556995    0.001078010   -0.001164635
     41        6           0.000723796    0.002064844   -0.003285902
     42       16           0.000062614   -0.001005019    0.001841182
     43        1          -0.001212557   -0.000344360    0.000557190
     44        1           0.000637693    0.000029633    0.000513458
     45        1           0.001395339   -0.000827807    0.000028556
     46        6          -0.000492923    0.000353254   -0.000686484
     47        8           0.000209719   -0.000418446    0.000761719
     48        6           0.000469923   -0.000144717    0.000551723
     49        1          -0.000200371    0.000560017   -0.000913952
     50        6           0.001284106   -0.000585142    0.001515740
     51        1          -0.001368432   -0.000134561   -0.000134815
     52        1          -0.001098619   -0.000623774   -0.001215515
     53        1           0.000446644    0.000234702   -0.000309456
     54        1          -0.001031797    0.000891024   -0.000000718
 -------------------------------------------------------------------
 Cartesian Forces:  Max     0.018128388 RMS     0.003612533

 GradGradGradGradGradGradGradGradGradGradGradGradGradGradGradGradGradGrad
 Berny optimization.
 FormGI is forming the generalized inverse of G from B-inverse, IUseBI=4.
 Internal  Forces:  Max     0.017147012 RMS     0.002512928
 Search for a local minimum.
 Step number   1 out of a maximum of  307
 All quantities printed in internal units (Hartrees-Bohrs-Radians)
 Mixed Optimization -- RFO/linear search
 Second derivative matrix not updated -- first step.
 ITU=  0
     Eigenvalues ---    0.00803   0.00803   0.01176   0.01203   0.01245
     Eigenvalues ---    0.01292   0.01308   0.01311   0.01365   0.01385
     Eigenvalues ---    0.01419   0.01429   0.01457   0.01496   0.01516
     Eigenvalues ---    0.01568   0.01575   0.01577   0.01608   0.01652
     Eigenvalues ---    0.01693   0.01704   0.01711   0.01719   0.01754
     Eigenvalues ---    0.01783   0.01803   0.01847   0.01967   0.02040
     Eigenvalues ---    0.02043   0.02067   0.02078   0.02082   0.02135
     Eigenvalues ---    0.02149   0.02163   0.02177   0.02197   0.02228
     Eigenvalues ---    0.02230   0.02250   0.07556   0.07572   0.07690
     Eigenvalues ---    0.07700   0.10064   0.10066   0.10636   0.10636
     Eigenvalues ---    0.15983   0.15999   0.15999   0.16000   0.16000
     Eigenvalues ---    0.16000   0.16000   0.16000   0.16000   0.16000
     Eigenvalues ---    0.16000   0.16000   0.16000   0.16000   0.16000
     Eigenvalues ---    0.16000   0.16000   0.16000   0.22530   0.22583
     Eigenvalues ---    0.23518   0.23581   0.24516   0.24747   0.24864
     Eigenvalues ---    0.24931   0.24952   0.24986   0.24987   0.24988
     Eigenvalues ---    0.24993   0.24994   0.24997   0.24997   0.24998
     Eigenvalues ---    0.24998   0.25000   0.25000   0.25000   0.25000
     Eigenvalues ---    0.25000   0.25000   0.25000   0.25000   0.25000
     Eigenvalues ---    0.25000   0.28852   0.28930   0.30092   0.32020
     Eigenvalues ---    0.32582   0.32774   0.33111   0.33787   0.33939
     Eigenvalues ---    0.34012   0.34029   0.34093   0.34354   0.34466
     Eigenvalues ---    0.34577   0.34629   0.34693   0.34741   0.34885
     Eigenvalues ---    0.35198   0.35218   0.35468   0.35553   0.35582
     Eigenvalues ---    0.35795   0.35858   0.36078   0.36083   0.36208
     Eigenvalues ---    0.36396   0.36662   0.39352   0.40094   0.40194
     Eigenvalues ---    0.40651   0.40733   0.41524   0.41763   0.41985
     Eigenvalues ---    0.42300   0.42707   0.43455   0.43850   0.44092
     Eigenvalues ---    0.44594   0.44695   0.45014   0.45406   0.46251
     Eigenvalues ---    0.47305   0.47578   0.49310   0.49630   0.53057
     Eigenvalues ---    0.53085   0.93281   0.93432   0.93989   0.94585
     Eigenvalues --- 1000.000001000.000001000.000001000.000001000.00000
     Eigenvalues --- 1000.000001000.000001000.000001000.000001000.00000
     Eigenvalues --- 1000.000001000.000001000.000001000.000001000.00000
     Eigenvalues --- 1000.000001000.000001000.000001000.000001000.00000
     Eigenvalues --- 1000.000001000.000001000.000001000.000001000.00000
     Eigenvalues --- 1000.000001000.000001000.000001000.000001000.00000
     Eigenvalues --- 1000.000001000.000001000.000001000.000001000.00000
     Eigenvalues --- 1000.000001000.000001000.000001000.000001000.00000
     Eigenvalues --- 1000.000001000.000001000.000001000.000001000.00000
     Eigenvalues --- 1000.000001000.000001000.000001000.000001000.00000
     Eigenvalues --- 1000.000001000.000001000.000001000.000001000.00000
     Eigenvalues --- 1000.000001000.000001000.000001000.000001000.00000
     Eigenvalues --- 1000.000001000.000001000.000001000.000001000.00000
     Eigenvalues --- 1000.000001000.000001000.000001000.000001000.00000
     Eigenvalues --- 1000.000001000.000001000.000001000.000001000.00000
     Eigenvalues --- 1000.000001000.000001000.000001000.000001000.00000
     Eigenvalues --- 1000.000001000.000001000.000001000.000001000.00000
     Eigenvalues --- 1000.000001000.000001000.000001000.000001000.00000
     Eigenvalues --- 1000.000001000.000001000.000001000.000001000.00000
     Eigenvalues --- 1000.000001000.000001000.000001000.000001000.00000
     Eigenvalues --- 1000.000001000.000001000.000001000.000001000.00000
     Eigenvalues --- 1000.000001000.000001000.000001000.000001000.00000
     Eigenvalues --- 1000.000001000.000001000.000001000.000001000.00000
     Eigenvalues --- 1000.000001000.000001000.000001000.000001000.00000
     Eigenvalues --- 1000.000001000.000001000.000001000.000001000.00000
     Eigenvalues --- 1000.000001000.000001000.000001000.000001000.00000
     Eigenvalues --- 1000.000001000.000001000.000001000.000001000.00000
     Eigenvalues --- 1000.000001000.000001000.000001000.000001000.00000
     Eigenvalues --- 1000.000001000.00000
 RFO step:  Lambda=-6.10453160D-03 EMin= 8.02933640D-03
 Linear search not attempted -- first point.
 Iteration  1 RMS(Cart)=  0.11331508 RMS(Int)=  0.00140110
 Iteration  2 RMS(Cart)=  0.00482428 RMS(Int)=  0.00024635
 Iteration  3 RMS(Cart)=  0.00000801 RMS(Int)=  0.00024634
 Iteration  4 RMS(Cart)=  0.00000000 RMS(Int)=  0.00024634
 Iteration  1 RMS(Cart)=  0.00009272 RMS(Int)=  0.00001475
 Iteration  2 RMS(Cart)=  0.00005305 RMS(Int)=  0.00001645
 Iteration  3 RMS(Cart)=  0.00003035 RMS(Int)=  0.00001868
 Iteration  4 RMS(Cart)=  0.00001736 RMS(Int)=  0.00002024
 Iteration  5 RMS(Cart)=  0.00000993 RMS(Int)=  0.00002120
 Iteration  6 RMS(Cart)=  0.00000568 RMS(Int)=  0.00002176
 Iteration  7 RMS(Cart)=  0.00000325 RMS(Int)=  0.00002210
 Iteration  8 RMS(Cart)=  0.00000186 RMS(Int)=  0.00002229
 Iteration  9 RMS(Cart)=  0.00000106 RMS(Int)=  0.00002240
 Iteration 10 RMS(Cart)=  0.00000061 RMS(Int)=  0.00002246
 Variable       Old X    -DE/DX   Delta X   Delta X   Delta X     New X
                                 (Linear)    (Quad)   (Total)
    R1        2.80935  -0.00037   0.00000  -0.00085  -0.00085   2.80850
    R2        2.64584  -0.00022   0.00000  -0.00046  -0.00046   2.64538
    R3        2.31147  -0.00969   0.00000  -0.01025  -0.01025   2.30122
    R4        2.67311  -0.00103   0.00000  -0.00059  -0.00075   2.67236
    R5        2.59267   0.00311   0.00000   0.00736   0.00731   2.59999
    R6        2.66894  -0.00182   0.00000  -0.00400  -0.00401   2.66493
    R7        2.69164  -0.00264   0.00000  -0.00643  -0.00651   2.68513
    R8        2.81049  -0.00010   0.00000  -0.00051  -0.00052   2.80998
    R9        2.62173  -0.00168   0.00000  -0.00309  -0.00311   2.61862
   R10        2.65570  -0.00075   0.00000  -0.00180  -0.00180   2.65390
   R11        2.30889  -0.00784   0.00000  -0.00824  -0.00824   2.30065
   R12        2.70248  -0.00636   0.00000  -0.01530  -0.01518   2.68730
   R13        2.04786  -0.00043   0.00000  -0.00120  -0.00120   2.04666
   R14        2.70495  -0.00667   0.00000  -0.01872  -0.01863   2.68632
   R15        2.68322  -0.00327   0.00000  -0.00854  -0.00852   2.67470
   R16        2.68655  -0.01715   0.00000  -0.04169  -0.04156   2.64499
   R17        2.81233  -0.00280   0.00000  -0.00878  -0.00873   2.80360
   R18        2.76359   0.00309   0.00000   0.00830   0.00830   2.77189
   R19        2.66221   0.00018   0.00000   0.00094   0.00093   2.66314
   R20        2.31391  -0.01098   0.00000  -0.01168  -0.01168   2.30223
   R21        2.79415   0.00318   0.00000   0.00956   0.00952   2.80367
   R22        2.63842   0.00079   0.00000   0.00261   0.00255   2.64097
   R23        2.31456  -0.00926   0.00000  -0.00986  -0.00986   2.30470
   R24        2.62448  -0.00219   0.00000  -0.00468  -0.00467   2.61982
   R25        2.64561   0.00071   0.00000   0.00180   0.00178   2.64739
   R26        2.04921  -0.00121   0.00000  -0.00335  -0.00335   2.04586
   R27        2.04741  -0.00076   0.00000  -0.00209  -0.00209   2.04532
   R28        2.77259   0.00196   0.00000   0.00534   0.00534   2.77793
   R29        2.77252   0.00180   0.00000   0.00491   0.00491   2.77743
   R30        2.06176  -0.00072   0.00000  -0.00204  -0.00204   2.05972
   R31        2.06551  -0.00180   0.00000  -0.00513  -0.00513   2.06038
   R32        2.05322  -0.00087   0.00000  -0.00244  -0.00244   2.05078
   R33        2.06368  -0.00128   0.00000  -0.00363  -0.00363   2.06004
   R34        2.06281  -0.00080   0.00000  -0.00227  -0.00227   2.06054
   R35        2.05355  -0.00092   0.00000  -0.00256  -0.00256   2.05099
   R36        2.61051  -0.00922   0.00000  -0.01888  -0.01883   2.59168
   R37        3.33262  -0.00726   0.00000  -0.02452  -0.02448   3.30814
   R38        2.66237   0.00357   0.00000   0.00790   0.00789   2.67026
   R39        2.03757   0.00156   0.00000   0.00423   0.00423   2.04180
   R40        3.30409   0.00182   0.00000   0.00612   0.00609   3.31018
   R41        2.64369  -0.00592   0.00000  -0.01257  -0.01262   2.63107
   R42        2.56874   0.00176   0.00000   0.00327   0.00327   2.57202
   R43        2.71425   0.00157   0.00000   0.00385   0.00385   2.71810
   R44        2.69226  -0.00039   0.00000  -0.00092  -0.00092   2.69134
   R45        2.63248  -0.00292   0.00000  -0.00628  -0.00628   2.62620
   R46        3.32813  -0.00088   0.00000  -0.00282  -0.00282   3.32531
   R47        2.06097  -0.00137   0.00000  -0.00388  -0.00388   2.05709
   R48        2.07173  -0.00068   0.00000  -0.00196  -0.00196   2.06977
   R49        2.07281  -0.00142   0.00000  -0.00409  -0.00409   2.06872
   R50        2.69029  -0.00092   0.00000  -0.00232  -0.00232   2.68797
   R51        2.56901   0.00077   0.00000   0.00144   0.00144   2.57044
   R52        3.26467  -0.00152   0.00000  -0.00433  -0.00433   3.26035
   R53        2.58629  -0.00176   0.00000  -0.00339  -0.00339   2.58290
   R54        2.04403  -0.00105   0.00000  -0.00289  -0.00289   2.04114
   R55        2.68942  -0.00008   0.00000  -0.00019  -0.00019   2.68922
   R56        2.04304  -0.00136   0.00000  -0.00374  -0.00374   2.03930
   R57        2.07434  -0.00168   0.00000  -0.00486  -0.00486   2.06948
   R58        2.05862  -0.00059   0.00000  -0.00165  -0.00165   2.05697
   R59        2.07309  -0.00130   0.00000  -0.00374  -0.00374   2.06935
    A1        2.03797   0.00034   0.00000   0.00226   0.00225   2.04022
    A2        2.14521  -0.00050   0.00000  -0.00242  -0.00241   2.14279
    A3        2.10001   0.00016   0.00000   0.00016   0.00016   2.10017
    A4        2.10395  -0.00111   0.00000  -0.00554  -0.00553   2.09841
    A5        2.08282   0.00268   0.00000   0.00748   0.00751   2.09033
    A6        2.09624  -0.00157   0.00000  -0.00179  -0.00185   2.09439
    A7        2.10093   0.00162   0.00000   0.00624   0.00628   2.10721
    A8        2.07104   0.00025   0.00000   0.00331   0.00320   2.07425
    A9        2.11118  -0.00186   0.00000  -0.00956  -0.00949   2.10169
   A10        2.10296  -0.00080   0.00000  -0.00318  -0.00319   2.09977
   A11        2.09911  -0.00085   0.00000  -0.00286  -0.00289   2.09622
   A12        2.08110   0.00166   0.00000   0.00605   0.00608   2.08718
   A13        2.03739   0.00019   0.00000   0.00077   0.00075   2.03814
   A14        2.12972  -0.00014   0.00000  -0.00057  -0.00056   2.12916
   A15        2.11607  -0.00005   0.00000  -0.00020  -0.00019   2.11588
   A16        2.15098  -0.00444   0.00000  -0.01726  -0.01707   2.13391
   A17        2.04399   0.00468   0.00000   0.02389   0.02375   2.06774
   A18        2.08722  -0.00023   0.00000  -0.00586  -0.00604   2.08118
   A19        2.11101  -0.00244   0.00000  -0.01003  -0.00998   2.10102
   A20        2.04385   0.00435   0.00000   0.01852   0.01848   2.06233
   A21        2.12832  -0.00191   0.00000  -0.00847  -0.00849   2.11983
   A22        2.08678   0.00329   0.00000   0.00920   0.00927   2.09605
   A23        2.04738   0.00617   0.00000   0.02448   0.02429   2.07167
   A24        2.14662  -0.00942   0.00000  -0.03136  -0.03179   2.11482
   A25        2.04892   0.00494   0.00000   0.01638   0.01620   2.06512
   A26        2.00754   0.00904   0.00000   0.03743   0.03666   2.04420
   A27        2.22643  -0.01397   0.00000  -0.05244  -0.05308   2.17335
   A28        2.06022  -0.00236   0.00000  -0.00983  -0.00978   2.05044
   A29        2.17370  -0.00635   0.00000  -0.02442  -0.02447   2.14923
   A30        2.04919   0.00871   0.00000   0.03437   0.03432   2.08351
   A31        2.01621   0.00162   0.00000   0.00831   0.00819   2.02439
   A32        2.14188  -0.00159   0.00000  -0.00709  -0.00708   2.13480
   A33        2.12500  -0.00003   0.00000  -0.00101  -0.00100   2.12399
   A34        2.10943  -0.00104   0.00000  -0.00418  -0.00423   2.10519
   A35        2.11468  -0.00256   0.00000  -0.01091  -0.01088   2.10380
   A36        2.05896   0.00360   0.00000   0.01518   0.01519   2.07415
   A37        2.11176  -0.00038   0.00000  -0.00182  -0.00184   2.10992
   A38        2.05670   0.00055   0.00000   0.00307   0.00307   2.05977
   A39        2.11471  -0.00017   0.00000  -0.00123  -0.00122   2.11349
   A40        2.08567   0.00131   0.00000   0.00675   0.00671   2.09238
   A41        2.07549  -0.00021   0.00000  -0.00070  -0.00067   2.07482
   A42        2.12199  -0.00110   0.00000  -0.00603  -0.00601   2.11598
   A43        2.20043  -0.00243   0.00000  -0.00766  -0.00771   2.19272
   A44        2.02023   0.00099   0.00000   0.00297   0.00300   2.02323
   A45        2.06252   0.00143   0.00000   0.00469   0.00471   2.06723
   A46        2.18316  -0.00024   0.00000  -0.00055  -0.00056   2.18259
   A47        2.02959   0.00024   0.00000   0.00076   0.00076   2.03035
   A48        2.07044  -0.00000   0.00000  -0.00020  -0.00020   2.07025
   A49        1.91737  -0.00020   0.00000  -0.00127  -0.00127   1.91611
   A50        1.91808  -0.00008   0.00000  -0.00037  -0.00037   1.91771
   A51        1.87685   0.00079   0.00000   0.00474   0.00474   1.88158
[...]
 Alpha  occ. eigenvalues --   -0.49434  -0.48769  -0.48675  -0.48401  -0.48096
 Alpha  occ. eigenvalues --   -0.47876  -0.47281  -0.46734  -0.46443  -0.45720
 Alpha  occ. eigenvalues --   -0.45308  -0.45050  -0.44761  -0.44463  -0.43940
 Alpha  occ. eigenvalues --   -0.42763  -0.42636  -0.42244  -0.42164  -0.41806
 Alpha  occ. eigenvalues --   -0.41413  -0.41297  -0.41207  -0.40685  -0.39920
 Alpha  occ. eigenvalues --   -0.39739  -0.39098  -0.38560  -0.37697  -0.37262
 Alpha  occ. eigenvalues --   -0.36052  -0.35584  -0.34078  -0.33596  -0.33516
 Alpha  occ. eigenvalues --   -0.33091  -0.32414  -0.31180  -0.30377  -0.29879
 Alpha  occ. eigenvalues --   -0.29363  -0.29136  -0.28782  -0.28340  -0.27276
 Alpha  occ. eigenvalues --   -0.26362  -0.24408  -0.24268  -0.19009
 Alpha virt. eigenvalues --   -0.13271  -0.07094  -0.06251  -0.04911  -0.04222
 Alpha virt. eigenvalues --   -0.00992  -0.00247  -0.00219   0.00104   0.00611
 Alpha virt. eigenvalues --    0.00693   0.00999   0.01125   0.01313   0.01831
 Alpha virt. eigenvalues --    0.01924   0.02202   0.02478   0.03017   0.03202
 Alpha virt. eigenvalues --    0.03547   0.03697   0.04144   0.04334   0.04488
 Alpha virt. eigenvalues --    0.04615   0.04848   0.05179   0.05652   0.05849
 Alpha virt. eigenvalues --    0.06062   0.06221   0.06246   0.06390   0.06622
 Alpha virt. eigenvalues --    0.07220   0.07652   0.07764   0.07858   0.07970
 Alpha virt. eigenvalues --    0.08585   0.08808   0.08907   0.09083   0.09320
 Alpha virt. eigenvalues --    0.09487   0.09754   0.09985   0.10205   0.10548
 Alpha virt. eigenvalues --    0.10855   0.11338   0.11469   0.11607   0.12169
 Alpha virt. eigenvalues --    0.12314   0.12513   0.12599   0.13143   0.13332
 Alpha virt. eigenvalues --    0.13474   0.13752   0.13925   0.14347   0.14417
 Alpha virt. eigenvalues --    0.14508   0.14814   0.14951   0.15066   0.15249
 Alpha virt. eigenvalues --    0.15506   0.15596   0.15782   0.16049   0.16385
 Alpha virt. eigenvalues --    0.16483   0.16721   0.16997   0.17481   0.17641
 Alpha virt. eigenvalues --    0.17776   0.17938   0.18319   0.18357   0.18500
 Alpha virt. eigenvalues --    0.18689   0.19120   0.19241   0.19450   0.19539
 Alpha virt. eigenvalues --    0.19780   0.19866   0.20023   0.20358   0.20431
 Alpha virt. eigenvalues --    0.20643   0.20715   0.20842   0.20997   0.21184
 Alpha virt. eigenvalues --    0.21527   0.21682   0.21890   0.21973   0.22424
 Alpha virt. eigenvalues --    0.22572   0.22741   0.22912   0.23157   0.23324
 Alpha virt. eigenvalues --    0.23438   0.23482   0.23864   0.23987   0.24302
 Alpha virt. eigenvalues --    0.24516   0.24849   0.24947   0.25108   0.25366
 Alpha virt. eigenvalues --    0.25548   0.25747   0.25818   0.26252   0.26282
 Alpha virt. eigenvalues --    0.26394   0.26458   0.26713   0.26917   0.27307
 Alpha virt. eigenvalues --    0.27664   0.28037   0.28083   0.28192   0.28384
 Alpha virt. eigenvalues --    0.28522   0.28823   0.29022   0.29054   0.29235
 Alpha virt. eigenvalues --    0.29412   0.29724   0.30061   0.30224   0.30474
 Alpha virt. eigenvalues --    0.30664   0.30963   0.31335   0.31482   0.31746
 Alpha virt. eigenvalues --    0.31825   0.32134   0.32501   0.32763   0.32947
 Alpha virt. eigenvalues --    0.33038   0.33380   0.33576   0.33966   0.34049
 Alpha virt. eigenvalues --    0.34524   0.34838   0.35306   0.35500   0.35642
 Alpha virt. eigenvalues --    0.36071   0.36331   0.36487   0.37268   0.37984
 Alpha virt. eigenvalues --    0.38048   0.38336   0.38608   0.39098   0.39158
 Alpha virt. eigenvalues --    0.39439   0.40213   0.40348   0.40928   0.41192
 Alpha virt. eigenvalues --    0.41550   0.42096   0.42527   0.42855   0.43254
 Alpha virt. eigenvalues --    0.43940   0.44150   0.44582   0.44811   0.45288
 Alpha virt. eigenvalues --    0.45409   0.45943   0.45994   0.46287   0.46433
 Alpha virt. eigenvalues --    0.46874   0.47322   0.47472   0.47977   0.49127
 Alpha virt. eigenvalues --    0.49865   0.49909   0.50239   0.50585   0.51202
 Alpha virt. eigenvalues --    0.51443   0.51629   0.52467   0.53062   0.53614
 Alpha virt. eigenvalues --    0.54292   0.54410   0.55033   0.55312   0.55928
 Alpha virt. eigenvalues --    0.56169   0.56386   0.56666   0.56718   0.56819
 Alpha virt. eigenvalues --    0.57195   0.58397   0.58481   0.58870   0.59385
 Alpha virt. eigenvalues --    0.59745   0.60038   0.60819   0.60993   0.61258
 Alpha virt. eigenvalues --    0.61369   0.62133   0.62178   0.62658   0.63171
 Alpha virt. eigenvalues --    0.63519   0.64014   0.64288   0.64470   0.64959
 Alpha virt. eigenvalues --    0.65163   0.65419   0.65801   0.66435   0.66590
 Alpha virt. eigenvalues --    0.66853   0.67104   0.67560   0.68115   0.68542
 Alpha virt. eigenvalues --    0.68884   0.69177   0.69206   0.69721   0.70087
 Alpha virt. eigenvalues --    0.70543   0.70956   0.71464   0.71661   0.71925
 Alpha virt. eigenvalues --    0.72559   0.72734   0.73620   0.73678   0.73902
 Alpha virt. eigenvalues --    0.74191   0.74528   0.74807   0.75088   0.75559
 Alpha virt. eigenvalues --    0.75749   0.75940   0.76169   0.76569   0.77018
 Alpha virt. eigenvalues --    0.77245   0.77847   0.78327   0.78906   0.79077
 Alpha virt. eigenvalues --    0.79324   0.79413   0.80140   0.80701   0.81436
 Alpha virt. eigenvalues --    0.81885   0.83097   0.83441   0.83877   0.84577
 Alpha virt. eigenvalues --    0.86189   0.86642   0.87107   0.87278   0.88000
 Alpha virt. eigenvalues --    0.88285   0.89152   0.89333   0.89955   0.90250
 Alpha virt. eigenvalues --    0.91105   0.91761   0.91912   0.92179   0.92700
 Alpha virt. eigenvalues --    0.93654   0.93880   0.94032   0.94784   0.95671
 Alpha virt. eigenvalues --    0.95713   0.96136   0.96168   0.96491   0.96847
 Alpha virt. eigenvalues --    0.97212   0.97607   0.98797   0.99286   0.99803
 Alpha virt. eigenvalues --    1.00057   1.00835   1.01305   1.01411   1.01934
 Alpha virt. eigenvalues --    1.02143   1.03246   1.03491   1.04048   1.04502
 Alpha virt. eigenvalues --    1.04753   1.05038   1.05362   1.05433   1.06090
 Alpha virt. eigenvalues --    1.06588   1.07004   1.07349   1.07595   1.08060
 Alpha virt. eigenvalues --    1.08259   1.09133   1.09890   1.10011   1.10457
 Alpha virt. eigenvalues --    1.11529   1.11674   1.12279   1.12426   1.13864
 Alpha virt. eigenvalues --    1.14842   1.15268   1.16217   1.16534   1.17183
 Alpha virt. eigenvalues --    1.18033   1.18232   1.18912   1.19300   1.19880
 Alpha virt. eigenvalues --    1.20727   1.22088   1.22760   1.23974   1.24730
 Alpha virt. eigenvalues --    1.25402   1.25718   1.26065   1.26660   1.26685
 Alpha virt. eigenvalues --    1.27405   1.28206   1.29162   1.29537   1.31663
 Alpha virt. eigenvalues --    1.32044   1.32074   1.33038   1.33600   1.34439
 Alpha virt. eigenvalues --    1.35533   1.35998   1.36719   1.37758   1.38359
 Alpha virt. eigenvalues --    1.40219   1.40532   1.40939   1.42150   1.42385
 Alpha virt. eigenvalues --    1.42576   1.42944   1.43208   1.43673   1.44015
 Alpha virt. eigenvalues --    1.44446   1.44776   1.45238   1.45570   1.45816
 Alpha virt. eigenvalues --    1.46069   1.46321   1.47069   1.47464   1.47915
 Alpha virt. eigenvalues --    1.49855   1.50475   1.50948   1.51585   1.52275
 Alpha virt. eigenvalues --    1.52444   1.53454   1.53851   1.53975   1.54590
 Alpha virt. eigenvalues --    1.54828   1.54982   1.55195   1.55502   1.56392
 Alpha virt. eigenvalues --    1.57019   1.58077   1.59438   1.60021   1.61047
 Alpha virt. eigenvalues --    1.61742   1.62456   1.63005   1.63575   1.64084
 Alpha virt. eigenvalues --    1.64519   1.65347   1.66087   1.66778   1.66890
 Alpha virt. eigenvalues --    1.67384   1.68116   1.69114   1.69141   1.69652
 Alpha virt. eigenvalues --    1.70088   1.70210   1.70711   1.71313   1.71324
 Alpha virt. eigenvalues --    1.71788   1.72780   1.73811   1.74771   1.74892
 Alpha virt. eigenvalues --    1.75558   1.76516   1.76906   1.77919   1.78105
 Alpha virt. eigenvalues --    1.79285   1.79718   1.80063   1.80500   1.81307
 Alpha virt. eigenvalues --    1.82546   1.83938   1.84528   1.85396   1.86168
 Alpha virt. eigenvalues --    1.86221   1.86733   1.86936   1.87536   1.88241
 Alpha virt. eigenvalues --    1.88498   1.89839   1.90061   1.90240   1.90358
 Alpha virt. eigenvalues --    1.91462   1.91722   1.92403   1.94028   1.94791
 Alpha virt. eigenvalues --    1.95291   1.95556   1.96789   1.97463   1.98077
 Alpha virt. eigenvalues --    1.98736   1.99855   2.00550   2.01172   2.01790
 Alpha virt. eigenvalues --    2.02190   2.03247   2.03573   2.03950   2.04220
 Alpha virt. eigenvalues --    2.05471   2.05695   2.06195   2.06633   2.07298
 Alpha virt. eigenvalues --    2.07839   2.08695   2.09024   2.10614   2.11328
 Alpha virt. eigenvalues --    2.11761   2.12460   2.13088   2.14472   2.14935
 Alpha virt. eigenvalues --    2.15540   2.16122   2.16303   2.16882   2.18282
 Alpha virt. eigenvalues --    2.18928   2.19452   2.19923   2.21091   2.21753
 Alpha virt. eigenvalues --    2.22501   2.23431   2.25627   2.25936   2.26580
 Alpha virt. eigenvalues --    2.27733   2.31550   2.32398   2.33317   2.34729
 Alpha virt. eigenvalues --    2.36967   2.37719   2.39156   2.39775   2.41777
 Alpha virt. eigenvalues --    2.43124   2.43744   2.43908   2.44628   2.45531
 Alpha virt. eigenvalues --    2.46311   2.46705   2.46949   2.48558   2.48769
 Alpha virt. eigenvalues --    2.49978   2.50653   2.51829   2.52084   2.52422
 Alpha virt. eigenvalues --    2.52739   2.53106   2.53239   2.54031   2.54681
 Alpha virt. eigenvalues --    2.55882   2.56421   2.58283   2.58735   2.59021
 Alpha virt. eigenvalues --    2.59695   2.62734   2.63355   2.63855   2.65003
 Alpha virt. eigenvalues --    2.66687   2.67142   2.67709   2.67951   2.68229
 Alpha virt. eigenvalues --    2.68665   2.69349   2.69947   2.70249   2.71058
 Alpha virt. eigenvalues --    2.71675   2.71914   2.72711   2.73125   2.74413
 Alpha virt. eigenvalues --    2.75532   2.76021   2.77667   2.77783   2.78471
 Alpha virt. eigenvalues --    2.79711   2.82447   2.82706   2.83501   2.83871
 Alpha virt. eigenvalues --    2.84326   2.84608   2.84763   2.86014   2.86227
 Alpha virt. eigenvalues --    2.87092   2.87870   2.88349   2.89069   2.90012
 Alpha virt. eigenvalues --    2.90294   2.91483   2.92140   2.93401   2.94218
 Alpha virt. eigenvalues --    2.94689   2.95210   2.96137   2.97320   2.99049
 Alpha virt. eigenvalues --    2.99929   3.00488   3.01856   3.03626   3.04856
 Alpha virt. eigenvalues --    3.05368   3.05621   3.07035   3.08373   3.08578
 Alpha virt. eigenvalues --    3.09566   3.11303   3.12819   3.13910   3.14552
 Alpha virt. eigenvalues --    3.14852   3.16171   3.17499   3.20199   3.20946
 Alpha virt. eigenvalues --    3.21587   3.23844   3.24205   3.24421   3.24826
 Alpha virt. eigenvalues --    3.26730   3.28990   3.29443   3.31650   3.32595
 Alpha virt. eigenvalues --    3.34352   3.34885   3.35129   3.35593   3.36495
 Alpha virt. eigenvalues --    3.38110   3.38653   3.39720   3.41807   3.43107
 Alpha virt. eigenvalues --    3.44134   3.45031   3.45976   3.46973   3.49145
 Alpha virt. eigenvalues --    3.49632   3.51621   3.53776   3.56024   3.58001
 Alpha virt. eigenvalues --    3.60073   3.60640   3.62207   3.65290   3.65813
 Alpha virt. eigenvalues --    3.66705   3.69726   3.72068   3.72396   3.73125
 Alpha virt. eigenvalues --    3.76070   3.76837   3.77297   3.81800   3.82764
 Alpha virt. eigenvalues --    3.84727   3.85302   3.86233   3.90125   3.91988
 Alpha virt. eigenvalues --    3.93135   3.93282   3.94094   3.97064   4.01142
 Alpha virt. eigenvalues --    4.03156   4.04541   4.08688   4.10819   4.12357
 Alpha virt. eigenvalues --    4.14607   4.18863   4.23518   4.25007   4.27313
 Alpha virt. eigenvalues --    4.35218   4.38004   4.40213   4.49819   4.66107
 Alpha virt. eigenvalues --    4.84304   4.86717   4.87719   4.90133   5.01966
 Alpha virt. eigenvalues --    5.03356   5.03755   5.05199   5.05499   5.09131
 Alpha virt. eigenvalues --    5.11273   5.12966   5.24937   5.26750   5.28800
 Alpha virt. eigenvalues --    5.32079   5.42488   5.43958   5.75851   5.76881
 Alpha virt. eigenvalues --    5.80330   5.80521   5.81993   5.86085   8.02756
 Alpha virt. eigenvalues --    8.05333  17.29547  17.34060  17.49890  17.52915
 Alpha virt. eigenvalues --   17.58227  17.62363  23.48736  23.56191  23.72393
 Alpha virt. eigenvalues --   23.79119  23.82364  23.82942  23.84288  23.86939
 Alpha virt. eigenvalues --   23.87478  23.88367  23.88844  23.90591  23.91326
 Alpha virt. eigenvalues --   23.93594  23.94726  23.96116  23.96644  23.99933
 Alpha virt. eigenvalues --   24.01142  24.04014  24.04531  24.05497  24.12435
 Alpha virt. eigenvalues --   24.14175  24.15024  24.15643  35.55833  35.58771
 Alpha virt. eigenvalues --   49.96367  49.97706  50.02062  50.03979  50.05921
 Alpha virt. eigenvalues --   50.07634 189.19974 189.23115
          Condensed to atoms (all electrons):
 Mulliken charges:
               1
     1  C    0.382900
     2  C   -0.040333
     3  C    0.115896
     4  C    0.224397
     5  C    0.231694
     6  C   -0.709182
     7  C    0.216219
     8  C    0.173148
     9  C    0.616870
    10  C   -0.374860
    11  C    0.311575
    12  C    0.108256
    13  C   -0.511606
    14  C   -0.640942
    15  H    0.160586
    16  H    0.162105
    17  H    0.179842
    18  N   -0.165801
    19  N   -0.146063
    20  O   -0.272540
    21  O   -0.269276
    22  O   -0.276285
    23  O   -0.129317
    24  C   -0.203648
    25  H    0.178088
    26  H    0.174128
    27  H    0.183766
    28  C   -0.198235
    29  H    0.175409
    30  H    0.174706
    31  H    0.182965
    32  C    0.112529
    33  C   -0.341533
    34  S   -0.416106
    35  C   -0.363251
    36  H    0.120688
    37  C    0.565366
    38  O   -0.126450
    39  C    0.879852
    40  C   -0.241477
    41  C   -0.004345
    42  S   -0.250309
    43  H    0.164490
    44  H    0.142597
    45  H    0.158265
    46  C   -0.496673
    47  O   -0.135530
    48  C   -0.286506
    49  H    0.130133
    50  C   -0.238668
    51  H    0.158884
    52  H    0.144819
    53  H    0.164608
    54  H    0.144156
 Sum of Mulliken charges =  -0.00000
 Mulliken charges with hydrogens summed into heavy atoms:
               1
     1  C    0.382900
     2  C   -0.040333
     3  C    0.115896
     4  C    0.224397
     5  C    0.231694
     6  C   -0.529340
     7  C    0.216219
     8  C    0.173148
     9  C    0.616870
    10  C   -0.374860
    11  C    0.311575
    12  C    0.108256
    13  C   -0.349501
    14  C   -0.480356
    18  N   -0.165801
    19  N   -0.146063
    20  O   -0.272540
    21  O   -0.269276
    22  O   -0.276285
    23  O   -0.129317
    24  C    0.332335
    28  C    0.334846
    32  C    0.112529
    33  C   -0.220846
    34  S   -0.416106
    35  C   -0.363251
    37  C    0.565366
    38  O   -0.126450
    39  C    0.879852
    40  C    0.223875
    41  C   -0.004345
    42  S   -0.250309
    46  C   -0.366540
    47  O   -0.135530
    48  C   -0.127621
    50  C    0.214915
 Electronic spatial extent (au):  <R**2>=          22296.3922
 Charge=             -0.0000 electrons
 Dipole moment (field-independent basis, Debye):
    X=             -2.7347    Y=             -0.2488    Z=              0.0117  Tot=              2.7460
 Quadrupole moment (field-independent basis, Debye-Ang):
   XX=           -220.2495   YY=           -221.7115   ZZ=           -208.2321
   XY=              2.2145   XZ=              7.8408   YZ=             16.8302
 Traceless Quadrupole moment (field-independent basis, Debye-Ang):
   XX=             -3.5184   YY=             -4.9805   ZZ=              8.4989
   XY=              2.2145   XZ=              7.8408   YZ=             16.8302
 Octapole moment (field-independent basis, Debye-Ang**2):
  XXX=           -312.9881  YYY=            -17.8431  ZZZ=              3.2904  XYY=            -71.6378
  XXY=            -62.4347  XXZ=            -37.0515  XZZ=            -45.4708  YZZ=              0.2202
  YYZ=             -4.1201  XYZ=            -52.6025
 Hexadecapole moment (field-independent basis, Debye-Ang**3):
 XXXX=         -21093.4623 YYYY=          -6761.1072 ZZZZ=          -1731.5913 XXXY=            475.5902
 XXXZ=            292.7622 YYYX=           -380.4892 YYYZ=            136.4364 ZZZX=             34.0822
 ZZZY=            125.4740 XXYY=          -4860.0733 XXZZ=          -3736.5454 YYZZ=          -1328.0942
 XXYZ=            326.5706 YYXZ=            140.8018 ZZXY=            -16.7021
 N-N= 4.086162423317D+03 E-N=-1.371243494480D+04  KE= 2.352051878498D+03
 Unable to Open any file for archive entry.
 1\1\GINC-CX1-106-8-3\FOpt\RB3LYP\6-311+G(d,p)\C26H18N2O6S2\NS5018\17-N
 ov-2020\0\\# opt=modredundant b3lyp/6-311+g(d,p)\\NDI_-70.pdb\\0,1\C,-
 2.5503875479,-3.0136038222,-0.3306938115\C,-2.2427741476,-1.5657726366
 ,-0.1860940832\C,-3.288148966,-0.6219734139,-0.0736887739\C,-4.6373810
 746,-1.0377628576,-0.0916265207\C,-4.9801068085,-2.4778658206,-0.24452
 30223\C,-0.9335282755,-1.1468622447,-0.1716755923\C,-2.9618513742,0.75
 44414284,0.072744624\C,-1.6009248693,1.1751845663,0.0815580931\C,-0.57
 69236113,0.2254724023,-0.0756459123\C,-1.3093438307,2.6217819032,0.301
 22292\C,-3.7532162858,3.1230568003,0.415608661\C,-4.0257761771,1.67840
 19621,0.2202912721\C,-5.3429631928,1.2491674311,0.1995725588\C,-5.6537
 638193,-0.1073749305,0.0397669253\H,-6.6814601052,-0.4470914357,0.0237
 425709\H,-6.1254051004,1.9885684558,0.3147501006\H,-0.1519047783,-1.88
 8910241,-0.2725673454\N,-2.4062035248,3.4871618757,0.4763115223\N,-3.9
 03768453,-3.3735252115,-0.3505059428\O,-1.6857990438,-3.8636514864,-0.
 4293263495\O,-6.1321460889,-2.8673439951,-0.274785183\O,-4.6452115546,
 3.945052018,0.528208415\O,-0.1874292244,3.0870403188,0.3509719731\C,-2
 .0758727091,4.9011286126,0.7073190488\H,-1.4168352863,4.9853068291,1.5
 70741064\H,-1.5582216424,5.3102618304,-0.1611789444\H,-3.0050608053,5.
 4354013624,0.8777090309\C,-4.1932541031,-4.8074129486,-0.4978647976\H,
 -3.7746324664,-5.1730846903,-1.4357874634\H,-3.7355592144,-5.360455642
 7,0.3224690874\H,-5.2711999394,-4.9331625386,-0.4879991593\C,0.8651709
 225,0.524484257,-0.1141056582\C,1.5813089486,1.1663235362,-1.092380224
 9\S,1.9252681094,-0.226118436,1.0514842279\C,2.9797965518,1.0946177178
 ,-0.8888928977\H,1.1122402829,1.6816890911,-1.9171309503\C,3.359631178
 3,0.3818574556,0.2426171906\O,3.9386236091,1.6427883777,-1.6843968051\
 C,4.6885116749,0.1747226538,0.7543417156\C,3.5197824957,2.5161731432,-
 2.7284003121\C,5.0657998555,-0.5699228436,1.8644904998\S,6.1193613087,
 0.8826982342,0.015207018\H,4.4324538857,2.8963368397,-3.1841403858\H,2
 .9365207827,1.978330313,-3.4832670039\H,2.9320390599,3.3499153105,-2.3
 31429881\C,6.4656452178,-0.5727353295,2.1175833477\O,4.1114198054,-1.2
 088847712,2.59461928\C,7.1530317552,0.1703053008,1.198803891\H,6.94007
 70401,-1.0975465311,2.9338846112\C,4.5292919384,-1.9821386601,3.714292
 3348\H,8.218358885,0.3343071153,1.1467519695\H,5.0260408475,-1.3563454
 662,4.4629278169\H,3.6214594383,-2.4048100005,4.1411427146\H,5.1982204
 27,-2.7926211886,3.4069725358\\Version=ES64L-G16RevC.01\State=1-A\HF=-
 2359.3359089\RMSD=2.963e-09\RMSF=7.664e-04\Dipole=1.0758983,-0.0060525
 ,0.0977645\Quadrupole=-3.5592072,-6.0713301,9.6305373,0.130624,5.85440
 41,-10.8662371\PG=C01 [X(C26H18N2O6S2)]\\@
 The archive entry for this job was punched.


 IT IS IMPOSSIBLE TO MEDITATE ON TIME AND THE MYSTERY 
 OF NATURE WITHOUT AN OVERWHELMING EMOTION AT THE
 LIMITATIONS OF HUMAN INTELLIGENCE.

                                         -- ALFRED NORTH WHITEHEAD
 Job cpu time:       2 days 19 hours 32 minutes 17.2 seconds.
 Elapsed time:       0 days  8 hours 28 minutes 34.3 seconds.
 File lengths (MBytes):  RWF=    496 Int=      0 D2E=      0 Chk=     61 Scr=      1
 Normal termination of Gaussian 16 at Tue Nov 17 17:21:23 2020.
