 Entering Gaussian System, Link 0=g16
 Input=pBTTT_-145.gjf
 Output=pBTTT_-145.log
 Initial command:
 /apps/gaussian/g16-c01-avx/g16/l1.exe "/tmp/pbs.4729010[30].pbs/Gau-1150345.inp" -scrdir="/tmp/pbs.4729010[30].pbs/"
 Entering Link 1 = /apps/gaussian/g16-c01-avx/g16/l1.exe PID=   1150346.
  
 Copyright (c) 1988-2019, Gaussian, Inc.  All Rights Reserved.
  
 This is part of the Gaussian(R) 16 program.  It is based on
 the Gaussian(R) 09 system (copyright 2009, Gaussian, Inc.),
 the Gaussian(R) 03 system (copyright 2003, Gaussian, Inc.),
 the Gaussian(R) 98 system (copyright 1998, Gaussian, Inc.),
 the Gaussian(R) 94 system (copyright 1995, Gaussian, Inc.),
 the Gaussian 92(TM) system (copyright 1992, Gaussian, Inc.),
 the Gaussian 90(TM) system (copyright 1990, Gaussian, Inc.),
 the Gaussian 88(TM) system (copyright 1988, Gaussian, Inc.),
 the Gaussian 86(TM) system (copyright 1986, Carnegie Mellon
 University), and the Gaussian 82(TM) system (copyright 1983,
 Carnegie Mellon University). Gaussian is a federally registered
 trademark of Gaussian, Inc.
  
 This software contains proprietary and confidential information,
 including trade secrets, belonging to Gaussian, Inc.
  
 This software is provided under written license and may be
 used, copied, transmitted, or stored only in accord with that
 written license.
  
 The following legend is applicable only to US Government
 contracts under FAR:
  
                    RESTRICTED RIGHTS LEGEND
  
 Use, reproduction and disclosure by the US Government is
 subject to restrictions as set forth in subparagraphs (a)
 and (c) of the Commercial Computer Software - Restricted
 Rights clause in FAR 52.227-19.
  
 Gaussian, Inc.
 340 Quinnipiac St., Bldg. 40, Wallingford CT 06492
  
  
 ---------------------------------------------------------------
 Warning -- This program may not be used in any manner that
 competes with the business of Gaussian, Inc. or will provide
 assistance to any competitor of Gaussian, Inc.  The licensee
 of this program is prohibited from giving any competitor of
 Gaussian, Inc. access to this program.  By using this program,
 the user acknowledges that Gaussian, Inc. is engaged in the
 business of creating and licensing software in the field of
 computational chemistry and represents and warrants to the
 licensee that it is not a competitor of Gaussian, Inc. and that
 it will not use this program in any manner prohibited above.
 ---------------------------------------------------------------
  

 Cite this work as:
 Gaussian 16, Revision C.01,
 M. J. Frisch, G. W. Trucks, H. B. Schlegel, G. E. Scuseria, 
 M. A. Robb, J. R. Cheeseman, G. Scalmani, V. Barone, 
 G. A. Petersson, H. Nakatsuji, X. Li, M. Caricato, A. V. Marenich, 
 J. Bloino, B. G. Janesko, R. Gomperts, B. Mennucci, H. P. Hratchian, 
 J. V. Ortiz, A. F. Izmaylov, J. L. Sonnenberg, D. Williams-Young, 
 F. Ding, F. Lipparini, F. Egidi, J. Goings, B. Peng, A. Petrone, 
 T. Henderson, D. Ranasinghe, V. G. Zakrzewski, J. Gao, N. Rega, 
 G. Zheng, W. Liang, M. Hada, M. Ehara, K. Toyota, R. Fukuda, 
 J. Hasegawa, M. Ishida, T. Nakajima, Y. Honda, O. Kitao, H. Nakai, 
 T. Vreven, K. Throssell, J. A. Montgomery, Jr., J. E. Peralta, 
 F. Ogliaro, M. J. Bearpark, J. J. Heyd, E. N. Brothers, K. N. Kudin, 
 V. N. Staroverov, T. A. Keith, R. Kobayashi, J. Normand, 
 K. Raghavachari, A. P. Rendell, J. C. Burant, S. S. Iyengar, 
 J. Tomasi, M. Cossi, J. M. Millam, M. Klene, C. Adamo, R. Cammi, 
 J. W. Ochterski, R. L. Martin, K. Morokuma, O. Farkas, 
 J. B. Foresman, and D. J. Fox, Gaussian, Inc., Wallingford CT, 2019.
 
 ******************************************
 Gaussian 16:  ES64L-G16RevC.01  3-Jul-2019
                16-Oct-2021 
 ******************************************
 %mem=10GB
 %nprocshared=8
 Will use up to    8 processors via shared memory.
 -------------------------------------
 # opt=modredundant b3lyp/6-311+g(d,p)
 -------------------------------------
 1/18=120,19=15,26=3,38=1/1,3;
 2/9=110,12=2,17=6,18=5,40=1/2;
 3/5=4,6=6,7=111,11=2,25=1,30=1,71=1,74=-5/1,2,3;
 4//1;
 5/5=2,38=5/2;
 6/7=2,8=2,9=2,10=2,28=1/1;
 7//1,2,3,16;
 1/18=20,19=15,26=3/3(2);
 2/9=110/2;
 99//99;
 2/9=110/2;
 3/5=4,6=6,7=111,11=2,25=1,30=1,71=1,74=-5/1,2,3;
 4/5=5,16=3,69=1/1;
 5/5=2,38=5/2;
 7//1,2,3,16;
 1/18=20,19=15,26=3/3(-5);
 2/9=110/2;
 6/7=2,8=2,9=2,10=2,19=2,28=1/1;
 99/9=1/99;
 --------------
 pBTTT_-145.pdb
 --------------
 Symbolic Z-matrix:
 Charge =  0 Multiplicity = 1
 C                    -4.25     -1.36     -0.21 
 C                    -2.93     -0.95     -0.61 
 C                    -1.97     -2.05     -0.62 
 C                    -2.66      0.47     -0.96 
 C                    -4.33     -2.76      0.1 
 H                    -5.1      -0.7      -0.14 
 S                    -2.8      -3.56     -0.11 
 H                    -5.23     -3.27      0.41 
 C                    -0.56     -2.13     -0.97 
 S                     0.141    -3.577    -1.757 
 C                     1.724    -2.882    -1.815 
 C                     1.757    -1.546    -1.275 
 C                     0.475    -1.106    -0.812 
 H                     0.271    -0.085    -0.529 
 S                     3.044    -0.591    -1.935 
 C                     3.585    -1.94     -2.936 
 C                     2.754    -3.111    -2.774 
 H                     4.331    -1.824    -3.709 
 H                     2.751    -3.932    -3.487 
 H                    -3.55      1.09     -0.83 
 H                    -2.35      0.56     -2. 
 H                    -1.88      0.89     -0.31 
 
 The following ModRedundant input section has been read:
 D       2       3       9      10 F                                           
 

 GradGradGradGradGradGradGradGradGradGradGradGradGradGradGradGradGradGrad
 Berny optimization.
 Initialization pass.
                           ----------------------------
                           !    Initial Parameters    !
                           ! (Angstroms and Degrees)  !
 --------------------------                            --------------------------
 ! Name  Definition              Value          Derivative Info.                !
 --------------------------------------------------------------------------------
 ! R1    R(1,2)                  1.4389         estimate D2E/DX2                !
 ! R2    R(1,5)                  1.4361         estimate D2E/DX2                !
 ! R3    R(1,6)                  1.0784         estimate D2E/DX2                !
 ! R4    R(2,3)                  1.46           estimate D2E/DX2                !
 ! R5    R(2,4)                  1.4872         estimate D2E/DX2                !
 ! R6    R(3,7)                  1.797          estimate D2E/DX2                !
 ! R7    R(3,9)                  1.455          estimate D2E/DX2                !
 ! R8    R(4,20)                 1.0924         estimate D2E/DX2                !
 ! R9    R(4,21)                 1.0889         estimate D2E/DX2                !
 ! R10   R(4,22)                 1.0988         estimate D2E/DX2                !
 ! R11   R(5,7)                  1.7393         estimate D2E/DX2                !
 ! R12   R(5,8)                  1.0799         estimate D2E/DX2                !
 ! R13   R(9,10)                 1.7901         estimate D2E/DX2                !
 ! R14   R(9,13)                 1.4645         estimate D2E/DX2                !
 ! R15   R(10,11)                1.7298         estimate D2E/DX2                !
 ! R16   R(11,12)                1.4414         estimate D2E/DX2                !
 ! R17   R(11,17)                1.4258         estimate D2E/DX2                !
 ! R18   R(12,13)                1.4323         estimate D2E/DX2                !
 ! R19   R(12,15)                1.7332         estimate D2E/DX2                !
 ! R20   R(13,14)                1.079          estimate D2E/DX2                !
 ! R21   R(15,16)                1.7648         estimate D2E/DX2                !
 ! R22   R(16,17)                1.445          estimate D2E/DX2                !
 ! R23   R(16,18)                1.0805         estimate D2E/DX2                !
 ! R24   R(17,19)                1.0874         estimate D2E/DX2                !
 ! A1    A(2,1,5)              112.8843         estimate D2E/DX2                !
 ! A2    A(2,1,6)              124.5209         estimate D2E/DX2                !
 ! A3    A(5,1,6)              122.5942         estimate D2E/DX2                !
 ! A4    A(1,2,3)              112.9799         estimate D2E/DX2                !
 ! A5    A(1,2,4)              120.2665         estimate D2E/DX2                !
 ! A6    A(3,2,4)              126.7536         estimate D2E/DX2                !
 ! A7    A(2,3,7)              109.1138         estimate D2E/DX2                !
 ! A8    A(2,3,9)              132.8639         estimate D2E/DX2                !
 ! A9    A(7,3,9)              118.0132         estimate D2E/DX2                !
 ! A10   A(2,4,20)             111.468          estimate D2E/DX2                !
 ! A11   A(2,4,21)             110.8154         estimate D2E/DX2                !
 ! A12   A(2,4,22)             110.7706         estimate D2E/DX2                !
 ! A13   A(20,4,21)            107.3779         estimate D2E/DX2                !
 ! A14   A(20,4,22)            106.918          estimate D2E/DX2                !
 ! A15   A(21,4,22)            109.3476         estimate D2E/DX2                !
 ! A16   A(1,5,7)              111.9209         estimate D2E/DX2                !
 ! A17   A(1,5,8)              124.6643         estimate D2E/DX2                !
 ! A18   A(7,5,8)              123.4062         estimate D2E/DX2                !
 ! A19   A(3,7,5)               93.0997         estimate D2E/DX2                !
 ! A20   A(3,9,10)             121.9838         estimate D2E/DX2                !
 ! A21   A(3,9,13)             128.3508         estimate D2E/DX2                !
 ! A22   A(10,9,13)            109.6255         estimate D2E/DX2                !
 ! A23   A(9,10,11)             92.7703         estimate D2E/DX2                !
 ! A24   A(10,11,12)           112.3827         estimate D2E/DX2                !
 ! A25   A(10,11,17)           128.2498         estimate D2E/DX2                !
 ! A26   A(12,11,17)           112.6005         estimate D2E/DX2                !
 ! A27   A(11,12,13)           112.6655         estimate D2E/DX2                !
 ! A28   A(11,12,15)           112.6472         estimate D2E/DX2                !
 ! A29   A(13,12,15)           128.2039         estimate D2E/DX2                !
 ! A30   A(9,13,12)            112.5129         estimate D2E/DX2                !
 ! A31   A(9,13,14)            123.8025         estimate D2E/DX2                !
 ! A32   A(12,13,14)           123.0051         estimate D2E/DX2                !
 ! A33   A(12,15,16)            91.2857         estimate D2E/DX2                !
 ! A34   A(15,16,17)           112.3068         estimate D2E/DX2                !
 ! A35   A(15,16,18)           122.3688         estimate D2E/DX2                !
 ! A36   A(17,16,18)           124.3502         estimate D2E/DX2                !
 ! A37   A(11,17,16)           111.142          estimate D2E/DX2                !
 ! A38   A(11,17,19)           124.0752         estimate D2E/DX2                !
 ! A39   A(16,17,19)           122.6786         estimate D2E/DX2                !
 ! D1    D(5,1,2,3)              0.3915         estimate D2E/DX2                !
 ! D2    D(5,1,2,4)           -179.5973         estimate D2E/DX2                !
 ! D3    D(6,1,2,3)           -179.8811         estimate D2E/DX2                !
 ! D4    D(6,1,2,4)              0.13           estimate D2E/DX2                !
 ! D5    D(2,1,5,7)             -0.3845         estimate D2E/DX2                !
 ! D6    D(2,1,5,8)           -179.3471         estimate D2E/DX2                !
 ! D7    D(6,1,5,7)            179.8822         estimate D2E/DX2                !
 ! D8    D(6,1,5,8)              0.9196         estimate D2E/DX2                !
 ! D9    D(1,2,3,7)             -0.2224         estimate D2E/DX2                !
 ! D10   D(1,2,3,9)            178.6265         estimate D2E/DX2                !
 ! D11   D(4,2,3,7)            179.7656         estimate D2E/DX2                !
 ! D12   D(4,2,3,9)             -1.3855         estimate D2E/DX2                !
 ! D13   D(1,2,4,20)             2.1641         estimate D2E/DX2                !
 ! D14   D(1,2,4,21)          -117.3645         estimate D2E/DX2                !
 ! D15   D(1,2,4,22)           121.0843         estimate D2E/DX2                !
 ! D16   D(3,2,4,20)          -177.8231         estimate D2E/DX2                !
 ! D17   D(3,2,4,21)            62.6483         estimate D2E/DX2                !
 ! D18   D(3,2,4,22)           -58.9029         estimate D2E/DX2                !
 ! D19   D(2,3,7,5)              0.0033         estimate D2E/DX2                !
 ! D20   D(9,3,7,5)           -179.041          estimate D2E/DX2                !
 ! D21   D(2,3,9,10)          -144.9827         Frozen                          !
 ! D22   D(2,3,9,13)            32.4749         estimate D2E/DX2                !
 ! D23   D(7,3,9,10)            33.7852         estimate D2E/DX2                !
 ! D24   D(7,3,9,13)          -148.7571         estimate D2E/DX2                !
 ! D25   D(1,5,7,3)              0.2153         estimate D2E/DX2                !
 ! D26   D(8,5,7,3)            179.1932         estimate D2E/DX2                !
 ! D27   D(3,9,10,11)          179.7937         estimate D2E/DX2                !
 ! D28   D(13,9,10,11)           1.9103         estimate D2E/DX2                !
 ! D29   D(3,9,13,12)         -179.8405         estimate D2E/DX2                !
 ! D30   D(3,9,13,14)           -9.0557         estimate D2E/DX2                !
 ! D31   D(10,9,13,12)          -2.1297         estimate D2E/DX2                !
 ! D32   D(10,9,13,14)         168.655          estimate D2E/DX2                !
 ! D33   D(9,10,11,12)          -1.2408         estimate D2E/DX2                !
 ! D34   D(9,10,11,17)        -149.877          estimate D2E/DX2                !
 ! D35   D(10,11,12,13)          0.2094         estimate D2E/DX2                !
 ! D36   D(10,11,12,15)       -154.0083         estimate D2E/DX2                !
 ! D37   D(17,11,12,13)        153.9309         estimate D2E/DX2                !
 ! D38   D(17,11,12,15)         -0.2868         estimate D2E/DX2                !
 ! D39   D(10,11,17,16)        149.6885         estimate D2E/DX2                !
 ! D40   D(10,11,17,19)        -14.1473         estimate D2E/DX2                !
 ! D41   D(12,11,17,16)          1.1073         estimate D2E/DX2                !
 ! D42   D(12,11,17,19)       -162.7284         estimate D2E/DX2                !
 ! D43   D(11,12,13,9)           1.2746         estimate D2E/DX2                !
 ! D44   D(11,12,13,14)       -169.5951         estimate D2E/DX2                !
 ! D45   D(15,12,13,9)         150.5557         estimate D2E/DX2                !
 ! D46   D(15,12,13,14)        -20.314          estimate D2E/DX2                !
 ! D47   D(11,12,15,16)         -0.4695         estimate D2E/DX2                !
 ! D48   D(13,12,15,16)       -149.7551         estimate D2E/DX2                !
 ! D49   D(12,15,16,17)          1.1051         estimate D2E/DX2                !
 ! D50   D(12,15,16,18)        170.2604         estimate D2E/DX2                !
 ! D51   D(15,16,17,11)         -1.4564         estimate D2E/DX2                !
 ! D52   D(15,16,17,19)        162.6438         estimate D2E/DX2                !
 ! D53   D(18,16,17,11)       -170.3588         estimate D2E/DX2                !
 ! D54   D(18,16,17,19)         -6.2586         estimate D2E/DX2                !
 --------------------------------------------------------------------------------
 Trust Radius=3.00D-01 FncErr=1.00D-07 GrdErr=1.00D-06 EigMax=2.50D+02 EigMin=1.00D-04
 Number of steps in this run=    127 maximum allowed number of steps=    132.
 GradGradGradGradGradGradGradGradGradGradGradGradGradGradGradGradGradGrad

                          Input orientation:                          
 ---------------------------------------------------------------------
 Center     Atomic      Atomic             Coordinates (Angstroms)
 Number     Number       Type             X           Y           Z
 ---------------------------------------------------------------------
      1          6           0       -4.250000   -1.360000   -0.210000
      2          6           0       -2.930000   -0.950000   -0.610000
      3          6           0       -1.970000   -2.050000   -0.620000
      4          6           0       -2.660000    0.470000   -0.960000
      5          6           0       -4.330000   -2.760000    0.100000
      6          1           0       -5.100000   -0.700000   -0.140000
      7         16           0       -2.800000   -3.560000   -0.110000
      8          1           0       -5.230000   -3.270000    0.410000
      9          6           0       -0.560000   -2.130000   -0.970000
     10         16           0        0.141000   -3.577000   -1.757000
     11          6           0        1.724000   -2.882000   -1.815000
     12          6           0        1.757000   -1.546000   -1.275000
     13          6           0        0.475000   -1.106000   -0.812000
     14          1           0        0.271000   -0.085000   -0.529000
     15         16           0        3.044000   -0.591000   -1.935000
     16          6           0        3.585000   -1.940000   -2.936000
     17          6           0        2.754000   -3.111000   -2.774000
     18          1           0        4.331000   -1.824000   -3.709000
     19          1           0        2.751000   -3.932000   -3.487000
     20          1           0       -3.550000    1.090000   -0.830000
     21          1           0       -2.350000    0.560000   -2.000000
     22          1           0       -1.880000    0.890000   -0.310000
 ---------------------------------------------------------------------
                    Distance matrix (angstroms):
                    1          2          3          4          5
     1  C    0.000000
     2  C    1.438923   0.000000
     3  C    2.417147   1.460034   0.000000
     4  C    2.537617   1.487212   2.634787   0.000000
     5  C    1.436141   2.395871   2.567509   3.787532   0.000000
     6  H    1.078425   2.234346   3.442354   2.827525   2.212261
     7  S    2.636759   2.660639   1.796970   4.121044   1.739253
     8  H    2.234480   3.422397   3.630000   4.740190   1.079907
     9  C    3.845335   2.671872   1.454991   3.342170   3.969219
    10  S    5.156470   4.200926   2.842678   4.985882   4.909764
    11  C    6.370336   5.181155   3.970628   5.584477   6.350829
    12  C    6.103513   4.771311   3.817535   4.865529   6.357357
    13  C    4.769963   3.414552   2.627932   3.511966   5.162895
    14  H    4.708166   3.316804   2.981876   3.014058   5.359148
    15  S    7.534549   6.129697   5.384989   5.883193   7.951205
    16  C    8.315931   6.988247   6.019467   6.979448   8.516861
    17  C    7.661339   6.454508   5.299209   6.739848   7.652851
    18  H    9.278570   7.942909   7.021082   7.854522   9.507760
    19  H    8.146650   7.031587   5.835191   7.419047   8.023759
    20  H    2.622384   2.143455   3.521378   1.092428   4.036806
    21  H    3.240447   2.132745   2.976726   1.088944   4.399182
    22  H    3.269465   2.139650   2.957668   1.098772   4.415099
                    6          7          8          9         10
     6  H    0.000000
     7  S    3.670218   0.000000
     8  H    2.631406   2.501879   0.000000
     9  C    4.831708   2.793224   5.001290   0.000000
    10  S    6.193537   3.370813   5.799809   1.790134   0.000000
    11  C    7.357562   4.881935   7.311586   2.548761   1.729820
    12  C    7.001599   5.116607   7.391182   2.408852   2.639837
    13  C    5.630013   4.152174   6.222797   1.464502   2.666537
    14  H    5.420073   4.656418   6.425492   2.251015   3.703910
    15  S    8.340182   6.804258   9.007505   4.035909   4.168368
    16  C    9.207847   7.167908   9.522019   4.591545   3.991359
    17  C    8.627641   6.176197   8.596941   3.898637   2.842396
    18  H   10.146177   8.174207  10.510461   5.614057   4.943623
    19  H    9.126140   6.508157   8.906246   4.532683   3.151353
    20  H    2.466313   4.764808   4.834211   4.396374   6.021935
    21  H    3.551014   4.555107   5.363898   3.391327   4.835173
    22  H    3.595191   4.548505   5.389480   3.361309   5.111980
                   11         12         13         14         15
    11  C    0.000000
    12  C    1.441383   0.000000
    13  C    2.391691   1.432303   0.000000
    14  H    3.404147   2.213421   1.078956   0.000000
    15  S    2.646787   1.733203   2.850634   3.149984   0.000000
    16  C    2.367979   2.501148   3.857335   4.496362   1.764790
    17  C    1.425841   2.385421   3.614320   4.512426   2.671782
    18  H    3.391615   3.553465   4.876153   5.442437   2.514704
    19  H    2.225492   3.402055   4.508001   5.449731   3.695515
    20  H    6.675484   5.942287   4.585124   4.008898   6.894028
    21  H    5.336578   4.672078   3.488198   3.074005   5.515819
    22  H    5.429717   4.482532   3.127626   2.371790   5.392565
                   16         17         18         19         20
    16  C    0.000000
    17  C    1.445007   0.000000
    18  H    1.080510   2.239983   0.000000
    19  H    2.228726   1.087391   2.643738   0.000000
    20  H    8.032706   7.820994   8.882015   8.484264   0.000000
    21  H    6.507712   6.334519   7.296568   6.957689   1.757783
    22  H    6.691114   6.599489   7.582580   7.402106   1.760483
                   21         22
    21  H    0.000000
    22  H    1.784909   0.000000
 Stoichiometry    C11H8S3
 Framework group  C1[X(C11H8S3)]
 Deg. of freedom    60
 Full point group                 C1      NOp   1
 Largest Abelian subgroup         C1      NOp   1
 Largest concise Abelian subgroup C1      NOp   1
                         Standard orientation:                         
 ---------------------------------------------------------------------
 Center     Atomic      Atomic             Coordinates (Angstroms)
 Number     Number       Type             X           Y           Z
 ---------------------------------------------------------------------
      1          6           0        3.983759    0.844614    0.257600
      2          6           0        2.586897    1.189884    0.249550
      3          6           0        1.722166    0.059376   -0.075860
      4          6           0        2.156794    2.580823    0.553031
      5          6           0        4.219979   -0.534693   -0.065218
      6          1           0        4.782763    1.535250    0.475807
      7         16           0        2.737982   -1.394738   -0.363559
      8          1           0        5.194555   -0.998279   -0.103812
      9          6           0        0.277914   -0.084970   -0.177354
     10         16           0       -0.560442   -1.592062    0.302659
     11          6           0       -2.116896   -0.953976   -0.100545
     12          6           0       -2.046824    0.405506   -0.574342
     13          6           0       -0.706904    0.910584   -0.606039
     14          1           0       -0.474710    1.950686   -0.774622
     15         16           0       -3.516995    1.282893   -0.304560
     16          6           0       -4.272822   -0.131742    0.431658
     17          6           0       -3.377849   -1.264832    0.488004
     18          1           0       -5.223199   -0.079458    0.943080
     19          1           0       -3.553296   -2.119892    1.136470
     20          1           0        3.013988    3.235864    0.724902
     21          1           0        1.541252    2.608337    1.450889
     22          1           0        1.592649    3.006562   -0.288270
 ---------------------------------------------------------------------
 Rotational constants (GHZ):           1.2042636           0.2764209           0.2320683
 Standard basis: 6-311+G(d,p) (5D, 7F)
 There are   394 symmetry adapted cartesian basis functions of A   symmetry.
 There are   380 symmetry adapted basis functions of A   symmetry.
   380 basis functions,   610 primitive gaussians,   394 cartesian basis functions
    61 alpha electrons       61 beta electrons
       nuclear repulsion energy      1107.1496103016 Hartrees.
 NAtoms=   22 NActive=   22 NUniq=   22 SFac= 1.00D+00 NAtFMM=   60 NAOKFM=F Big=F
 Integral buffers will be    131072 words long.
 Raffenetti 2 integral format.
 Two-electron integral symmetry is turned on.
 One-electron integrals computed using PRISM.
 NBasis=   380 RedAO= T EigKep=  1.10D-06  NBF=   380
 NBsUse=   379 1.00D-06 EigRej=  3.71D-07 NBFU=   379
 ExpMin= 4.05D-02 ExpMax= 9.34D+04 ExpMxC= 3.17D+03 IAcc=3 IRadAn=         5 AccDes= 0.00D+00
 Harris functional with IExCor=  402 and IRadAn=       5 diagonalized for initial guess.
 HarFok:  IExCor=  402 AccDes= 0.00D+00 IRadAn=         5 IDoV= 1 UseB2=F ITyADJ=14
 ICtDFT=  3500011 ScaDFX=  1.000000  1.000000  1.000000  1.000000
 FoFCou: FMM=F IPFlag=           0 FMFlag=      100000 FMFlg1=           0
         NFxFlg=           0 DoJE=T BraDBF=F KetDBF=T FulRan=T
         wScrn=  0.000000 ICntrl=       500 IOpCl=  0 I1Cent=   200000004 NGrid=           0
         NMat0=    1 NMatS0=      1 NMatT0=    0 NMatD0=    1 NMtDS0=    0 NMtDT0=    0
 Petite list used in FoFCou.
 Requested convergence on RMS density matrix=1.00D-08 within 128 cycles.
 Requested convergence on MAX density matrix=1.00D-06.
 Requested convergence on             energy=1.00D-06.
 No special actions if energy rises.
 SCF Done:  E(RB3LYP) =  -1618.67621978     A.U. after   17 cycles
            NFock= 17  Conv=0.72D-08     -V/T= 2.0028

 **********************************************************************

            Population analysis using the SCF Density.

 **********************************************************************

 Orbital symmetries:
       Occupied  (A) (A) (A) (A) (A) (A) (A) (A) (A) (A) (A) (A)
                 (A) (A) (A) (A) (A) (A) (A) (A) (A) (A) (A) (A)
                 (A) (A) (A) (A) (A) (A) (A) (A) (A) (A) (A) (A)
                 (A) (A) (A) (A) (A) (A) (A) (A) (A) (A) (A) (A)
                 (A) (A) (A) (A) (A) (A) (A) (A) (A) (A) (A) (A)
                 (A)
       Virtual   (A) (A) (A) (A) (A) (A) (A) (A) (A) (A) (A) (A)
                 (A) (A) (A) (A) (A) (A) (A) (A) (A) (A) (A) (A)
                 (A) (A) (A) (A) (A) (A) (A) (A) (A) (A) (A) (A)
                 (A) (A) (A) (A) (A) (A) (A) (A) (A) (A) (A) (A)
                 (A) (A) (A) (A) (A) (A) (A) (A) (A) (A) (A) (A)
                 (A) (A) (A) (A) (A) (A) (A) (A) (A) (A) (A) (A)
                 (A) (A) (A) (A) (A) (A) (A) (A) (A) (A) (A) (A)
                 (A) (A) (A) (A) (A) (A) (A) (A) (A) (A) (A) (A)
                 (A) (A) (A) (A) (A) (A) (A) (A) (A) (A) (A) (A)
                 (A) (A) (A) (A) (A) (A) (A) (A) (A) (A) (A) (A)
                 (A) (A) (A) (A) (A) (A) (A) (A) (A) (A) (A) (A)
                 (A) (A) (A) (A) (A) (A) (A) (A) (A) (A) (A) (A)
                 (A) (A) (A) (A) (A) (A) (A) (A) (A) (A) (A) (A)
                 (A) (A) (A) (A) (A) (A) (A) (A) (A) (A) (A) (A)
                 (A) (A) (A) (A) (A) (A) (A) (A) (A) (A) (A) (A)
                 (A) (A) (A) (A) (A) (A) (A) (A) (A) (A) (A) (A)
                 (A) (A) (A) (A) (A) (A) (A) (A) (A) (A) (A) (A)
                 (A) (A) (A) (A) (A) (A) (A) (A) (A) (A) (A) (A)
                 (A) (A) (A) (A) (A) (A) (A) (A) (A) (A) (A) (A)
                 (A) (A) (A) (A) (A) (A) (A) (A) (A) (A) (A) (A)
                 (A) (A) (A) (A) (A) (A) (A) (A) (A) (A) (A) (A)
                 (A) (A) (A) (A) (A) (A) (A) (A) (A) (A) (A) (A)
                 (A) (A) (A) (A) (A) (A) (A) (A) (A) (A) (A) (A)
                 (A) (A) (A) (A) (A) (A) (A) (A) (A) (A) (A) (A)
                 (A) (A) (A) (A) (A) (A) (A) (A) (A) (A) (A) (A)
                 (A) (A) (A) (A) (A) (A) (A) (A) (A) (A) (A) (A)
                 (A) (A) (A) (A) (A) (A)
 The electronic state is 1-A.
 Alpha  occ. eigenvalues --  -88.89150 -88.88913 -88.88756 -10.23847 -10.22922
 Alpha  occ. eigenvalues --  -10.22092 -10.22060 -10.21970 -10.21342 -10.20538
 Alpha  occ. eigenvalues --  -10.20400 -10.20395 -10.19120 -10.17905  -7.97674
 Alpha  occ. eigenvalues --   -7.97450  -7.97233  -5.93985  -5.93773  -5.93629
 Alpha  occ. eigenvalues --   -5.93529  -5.93410  -5.93228  -5.93159  -5.92977
 Alpha  occ. eigenvalues --   -5.92841  -0.90703  -0.87620  -0.83681  -0.77938
 Alpha  occ. eigenvalues --   -0.77341  -0.74954  -0.71113  -0.69797  -0.67370
 Alpha  occ. eigenvalues --   -0.61156  -0.57702  -0.56936  -0.53592  -0.51998
 Alpha  occ. eigenvalues --   -0.49290  -0.49170  -0.44562  -0.43773  -0.43481
 Alpha  occ. eigenvalues --   -0.41781  -0.41417  -0.39999  -0.39661  -0.39016
 Alpha  occ. eigenvalues --   -0.37809  -0.37260  -0.36548  -0.35303  -0.34180
 Alpha  occ. eigenvalues --   -0.33410  -0.29437  -0.25821  -0.25481  -0.23692
 Alpha  occ. eigenvalues --   -0.19805
 Alpha virt. eigenvalues --   -0.07232  -0.03585  -0.01952  -0.01153  -0.00107
 Alpha virt. eigenvalues --    0.00214   0.00597   0.00868   0.01863   0.02236
 Alpha virt. eigenvalues --    0.02753   0.03043   0.03313   0.03997   0.04364
 Alpha virt. eigenvalues --    0.05018   0.05215   0.05519   0.05871   0.06480
 Alpha virt. eigenvalues --    0.06941   0.07018   0.07918   0.08038   0.08313
 Alpha virt. eigenvalues --    0.08977   0.09600   0.09941   0.10330   0.10563
 Alpha virt. eigenvalues --    0.11147   0.11512   0.12289   0.12713   0.12838
 Alpha virt. eigenvalues --    0.13309   0.13992   0.14654   0.14998   0.15134
 Alpha virt. eigenvalues --    0.15800   0.15907   0.16151   0.16684   0.16969
 Alpha virt. eigenvalues --    0.17115   0.17991   0.18155   0.18767   0.18977
 Alpha virt. eigenvalues --    0.19147   0.19637   0.19941   0.20398   0.20553
 Alpha virt. eigenvalues --    0.20612   0.21097   0.21746   0.22029   0.22236
 Alpha virt. eigenvalues --    0.22429   0.23071   0.23574   0.23986   0.24479
 Alpha virt. eigenvalues --    0.25008   0.25334   0.25508   0.26440   0.26624
 Alpha virt. eigenvalues --    0.26963   0.27582   0.28556   0.29296   0.30051
 Alpha virt. eigenvalues --    0.30301   0.30975   0.31075   0.31958   0.33090
 Alpha virt. eigenvalues --    0.33465   0.34567   0.35374   0.35849   0.36823
 Alpha virt. eigenvalues --    0.37175   0.38267   0.39472   0.41147   0.41641
 Alpha virt. eigenvalues --    0.42265   0.42942   0.43556   0.45883   0.47381
 Alpha virt. eigenvalues --    0.48746   0.50516   0.51605   0.53294   0.55061
 Alpha virt. eigenvalues --    0.55204   0.55450   0.55867   0.56504   0.57471
 Alpha virt. eigenvalues --    0.58110   0.59482   0.60387   0.60839   0.61717
 Alpha virt. eigenvalues --    0.61997   0.62344   0.63538   0.64529   0.65303
 Alpha virt. eigenvalues --    0.66214   0.66826   0.67987   0.68907   0.69340
 Alpha virt. eigenvalues --    0.69677   0.70481   0.71089   0.71893   0.73097
 Alpha virt. eigenvalues --    0.73526   0.74236   0.74385   0.75875   0.76683
 Alpha virt. eigenvalues --    0.77600   0.77977   0.79049   0.79601   0.80671
 Alpha virt. eigenvalues --    0.81567   0.82210   0.82638   0.83503   0.85151
 Alpha virt. eigenvalues --    0.86030   0.86723   0.87011   0.88970   0.89782
 Alpha virt. eigenvalues --    0.90585   0.91674   0.92171   0.92972   0.94377
 Alpha virt. eigenvalues --    0.95009   0.95563   0.97293   0.98324   0.98796
 Alpha virt. eigenvalues --    1.00148   1.01341   1.01834   1.03098   1.04845
 Alpha virt. eigenvalues --    1.05264   1.06630   1.07679   1.10571   1.15330
 Alpha virt. eigenvalues --    1.16585   1.20571   1.21410   1.25014   1.27603
 Alpha virt. eigenvalues --    1.33883   1.34783   1.35951   1.36944   1.38694
 Alpha virt. eigenvalues --    1.40300   1.42119   1.45884   1.46984   1.49977
 Alpha virt. eigenvalues --    1.50726   1.52997   1.53429   1.55580   1.55813
 Alpha virt. eigenvalues --    1.57049   1.58384   1.59787   1.60535   1.61519
 Alpha virt. eigenvalues --    1.62476   1.64381   1.65566   1.66240   1.68315
 Alpha virt. eigenvalues --    1.68615   1.69813   1.70766   1.72120   1.73854
 Alpha virt. eigenvalues --    1.74549   1.75544   1.78162   1.79890   1.80561
 Alpha virt. eigenvalues --    1.81593   1.83028   1.84551   1.85366   1.87718
 Alpha virt. eigenvalues --    1.89128   1.90891   1.93138   1.94489   1.95007
 Alpha virt. eigenvalues --    1.97183   1.97655   1.98589   2.00748   2.01136
 Alpha virt. eigenvalues --    2.02648   2.04706   2.05869   2.08040   2.08794
 Alpha virt. eigenvalues --    2.09702   2.10496   2.13116   2.13732   2.14717
 Alpha virt. eigenvalues --    2.16702   2.18206   2.23233   2.26346   2.29258
 Alpha virt. eigenvalues --    2.33578   2.35928   2.37548   2.38542   2.43326
 Alpha virt. eigenvalues --    2.44619   2.46771   2.49861   2.51576   2.54680
 Alpha virt. eigenvalues --    2.55929   2.60388   2.61381   2.63440   2.66668
 Alpha virt. eigenvalues --    2.68304   2.69224   2.70985   2.71768   2.72609
 Alpha virt. eigenvalues --    2.73523   2.75032   2.77387   2.79509   2.83088
 Alpha virt. eigenvalues --    2.84026   2.86539   2.90907   2.92438   2.95540
 Alpha virt. eigenvalues --    2.97486   2.99441   3.00606   3.01331   3.04348
 Alpha virt. eigenvalues --    3.05377   3.11036   3.15939   3.21152   3.25150
 Alpha virt. eigenvalues --    3.27419   3.31707   3.36012   3.39424   3.40069
 Alpha virt. eigenvalues --    3.48025   3.56853   3.65286   3.80433   3.81583
 Alpha virt. eigenvalues --    3.90729   3.94301   4.04844   4.10077   4.30670
 Alpha virt. eigenvalues --    4.33586   4.50934   7.94837   7.96658   7.99160
 Alpha virt. eigenvalues --   17.28552  17.28889  17.30106  17.42353  17.44114
 Alpha virt. eigenvalues --   17.46514  17.48432  17.51124  17.53279  23.47803
 Alpha virt. eigenvalues --   23.61368  23.73356  23.77126  23.81903  23.85860
 Alpha virt. eigenvalues --   23.88611  23.94199  23.95771  23.96066  23.98745
 Alpha virt. eigenvalues --  189.11127 189.13415 189.16234
          Condensed to atoms (all electrons):
               1          2          3          4          5          6
     1  C   11.367224  -7.870922   7.537930  -1.770406  -1.159530   0.327430
     2  C   -7.870922  25.335923 -18.515040   1.573694   2.559832   0.015127
     3  C    7.537930 -18.515040  28.115192  -3.854616  -2.591231  -0.036414
     4  C   -1.770406   1.573694  -3.854616   8.400691   0.236106   0.023070
     5  C   -1.159530   2.559832  -2.591231   0.236106   6.084819  -0.001773
     6  H    0.327430   0.015127  -0.036414   0.023070  -0.001773   0.530456
     7  S   -0.825462  -0.083441  -1.299699   0.647296  -0.037309   0.010749
     8  H    0.024959  -0.034687   0.014945   0.002057   0.374138  -0.004556
     9  C   -0.879646   1.401460  -1.619617   0.045788   0.343644  -0.000253
    10  S   -0.038662   0.406995   0.267121   0.024835   0.019234  -0.000307
    11  C   -0.061438   0.404289  -0.779205  -0.020919   0.034432   0.000001
    12  C   -0.133758  -0.533531   0.756577   0.019763  -0.008821   0.000434
    13  C   -0.116990   0.548924  -1.800830   0.289546   0.050388   0.001369
    14  H    0.008029   0.005075   0.049200  -0.013778  -0.000971  -0.000004
    15  S   -0.019409   0.047386  -0.088139   0.007441   0.002437   0.000006
    16  C    0.004317  -0.021622   0.021826  -0.009449  -0.001516  -0.000001
    17  C   -0.016547   0.205983  -0.135881   0.020035   0.009763   0.000007
    18  H   -0.000001  -0.000177  -0.000003  -0.000010   0.000000   0.000000
    19  H    0.000040  -0.000382  -0.000514  -0.000060  -0.000018  -0.000000
    20  H    0.065132  -0.108724  -0.026004   0.432750   0.012922   0.002256
    21  H   -0.022448   0.013799  -0.092615   0.438755   0.005731   0.000098
    22  H   -0.042766  -0.006473   0.084435   0.295344  -0.005453   0.000158
               7          8          9         10         11         12
     1  C   -0.825462   0.024959  -0.879646  -0.038662  -0.061438  -0.133758
     2  C   -0.083441  -0.034687   1.401460   0.406995   0.404289  -0.533531
     3  C   -1.299699   0.014945  -1.619617   0.267121  -0.779205   0.756577
     4  C    0.647296   0.002057   0.045788   0.024835  -0.020919   0.019763
     5  C   -0.037309   0.374138   0.343644   0.019234   0.034432  -0.008821
     6  H    0.010749  -0.004556  -0.000253  -0.000307   0.000001   0.000434
     7  S   17.980403  -0.014511   0.017653  -0.147417  -0.114184   0.281697
     8  H   -0.014511   0.481564  -0.007243  -0.000439  -0.000127  -0.000149
     9  C    0.017653  -0.007243   9.481238   0.172193  -0.877732   0.109885
    10  S   -0.147417  -0.000439   0.172193  17.651149  -1.015659   0.940187
    11  C   -0.114184  -0.000127  -0.877732  -1.015659  14.028700  -4.798210
    12  C    0.281697  -0.000149   0.109885   0.940187  -4.798210  13.647804
    13  C    0.086052   0.000065  -2.166041  -2.237260   0.717976  -3.327135
    14  H   -0.004313  -0.000000   0.094216   0.017253  -0.063088   0.097439
    15  S    0.010327   0.000000  -0.439604   0.184092   0.903641  -0.576404
    16  C   -0.005440   0.000000   0.142336  -0.025616   0.809519  -0.481890
    17  C   -0.054620  -0.000019  -0.107733   0.259305  -3.353134   0.017576
    18  H    0.000051   0.000000  -0.001626   0.000057  -0.011259   0.007409
    19  H    0.000146   0.000000   0.007603   0.015710   0.024230  -0.032028
    20  H   -0.001187  -0.000028  -0.004576   0.000224  -0.000378   0.000201
    21  H    0.001822   0.000014   0.004498  -0.001930  -0.003884  -0.007898
    22  H    0.000781   0.000009   0.014255   0.002169  -0.000343   0.025904
              13         14         15         16         17         18
     1  C   -0.116990   0.008029  -0.019409   0.004317  -0.016547  -0.000001
     2  C    0.548924   0.005075   0.047386  -0.021622   0.205983  -0.000177
     3  C   -1.800830   0.049200  -0.088139   0.021826  -0.135881  -0.000003
     4  C    0.289546  -0.013778   0.007441  -0.009449   0.020035  -0.000010
     5  C    0.050388  -0.000971   0.002437  -0.001516   0.009763   0.000000
     6  H    0.001369  -0.000004   0.000006  -0.000001   0.000007   0.000000
     7  S    0.086052  -0.004313   0.010327  -0.005440  -0.054620   0.000051
     8  H    0.000065  -0.000000   0.000000   0.000000  -0.000019   0.000000
     9  C   -2.166041   0.094216  -0.439604   0.142336  -0.107733  -0.001626
    10  S   -2.237260   0.017253   0.184092  -0.025616   0.259305   0.000057
    11  C    0.717976  -0.063088   0.903641   0.809519  -3.353134  -0.011259
    12  C   -3.327135   0.097439  -0.576404  -0.481890   0.017576   0.007409
    13  C   13.328670   0.159162  -0.233922  -0.413417   0.714222   0.016333
    14  H    0.159162   0.529697   0.004057   0.001958  -0.015287  -0.000004
    15  S   -0.233922   0.004057  16.612465   0.451390  -0.688397  -0.022634
    16  C   -0.413417   0.001958   0.451390   5.715316  -0.232000   0.365485
    17  C    0.714222  -0.015287  -0.688397  -0.232000   9.217327   0.000922
    18  H    0.016333  -0.000004  -0.022634   0.365485   0.000922   0.473953
    19  H   -0.001997   0.000015   0.002745   0.009142   0.322792  -0.003612
    20  H   -0.002196   0.000116  -0.000002   0.000007  -0.000059  -0.000000
    21  H    0.021391   0.000173   0.000806  -0.000175  -0.000214  -0.000000
    22  H   -0.025636   0.001376   0.000681   0.000020  -0.000055   0.000000
              19         20         21         22
     1  C    0.000040   0.065132  -0.022448  -0.042766
     2  C   -0.000382  -0.108724   0.013799  -0.006473
     3  C   -0.000514  -0.026004  -0.092615   0.084435
     4  C   -0.000060   0.432750   0.438755   0.295344
     5  C   -0.000018   0.012922   0.005731  -0.005453
     6  H   -0.000000   0.002256   0.000098   0.000158
     7  S    0.000146  -0.001187   0.001822   0.000781
     8  H    0.000000  -0.000028   0.000014   0.000009
     9  C    0.007603  -0.004576   0.004498   0.014255
    10  S    0.015710   0.000224  -0.001930   0.002169
    11  C    0.024230  -0.000378  -0.003884  -0.000343
    12  C   -0.032028   0.000201  -0.007898   0.025904
    13  C   -0.001997  -0.002196   0.021391  -0.025636
    14  H    0.000015   0.000116   0.000173   0.001376
    15  S    0.002745  -0.000002   0.000806   0.000681
    16  C    0.009142   0.000007  -0.000175   0.000020
    17  C    0.322792  -0.000059  -0.000214  -0.000055
    18  H   -0.003612  -0.000000  -0.000000   0.000000
    19  H    0.514957   0.000000  -0.000000  -0.000000
    20  H    0.000000   0.539322  -0.024782  -0.028463
    21  H   -0.000000  -0.024782   0.525867  -0.029923
    22  H   -0.000000  -0.028463  -0.029923   0.564390
 Mulliken charges:
               1
     1  C   -0.377078
     2  C    0.656512
     3  C   -0.007418
     4  C   -0.787932
     5  C    0.073176
     6  H    0.132147
     7  S   -0.449394
     8  H    0.164009
     9  C    0.269301
    10  S   -0.493233
    11  C    0.176773
    12  C   -0.005053
    13  C    0.391329
    14  H    0.129678
    15  S   -0.158960
    16  C   -0.330189
    17  C   -0.163986
    18  H    0.175114
    19  H    0.141229
    20  H    0.143472
    21  H    0.170914
    22  H    0.149591
 Sum of Mulliken charges =  -0.00000
 Mulliken charges with hydrogens summed into heavy atoms:
               1
     1  C   -0.244931
     2  C    0.656512
     3  C   -0.007418
     4  C   -0.323955
     5  C    0.237185
     7  S   -0.449394
     9  C    0.269301
    10  S   -0.493233
    11  C    0.176773
    12  C   -0.005053
    13  C    0.521007
    15  S   -0.158960
    16  C   -0.155075
    17  C   -0.022757
 Electronic spatial extent (au):  <R**2>=           4436.5918
 Charge=             -0.0000 electrons
 Dipole moment (field-independent basis, Debye):
    X=              0.4752    Y=              1.2820    Z=              1.3193  Tot=              1.9000
 Quadrupole moment (field-independent basis, Debye-Ang):
   XX=            -91.0143   YY=            -98.2732   ZZ=           -108.6014
   XY=              3.0564   XZ=             -3.9235   YZ=             -1.3232
 Traceless Quadrupole moment (field-independent basis, Debye-Ang):
   XX=              8.2820   YY=              1.0231   ZZ=             -9.3051
   XY=              3.0564   XZ=             -3.9235   YZ=             -1.3232
 Octapole moment (field-independent basis, Debye-Ang**2):
  XXX=             21.7753  YYY=              7.7778  ZZZ=              3.9688  XYY=              8.2080
  XXY=             -1.1248  XXZ=             30.3374  XZZ=             -6.6281  YZZ=             -0.1236
  YYZ=              4.7225  XYZ=             11.6916
 Hexadecapole moment (field-independent basis, Debye-Ang**3):
 XXXX=          -4380.8651 YYYY=          -1140.3624 ZZZZ=           -246.2467 XXXY=            -33.6121
 XXXZ=           -115.6508 YYYX=             17.7917 YYYZ=            -12.6373 ZZZX=             -7.6078
 ZZZY=             -0.2875 XXYY=           -956.5389 XXZZ=           -904.7710 YYZZ=           -232.1718
 XXYZ=              3.1133 YYXZ=             -8.1119 ZZXY=              4.2575
 N-N= 1.107149610302D+03 E-N=-6.037525058039D+03  KE= 1.614161105056D+03
 Calling FoFJK, ICntrl=      2127 FMM=F ISym2X=0 I1Cent= 0 IOpClX= 0 NMat=1 NMatS=1 NMatT=0.
 ***** Axes restored to original set *****
 -------------------------------------------------------------------
 Center     Atomic                   Forces (Hartrees/Bohr)
 Number     Number              X              Y              Z
 -------------------------------------------------------------------
      1        6           0.023670179   -0.057018021    0.007556271
      2        6           0.009994441   -0.041743169    0.008026533
      3        6          -0.035983786    0.015262094    0.004096105
      4        6           0.008071331    0.006289592    0.002122975
      5        6           0.006890686    0.049426232   -0.013811307
      6        1          -0.000721081    0.001927394   -0.000197067
      7       16          -0.005402839    0.020118316   -0.002220325
      8        1           0.003219172   -0.004468583    0.000220749
      9        6           0.038043608    0.042218005    0.004562920
     10       16          -0.008072206    0.005122972    0.013669758
     11        6           0.012167200    0.033829769   -0.006816949
     12        6          -0.033282760   -0.022004332   -0.011790695
     13        6          -0.026605961   -0.043257017   -0.011436762
     14        1          -0.002525234   -0.001371075    0.005763486
     15       16           0.012214297   -0.013497899   -0.004730071
     16        6          -0.038212032   -0.043799418    0.006311736
     17        6           0.022832718    0.049378940   -0.006788383
     18        1           0.004076017    0.002273781    0.005622930
     19        1           0.006549394   -0.000136865    0.006742367
     20        1          -0.000485758   -0.002129025    0.000261791
     21        1           0.004469575    0.002552940   -0.002646077
     22        1          -0.000906961    0.001025369   -0.004519982
 -------------------------------------------------------------------
 Cartesian Forces:  Max     0.057018021 RMS     0.020193739

 GradGradGradGradGradGradGradGradGradGradGradGradGradGradGradGradGradGrad
 Berny optimization.
 FormGI is forming the generalized inverse of G from B-inverse, IUseBI=4.
 Internal  Forces:  Max     0.059199558 RMS     0.012096859
 Search for a local minimum.
 Step number   1 out of a maximum of  127
 All quantities printed in internal units (Hartrees-Bohrs-Radians)
 Mixed Optimization -- RFO/linear search
 Second derivative matrix not updated -- first step.
 ITU=  0
     Eigenvalues ---    0.00935   0.00982   0.01057   0.01215   0.01241
     Eigenvalues ---    0.01277   0.01299   0.01420   0.01457   0.01495
     Eigenvalues ---    0.01498   0.01592   0.01595   0.01771   0.02200
     Eigenvalues ---    0.02654   0.07307   0.07353   0.15078   0.15685
     Eigenvalues ---    0.15739   0.15997   0.16000   0.16000   0.16000
     Eigenvalues ---    0.16000   0.17982   0.22442   0.22545   0.23319
     Eigenvalues ---    0.23976   0.24718   0.24978   0.24995   0.25000
     Eigenvalues ---    0.26147   0.26562   0.28415   0.30920   0.31242
     Eigenvalues ---    0.31590   0.33757   0.33818   0.34533   0.34803
     Eigenvalues ---    0.34935   0.35116   0.35877   0.35933   0.36006
     Eigenvalues ---    0.36121   0.36185   0.36301   0.37598   0.38268
     Eigenvalues ---    0.38438   0.39458   0.39735   0.406521000.00000
     Eigenvalues --- 1000.000001000.000001000.000001000.000001000.00000
     Eigenvalues --- 1000.000001000.000001000.000001000.000001000.00000
     Eigenvalues --- 1000.000001000.000001000.000001000.000001000.00000
     Eigenvalues --- 1000.000001000.000001000.000001000.000001000.00000
     Eigenvalues --- 1000.000001000.000001000.000001000.000001000.00000
     Eigenvalues --- 1000.000001000.000001000.000001000.000001000.00000
     Eigenvalues --- 1000.000001000.000001000.000001000.000001000.00000
     Eigenvalues --- 1000.000001000.000001000.000001000.000001000.00000
     Eigenvalues --- 1000.000001000.000001000.000001000.000001000.00000
     Eigenvalues --- 1000.000001000.000001000.000001000.000001000.00000
     Eigenvalues --- 1000.000001000.000001000.000001000.000001000.00000
     Eigenvalues --- 1000.000001000.00000
 RFO step:  Lambda=-4.84635294D-02 EMin= 9.35106172D-03
 Linear search not attempted -- first point.
 Maximum step size (   0.300) exceeded in Quadratic search.
    -- Step size scaled by   0.911
 Iteration  1 RMS(Cart)=  0.07769300 RMS(Int)=  0.00261198
 Iteration  2 RMS(Cart)=  0.00421887 RMS(Int)=  0.00078678
 Iteration  3 RMS(Cart)=  0.00000791 RMS(Int)=  0.00078677
 Iteration  4 RMS(Cart)=  0.00000001 RMS(Int)=  0.00078677
 Iteration  1 RMS(Cart)=  0.00002115 RMS(Int)=  0.00000790
 Iteration  2 RMS(Cart)=  0.00001153 RMS(Int)=  0.00000882
 Iteration  3 RMS(Cart)=  0.00000629 RMS(Int)=  0.00000997
 Iteration  4 RMS(Cart)=  0.00000343 RMS(Int)=  0.00001072
 Iteration  5 RMS(Cart)=  0.00000187 RMS(Int)=  0.00001116
 Iteration  6 RMS(Cart)=  0.00000102 RMS(Int)=  0.00001141
 Iteration  7 RMS(Cart)=  0.00000056 RMS(Int)=  0.00001155
 Variable       Old X    -DE/DX   Delta X   Delta X   Delta X     New X
                                 (Linear)    (Quad)   (Total)
    R1        2.71917  -0.01588   0.00000  -0.03474  -0.03465   2.68452
    R2        2.71391  -0.05091   0.00000  -0.10447  -0.10450   2.60942
    R3        2.03793   0.00174   0.00000   0.00385   0.00385   2.04178
    R4        2.75906  -0.05497   0.00000  -0.12020  -0.12011   2.63896
    R5        2.81042   0.01054   0.00000   0.02487   0.02487   2.83529
    R6        3.39578  -0.01853   0.00000  -0.05117  -0.05119   3.34459
    R7        2.74954  -0.01317   0.00000  -0.02826  -0.02826   2.72128
    R8        2.06439  -0.00078   0.00000  -0.00181  -0.00181   2.06258
    R9        2.05781   0.00401   0.00000   0.00918   0.00918   2.06699
   R10        2.07638  -0.00293   0.00000  -0.00689  -0.00689   2.06949
   R11        3.28671  -0.01613   0.00000  -0.03881  -0.03892   3.24779
   R12        2.04073  -0.00051   0.00000  -0.00114  -0.00114   2.03959
   R13        3.38286  -0.01134   0.00000  -0.02749  -0.02835   3.35451
   R14        2.76751  -0.05920   0.00000  -0.13017  -0.13065   2.63686
   R15        3.26889   0.00068   0.00000   0.00280   0.00297   3.27185
   R16        2.72382  -0.03170   0.00000  -0.07012  -0.06852   2.65530
   R17        2.69445  -0.00291   0.00000  -0.00870  -0.00807   2.68638
   R18        2.70666  -0.01214   0.00000  -0.02743  -0.02693   2.67973
   R19        3.27528   0.00157   0.00000   0.00583   0.00576   3.28104
   R20        2.03893   0.00069   0.00000   0.00154   0.00154   2.04047
   R21        3.33497  -0.01194   0.00000  -0.02838  -0.02920   3.30577
   R22        2.73067  -0.05766   0.00000  -0.12044  -0.12070   2.60996
   R23        2.04187  -0.00096   0.00000  -0.00215  -0.00215   2.03971
   R24        2.05487  -0.00434   0.00000  -0.00988  -0.00988   2.04499
    A1        1.97020   0.00822   0.00000   0.02130   0.02136   1.99157
    A2        2.17330  -0.00525   0.00000  -0.01564  -0.01568   2.15762
    A3        2.13967  -0.00296   0.00000  -0.00563  -0.00567   2.13400
    A4        1.97187  -0.00232   0.00000  -0.01164  -0.01145   1.96042
    A5        2.09905   0.01158   0.00000   0.03762   0.03752   2.13657
    A6        2.21227  -0.00926   0.00000  -0.02598  -0.02608   2.18619
    A7        1.90440   0.00461   0.00000   0.01575   0.01582   1.92021
    A8        2.31891  -0.01196   0.00000  -0.03744  -0.03750   2.28141
    A9        2.05972   0.00735   0.00000   0.02152   0.02146   2.08118
   A10        1.94548  -0.00375   0.00000  -0.01535  -0.01529   1.93019
   A11        1.93409   0.00323   0.00000   0.01364   0.01363   1.94772
   A12        1.93331   0.00405   0.00000   0.01715   0.01715   1.95046
   A13        1.87410   0.00068   0.00000   0.00405   0.00410   1.87820
   A14        1.86607   0.00019   0.00000   0.00175   0.00181   1.86788
   A15        1.90848  -0.00470   0.00000  -0.02249  -0.02255   1.88593
   A16        1.95339  -0.00299   0.00000  -0.01098  -0.01111   1.94228
   A17        2.17580   0.00710   0.00000   0.03002   0.03007   2.20587
   A18        2.15384  -0.00410   0.00000  -0.01891  -0.01886   2.13498
   A19        1.62490  -0.00751   0.00000  -0.01438  -0.01461   1.61029
   A20        2.12902  -0.00408   0.00000  -0.01221  -0.01221   2.11681
   A21        2.24014  -0.00177   0.00000  -0.00520  -0.00520   2.23495
   A22        1.91333   0.00591   0.00000   0.01789   0.01781   1.93114
   A23        1.61915  -0.00560   0.00000  -0.01338  -0.01283   1.60631
   A24        1.96145  -0.01080   0.00000  -0.02672  -0.02776   1.93369
   A25        2.23838   0.00808   0.00000   0.04737   0.04436   2.28274
   A26        1.96525   0.00634   0.00000   0.01963   0.01997   1.98522
   A27        1.96638   0.00791   0.00000   0.02318   0.02309   1.98947
   A28        1.96606  -0.01356   0.00000  -0.03427  -0.03541   1.93065
   A29        2.23758   0.00934   0.00000   0.05179   0.04902   2.28660
   A30        1.96372   0.00259   0.00000  -0.00106  -0.00039   1.96333
   A31        2.16076  -0.00431   0.00000  -0.00957  -0.01073   2.15003
   A32        2.14684   0.00234   0.00000   0.01953   0.01837   2.16522
   A33        1.59324   0.00062   0.00000   0.00395   0.00460   1.59783
   A34        1.96012   0.00109   0.00000   0.00170   0.00133   1.96145
   A35        2.13574  -0.00442   0.00000  -0.01365  -0.01492   2.12082
   A36        2.17032   0.00435   0.00000   0.02554   0.02444   2.19476
   A37        1.93979   0.00550   0.00000   0.00885   0.00935   1.94914
   A38        2.16552   0.00005   0.00000   0.01667   0.01439   2.17992
   A39        2.14114  -0.00365   0.00000  -0.00075  -0.00314   2.13801
    D1        0.00683  -0.00020   0.00000  -0.00545  -0.00552   0.00132
    D2       -3.13456  -0.00050   0.00000  -0.01023  -0.01036   3.13826
    D3       -3.13952   0.00017   0.00000   0.00136   0.00130  -3.13822
    D4        0.00227  -0.00013   0.00000  -0.00342  -0.00354  -0.00127
    D5       -0.00671   0.00066   0.00000   0.00927   0.00922   0.00251
    D6       -3.13020   0.00011   0.00000   0.00229   0.00228  -3.12792
    D7        3.13954   0.00030   0.00000   0.00264   0.00254  -3.14111
    D8        0.01605  -0.00024   0.00000  -0.00433  -0.00440   0.01165
    D9       -0.00388  -0.00026   0.00000  -0.00049  -0.00051  -0.00439
   D10        3.11762  -0.00018   0.00000  -0.01119  -0.01110   3.10652
   D11        3.13750   0.00007   0.00000   0.00467   0.00451  -3.14117
   D12       -0.02418   0.00015   0.00000  -0.00603  -0.00608  -0.03027
   D13        0.03777  -0.00028   0.00000  -0.00462  -0.00462   0.03316
   D14       -2.04840  -0.00082   0.00000  -0.00870  -0.00866  -2.05705
   D15        2.11332   0.00019   0.00000  -0.00111  -0.00116   2.11216
   D16       -3.10360  -0.00063   0.00000  -0.01011  -0.01011  -3.11370
   D17        1.09342  -0.00117   0.00000  -0.01420  -0.01415   1.07927
   D18       -1.02805  -0.00016   0.00000  -0.00660  -0.00665  -1.03470
   D19        0.00006   0.00058   0.00000   0.00498   0.00489   0.00495
   D20       -3.12486   0.00076   0.00000   0.01463   0.01486  -3.10999
   D21       -2.53043  -0.00184   0.00000   0.00000  -0.00000  -2.53043
   D22        0.56679   0.00015   0.00000   0.01587   0.01596   0.58275
   D23        0.58966  -0.00180   0.00000  -0.01158  -0.01154   0.57812
   D24       -2.59630   0.00018   0.00000   0.00429   0.00442  -2.59188
   D25        0.00376  -0.00071   0.00000  -0.00817  -0.00800  -0.00424
   D26        3.12751  -0.00003   0.00000  -0.00070  -0.00079   3.12672
   D27        3.13799   0.00125   0.00000   0.01428   0.01420  -3.13099
   D28        0.03334  -0.00027   0.00000   0.00146   0.00117   0.03451
   D29       -3.13881  -0.00171   0.00000  -0.01731  -0.01708   3.12730
   D30       -0.15805   0.00274   0.00000   0.04452   0.04443  -0.11362
   D31       -0.03717  -0.00011   0.00000  -0.00359  -0.00307  -0.04024
   D32        2.94359   0.00434   0.00000   0.05824   0.05844   3.00203
   D33       -0.02166   0.00092   0.00000   0.00195   0.00201  -0.01965
   D34       -2.61585  -0.00777   0.00000  -0.08623  -0.08655  -2.70239
   D35        0.00365  -0.00079   0.00000  -0.00361  -0.00336   0.00030
   D36       -2.68795  -0.01028   0.00000  -0.09324  -0.09035  -2.77831
   D37        2.68660   0.00810   0.00000   0.08223   0.08022   2.76682
   D38       -0.00501  -0.00140   0.00000  -0.00741  -0.00678  -0.01179
   D39        2.61256   0.00568   0.00000   0.08557   0.08743   2.69998
   D40       -0.24692  -0.00093   0.00000  -0.00687  -0.00604  -0.25296
   D41        0.01933   0.00130   0.00000   0.00891   0.00848   0.02780
   D42       -2.84015  -0.00531   0.00000  -0.08353  -0.08499  -2.92514
   D43        0.02225   0.00062   0.00000   0.00468   0.00426   0.02651
   D44       -2.95999  -0.00308   0.00000  -0.05350  -0.05476  -3.01475
   D45        2.62769   0.00458   0.00000   0.08223   0.08434   2.71203
   D46       -0.35455   0.00088   0.00000   0.02405   0.02532  -0.32923
   D47       -0.00819   0.00112   0.00000   0.00346   0.00319  -0.00500
   D48       -2.61372  -0.00816   0.00000  -0.08832  -0.08847  -2.70219
   D49        0.01929  -0.00029   0.00000   0.00183   0.00177   0.02105
   D50        2.97160   0.00589   0.00000   0.07967   0.07860   3.05021
   D51       -0.02542  -0.00042   0.00000  -0.00616  -0.00572  -0.03114
   D52        2.83867   0.00676   0.00000   0.08803   0.08840   2.92707
   D53       -2.97332  -0.00561   0.00000  -0.08074  -0.08127  -3.05459
   D54       -0.10923   0.00157   0.00000   0.01345   0.01284  -0.09639
         Item               Value     Threshold  Converged?
 Maximum Force            0.059197     0.000450     NO 
 RMS     Force            0.012146     0.000300     NO 
 Maximum Displacement     0.282196     0.001800     NO 
 RMS     Displacement     0.078013     0.001200     NO 
 Predicted change in Energy=-2.827053D-02
 GradGradGradGradGradGradGradGradGradGradGradGradGradGradGradGradGradGrad

                          Input orientation:                          
 ---------------------------------------------------------------------
 Center     Atomic      Atomic             Coordinates (Angstroms)
 Number     Number       Type             X           Y           Z
 ---------------------------------------------------------------------
      1          6           0       -4.194179   -1.389988   -0.179414
      2          6           0       -2.896736   -0.989660   -0.597082
      3          6           0       -1.993729   -2.054709   -0.616946
      4          6           0       -2.573980    0.426653   -0.972580
      5          6           0       -4.300527   -2.733604    0.120775
      6          1           0       -5.032844   -0.713289   -0.101184
      7         16           0       -2.800406   -3.542772   -0.099818
      8          1           0       -5.192125   -3.248845    0.444011
      9          6           0       -0.608416   -2.104535   -1.006995
     10         16           0        0.073008   -3.535007   -1.807308
     11          6           0        1.645012   -2.814481   -1.893064
     12          6           0        1.629904   -1.518377   -1.350603
     13          6           0        0.360249   -1.109686   -0.869130
     14          1           0        0.136920   -0.110945   -0.524831
     15         16           0        2.977300   -0.594088   -1.937783
     16          6           0        3.549494   -1.944825   -2.890824
     17          6           0        2.726787   -3.049128   -2.785008
     18          1           0        4.391005   -1.847121   -3.559668
     19          1           0        2.810704   -3.902130   -3.445629
     20          1           0       -3.448410    1.066907   -0.843129
     21          1           0       -2.258589    0.504354   -2.017040
     22          1           0       -1.777443    0.841275   -0.345749
 ---------------------------------------------------------------------
                    Distance matrix (angstroms):
                    1          2          3          4          5
     1  C    0.000000
     2  C    1.420587   0.000000
     3  C    2.339929   1.396476   0.000000
     4  C    2.560144   1.500371   2.572999   0.000000
     5  C    1.380843   2.351018   2.515243   3.763457   0.000000
     6  H    1.080463   2.210261   3.361791   2.846895   2.160377
     7  S    2.565817   2.602869   1.769881   4.070542   1.718655
     8  H    2.199978   3.384760   3.575099   4.729767   1.079307
     9  C    3.748755   2.578252   1.440039   3.204924   3.911429
    10  S    5.045794   4.094242   2.807071   4.837155   4.846396
    11  C    6.249954   5.063301   3.930161   5.399272   6.277859
    12  C    5.942063   4.619287   3.735856   4.647439   6.229907
    13  C    4.614878   3.270531   2.549094   3.313720   5.033871
    14  H    4.529203   3.159182   2.885545   2.799727   5.194813
    15  S    7.426670   6.038067   5.346882   5.726276   7.860150
    16  C    8.223385   6.908507   5.992488   6.841089   8.444804
    17  C    7.579026   6.375927   5.288916   6.592729   7.610931
    18  H    9.237991   7.913490   7.033316   7.770076   9.480202
    19  H    8.126955   7.012244   5.873413   7.338198   8.040789
    20  H    2.651985   2.143445   3.451340   1.091472   4.012369
    21  H    3.272905   2.157682   2.929030   1.093803   4.384533
    22  H    3.293450   2.160628   2.916685   1.095126   4.400382
                    6          7          8          9         10
     6  H    0.000000
     7  S    3.604131   0.000000
     8  H    2.598394   2.470317   0.000000
     9  C    4.725635   2.774223   4.942191   0.000000
    10  S    6.078049   3.342467   5.733407   1.775131   0.000000
    11  C    7.226314   4.848493   7.238580   2.523307   1.731390
    12  C    6.826524   5.028945   7.263281   2.339172   2.588301
    13  C    5.461898   4.062202   6.093374   1.395364   2.616270
    14  H    5.221950   4.537175   6.259696   2.182294   3.656916
    15  S    8.218863   6.742013   8.914044   4.000647   4.135329
    16  C    9.107980   7.117891   9.446560   4.567552   3.973492
    17  C    8.536447   6.164721   8.554275   3.895788   2.869585
    18  H   10.102258   8.158565  10.480012   5.619307   4.956291
    19  H    9.103585   6.542793   8.921959   4.568223   3.211519
    20  H    2.495999   4.713975   4.829388   4.260336   5.874321
    21  H    3.584641   4.510935   5.361800   3.248009   4.668702
    22  H    3.615815   4.508526   5.386358   3.237540   4.971134
                   11         12         13         14         15
    11  C    0.000000
    12  C    1.405125   0.000000
    13  C    2.367568   1.418051   0.000000
    14  H    3.384599   2.211734   1.079769   0.000000
    15  S    2.589814   1.736250   2.873467   3.208990   0.000000
    16  C    2.319241   2.497792   3.867297   4.539460   1.749338
    17  C    1.421570   2.367249   3.610058   4.522027   2.609170
    18  H    3.354673   3.551298   4.902019   5.506521   2.489812
    19  H    2.225371   3.386104   4.521152   5.482086   3.639299
    20  H    6.489259   5.721058   4.386812   3.787247   6.726583
    21  H    5.125245   4.433504   3.283464   2.888554   5.350458
    22  H    5.241367   4.264704   2.941072   2.145595   5.215594
                   16         17         18         19         20
    16  C    0.000000
    17  C    1.381133   0.000000
    18  H    1.079370   2.194206   0.000000
    19  H    2.164409   1.082162   2.594884   0.000000
    20  H    7.888868   7.671095   8.793610   8.404811   0.000000
    21  H    6.363632   6.170169   7.219850   6.867001   1.763578
    22  H    6.528094   6.432209   7.456976   7.291107   1.757961
                   21         22
    21  H    0.000000
    22  H    1.771505   0.000000
 Stoichiometry    C11H8S3
 Framework group  C1[X(C11H8S3)]
 Deg. of freedom    60
 Full point group                 C1      NOp   1
 Largest Abelian subgroup         C1      NOp   1
 Largest concise Abelian subgroup C1      NOp   1
                         Standard orientation:                         
 ---------------------------------------------------------------------
 Center     Atomic      Atomic             Coordinates (Angstroms)
 Number     Number       Type             X           Y           Z
 ---------------------------------------------------------------------
      1          6           0        3.912093    0.829966    0.232625
      2          6           0        2.529298    1.155396    0.238927
      3          6           0        1.724729    0.058256   -0.075872
      4          6           0        2.028697    2.533063    0.559156
      5          6           0        4.179964   -0.487857   -0.080927
      6          1           0        4.695041    1.540934    0.453801
      7         16           0        2.732436   -1.364290   -0.381432
      8          1           0        5.154623   -0.948793   -0.130749
      9          6           0        0.291772   -0.066890   -0.144319
     10         16           0       -0.526302   -1.568053    0.333546
     11          6           0       -2.083378   -0.913144   -0.046347
     12          6           0       -1.970439    0.413405   -0.495668
     13          6           0       -0.638222    0.897786   -0.533620
     14          1           0       -0.373421    1.923355   -0.743363
     15         16           0       -3.482109    1.249211   -0.320036
     16          6           0       -4.248604   -0.177707    0.340702
     17          6           0       -3.375014   -1.242069    0.447963
     18          1           0       -5.260852   -0.152532    0.714544
     19          1           0       -3.614273   -2.136452    1.008240
     20          1           0        2.863543    3.212147    0.741333
     21          1           0        1.399306    2.534872    1.453733
     22          1           0        1.446241    2.955351   -0.266507
 ---------------------------------------------------------------------
 Rotational constants (GHZ):           1.2586284           0.2833860           0.2383249
 Standard basis: 6-311+G(d,p) (5D, 7F)
 There are   394 symmetry adapted cartesian basis functions of A   symmetry.
 There are   380 symmetry adapted basis functions of A   symmetry.
   380 basis functions,   610 primitive gaussians,   394 cartesian basis functions
    61 alpha electrons       61 beta electrons
       nuclear repulsion energy      1123.2170470578 Hartrees.
 NAtoms=   22 NActive=   22 NUniq=   22 SFac= 1.00D+00 NAtFMM=   60 NAOKFM=F Big=F
 Integral buffers will be    131072 words long.
 Raffenetti 2 integral format.
 Two-electron integral symmetry is turned on.
 One-electron integrals computed using PRISM.
 NBasis=   380 RedAO= T EigKep=  2.04D-06  NBF=   380
 NBsUse=   378 1.00D-06 EigRej=  7.66D-07 NBFU=   378
 Initial guess from the checkpoint file:  "/tmp/pbs.4729010[30].pbs/Gau-1150346.chk"
 B after Tr=     0.000000   -0.000000    0.000000
         Rot=    0.999993   -0.001642    0.001566   -0.002945 Ang=  -0.43 deg.
 ExpMin= 4.05D-02 ExpMax= 9.34D+04 ExpMxC= 3.17D+03 IAcc=3 IRadAn=         5 AccDes= 0.00D+00
 Harris functional with IExCor=  402 and IRadAn=       5 diagonalized for initial guess.
 HarFok:  IExCor=  402 AccDes= 0.00D+00 IRadAn=         5 IDoV= 1 UseB2=F ITyADJ=14
 ICtDFT=  3500011 ScaDFX=  1.000000  1.000000  1.000000  1.000000
 FoFCou: FMM=F IPFlag=           0 FMFlag=      100000 FMFlg1=           0
         NFxFlg=           0 DoJE=T BraDBF=F KetDBF=T FulRan=T
         wScrn=  0.000000 ICntrl=       500 IOpCl=  0 I1Cent=   200000004 NGrid=           0
         NMat0=    1 NMatS0=      1 NMatT0=    0 NMatD0=    1 NMtDS0=    0 NMtDT0=    0
 Petite list used in FoFCou.
 Requested convergence on RMS density matrix=1.00D-08 within 128 cycles.
 Requested convergence on MAX density matrix=1.00D-06.
 Requested convergence on             energy=1.00D-06.
 No special actions if energy rises.
 SCF Done:  E(RB3LYP) =  -1618.70526556     A.U. after   14 cycles
            NFock= 14  Conv=0.86D-08     -V/T= 2.0023
 Calling FoFJK, ICntrl=      2127 FMM=F ISym2X=0 I1Cent= 0 IOpClX= 0 NMat=1 NMatS=1 NMatT=0.
 ***** Axes restored to original set *****
 -------------------------------------------------------------------
 Center     Atomic                   Forces (Hartrees/Bohr)
 Number     Number              X              Y              Z
 -------------------------------------------------------------------
      1        6          -0.001160627   -0.014817485    0.004304858
      2        6           0.007810949   -0.006358770    0.001300663
      3        6          -0.016651280   -0.002896932    0.002476165
      4        6           0.001117144    0.002724834    0.000253856
      5        6          -0.001887805    0.016177003   -0.003994721
      6        1          -0.000498210    0.001803416   -0.000250489
      7       16           0.002974104    0.001977066   -0.001030974
      8        1           0.001901749   -0.002655321    0.000382474
      9        6           0.018322852    0.013907997    0.000399430
     10       16          -0.005560922   -0.003986610    0.007259562
     11        6           0.000288918    0.013603685   -0.005251439
     12        6          -0.008004970   -0.007129509   -0.011796282
     13        6          -0.009393055   -0.010379052   -0.001956911
     14        1           0.000831773   -0.001813304    0.004158706
     15       16           0.009859961    0.000989296    0.001794657
     16        6          -0.012522460   -0.012788682    0.000115819
     17        6           0.006910246    0.012136973   -0.004779254
     18        1           0.002583853    0.002159902    0.003694043
     19        1           0.003087862   -0.002725703    0.004668153
     20        1          -0.000566982   -0.000488071   -0.000290806
     21        1           0.001841874    0.000195010   -0.000067729
     22        1          -0.001284975    0.000364258   -0.001389781
 -------------------------------------------------------------------
 Cartesian Forces:  Max     0.018322852 RMS     0.006719961

 GradGradGradGradGradGradGradGradGradGradGradGradGradGradGradGradGradGrad
 Berny optimization.
 Using GEDIIS/GDIIS optimizer.
 FormGI is forming the generalized inverse of G from B-inverse, IUseBI=4.
 Internal  Forces:  Max     0.014164054 RMS     0.003270071
 Search for a local minimum.
 Step number   2 out of a maximum of  127
 All quantities printed in internal units (Hartrees-Bohrs-Radians)
 Mixed Optimization -- RFO/linear search
 Update second derivatives using D2CorX and points    1    2
 DE= -2.90D-02 DEPred=-2.83D-02 R= 1.03D+00
 TightC=F SS=  1.41D+00  RLast= 4.16D-01 DXNew= 5.0454D-01 1.2467D+00
 Trust test= 1.03D+00 RLast= 4.16D-01 DXMaxT set to 5.05D-01
 ITU=  1  0
 Use linear search instead of GDIIS.
     Eigenvalues ---    0.00934   0.00982   0.01050   0.01210   0.01242
     Eigenvalues ---    0.01275   0.01289   0.01370   0.01463   0.01471
     Eigenvalues ---    0.01500   0.01582   0.01592   0.01692   0.01977
     Eigenvalues ---    0.02221   0.07184   0.07359   0.15604   0.15689
     Eigenvalues ---    0.15899   0.15964   0.16000   0.16000   0.16000
     Eigenvalues ---    0.16030   0.19191   0.22475   0.22580   0.23470
     Eigenvalues ---    0.24338   0.24574   0.24788   0.24992   0.25294
     Eigenvalues ---    0.26085   0.26556   0.28368   0.30429   0.31000
     Eigenvalues ---    0.31438   0.33658   0.33807   0.34527   0.34609
     Eigenvalues ---    0.34936   0.35119   0.35732   0.35933   0.36006
     Eigenvalues ---    0.36106   0.36142   0.36234   0.36896   0.38218
     Eigenvalues ---    0.39040   0.39562   0.40494   0.426901000.00000
     Eigenvalues --- 1000.000001000.000001000.000001000.000001000.00000
     Eigenvalues --- 1000.000001000.000001000.000001000.000001000.00000
     Eigenvalues --- 1000.000001000.000001000.000001000.000001000.00000
     Eigenvalues --- 1000.000001000.000001000.000001000.000001000.00000
     Eigenvalues --- 1000.000001000.000001000.000001000.000001000.00000
     Eigenvalues --- 1000.000001000.000001000.000001000.000001000.00000
     Eigenvalues --- 1000.000001000.000001000.000001000.000001000.00000
     Eigenvalues --- 1000.000001000.000001000.000001000.000001000.00000
     Eigenvalues --- 1000.000001000.000001000.000001000.000001000.00000
     Eigenvalues --- 1000.000001000.000001000.000001000.000001000.00000
     Eigenvalues --- 1000.000001000.000001000.000001000.000001000.00000
     Eigenvalues --- 1000.000001000.00000
 RFO step:  Lambda=-7.60088738D-03 EMin= 9.34032406D-03
 Quartic linear search produced a step of  0.32943.
 Iteration  1 RMS(Cart)=  0.09134632 RMS(Int)=  0.00657998
 Iteration  2 RMS(Cart)=  0.00861965 RMS(Int)=  0.00231381
 Iteration  3 RMS(Cart)=  0.00004402 RMS(Int)=  0.00231349
 Iteration  4 RMS(Cart)=  0.00000003 RMS(Int)=  0.00231349
 Iteration  1 RMS(Cart)=  0.00002560 RMS(Int)=  0.00000960
 Iteration  2 RMS(Cart)=  0.00001401 RMS(Int)=  0.00001073
 Iteration  3 RMS(Cart)=  0.00000766 RMS(Int)=  0.00001212
 Iteration  4 RMS(Cart)=  0.00000419 RMS(Int)=  0.00001304
 Iteration  5 RMS(Cart)=  0.00000229 RMS(Int)=  0.00001358
 Iteration  6 RMS(Cart)=  0.00000125 RMS(Int)=  0.00001389
 Iteration  7 RMS(Cart)=  0.00000069 RMS(Int)=  0.00001406
 Variable       Old X    -DE/DX   Delta X   Delta X   Delta X     New X
                                 (Linear)    (Quad)   (Total)
    R1        2.68452   0.00212  -0.01142   0.01927   0.00789   2.69241
    R2        2.60942  -0.01191  -0.03442  -0.00006  -0.03451   2.57491
    R3        2.04178   0.00150   0.00127   0.00384   0.00511   2.04689
    R4        2.63896  -0.00859  -0.03957   0.01527  -0.02425   2.61471
    R5        2.83529   0.00325   0.00819   0.00287   0.01106   2.84635
    R6        3.34459  -0.00509  -0.01686  -0.00341  -0.02026   3.32433
    R7        2.72128   0.00648  -0.00931   0.03248   0.02317   2.74445
    R8        2.06258   0.00013  -0.00060   0.00117   0.00058   2.06316
    R9        2.06699   0.00061   0.00302  -0.00123   0.00180   2.06879
   R10        2.06949  -0.00159  -0.00227  -0.00339  -0.00566   2.06383
   R11        3.24779   0.00094  -0.01282   0.01864   0.00576   3.25355
   R12        2.03959  -0.00019  -0.00037  -0.00024  -0.00062   2.03897
   R13        3.35451  -0.00230  -0.00934   0.00913  -0.00285   3.35166
   R14        2.63686  -0.01416  -0.04304   0.00294  -0.04167   2.59519
   R15        3.27185   0.00466   0.00098   0.01544   0.01701   3.28886
   R16        2.65530  -0.00767  -0.02257  -0.01114  -0.02903   2.62627
   R17        2.68638   0.00155  -0.00266   0.00467   0.00358   2.68996
   R18        2.67973   0.00105  -0.00887   0.01005   0.00263   2.68235
   R19        3.28104   0.00472   0.00190   0.01540   0.01722   3.29826
   R20        2.04047  -0.00052   0.00051  -0.00242  -0.00192   2.03855
   R21        3.30577  -0.00236  -0.00962   0.00851  -0.00327   3.30250
   R22        2.60996  -0.01302  -0.03976   0.00482  -0.03575   2.57422
   R23        2.03971  -0.00008  -0.00071   0.00052  -0.00019   2.03953
   R24        2.04499  -0.00046  -0.00325   0.00203  -0.00122   2.04377
    A1        1.99157   0.00029   0.00704  -0.00856  -0.00150   1.99007
    A2        2.15762  -0.00132  -0.00517  -0.00254  -0.00773   2.14989
    A3        2.13400   0.00103  -0.00187   0.01110   0.00922   2.14322
    A4        1.96042  -0.00069  -0.00377   0.00096  -0.00277   1.95764
    A5        2.13657   0.00034   0.01236  -0.01339  -0.00115   2.13541
    A6        2.18619   0.00035  -0.00859   0.01235   0.00363   2.18982
    A7        1.92021   0.00154   0.00521   0.00224   0.00749   1.92771
    A8        2.28141  -0.00258  -0.01235   0.00144  -0.01100   2.27041
    A9        2.08118   0.00104   0.00707  -0.00400   0.00298   2.08416
   A10        1.93019  -0.00101  -0.00504  -0.00024  -0.00525   1.92494
   A11        1.94772   0.00037   0.00449  -0.00363   0.00086   1.94858
   A12        1.95046   0.00148   0.00565   0.00332   0.00898   1.95944
   A13        1.87820   0.00050   0.00135   0.00260   0.00397   1.88217
   A14        1.86788  -0.00009   0.00060  -0.00096  -0.00034   1.86755
   A15        1.88593  -0.00130  -0.00743  -0.00101  -0.00846   1.87747
   A16        1.94228   0.00056  -0.00366   0.00700   0.00328   1.94555
   A17        2.20587   0.00305   0.00991   0.01125   0.02117   2.22705
   A18        2.13498  -0.00361  -0.00621  -0.01819  -0.02440   2.11058
   A19        1.61029  -0.00171  -0.00481  -0.00163  -0.00650   1.60379
   A20        2.11681  -0.00472  -0.00402  -0.01980  -0.02417   2.09264
   A21        2.23495   0.00310  -0.00171   0.01694   0.01486   2.24981
   A22        1.93114   0.00165   0.00587   0.00389   0.00932   1.94046
   A23        1.60631  -0.00164  -0.00423  -0.00780  -0.00995   1.59637
   A24        1.93369  -0.00220  -0.00914   0.00763  -0.00388   1.92981
   A25        2.28274   0.00368   0.01461   0.04498   0.04871   2.33145
   A26        1.98522   0.00070   0.00658  -0.00084   0.00513   1.99035
   A27        1.98947   0.00052   0.00761  -0.00174   0.00472   1.99420
   A28        1.93065  -0.00175  -0.01167   0.01452  -0.00010   1.93055
   A29        2.28660   0.00342   0.01615   0.04066   0.04544   2.33204
   A30        1.96333   0.00170  -0.00013  -0.00089   0.00052   1.96384
   A31        2.15003  -0.00082  -0.00353   0.01015   0.00250   2.15253
   A32        2.16522  -0.00057   0.00605  -0.00047   0.00148   2.16670
   A33        1.59783  -0.00208   0.00151  -0.01873  -0.01422   1.58361
   A34        1.96145   0.00250   0.00044   0.01627   0.01516   1.97662
   A35        2.12082  -0.00457  -0.00491  -0.02066  -0.03020   2.09062
   A36        2.19476   0.00252   0.00805   0.01743   0.02073   2.21549
   A37        1.94914   0.00064   0.00308  -0.01042  -0.00565   1.94349
   A38        2.17992  -0.00050   0.00474   0.00738   0.00549   2.18540
   A39        2.13801   0.00066  -0.00103   0.02323   0.01562   2.15363
    D1        0.00132  -0.00003  -0.00182   0.00228   0.00042   0.00174
    D2        3.13826  -0.00044  -0.00341  -0.01700  -0.02040   3.11786
    D3       -3.13822   0.00011   0.00043   0.00314   0.00348  -3.13473
    D4       -0.00127  -0.00030  -0.00117  -0.01613  -0.01733  -0.01861
    D5        0.00251   0.00020   0.00304  -0.00334  -0.00033   0.00218
    D6       -3.12792  -0.00013   0.00075  -0.00933  -0.00867  -3.13659
    D7       -3.14111   0.00006   0.00084  -0.00421  -0.00341   3.13867
    D8        0.01165  -0.00027  -0.00145  -0.01020  -0.01174  -0.00010
    D9       -0.00439  -0.00015  -0.00017  -0.00021  -0.00033  -0.00472
   D10        3.10652  -0.00020  -0.00366  -0.01295  -0.01657   3.08995
   D11       -3.14117   0.00027   0.00149   0.01981   0.02128  -3.11990
   D12       -0.03027   0.00022  -0.00200   0.00706   0.00505  -0.02522
   D13        0.03316  -0.00050  -0.00152  -0.03248  -0.03399  -0.00083
   D14       -2.05705  -0.00070  -0.00285  -0.03320  -0.03604  -2.09309
   D15        2.11216  -0.00033  -0.00038  -0.03168  -0.03208   2.08008
   D16       -3.11370  -0.00097  -0.00333  -0.05436  -0.05768   3.11180
   D17        1.07927  -0.00117  -0.00466  -0.05509  -0.05973   1.01954
   D18       -1.03470  -0.00079  -0.00219  -0.05356  -0.05577  -1.09047
   D19        0.00495   0.00022   0.00161  -0.00142   0.00011   0.00506
   D20       -3.10999   0.00034   0.00490   0.00956   0.01467  -3.09533
   D21       -2.53043  -0.00105  -0.00000   0.00000  -0.00000  -2.53043
   D22        0.58275   0.00079   0.00526   0.05047   0.05588   0.63864
   D23        0.57812  -0.00110  -0.00380  -0.01362  -0.01743   0.56069
   D24       -2.59188   0.00074   0.00146   0.03685   0.03846  -2.55343
   D25       -0.00424  -0.00023  -0.00264   0.00267   0.00013  -0.00411
   D26        3.12672   0.00012  -0.00026   0.00859   0.00815   3.13487
   D27       -3.13099   0.00090   0.00468   0.02051   0.02436  -3.10663
   D28        0.03451  -0.00069   0.00038  -0.02224  -0.02247   0.01203
   D29        3.12730  -0.00091  -0.00563  -0.01898  -0.02482   3.10248
   D30       -0.11362   0.00236   0.01464   0.07545   0.08990  -0.02371
   D31       -0.04024   0.00068  -0.00101   0.02676   0.02667  -0.01357
   D32        3.00203   0.00394   0.01925   0.12119   0.14139  -3.13976
   D33       -0.01965   0.00058   0.00066   0.01172   0.01241  -0.00724
   D34       -2.70239  -0.00508  -0.02851  -0.12371  -0.15484  -2.85723
   D35        0.00030  -0.00019  -0.00111   0.00151   0.00067   0.00097
   D36       -2.77831  -0.00593  -0.02977  -0.12824  -0.15164  -2.92994
[...]
     15         16           0       -3.514602    1.228145   -0.468870
     16          6           0       -4.304850   -0.250122    0.031217
     17          6           0       -3.428414   -1.235648    0.384740
     18          1           0       -5.383223   -0.293904    0.031168
     19          1           0       -3.734750   -2.217105    0.718903
     20          1           0        2.875377    2.930582    1.340359
     21          1           0        1.185222    2.411303    1.260238
     22          1           0        1.956769    3.146351   -0.146695
 ---------------------------------------------------------------------
 Rotational constants (GHZ):           1.2721992           0.2783751           0.2371461

 **********************************************************************

            Population analysis using the SCF Density.

 **********************************************************************

 Orbital symmetries:
       Occupied  (A) (A) (A) (A) (A) (A) (A) (A) (A) (A) (A) (A)
                 (A) (A) (A) (A) (A) (A) (A) (A) (A) (A) (A) (A)
                 (A) (A) (A) (A) (A) (A) (A) (A) (A) (A) (A) (A)
                 (A) (A) (A) (A) (A) (A) (A) (A) (A) (A) (A) (A)
                 (A) (A) (A) (A) (A) (A) (A) (A) (A) (A) (A) (A)
                 (A)
       Virtual   (A) (A) (A) (A) (A) (A) (A) (A) (A) (A) (A) (A)
                 (A) (A) (A) (A) (A) (A) (A) (A) (A) (A) (A) (A)
                 (A) (A) (A) (A) (A) (A) (A) (A) (A) (A) (A) (A)
                 (A) (A) (A) (A) (A) (A) (A) (A) (A) (A) (A) (A)
                 (A) (A) (A) (A) (A) (A) (A) (A) (A) (A) (A) (A)
                 (A) (A) (A) (A) (A) (A) (A) (A) (A) (A) (A) (A)
                 (A) (A) (A) (A) (A) (A) (A) (A) (A) (A) (A) (A)
                 (A) (A) (A) (A) (A) (A) (A) (A) (A) (A) (A) (A)
                 (A) (A) (A) (A) (A) (A) (A) (A) (A) (A) (A) (A)
                 (A) (A) (A) (A) (A) (A) (A) (A) (A) (A) (A) (A)
                 (A) (A) (A) (A) (A) (A) (A) (A) (A) (A) (A) (A)
                 (A) (A) (A) (A) (A) (A) (A) (A) (A) (A) (A) (A)
                 (A) (A) (A) (A) (A) (A) (A) (A) (A) (A) (A) (A)
                 (A) (A) (A) (A) (A) (A) (A) (A) (A) (A) (A) (A)
                 (A) (A) (A) (A) (A) (A) (A) (A) (A) (A) (A) (A)
                 (A) (A) (A) (A) (A) (A) (A) (A) (A) (A) (A) (A)
                 (A) (A) (A) (A) (A) (A) (A) (A) (A) (A) (A) (A)
                 (A) (A) (A) (A) (A) (A) (A) (A) (A) (A) (A) (A)
                 (A) (A) (A) (A) (A) (A) (A) (A) (A) (A) (A) (A)
                 (A) (A) (A) (A) (A) (A) (A) (A) (A) (A) (A) (A)
                 (A) (A) (A) (A) (A) (A) (A) (A) (A) (A) (A) (A)
                 (A) (A) (A) (A) (A) (A) (A) (A) (A) (A) (A) (A)
                 (A) (A) (A) (A) (A) (A) (A) (A) (A) (A) (A) (A)
                 (A) (A) (A) (A) (A) (A) (A) (A) (A) (A) (A) (A)
                 (A) (A) (A) (A) (A) (A) (A) (A) (A) (A) (A) (A)
                 (A) (A) (A) (A) (A) (A) (A) (A) (A) (A) (A) (A)
                 (A) (A) (A) (A) (A)
 The electronic state is 1-A.
 Alpha  occ. eigenvalues --  -88.88465 -88.88291 -88.88051 -10.22476 -10.21577
 Alpha  occ. eigenvalues --  -10.21191 -10.21118 -10.21049 -10.20511 -10.19368
 Alpha  occ. eigenvalues --  -10.19345 -10.19318 -10.18166 -10.17707  -7.97040
 Alpha  occ. eigenvalues --   -7.96870  -7.96672  -5.93352  -5.93191  -5.92988
 Alpha  occ. eigenvalues --   -5.92967  -5.92829  -5.92589  -5.92588  -5.92394
 Alpha  occ. eigenvalues --   -5.92259  -0.91708  -0.89271  -0.84948  -0.78000
 Alpha  occ. eigenvalues --   -0.76940  -0.75861  -0.71452  -0.70561  -0.68142
 Alpha  occ. eigenvalues --   -0.61480  -0.57506  -0.57178  -0.54158  -0.52111
 Alpha  occ. eigenvalues --   -0.50040  -0.49754  -0.44602  -0.43845  -0.43666
 Alpha  occ. eigenvalues --   -0.42003  -0.41573  -0.40168  -0.39719  -0.38980
 Alpha  occ. eigenvalues --   -0.37872  -0.37777  -0.36457  -0.35039  -0.34274
 Alpha  occ. eigenvalues --   -0.33930  -0.29221  -0.26271  -0.25443  -0.23796
 Alpha  occ. eigenvalues --   -0.20943
 Alpha virt. eigenvalues --   -0.05853  -0.02055  -0.00767  -0.00461   0.00293
 Alpha virt. eigenvalues --    0.00702   0.00981   0.01493   0.02021   0.02763
 Alpha virt. eigenvalues --    0.02977   0.03375   0.03819   0.04244   0.04564
 Alpha virt. eigenvalues --    0.05286   0.05419   0.05681   0.05980   0.06673
 Alpha virt. eigenvalues --    0.06960   0.07277   0.07869   0.08518   0.08759
 Alpha virt. eigenvalues --    0.08901   0.09520   0.10242   0.10710   0.11143
 Alpha virt. eigenvalues --    0.11611   0.12165   0.12281   0.12879   0.13161
 Alpha virt. eigenvalues --    0.13771   0.14250   0.14485   0.14747   0.15462
 Alpha virt. eigenvalues --    0.15928   0.16014   0.16667   0.16842   0.17271
 Alpha virt. eigenvalues --    0.17626   0.18095   0.18525   0.18908   0.19186
 Alpha virt. eigenvalues --    0.19405   0.19822   0.20351   0.20630   0.20934
 Alpha virt. eigenvalues --    0.21364   0.21453   0.21857   0.22186   0.22714
 Alpha virt. eigenvalues --    0.22848   0.23242   0.23897   0.24847   0.25428
 Alpha virt. eigenvalues --    0.25715   0.25791   0.26227   0.26794   0.27373
 Alpha virt. eigenvalues --    0.27920   0.28437   0.28963   0.30358   0.31527
 Alpha virt. eigenvalues --    0.31932   0.33343   0.33469   0.33799   0.34263
 Alpha virt. eigenvalues --    0.35094   0.35678   0.35832   0.38297   0.39051
 Alpha virt. eigenvalues --    0.39460   0.41790   0.42589   0.43978   0.44501
 Alpha virt. eigenvalues --    0.44766   0.45852   0.47829   0.48152   0.49806
 Alpha virt. eigenvalues --    0.50829   0.52044   0.54050   0.55250   0.55498
 Alpha virt. eigenvalues --    0.56213   0.56642   0.57457   0.58673   0.58892
 Alpha virt. eigenvalues --    0.59803   0.60958   0.61859   0.62315   0.63026
 Alpha virt. eigenvalues --    0.63867   0.64525   0.65114   0.65776   0.66903
 Alpha virt. eigenvalues --    0.68806   0.69413   0.70403   0.71187   0.71548
 Alpha virt. eigenvalues --    0.72394   0.73006   0.73844   0.74447   0.75333
 Alpha virt. eigenvalues --    0.76570   0.77381   0.77933   0.78766   0.79108
 Alpha virt. eigenvalues --    0.79252   0.81035   0.82082   0.82166   0.82468
 Alpha virt. eigenvalues --    0.83430   0.83900   0.84287   0.86492   0.87170
 Alpha virt. eigenvalues --    0.88136   0.88291   0.88948   0.89629   0.90943
 Alpha virt. eigenvalues --    0.91705   0.93553   0.94886   0.96703   0.97291
 Alpha virt. eigenvalues --    0.98196   0.99465   1.01504   1.02804   1.03493
 Alpha virt. eigenvalues --    1.03743   1.05149   1.05535   1.06277   1.07705
 Alpha virt. eigenvalues --    1.09137   1.10923   1.12661   1.13504   1.18404
 Alpha virt. eigenvalues --    1.18873   1.20634   1.22430   1.26146   1.33961
 Alpha virt. eigenvalues --    1.34361   1.35228   1.35956   1.38129   1.39931
 Alpha virt. eigenvalues --    1.42553   1.43716   1.47770   1.51404   1.51828
 Alpha virt. eigenvalues --    1.55597   1.55789   1.56678   1.58038   1.58655
 Alpha virt. eigenvalues --    1.60028   1.60486   1.61685   1.62264   1.63477
 Alpha virt. eigenvalues --    1.66596   1.66700   1.69135   1.70392   1.72403
 Alpha virt. eigenvalues --    1.72634   1.73511   1.74592   1.75735   1.77204
 Alpha virt. eigenvalues --    1.77453   1.80506   1.82158   1.83155   1.84063
 Alpha virt. eigenvalues --    1.84813   1.87618   1.88639   1.90446   1.92605
 Alpha virt. eigenvalues --    1.93824   1.95711   1.97328   1.97473   1.98860
 Alpha virt. eigenvalues --    2.01644   2.03228   2.04425   2.06636   2.07111
 Alpha virt. eigenvalues --    2.07953   2.08437   2.10107   2.10662   2.12539
 Alpha virt. eigenvalues --    2.14074   2.15265   2.16784   2.18261   2.18931
 Alpha virt. eigenvalues --    2.21133   2.25657   2.30800   2.34745   2.37465
 Alpha virt. eigenvalues --    2.40320   2.41068   2.43210   2.45191   2.48339
 Alpha virt. eigenvalues --    2.52793   2.53086   2.56440   2.59718   2.60972
 Alpha virt. eigenvalues --    2.62098   2.63000   2.68635   2.70260   2.70437
 Alpha virt. eigenvalues --    2.71193   2.72247   2.73299   2.74027   2.74833
 Alpha virt. eigenvalues --    2.77685   2.80305   2.83156   2.83644   2.87426
 Alpha virt. eigenvalues --    2.90759   2.93747   2.94737   2.96008   3.01945
 Alpha virt. eigenvalues --    3.02467   3.05669   3.07085   3.11757   3.13671
 Alpha virt. eigenvalues --    3.18118   3.20764   3.28857   3.29551   3.30816
 Alpha virt. eigenvalues --    3.36753   3.41909   3.44954   3.47413   3.53482
 Alpha virt. eigenvalues --    3.57387   3.69206   3.79753   3.82802   3.93836
 Alpha virt. eigenvalues --    3.97221   4.06775   4.12145   4.33651   4.36691
 Alpha virt. eigenvalues --    4.57868   7.98264   7.99595   8.01426  17.28102
 Alpha virt. eigenvalues --   17.29554  17.30463  17.45169  17.46055  17.50949
 Alpha virt. eigenvalues --   17.51945  17.54916  17.57089  23.47361  23.64177
 Alpha virt. eigenvalues --   23.77724  23.81370  23.85791  23.95074  24.02075
 Alpha virt. eigenvalues --   24.07700  24.11212  24.14966  24.15597 189.15279
 Alpha virt. eigenvalues --  189.16732 189.18655
          Condensed to atoms (all electrons):
               1          2          3          4          5          6
     1  C   11.267834  -5.726952   3.181960  -2.007996  -0.864328   0.369750
     2  C   -5.726952  18.621731  -7.005711   1.274210   1.965536  -0.055333
     3  C    3.181960  -7.005711  13.130148  -1.730789  -1.339265   0.022546
     4  C   -2.007996   1.274210  -1.730789   7.945963   0.165656   0.007729
     5  C   -0.864328   1.965536  -1.339265   0.165656   5.942722  -0.012911
     6  H    0.369750  -0.055333   0.022546   0.007729  -0.012911   0.536448
     7  S   -0.860379  -0.107251  -1.013752   0.532109   0.035855   0.012394
     8  H    0.019160  -0.024969   0.013220   0.001521   0.379250  -0.005640
     9  C    0.036720  -0.763766  -0.121317   0.011568  -0.033692  -0.003447
    10  S   -0.246494   1.466112  -0.067972   0.178580   0.117505  -0.000412
    11  C    0.149380  -0.809495  -0.016849  -0.073071  -0.055696  -0.000323
    12  C   -0.716866   2.044867  -0.488475   0.878406   0.185845   0.000377
    13  C    1.260950  -4.345026   0.902779  -1.280861  -0.387555   0.002324
    14  H   -0.005176   0.080798  -0.042734   0.027215   0.004267  -0.000004
    15  S   -0.003913   0.012461  -0.036224  -0.010883   0.002398   0.000007
    16  C   -0.006683   0.040910   0.016498   0.020535   0.001316  -0.000001
    17  C    0.046808  -0.429086   0.021118  -0.067487  -0.017875  -0.000015
    18  H    0.000000  -0.000044  -0.000214  -0.000013  -0.000001   0.000000
    19  H   -0.000006   0.000097  -0.000540   0.000014   0.000007  -0.000000
    20  H    0.025772  -0.060426  -0.040390   0.419124   0.017405   0.001524
    21  H   -0.049769  -0.135647   0.110206   0.395846  -0.008009   0.000103
    22  H    0.052126  -0.015056  -0.009684   0.343277  -0.002341   0.000053
               7          8          9         10         11         12
     1  C   -0.860379   0.019160   0.036720  -0.246494   0.149380  -0.716866
     2  C   -0.107251  -0.024969  -0.763766   1.466112  -0.809495   2.044867
     3  C   -1.013752   0.013220  -0.121317  -0.067972  -0.016849  -0.488475
     4  C    0.532109   0.001521   0.011568   0.178580  -0.073071   0.878406
     5  C    0.035855   0.379250  -0.033692   0.117505  -0.055696   0.185845
     6  H    0.012394  -0.005640  -0.003447  -0.000412  -0.000323   0.000377
     7  S   17.790270  -0.020922  -0.113199  -0.222494   0.044827   0.000891
     8  H   -0.020922   0.485331  -0.005992  -0.000210  -0.000105  -0.000241
     9  C   -0.113199  -0.005992   9.850255   0.167128  -0.875551  -0.671880
    10  S   -0.222494  -0.000210   0.167128  18.287753  -0.013408   1.215558
    11  C    0.044827  -0.000105  -0.875551  -0.013408  15.787300  -4.361189
    12  C    0.000891  -0.000241  -0.671880   1.215558  -4.361189  17.464843
    13  C    0.313875  -0.000271  -1.075777  -3.298662   0.109946  -8.749906
    14  H   -0.005260  -0.000001   0.024540   0.021479  -0.067454   0.122181
    15  S   -0.001398  -0.000002  -0.734849   0.158284   0.445549  -0.275364
    16  C   -0.007660  -0.000000  -0.078676   0.166950   1.007929  -0.222821
    17  C    0.032546  -0.000009  -0.113819  -1.354557  -5.672736  -0.088878
    18  H    0.000006   0.000000   0.004200  -0.001686   0.005448   0.025268
    19  H    0.000062   0.000000  -0.007439   0.019845   0.034514  -0.066407
    20  H    0.001338  -0.000016  -0.014589  -0.000607  -0.001799   0.007766
    21  H    0.007927   0.000016  -0.003553  -0.005267  -0.011454  -0.028815
    22  H   -0.001406   0.000001   0.033530   0.001856   0.001787  -0.020913
              13         14         15         16         17         18
     1  C    1.260950  -0.005176  -0.003913  -0.006683   0.046808   0.000000
     2  C   -4.345026   0.080798   0.012461   0.040910  -0.429086  -0.000044
     3  C    0.902779  -0.042734  -0.036224   0.016498   0.021118  -0.000214
     4  C   -1.280861   0.027215  -0.010883   0.020535  -0.067487  -0.000013
     5  C   -0.387555   0.004267   0.002398   0.001316  -0.017875  -0.000001
     6  H    0.002324  -0.000004   0.000007  -0.000001  -0.000015   0.000000
     7  S    0.313875  -0.005260  -0.001398  -0.007660   0.032546   0.000006
     8  H   -0.000271  -0.000001  -0.000002  -0.000000  -0.000009   0.000000
     9  C   -1.075777   0.024540  -0.734849  -0.078676  -0.113819   0.004200
    10  S   -3.298662   0.021479   0.158284   0.166950  -1.354557  -0.001686
    11  C    0.109946  -0.067454   0.445549   1.007929  -5.672736   0.005448
    12  C   -8.749906   0.122181  -0.275364  -0.222821  -0.088878   0.025268
    13  C   20.813249   0.178764  -0.559632  -0.824687   2.438332   0.008251
    14  H    0.178764   0.521970   0.011661   0.002881  -0.009556  -0.000006
    15  S   -0.559632   0.011661  17.374826   0.422676  -0.376830  -0.042330
    16  C   -0.824687   0.002881   0.422676   5.855202  -0.630643   0.371994
    17  C    2.438332  -0.009556  -0.376830  -0.630643  12.004065  -0.011316
    18  H    0.008251  -0.000006  -0.042330   0.371994  -0.011316   0.477991
    19  H   -0.007103   0.000007   0.012801   0.029236   0.333331  -0.004964
    20  H    0.006084   0.000409   0.000214   0.000004  -0.000221   0.000000
    21  H    0.093082  -0.001926   0.001939  -0.000554  -0.000293   0.000000
    22  H   -0.028262  -0.000829  -0.000384  -0.000008   0.000559   0.000000
              19         20         21         22
     1  C   -0.000006   0.025772  -0.049769   0.052126
     2  C    0.000097  -0.060426  -0.135647  -0.015056
     3  C   -0.000540  -0.040390   0.110206  -0.009684
     4  C    0.000014   0.419124   0.395846   0.343277
     5  C    0.000007   0.017405  -0.008009  -0.002341
     6  H   -0.000000   0.001524   0.000103   0.000053
     7  S    0.000062   0.001338   0.007927  -0.001406
     8  H    0.000000  -0.000016   0.000016   0.000001
     9  C   -0.007439  -0.014589  -0.003553   0.033530
    10  S    0.019845  -0.000607  -0.005267   0.001856
    11  C    0.034514  -0.001799  -0.011454   0.001787
    12  C   -0.066407   0.007766  -0.028815  -0.020913
    13  C   -0.007103   0.006084   0.093082  -0.028262
    14  H    0.000007   0.000409  -0.001926  -0.000829
    15  S    0.012801   0.000214   0.001939  -0.000384
    16  C    0.029236   0.000004  -0.000554  -0.000008
    17  C    0.333331  -0.000221  -0.000293   0.000559
    18  H   -0.004964   0.000000   0.000000   0.000000
    19  H    0.520823   0.000000  -0.000000  -0.000000
    20  H    0.000000   0.543238  -0.021840  -0.027675
    21  H   -0.000000  -0.021840   0.526935  -0.032304
    22  H   -0.000000  -0.027675  -0.032304   0.538621
 Mulliken charges:
               1
     1  C    0.078102
     2  C   -0.027957
     3  C    0.515442
     4  C   -1.030653
     5  C   -0.096087
     6  H    0.124831
     7  S   -0.418380
     8  H    0.159879
     9  C    0.489607
    10  S   -0.589280
    11  C    0.372450
    12  C   -0.254246
    13  C    0.430104
    14  H    0.136774
    15  S   -0.401005
    16  C   -0.164398
    17  C   -0.103436
    18  H    0.167413
    19  H    0.135724
    20  H    0.144685
    21  H    0.163378
    22  H    0.167055
 Sum of Mulliken charges =  -0.00000
 Mulliken charges with hydrogens summed into heavy atoms:
               1
     1  C    0.202933
     2  C   -0.027957
     3  C    0.515442
     4  C   -0.555536
     5  C    0.063792
     7  S   -0.418380
     9  C    0.489607
    10  S   -0.589280
    11  C    0.372450
    12  C   -0.254246
    13  C    0.566878
    15  S   -0.401005
    16  C    0.003015
    17  C    0.032287
 Electronic spatial extent (au):  <R**2>=           4358.7822
 Charge=              0.0000 electrons
 Dipole moment (field-independent basis, Debye):
    X=              0.2918    Y=              0.8727    Z=              0.2221  Tot=              0.9466
 Quadrupole moment (field-independent basis, Debye-Ang):
   XX=            -88.2459   YY=            -98.3593   ZZ=           -108.6213
   XY=              5.0379   XZ=             -0.7893   YZ=             -0.7099
 Traceless Quadrupole moment (field-independent basis, Debye-Ang):
   XX=             10.1630   YY=              0.0495   ZZ=            -10.2125
   XY=              5.0379   XZ=             -0.7893   YZ=             -0.7099
 Octapole moment (field-independent basis, Debye-Ang**2):
  XXX=             -1.0011  YYY=              2.8633  ZZZ=              0.6515  XYY=              4.4086
  XXY=            -14.7338  XXZ=              2.0962  XZZ=              0.8459  YZZ=              1.3097
  YYZ=              1.5738  XYZ=             11.2844
 Hexadecapole moment (field-independent basis, Debye-Ang**3):
 XXXX=          -4199.1745 YYYY=          -1066.5696 ZZZZ=           -255.3483 XXXY=             20.9637
 XXXZ=            -26.4739 YYYX=             27.6292 YYYZ=            -11.7343 ZZZX=              4.8325
 ZZZY=              1.8496 XXYY=           -932.5580 XXZZ=           -911.9116 YYZZ=           -222.3954
 XXYZ=              9.0165 YYXZ=             -6.0678 ZZXY=             -0.2441
 N-N= 1.121811241237D+03 E-N=-6.067940260917D+03  KE= 1.615142180109D+03
 Unable to Open any file for archive entry.
 1\1\GINC-CX3-12-15\FOpt\RB3LYP\6-311+G(d,p)\C11H8S3\NS5018\16-Oct-2021
 \0\\# opt=modredundant b3lyp/6-311+g(d,p)\\pBTTT_-145.pdb\\0,1\C,-4.16
 81719783,-1.392194745,-0.0054607562\C,-2.9178346385,-0.9838103673,-0.5
 64151599\C,-2.0401063073,-2.043648439,-0.7001780074\C,-2.6413905591,0.
 4361861568,-0.9768032046\C,-4.2402134558,-2.7256885297,0.2723395887\H,
 -4.9890656905,-0.7069319009,0.1658395119\S,-2.767304118,-3.5367855205,
 -0.1252570341\H,-5.0691943076,-3.2820776802,0.6820678888\C,-0.67599341
 76,-2.0407523397,-1.1983553344\S,-0.0648700701,-3.4211013218,-2.131086
 3472\C,1.4983630992,-2.6701213066,-2.2911017338\C,1.5104205036,-1.4278
 535197,-1.67071872\C,0.2872506048,-1.0709586364,-1.0448025709\H,0.1280
 263307,-0.1671673375,-0.4752620496\S,3.0759885051,-0.6759857103,-1.831
 6233324\C,3.6711992225,-2.0535462141,-2.7304571887\C,2.7336533468,-3.0
 318006783,-2.8990016771\H,4.6918967542,-2.0493091805,-3.0811186142\H,2
 .921541994,-3.9558198483,-3.427822103\H,-3.5661351697,0.9314665661,-1.
 2823268804\H,-1.9377002067,0.4818097754,-1.8102507026\H,-2.2173604416,
 1.0220907775,-0.1534691337\\Version=ES64L-G16RevC.01\State=1-A\HF=-161
 8.717294\RMSD=4.038e-09\RMSF=1.871e-04\Dipole=-0.1390101,0.3454957,-0.
 0045467\Quadrupole=5.6541759,-0.4806847,-5.1734913,-2.7079654,-5.47072
 61,2.2976417\PG=C01 [X(C11H8S3)]\\@
 The archive entry for this job was punched.


 ON A TOMBSTONE, "HERE LIES LESTER MOORE,
 FOUR SLUGS FROM A 44, NO LES, NO MORE".
 Job cpu time:       0 days  2 hours 41 minutes 11.8 seconds.
 Elapsed time:       0 days  0 hours 20 minutes 23.5 seconds.
 File lengths (MBytes):  RWF=     91 Int=      0 D2E=      0 Chk=     11 Scr=      1
 Normal termination of Gaussian 16 at Sat Oct 16 23:12:46 2021.
