 Entering Gaussian System, Link 0=g16
 Input=pBTTT_70.gjf
 Output=pBTTT_70.log
 Initial command:
 /apps/gaussian/g16-c01-avx/g16/l1.exe "/tmp/pbs.4729010[245].pbs/Gau-3251739.inp" -scrdir="/tmp/pbs.4729010[245].pbs/"
 Entering Link 1 = /apps/gaussian/g16-c01-avx/g16/l1.exe PID=   3251744.
  
 Copyright (c) 1988-2019, Gaussian, Inc.  All Rights Reserved.
  
 This is part of the Gaussian(R) 16 program.  It is based on
 the Gaussian(R) 09 system (copyright 2009, Gaussian, Inc.),
 the Gaussian(R) 03 system (copyright 2003, Gaussian, Inc.),
 the Gaussian(R) 98 system (copyright 1998, Gaussian, Inc.),
 the Gaussian(R) 94 system (copyright 1995, Gaussian, Inc.),
 the Gaussian 92(TM) system (copyright 1992, Gaussian, Inc.),
 the Gaussian 90(TM) system (copyright 1990, Gaussian, Inc.),
 the Gaussian 88(TM) system (copyright 1988, Gaussian, Inc.),
 the Gaussian 86(TM) system (copyright 1986, Carnegie Mellon
 University), and the Gaussian 82(TM) system (copyright 1983,
 Carnegie Mellon University). Gaussian is a federally registered
 trademark of Gaussian, Inc.
  
 This software contains proprietary and confidential information,
 including trade secrets, belonging to Gaussian, Inc.
  
 This software is provided under written license and may be
 used, copied, transmitted, or stored only in accord with that
 written license.
  
 The following legend is applicable only to US Government
 contracts under FAR:
  
                    RESTRICTED RIGHTS LEGEND
  
 Use, reproduction and disclosure by the US Government is
 subject to restrictions as set forth in subparagraphs (a)
 and (c) of the Commercial Computer Software - Restricted
 Rights clause in FAR 52.227-19.
  
 Gaussian, Inc.
 340 Quinnipiac St., Bldg. 40, Wallingford CT 06492
  
  
 ---------------------------------------------------------------
 Warning -- This program may not be used in any manner that
 competes with the business of Gaussian, Inc. or will provide
 assistance to any competitor of Gaussian, Inc.  The licensee
 of this program is prohibited from giving any competitor of
 Gaussian, Inc. access to this program.  By using this program,
 the user acknowledges that Gaussian, Inc. is engaged in the
 business of creating and licensing software in the field of
 computational chemistry and represents and warrants to the
 licensee that it is not a competitor of Gaussian, Inc. and that
 it will not use this program in any manner prohibited above.
 ---------------------------------------------------------------
  

 Cite this work as:
 Gaussian 16, Revision C.01,
 M. J. Frisch, G. W. Trucks, H. B. Schlegel, G. E. Scuseria, 
 M. A. Robb, J. R. Cheeseman, G. Scalmani, V. Barone, 
 G. A. Petersson, H. Nakatsuji, X. Li, M. Caricato, A. V. Marenich, 
 J. Bloino, B. G. Janesko, R. Gomperts, B. Mennucci, H. P. Hratchian, 
 J. V. Ortiz, A. F. Izmaylov, J. L. Sonnenberg, D. Williams-Young, 
 F. Ding, F. Lipparini, F. Egidi, J. Goings, B. Peng, A. Petrone, 
 T. Henderson, D. Ranasinghe, V. G. Zakrzewski, J. Gao, N. Rega, 
 G. Zheng, W. Liang, M. Hada, M. Ehara, K. Toyota, R. Fukuda, 
 J. Hasegawa, M. Ishida, T. Nakajima, Y. Honda, O. Kitao, H. Nakai, 
 T. Vreven, K. Throssell, J. A. Montgomery, Jr., J. E. Peralta, 
 F. Ogliaro, M. J. Bearpark, J. J. Heyd, E. N. Brothers, K. N. Kudin, 
 V. N. Staroverov, T. A. Keith, R. Kobayashi, J. Normand, 
 K. Raghavachari, A. P. Rendell, J. C. Burant, S. S. Iyengar, 
 J. Tomasi, M. Cossi, J. M. Millam, M. Klene, C. Adamo, R. Cammi, 
 J. W. Ochterski, R. L. Martin, K. Morokuma, O. Farkas, 
 J. B. Foresman, and D. J. Fox, Gaussian, Inc., Wallingford CT, 2019.
 
 ******************************************
 Gaussian 16:  ES64L-G16RevC.01  3-Jul-2019
                17-Oct-2021 
 ******************************************
 %mem=10GB
 %nprocshared=8
 Will use up to    8 processors via shared memory.
 -------------------------------------
 # opt=modredundant b3lyp/6-311+g(d,p)
 -------------------------------------
 1/18=120,19=15,26=3,38=1/1,3;
 2/9=110,12=2,17=6,18=5,40=1/2;
 3/5=4,6=6,7=111,11=2,25=1,30=1,71=1,74=-5/1,2,3;
 4//1;
 5/5=2,38=5/2;
 6/7=2,8=2,9=2,10=2,28=1/1;
 7//1,2,3,16;
 1/18=20,19=15,26=3/3(2);
 2/9=110/2;
 99//99;
 2/9=110/2;
 3/5=4,6=6,7=111,11=2,25=1,30=1,71=1,74=-5/1,2,3;
 4/5=5,16=3,69=1/1;
 5/5=2,38=5/2;
 7//1,2,3,16;
 1/18=20,19=15,26=3/3(-5);
 2/9=110/2;
 6/7=2,8=2,9=2,10=2,19=2,28=1/1;
 99/9=1/99;
 ------------
 pBTTT_70.pdb
 ------------
 Symbolic Z-matrix:
 Charge =  0 Multiplicity = 1
 C                    -4.25     -1.36     -0.21 
 C                    -2.93     -0.95     -0.61 
 C                    -1.97     -2.05     -0.62 
 C                    -2.66      0.47     -0.96 
 C                    -4.33     -2.76      0.1 
 H                    -5.1      -0.7      -0.14 
 S                    -2.8      -3.56     -0.11 
 H                    -5.23     -3.27      0.41 
 C                    -0.56     -2.13     -0.97 
 S                     0.712    -1.38      0.042 
 C                     1.98     -1.915    -1.007 
 C                     1.484    -2.687    -2.118 
 C                     0.058    -2.829    -2.099 
 H                    -0.474    -3.504    -2.751 
 S                     2.662    -3.794    -2.741 
 C                     3.853    -3.254    -1.556 
 C                     3.326    -2.242    -0.67 
 H                     4.793    -3.767    -1.406 
 H                     3.796    -1.987     0.277 
 H                    -3.55      1.09     -0.83 
 H                    -2.35      0.56     -2. 
 H                    -1.88      0.89     -0.31 
 
 The following ModRedundant input section has been read:
 D       2       3       9      10 F                                           
 

 GradGradGradGradGradGradGradGradGradGradGradGradGradGradGradGradGradGrad
 Berny optimization.
 Initialization pass.
                           ----------------------------
                           !    Initial Parameters    !
                           ! (Angstroms and Degrees)  !
 --------------------------                            --------------------------
 ! Name  Definition              Value          Derivative Info.                !
 --------------------------------------------------------------------------------
 ! R1    R(1,2)                  1.4389         estimate D2E/DX2                !
 ! R2    R(1,5)                  1.4361         estimate D2E/DX2                !
 ! R3    R(1,6)                  1.0784         estimate D2E/DX2                !
 ! R4    R(2,3)                  1.46           estimate D2E/DX2                !
 ! R5    R(2,4)                  1.4872         estimate D2E/DX2                !
 ! R6    R(3,7)                  1.797          estimate D2E/DX2                !
 ! R7    R(3,9)                  1.455          estimate D2E/DX2                !
 ! R8    R(4,20)                 1.0924         estimate D2E/DX2                !
 ! R9    R(4,21)                 1.0889         estimate D2E/DX2                !
 ! R10   R(4,22)                 1.0988         estimate D2E/DX2                !
 ! R11   R(5,7)                  1.7393         estimate D2E/DX2                !
 ! R12   R(5,8)                  1.0799         estimate D2E/DX2                !
 ! R13   R(9,10)                 1.7901         estimate D2E/DX2                !
 ! R14   R(9,13)                 1.4646         estimate D2E/DX2                !
 ! R15   R(10,11)                1.7304         estimate D2E/DX2                !
 ! R16   R(11,12)                1.4409         estimate D2E/DX2                !
 ! R17   R(11,17)                1.4256         estimate D2E/DX2                !
 ! R18   R(12,13)                1.4332         estimate D2E/DX2                !
 ! R19   R(12,15)                1.7324         estimate D2E/DX2                !
 ! R20   R(13,14)                1.0788         estimate D2E/DX2                !
 ! R21   R(15,16)                1.7647         estimate D2E/DX2                !
 ! R22   R(16,17)                1.4446         estimate D2E/DX2                !
 ! R23   R(16,18)                1.0813         estimate D2E/DX2                !
 ! R24   R(17,19)                1.0875         estimate D2E/DX2                !
 ! A1    A(2,1,5)              112.8843         estimate D2E/DX2                !
 ! A2    A(2,1,6)              124.5209         estimate D2E/DX2                !
 ! A3    A(5,1,6)              122.5942         estimate D2E/DX2                !
 ! A4    A(1,2,3)              112.9799         estimate D2E/DX2                !
 ! A5    A(1,2,4)              120.2665         estimate D2E/DX2                !
 ! A6    A(3,2,4)              126.7536         estimate D2E/DX2                !
 ! A7    A(2,3,7)              109.1138         estimate D2E/DX2                !
 ! A8    A(2,3,9)              132.8639         estimate D2E/DX2                !
 ! A9    A(7,3,9)              118.0132         estimate D2E/DX2                !
 ! A10   A(2,4,20)             111.468          estimate D2E/DX2                !
 ! A11   A(2,4,21)             110.8154         estimate D2E/DX2                !
 ! A12   A(2,4,22)             110.7706         estimate D2E/DX2                !
 ! A13   A(20,4,21)            107.3779         estimate D2E/DX2                !
 ! A14   A(20,4,22)            106.918          estimate D2E/DX2                !
 ! A15   A(21,4,22)            109.3476         estimate D2E/DX2                !
 ! A16   A(1,5,7)              111.9209         estimate D2E/DX2                !
 ! A17   A(1,5,8)              124.6643         estimate D2E/DX2                !
 ! A18   A(7,5,8)              123.4062         estimate D2E/DX2                !
 ! A19   A(3,7,5)               93.0997         estimate D2E/DX2                !
 ! A20   A(3,9,10)             121.9758         estimate D2E/DX2                !
 ! A21   A(3,9,13)             128.3575         estimate D2E/DX2                !
 ! A22   A(10,9,13)            109.6273         estimate D2E/DX2                !
 ! A23   A(9,10,11)             92.7765         estimate D2E/DX2                !
 ! A24   A(10,11,12)           112.3836         estimate D2E/DX2                !
 ! A25   A(10,11,17)           128.278          estimate D2E/DX2                !
 ! A26   A(12,11,17)           112.6054         estimate D2E/DX2                !
 ! A27   A(11,12,13)           112.6659         estimate D2E/DX2                !
 ! A28   A(11,12,15)           112.6783         estimate D2E/DX2                !
 ! A29   A(13,12,15)           128.1721         estimate D2E/DX2                !
 ! A30   A(9,13,12)            112.5052         estimate D2E/DX2                !
 ! A31   A(9,13,14)            123.8088         estimate D2E/DX2                !
 ! A32   A(12,13,14)           123.0018         estimate D2E/DX2                !
 ! A33   A(12,15,16)            91.255          estimate D2E/DX2                !
 ! A34   A(15,16,17)           112.3333         estimate D2E/DX2                !
 ! A35   A(15,16,18)           122.3208         estimate D2E/DX2                !
 ! A36   A(17,16,18)           124.3604         estimate D2E/DX2                !
 ! A37   A(11,17,16)           111.1096         estimate D2E/DX2                !
 ! A38   A(11,17,19)           124.0639         estimate D2E/DX2                !
 ! A39   A(16,17,19)           122.7288         estimate D2E/DX2                !
 ! D1    D(5,1,2,3)              0.3915         estimate D2E/DX2                !
 ! D2    D(5,1,2,4)           -179.5973         estimate D2E/DX2                !
 ! D3    D(6,1,2,3)           -179.8811         estimate D2E/DX2                !
 ! D4    D(6,1,2,4)              0.13           estimate D2E/DX2                !
 ! D5    D(2,1,5,7)             -0.3845         estimate D2E/DX2                !
 ! D6    D(2,1,5,8)           -179.3471         estimate D2E/DX2                !
 ! D7    D(6,1,5,7)            179.8822         estimate D2E/DX2                !
 ! D8    D(6,1,5,8)              0.9196         estimate D2E/DX2                !
 ! D9    D(1,2,3,7)             -0.2224         estimate D2E/DX2                !
 ! D10   D(1,2,3,9)            178.6265         estimate D2E/DX2                !
 ! D11   D(4,2,3,7)            179.7656         estimate D2E/DX2                !
 ! D12   D(4,2,3,9)             -1.3855         estimate D2E/DX2                !
 ! D13   D(1,2,4,20)             2.1641         estimate D2E/DX2                !
 ! D14   D(1,2,4,21)          -117.3645         estimate D2E/DX2                !
 ! D15   D(1,2,4,22)           121.0843         estimate D2E/DX2                !
 ! D16   D(3,2,4,20)          -177.8231         estimate D2E/DX2                !
 ! D17   D(3,2,4,21)            62.6483         estimate D2E/DX2                !
 ! D18   D(3,2,4,22)           -58.9029         estimate D2E/DX2                !
 ! D19   D(2,3,7,5)              0.0033         estimate D2E/DX2                !
 ! D20   D(9,3,7,5)           -179.041          estimate D2E/DX2                !
 ! D21   D(2,3,9,10)            70.0098         Frozen                          !
 ! D22   D(2,3,9,13)          -112.5198         estimate D2E/DX2                !
 ! D23   D(7,3,9,10)          -111.2222         estimate D2E/DX2                !
 ! D24   D(7,3,9,13)            66.2481         estimate D2E/DX2                !
 ! D25   D(1,5,7,3)              0.2153         estimate D2E/DX2                !
 ! D26   D(8,5,7,3)            179.1932         estimate D2E/DX2                !
 ! D27   D(3,9,10,11)          179.7642         estimate D2E/DX2                !
 ! D28   D(13,9,10,11)           1.87           estimate D2E/DX2                !
 ! D29   D(3,9,13,12)         -179.8199         estimate D2E/DX2                !
 ! D30   D(3,9,13,14)           -9.0671         estimate D2E/DX2                !
 ! D31   D(10,9,13,12)          -2.098          estimate D2E/DX2                !
 ! D32   D(10,9,13,14)         168.6548         estimate D2E/DX2                !
 ! D33   D(9,10,11,12)          -1.2015         estimate D2E/DX2                !
 ! D34   D(9,10,11,17)        -149.9105         estimate D2E/DX2                !
 ! D35   D(10,11,12,13)          0.1814         estimate D2E/DX2                !
 ! D36   D(10,11,12,15)       -154.0262         estimate D2E/DX2                !
 ! D37   D(17,11,12,13)        153.9719         estimate D2E/DX2                !
 ! D38   D(17,11,12,15)         -0.2357         estimate D2E/DX2                !
 ! D39   D(10,11,17,16)        149.7456         estimate D2E/DX2                !
 ! D40   D(10,11,17,19)        -14.1225         estimate D2E/DX2                !
 ! D41   D(12,11,17,16)          1.0925         estimate D2E/DX2                !
 ! D42   D(12,11,17,19)       -162.7756         estimate D2E/DX2                !
 ! D43   D(11,12,13,9)           1.2711         estimate D2E/DX2                !
 ! D44   D(11,12,13,14)       -169.568          estimate D2E/DX2                !
 ! D45   D(15,12,13,9)         150.5624         estimate D2E/DX2                !
 ! D46   D(15,12,13,14)        -20.2767         estimate D2E/DX2                !
 ! D47   D(11,12,15,16)         -0.5252         estimate D2E/DX2                !
 ! D48   D(13,12,15,16)       -149.8134         estimate D2E/DX2                !
 ! D49   D(12,15,16,17)          1.153          estimate D2E/DX2                !
 ! D50   D(12,15,16,18)        170.2482         estimate D2E/DX2                !
 ! D51   D(15,16,17,11)         -1.4834         estimate D2E/DX2                !
 ! D52   D(15,16,17,19)        162.6371         estimate D2E/DX2                !
 ! D53   D(18,16,17,11)       -170.317          estimate D2E/DX2                !
 ! D54   D(18,16,17,19)         -6.1964         estimate D2E/DX2                !
 --------------------------------------------------------------------------------
 Trust Radius=3.00D-01 FncErr=1.00D-07 GrdErr=1.00D-06 EigMax=2.50D+02 EigMin=1.00D-04
 Number of steps in this run=    127 maximum allowed number of steps=    132.
 GradGradGradGradGradGradGradGradGradGradGradGradGradGradGradGradGradGrad

                          Input orientation:                          
 ---------------------------------------------------------------------
 Center     Atomic      Atomic             Coordinates (Angstroms)
 Number     Number       Type             X           Y           Z
 ---------------------------------------------------------------------
      1          6           0       -4.250000   -1.360000   -0.210000
      2          6           0       -2.930000   -0.950000   -0.610000
      3          6           0       -1.970000   -2.050000   -0.620000
      4          6           0       -2.660000    0.470000   -0.960000
      5          6           0       -4.330000   -2.760000    0.100000
      6          1           0       -5.100000   -0.700000   -0.140000
      7         16           0       -2.800000   -3.560000   -0.110000
      8          1           0       -5.230000   -3.270000    0.410000
      9          6           0       -0.560000   -2.130000   -0.970000
     10         16           0        0.712000   -1.380000    0.042000
     11          6           0        1.980000   -1.915000   -1.007000
     12          6           0        1.484000   -2.687000   -2.118000
     13          6           0        0.058000   -2.829000   -2.099000
     14          1           0       -0.474000   -3.504000   -2.751000
     15         16           0        2.662000   -3.794000   -2.741000
     16          6           0        3.853000   -3.254000   -1.556000
     17          6           0        3.326000   -2.242000   -0.670000
     18          1           0        4.793000   -3.767000   -1.406000
     19          1           0        3.796000   -1.987000    0.277000
     20          1           0       -3.550000    1.090000   -0.830000
     21          1           0       -2.350000    0.560000   -2.000000
     22          1           0       -1.880000    0.890000   -0.310000
 ---------------------------------------------------------------------
                    Distance matrix (angstroms):
                    1          2          3          4          5
     1  C    0.000000
     2  C    1.438923   0.000000
     3  C    2.417147   1.460034   0.000000
     4  C    2.537617   1.487212   2.634787   0.000000
     5  C    1.436141   2.395871   2.567509   3.787532   0.000000
     6  H    1.078425   2.234346   3.442354   2.827525   2.212261
     7  S    2.636759   2.660639   1.796970   4.121044   1.739253
     8  H    2.234480   3.422397   3.630000   4.740190   1.079907
     9  C    3.845335   2.671872   1.454991   3.342170   3.969219
    10  S    4.968435   3.724804   2.842581   3.974530   5.227765
    11  C    6.305247   5.019655   3.971208   5.217282   6.461855
    12  C    6.187095   4.977412   3.818362   5.336698   6.223138
    13  C    4.927996   3.830915   2.628130   4.423601   4.908656
    14  H    5.031063   4.139895   2.982162   4.876367   4.852883
    15  S    7.752810   6.625705   5.384756   7.048215   7.617644
    16  C    8.429565   7.225816   6.019389   7.526125   8.363484
    17  C    7.641027   6.388302   5.299715   6.578088   7.712040
    18  H    9.433977   8.259167   7.021685   8.584771   9.301140
    19  H    8.085074   6.863032   5.835695   7.017617   8.164603
    20  H    2.622384   2.143455   3.521378   1.092428   4.036806
    21  H    3.240447   2.132745   2.976726   1.088944   4.399182
    22  H    3.269465   2.139650   2.957668   1.098772   4.415099
                    6          7          8          9         10
     6  H    0.000000
     7  S    3.670218   0.000000
     8  H    2.631406   2.501879   0.000000
     9  C    4.831708   2.793224   5.001290   0.000000
    10  S    5.854474   4.136381   6.246190   1.790147   0.000000
    11  C    7.235628   5.134105   7.471815   2.549352   1.730448
    12  C    7.156096   4.811117   7.197810   2.409583   2.640044
    13  C    5.913991   3.557899   5.869626   1.464639   2.666683
    14  H    6.006631   3.519701   5.715436   2.251052   3.703893
    15  S    8.751382   6.067154   8.513932   4.035669   4.168331
    16  C    9.417228   6.815201   9.293347   4.591442   3.991411
    17  C    8.582316   6.291153   8.684948   3.899172   2.843059
    18  H   10.434591   7.705590  10.198303   5.614666   4.944596
    19  H    8.998282   6.792004   9.117700   4.533232   3.151941
    20  H    2.466313   4.764808   4.834211   4.396374   5.002592
    21  H    3.551014   4.555107   5.363898   3.391327   4.160434
    22  H    3.595191   4.548505   5.389480   3.361309   3.463419
                   11         12         13         14         15
    11  C    0.000000
    12  C    1.440944   0.000000
    13  C    2.392059   1.433179   0.000000
    14  H    3.404199   2.214033   1.078774   0.000000
    15  S    2.646228   1.732415   2.850299   3.149396   0.000000
    16  C    2.366950   2.499899   3.857136   4.495937   1.764740
    17  C    1.425557   2.384888   3.614752   4.512561   2.671824
    18  H    3.391471   3.552862   4.876507   5.442378   2.514779
    19  H    2.225241   3.401672   4.508546   5.450043   3.695880
    20  H    6.296209   6.423848   5.476001   5.852935   8.129841
    21  H    5.085329   5.025583   4.158556   4.538664   6.680310
    22  H    4.822181   5.232618   4.559312   5.219440   6.962714
                   16         17         18         19         20
    16  C    0.000000
    17  C    1.444600   0.000000
    18  H    1.081327   2.240404   0.000000
    19  H    2.228997   1.087536   2.644787   0.000000
    20  H    8.614048   7.642460   9.670981   8.040963   0.000000
    21  H    7.295268   6.468159   8.372468   7.031732   1.757783
    22  H    7.182795   6.086170   8.210834   6.390514   1.760483
                   21         22
    21  H    0.000000
    22  H    1.784909   0.000000
 Stoichiometry    C11H8S3
 Framework group  C1[X(C11H8S3)]
 Deg. of freedom    60
 Full point group                 C1      NOp   1
 Largest Abelian subgroup         C1      NOp   1
 Largest concise Abelian subgroup C1      NOp   1
                         Standard orientation:                         
 ---------------------------------------------------------------------
 Center     Atomic      Atomic             Coordinates (Angstroms)
 Number     Number       Type             X           Y           Z
 ---------------------------------------------------------------------
      1          6           0        4.117423    0.130696    0.229557
      2          6           0        2.839473    0.738273    0.490697
      3          6           0        1.716856   -0.079689    0.040845
      4          6           0        2.762759    2.066539    1.155245
      5          6           0        4.006996   -1.143090   -0.424487
      6          1           0        5.067589    0.571608    0.486036
      7         16           0        2.348946   -1.588477   -0.702877
      8          1           0        4.844444   -1.767020   -0.699428
      9          6           0        0.274156    0.096610    0.108187
     10         16           0       -0.576777    1.330727   -0.870332
     11          6           0       -2.124890    0.886812   -0.237294
     12          6           0       -2.042779   -0.208475    0.695404
     13          6           0       -0.700222   -0.672651    0.885355
     14          1           0       -0.462268   -1.581842    1.414980
     15         16           0       -3.513611   -1.119230    0.787289
     16          6           0       -4.286540   -0.064026   -0.397376
     17          6           0       -3.396630    0.968260   -0.876244
     18          1           0       -5.246181   -0.295529   -0.838698
     19          1           0       -3.585762    1.531637   -1.787051
     20          1           0        3.757397    2.473672    1.351050
     21          1           0        2.247951    1.991465    2.111872
     22          1           0        2.240281    2.792146    0.516645
 ---------------------------------------------------------------------
 Rotational constants (GHZ):           1.1867871           0.2648886           0.2417248
 Standard basis: 6-311+G(d,p) (5D, 7F)
 There are   394 symmetry adapted cartesian basis functions of A   symmetry.
 There are   380 symmetry adapted basis functions of A   symmetry.
   380 basis functions,   610 primitive gaussians,   394 cartesian basis functions
    61 alpha electrons       61 beta electrons
       nuclear repulsion energy      1104.0409783070 Hartrees.
 NAtoms=   22 NActive=   22 NUniq=   22 SFac= 1.00D+00 NAtFMM=   60 NAOKFM=F Big=F
 Integral buffers will be    131072 words long.
 Raffenetti 2 integral format.
 Two-electron integral symmetry is turned on.
 One-electron integrals computed using PRISM.
 NBasis=   380 RedAO= T EigKep=  1.58D-06  NBF=   380
 NBsUse=   379 1.00D-06 EigRej=  3.67D-07 NBFU=   379
 ExpMin= 4.05D-02 ExpMax= 9.34D+04 ExpMxC= 3.17D+03 IAcc=3 IRadAn=         5 AccDes= 0.00D+00
 Harris functional with IExCor=  402 and IRadAn=       5 diagonalized for initial guess.
 HarFok:  IExCor=  402 AccDes= 0.00D+00 IRadAn=         5 IDoV= 1 UseB2=F ITyADJ=14
 ICtDFT=  3500011 ScaDFX=  1.000000  1.000000  1.000000  1.000000
 FoFCou: FMM=F IPFlag=           0 FMFlag=      100000 FMFlg1=           0
         NFxFlg=           0 DoJE=T BraDBF=F KetDBF=T FulRan=T
         wScrn=  0.000000 ICntrl=       500 IOpCl=  0 I1Cent=   200000004 NGrid=           0
         NMat0=    1 NMatS0=      1 NMatT0=    0 NMatD0=    1 NMtDS0=    0 NMtDT0=    0
 Petite list used in FoFCou.
 Requested convergence on RMS density matrix=1.00D-08 within 128 cycles.
 Requested convergence on MAX density matrix=1.00D-06.
 Requested convergence on             energy=1.00D-06.
 No special actions if energy rises.
 SCF Done:  E(RB3LYP) =  -1618.67497572     A.U. after   17 cycles
            NFock= 17  Conv=0.29D-08     -V/T= 2.0028

 **********************************************************************

            Population analysis using the SCF Density.

 **********************************************************************

 Orbital symmetries:
       Occupied  (A) (A) (A) (A) (A) (A) (A) (A) (A) (A) (A) (A)
                 (A) (A) (A) (A) (A) (A) (A) (A) (A) (A) (A) (A)
                 (A) (A) (A) (A) (A) (A) (A) (A) (A) (A) (A) (A)
                 (A) (A) (A) (A) (A) (A) (A) (A) (A) (A) (A) (A)
                 (A) (A) (A) (A) (A) (A) (A) (A) (A) (A) (A) (A)
                 (A)
       Virtual   (A) (A) (A) (A) (A) (A) (A) (A) (A) (A) (A) (A)
                 (A) (A) (A) (A) (A) (A) (A) (A) (A) (A) (A) (A)
                 (A) (A) (A) (A) (A) (A) (A) (A) (A) (A) (A) (A)
                 (A) (A) (A) (A) (A) (A) (A) (A) (A) (A) (A) (A)
                 (A) (A) (A) (A) (A) (A) (A) (A) (A) (A) (A) (A)
                 (A) (A) (A) (A) (A) (A) (A) (A) (A) (A) (A) (A)
                 (A) (A) (A) (A) (A) (A) (A) (A) (A) (A) (A) (A)
                 (A) (A) (A) (A) (A) (A) (A) (A) (A) (A) (A) (A)
                 (A) (A) (A) (A) (A) (A) (A) (A) (A) (A) (A) (A)
                 (A) (A) (A) (A) (A) (A) (A) (A) (A) (A) (A) (A)
                 (A) (A) (A) (A) (A) (A) (A) (A) (A) (A) (A) (A)
                 (A) (A) (A) (A) (A) (A) (A) (A) (A) (A) (A) (A)
                 (A) (A) (A) (A) (A) (A) (A) (A) (A) (A) (A) (A)
                 (A) (A) (A) (A) (A) (A) (A) (A) (A) (A) (A) (A)
                 (A) (A) (A) (A) (A) (A) (A) (A) (A) (A) (A) (A)
                 (A) (A) (A) (A) (A) (A) (A) (A) (A) (A) (A) (A)
                 (A) (A) (A) (A) (A) (A) (A) (A) (A) (A) (A) (A)
                 (A) (A) (A) (A) (A) (A) (A) (A) (A) (A) (A) (A)
                 (A) (A) (A) (A) (A) (A) (A) (A) (A) (A) (A) (A)
                 (A) (A) (A) (A) (A) (A) (A) (A) (A) (A) (A) (A)
                 (A) (A) (A) (A) (A) (A) (A) (A) (A) (A) (A) (A)
                 (A) (A) (A) (A) (A) (A) (A) (A) (A) (A) (A) (A)
                 (A) (A) (A) (A) (A) (A) (A) (A) (A) (A) (A) (A)
                 (A) (A) (A) (A) (A) (A) (A) (A) (A) (A) (A) (A)
                 (A) (A) (A) (A) (A) (A) (A) (A) (A) (A) (A) (A)
                 (A) (A) (A) (A) (A) (A) (A) (A) (A) (A) (A) (A)
                 (A) (A) (A) (A) (A) (A)
 The electronic state is 1-A.
 Alpha  occ. eigenvalues --  -88.89161 -88.88756 -88.88670 -10.23461 -10.22414
 Alpha  occ. eigenvalues --  -10.22164 -10.21993 -10.21939 -10.21294 -10.20537
 Alpha  occ. eigenvalues --  -10.20427 -10.20385 -10.18909 -10.17441  -7.97684
 Alpha  occ. eigenvalues --   -7.97284  -7.97126  -5.93994  -5.93637  -5.93598
 Alpha  occ. eigenvalues --   -5.93415  -5.93240  -5.93236  -5.93047  -5.92831
 Alpha  occ. eigenvalues --   -5.92750  -0.90618  -0.87378  -0.83574  -0.77556
 Alpha  occ. eigenvalues --   -0.77385  -0.74737  -0.71126  -0.69557  -0.67128
 Alpha  occ. eigenvalues --   -0.61055  -0.57735  -0.56453  -0.53543  -0.51898
 Alpha  occ. eigenvalues --   -0.49235  -0.49009  -0.44420  -0.43422  -0.43218
 Alpha  occ. eigenvalues --   -0.41856  -0.41166  -0.39808  -0.39492  -0.39329
 Alpha  occ. eigenvalues --   -0.37780  -0.36900  -0.36145  -0.35098  -0.34514
 Alpha  occ. eigenvalues --   -0.32905  -0.29122  -0.25484  -0.24371  -0.23541
 Alpha  occ. eigenvalues --   -0.20930
 Alpha virt. eigenvalues --   -0.06386  -0.04491  -0.02160  -0.01028  -0.00011
 Alpha virt. eigenvalues --    0.00082   0.00617   0.00907   0.01351   0.02491
 Alpha virt. eigenvalues --    0.02735   0.03027   0.03141   0.04000   0.04156
 Alpha virt. eigenvalues --    0.04361   0.05502   0.05677   0.06023   0.06242
 Alpha virt. eigenvalues --    0.06828   0.07479   0.07624   0.07773   0.08025
 Alpha virt. eigenvalues --    0.08972   0.09307   0.10028   0.10283   0.11134
 Alpha virt. eigenvalues --    0.11257   0.11684   0.12188   0.12750   0.13070
 Alpha virt. eigenvalues --    0.13200   0.13985   0.14528   0.14563   0.15085
 Alpha virt. eigenvalues --    0.15402   0.15507   0.16224   0.16731   0.16779
 Alpha virt. eigenvalues --    0.17524   0.17850   0.18160   0.18608   0.19040
 Alpha virt. eigenvalues --    0.19403   0.19810   0.20043   0.20079   0.20422
 Alpha virt. eigenvalues --    0.20755   0.20944   0.21204   0.21514   0.21851
 Alpha virt. eigenvalues --    0.22784   0.23014   0.23355   0.23543   0.24158
 Alpha virt. eigenvalues --    0.24541   0.24835   0.25507   0.25744   0.26488
 Alpha virt. eigenvalues --    0.26771   0.27505   0.28000   0.28637   0.29379
 Alpha virt. eigenvalues --    0.29867   0.30646   0.31514   0.31663   0.33117
 Alpha virt. eigenvalues --    0.34190   0.34724   0.35391   0.35918   0.36525
 Alpha virt. eigenvalues --    0.36825   0.38052   0.39032   0.41092   0.42090
 Alpha virt. eigenvalues --    0.43588   0.43917   0.44495   0.45216   0.46927
 Alpha virt. eigenvalues --    0.49325   0.50909   0.52983   0.53449   0.54849
 Alpha virt. eigenvalues --    0.55363   0.55885   0.56436   0.56774   0.57499
 Alpha virt. eigenvalues --    0.58721   0.59336   0.60613   0.60956   0.61616
 Alpha virt. eigenvalues --    0.62894   0.63144   0.64140   0.64406   0.65216
 Alpha virt. eigenvalues --    0.65476   0.66740   0.67925   0.68274   0.68597
 Alpha virt. eigenvalues --    0.70034   0.70547   0.71015   0.71881   0.73071
 Alpha virt. eigenvalues --    0.73241   0.73907   0.74885   0.75290   0.75546
 Alpha virt. eigenvalues --    0.76528   0.77311   0.78438   0.80079   0.81056
 Alpha virt. eigenvalues --    0.81842   0.82402   0.83298   0.84238   0.84416
 Alpha virt. eigenvalues --    0.85497   0.86440   0.87734   0.88755   0.89491
 Alpha virt. eigenvalues --    0.91051   0.92143   0.93468   0.93672   0.94372
 Alpha virt. eigenvalues --    0.95191   0.96084   0.97554   0.97855   0.99122
 Alpha virt. eigenvalues --    0.99676   1.00970   1.01366   1.02635   1.05446
 Alpha virt. eigenvalues --    1.06122   1.08203   1.08722   1.11178   1.13296
 Alpha virt. eigenvalues --    1.16643   1.18824   1.21724   1.25252   1.28175
 Alpha virt. eigenvalues --    1.31891   1.34192   1.35765   1.37427   1.39746
 Alpha virt. eigenvalues --    1.40284   1.43635   1.45838   1.47760   1.48892
 Alpha virt. eigenvalues --    1.52365   1.53758   1.54981   1.55837   1.57121
 Alpha virt. eigenvalues --    1.57305   1.58380   1.59361   1.60273   1.62582
 Alpha virt. eigenvalues --    1.63633   1.64065   1.65534   1.66581   1.67609
 Alpha virt. eigenvalues --    1.68378   1.69742   1.70860   1.71204   1.74509
 Alpha virt. eigenvalues --    1.75886   1.76388   1.78665   1.80152   1.80345
 Alpha virt. eigenvalues --    1.81088   1.83445   1.85452   1.87544   1.88255
 Alpha virt. eigenvalues --    1.88669   1.90233   1.93022   1.94067   1.94350
 Alpha virt. eigenvalues --    1.96783   1.97712   1.99888   2.00783   2.01328
 Alpha virt. eigenvalues --    2.03353   2.04500   2.06344   2.07580   2.08508
 Alpha virt. eigenvalues --    2.09197   2.10325   2.12451   2.13493   2.14339
 Alpha virt. eigenvalues --    2.16815   2.18362   2.24107   2.25879   2.27796
 Alpha virt. eigenvalues --    2.34028   2.35558   2.37828   2.39561   2.43202
 Alpha virt. eigenvalues --    2.44703   2.46392   2.49433   2.51475   2.53820
 Alpha virt. eigenvalues --    2.54960   2.59637   2.60888   2.64811   2.65297
 Alpha virt. eigenvalues --    2.68925   2.69423   2.71478   2.72019   2.72886
 Alpha virt. eigenvalues --    2.74370   2.75346   2.78676   2.80732   2.83378
 Alpha virt. eigenvalues --    2.84082   2.87687   2.91469   2.92398   2.95146
 Alpha virt. eigenvalues --    2.97172   2.99991   3.00501   3.02488   3.03838
 Alpha virt. eigenvalues --    3.06467   3.08982   3.17245   3.22110   3.24569
 Alpha virt. eigenvalues --    3.26870   3.32454   3.35698   3.39226   3.40571
 Alpha virt. eigenvalues --    3.47483   3.57748   3.65350   3.80546   3.82118
 Alpha virt. eigenvalues --    3.91754   3.96426   4.05028   4.10711   4.30359
 Alpha virt. eigenvalues --    4.33818   4.43189   7.94693   7.96885   7.98456
 Alpha virt. eigenvalues --   17.28661  17.29608  17.31331  17.42403  17.45011
 Alpha virt. eigenvalues --   17.46831  17.49372  17.49524  17.52503  23.48873
 Alpha virt. eigenvalues --   23.61830  23.74053  23.77939  23.82118  23.86133
 Alpha virt. eigenvalues --   23.88551  23.93816  23.96015  23.96075  23.98844
 Alpha virt. eigenvalues --  189.10843 189.13570 189.15716
          Condensed to atoms (all electrons):
               1          2          3          4          5          6
     1  C   11.875761  -7.088433   5.392915  -1.901548  -0.443473   0.314192
     2  C   -7.088433  24.266717 -16.197521   1.793264   1.673896   0.037697
     3  C    5.392915 -16.197521  25.380800  -3.717244  -1.777907  -0.053432
     4  C   -1.901548   1.793264  -3.717244   8.419667   0.069990   0.029607
     5  C   -0.443473   1.673896  -1.777907   0.069990   5.932999   0.001086
     6  H    0.314192   0.037697  -0.053432   0.029607   0.001086   0.530686
     7  S   -1.340411   0.869300  -1.953228   0.781315   0.112452   0.010765
     8  H    0.023158  -0.029306  -0.003585   0.001363   0.380081  -0.004578
     9  C   -0.718238   0.157185  -0.067825  -0.041214   0.089209  -0.000140
    10  S   -0.226690   0.923576  -0.502030   0.143260   0.055379   0.000058
    11  C    0.121183  -0.394634  -0.347572  -0.018538  -0.053947  -0.000040
    12  C   -0.226706   0.820806  -0.246057   0.110540   0.102821  -0.000013
    13  C    0.499632  -0.777613  -0.209028  -0.262344  -0.078445  -0.000061
    14  H    0.002695  -0.036283   0.050105  -0.004133  -0.000670   0.000000
    15  S    0.004376   0.007956  -0.029607   0.001047   0.000370  -0.000003
    16  C   -0.001088  -0.027516  -0.015171  -0.002827  -0.000309   0.000000
    17  C    0.036360  -0.146038   0.234837   0.002836  -0.014696  -0.000009
    18  H   -0.000000   0.000080   0.000093  -0.000004   0.000001  -0.000000
    19  H    0.000034   0.000069  -0.001330  -0.000122   0.000000  -0.000000
    20  H    0.059941  -0.109999  -0.040940   0.453221   0.015718   0.001951
    21  H   -0.032460  -0.022357   0.007096   0.400991  -0.001970   0.000114
    22  H   -0.048432   0.019552   0.045464   0.312272  -0.003594   0.000222
               7          8          9         10         11         12
     1  C   -1.340411   0.023158  -0.718238  -0.226690   0.121183  -0.226706
     2  C    0.869300  -0.029306   0.157185   0.923576  -0.394634   0.820806
     3  C   -1.953228  -0.003585  -0.067825  -0.502030  -0.347572  -0.246057
     4  C    0.781315   0.001363  -0.041214   0.143260  -0.018538   0.110540
     5  C    0.112452   0.380081   0.089209   0.055379  -0.053947   0.102821
     6  H    0.010765  -0.004578  -0.000140   0.000058  -0.000040  -0.000013
     7  S   17.559819  -0.009335   0.048716   0.036874   0.104219  -0.121589
     8  H   -0.009335   0.483804  -0.005328  -0.000202   0.000168  -0.000319
     9  C    0.048716  -0.005328   8.851027   0.081121  -0.826776   0.091364
    10  S    0.036874  -0.000202   0.081121  17.389909  -1.241625   1.472526
    11  C    0.104219   0.000168  -0.826776  -1.241625  14.457887  -5.153009
    12  C   -0.121589  -0.000319   0.091364   1.472526  -5.153009  14.895440
    13  C    0.069828  -0.000869  -2.059875  -1.885366   1.842123  -4.185747
    14  H    0.003065  -0.000003   0.083268   0.011785  -0.043311   0.045921
    15  S   -0.003726   0.000008  -0.242619   0.198809   0.334835  -0.760705
    16  C   -0.001212  -0.000002   0.138392  -0.029771   0.685084  -0.375711
    17  C    0.083995   0.000009  -0.021726  -0.209559  -3.792938  -0.615967
    18  H   -0.000032   0.000000  -0.003229   0.001035  -0.009966   0.009803
    19  H   -0.000245   0.000000   0.008032   0.015732   0.037179  -0.029570
    20  H   -0.002531  -0.000027  -0.004805   0.000318  -0.001378   0.001982
    21  H    0.004744   0.000008   0.004091  -0.006933   0.002654  -0.002810
    22  H   -0.000504   0.000008   0.014029   0.018014  -0.001493  -0.003104
              13         14         15         16         17         18
     1  C    0.499632   0.002695   0.004376  -0.001088   0.036360  -0.000000
     2  C   -0.777613  -0.036283   0.007956  -0.027516  -0.146038   0.000080
     3  C   -0.209028   0.050105  -0.029607  -0.015171   0.234837   0.000093
     4  C   -0.262344  -0.004133   0.001047  -0.002827   0.002836  -0.000004
     5  C   -0.078445  -0.000670   0.000370  -0.000309  -0.014696   0.000001
     6  H   -0.000061   0.000000  -0.000003   0.000000  -0.000009  -0.000000
     7  S    0.069828   0.003065  -0.003726  -0.001212   0.083995  -0.000032
     8  H   -0.000869  -0.000003   0.000008  -0.000002   0.000009   0.000000
     9  C   -2.059875   0.083268  -0.242619   0.138392  -0.021726  -0.003229
    10  S   -1.885366   0.011785   0.198809  -0.029771  -0.209559   0.001035
    11  C    1.842123  -0.043311   0.334835   0.685084  -3.792938  -0.009966
    12  C   -4.185747   0.045921  -0.760705  -0.375711  -0.615967   0.009803
    13  C   12.423477   0.234689   0.121773  -0.289511   0.846695   0.011510
    14  H    0.234689   0.512826   0.004167   0.001509  -0.010826  -0.000003
    15  S    0.121773   0.004167  16.538119   0.322505  -0.364408  -0.019621
    16  C   -0.289511   0.001509   0.322505   5.598270  -0.067763   0.368040
    17  C    0.846695  -0.010826  -0.364408  -0.067763  10.012435  -0.003791
    18  H    0.011510  -0.000003  -0.019621   0.368040  -0.003791   0.474111
    19  H   -0.008902   0.000014   0.002952   0.016506   0.306600  -0.003690
    20  H   -0.003053   0.000000   0.000018  -0.000001  -0.000073   0.000000
    21  H    0.002408  -0.000012   0.000012  -0.000087   0.001338   0.000000
    22  H    0.000803   0.000009  -0.000220   0.000187  -0.001571  -0.000000
              19         20         21         22
     1  C    0.000034   0.059941  -0.032460  -0.048432
     2  C    0.000069  -0.109999  -0.022357   0.019552
     3  C   -0.001330  -0.040940   0.007096   0.045464
     4  C   -0.000122   0.453221   0.400991   0.312272
     5  C    0.000000   0.015718  -0.001970  -0.003594
     6  H   -0.000000   0.001951   0.000114   0.000222
     7  S   -0.000245  -0.002531   0.004744  -0.000504
     8  H    0.000000  -0.000027   0.000008   0.000008
     9  C    0.008032  -0.004805   0.004091   0.014029
    10  S    0.015732   0.000318  -0.006933   0.018014
    11  C    0.037179  -0.001378   0.002654  -0.001493
    12  C   -0.029570   0.001982  -0.002810  -0.003104
    13  C   -0.008902  -0.003053   0.002408   0.000803
    14  H    0.000014   0.000000  -0.000012   0.000009
    15  S    0.002952   0.000018   0.000012  -0.000220
    16  C    0.016506  -0.000001  -0.000087   0.000187
    17  C    0.306600  -0.000073   0.001338  -0.001571
    18  H   -0.003690   0.000000   0.000000  -0.000000
    19  H    0.514423   0.000000  -0.000000  -0.000000
    20  H    0.000000   0.544435  -0.028363  -0.028584
    21  H   -0.000000  -0.028363   0.531184  -0.026005
    22  H   -0.000000  -0.028584  -0.026005   0.542522
 Mulliken charges:
               1
     1  C   -0.302767
     2  C    0.259602
     3  C    0.051166
     4  C   -0.571398
     5  C   -0.058991
     6  H    0.131897
     7  S   -0.252279
     8  H    0.164947
     9  C    0.425341
    10  S   -0.246218
    11  C    0.299895
    12  C    0.170106
    13  C   -0.292124
    14  H    0.145190
    15  S   -0.116040
    16  C   -0.319523
    17  C   -0.275739
    18  H    0.175664
    19  H    0.142318
    20  H    0.142168
    21  H    0.166358
    22  H    0.160426
 Sum of Mulliken charges =  -0.00000
 Mulliken charges with hydrogens summed into heavy atoms:
               1
     1  C   -0.170870
     2  C    0.259602
     3  C    0.051166
     4  C   -0.102446
     5  C    0.105956
     7  S   -0.252279
     9  C    0.425341
    10  S   -0.246218
    11  C    0.299895
    12  C    0.170106
    13  C   -0.146934
    15  S   -0.116040
    16  C   -0.143859
    17  C   -0.133421
 Electronic spatial extent (au):  <R**2>=           4444.6784
 Charge=             -0.0000 electrons
 Dipole moment (field-independent basis, Debye):
    X=              0.5369    Y=              0.0089    Z=             -0.3515  Tot=              0.6418
 Quadrupole moment (field-independent basis, Debye-Ang):
   XX=            -90.0373   YY=           -101.8277   ZZ=           -105.1453
   XY=              2.1569   XZ=              5.8971   YZ=             -1.0911
 Traceless Quadrupole moment (field-independent basis, Debye-Ang):
   XX=              8.9662   YY=             -2.8243   ZZ=             -6.1419
   XY=              2.1569   XZ=              5.8971   YZ=             -1.0911
 Octapole moment (field-independent basis, Debye-Ang**2):
  XXX=             17.8567  YYY=             -4.3448  ZZZ=             -2.7958  XYY=             10.9562
  XXY=             -9.5067  XXZ=            -23.5580  XZZ=             -7.0763  YZZ=              2.1666
  YYZ=             -1.7719  XYZ=             17.1093
 Hexadecapole moment (field-independent basis, Debye-Ang**3):
 XXXX=          -4398.0741 YYYY=           -941.7596 ZZZZ=           -468.6366 XXXY=             36.7705
 XXXZ=            116.3802 YYYX=              6.0822 YYYZ=             -4.6847 ZZZX=             16.9508
 ZZZY=             -9.4621 XXYY=           -940.0447 XXZZ=           -914.5836 YYZZ=           -222.8479
 XXYZ=             25.0774 YYXZ=             -0.0873 ZZXY=             -4.5456
 N-N= 1.104040978307D+03 E-N=-6.031467479117D+03  KE= 1.614156339994D+03
 Calling FoFJK, ICntrl=      2127 FMM=F ISym2X=0 I1Cent= 0 IOpClX= 0 NMat=1 NMatS=1 NMatT=0.
 ***** Axes restored to original set *****
 -------------------------------------------------------------------
 Center     Atomic                   Forces (Hartrees/Bohr)
 Number     Number              X              Y              Z
 -------------------------------------------------------------------
      1        6           0.022435213   -0.056812250    0.007741033
      2        6           0.011504977   -0.045016283    0.008514220
      3        6          -0.045120437    0.022123819    0.004100208
      4        6           0.008616812    0.007280544    0.001982759
      5        6           0.008359849    0.048462024   -0.013572105
      6        1          -0.000858499    0.001832341   -0.000242003
      7       16          -0.004869335    0.020990330   -0.002629601
      8        1           0.002853570   -0.004373293    0.000110139
      9        6           0.030651118   -0.020820970   -0.045179156
     10       16          -0.012704083    0.003802059   -0.010015364
     11        6           0.003955542   -0.030659036   -0.016602229
     12        6          -0.019644492    0.010109277    0.034742794
     13        6          -0.009416992    0.029768259    0.046087298
     14        1          -0.005692507    0.004079048   -0.002404831
     15       16           0.016344153    0.008601349    0.005167257
     16        6          -0.026077030    0.037336025    0.036226910
     17        6           0.012772412   -0.043348275   -0.032053957
     18        1           0.000417080    0.001802268   -0.007076879
     19        1           0.003186831    0.004227304   -0.007821035
     20        1          -0.000658861   -0.002191334    0.000284705
     21        1           0.004161967    0.002433094   -0.002172596
     22        1          -0.000217287    0.000373700   -0.005187570
 -------------------------------------------------------------------
 Cartesian Forces:  Max     0.056812250 RMS     0.020816008

 GradGradGradGradGradGradGradGradGradGradGradGradGradGradGradGradGradGrad
 Berny optimization.
 FormGI is forming the generalized inverse of G from B-inverse, IUseBI=4.
 Internal  Forces:  Max     0.062821226 RMS     0.012324866
 Search for a local minimum.
 Step number   1 out of a maximum of  127
 All quantities printed in internal units (Hartrees-Bohrs-Radians)
 Mixed Optimization -- RFO/linear search
 Second derivative matrix not updated -- first step.
 ITU=  0
     Eigenvalues ---    0.00935   0.00982   0.01055   0.01214   0.01241
     Eigenvalues ---    0.01278   0.01300   0.01425   0.01457   0.01488
     Eigenvalues ---    0.01498   0.01592   0.01597   0.01775   0.02198
     Eigenvalues ---    0.02651   0.07307   0.07353   0.15080   0.15683
     Eigenvalues ---    0.15737   0.15997   0.16000   0.16000   0.16000
     Eigenvalues ---    0.16000   0.17995   0.22443   0.22545   0.23320
     Eigenvalues ---    0.23979   0.24718   0.24978   0.24995   0.25000
     Eigenvalues ---    0.26147   0.26562   0.28419   0.30920   0.31311
     Eigenvalues ---    0.31538   0.33757   0.33818   0.34533   0.34809
     Eigenvalues ---    0.34935   0.35099   0.35834   0.35877   0.36006
     Eigenvalues ---    0.36143   0.36185   0.36318   0.37598   0.38316
     Eigenvalues ---    0.38438   0.39458   0.39628   0.406911000.00000
     Eigenvalues --- 1000.000001000.000001000.000001000.000001000.00000
     Eigenvalues --- 1000.000001000.000001000.000001000.000001000.00000
     Eigenvalues --- 1000.000001000.000001000.000001000.000001000.00000
     Eigenvalues --- 1000.000001000.000001000.000001000.000001000.00000
     Eigenvalues --- 1000.000001000.000001000.000001000.000001000.00000
     Eigenvalues --- 1000.000001000.000001000.000001000.000001000.00000
     Eigenvalues --- 1000.000001000.000001000.000001000.000001000.00000
     Eigenvalues --- 1000.000001000.000001000.000001000.000001000.00000
     Eigenvalues --- 1000.000001000.000001000.000001000.000001000.00000
     Eigenvalues --- 1000.000001000.000001000.000001000.000001000.00000
     Eigenvalues --- 1000.000001000.000001000.000001000.000001000.00000
     Eigenvalues --- 1000.000001000.00000
 RFO step:  Lambda=-4.97045601D-02 EMin= 9.35106172D-03
 Linear search not attempted -- first point.
 Maximum step size (   0.300) exceeded in Quadratic search.
    -- Step size scaled by   0.897
 Iteration  1 RMS(Cart)=  0.10059812 RMS(Int)=  0.00312234
 Iteration  2 RMS(Cart)=  0.00487877 RMS(Int)=  0.00074180
 Iteration  3 RMS(Cart)=  0.00000932 RMS(Int)=  0.00074177
 Iteration  4 RMS(Cart)=  0.00000001 RMS(Int)=  0.00074177
 Iteration  1 RMS(Cart)=  0.00001870 RMS(Int)=  0.00000730
 Iteration  2 RMS(Cart)=  0.00001020 RMS(Int)=  0.00000815
 Iteration  3 RMS(Cart)=  0.00000557 RMS(Int)=  0.00000921
 Iteration  4 RMS(Cart)=  0.00000304 RMS(Int)=  0.00000991
 Iteration  5 RMS(Cart)=  0.00000166 RMS(Int)=  0.00001032
 Iteration  6 RMS(Cart)=  0.00000090 RMS(Int)=  0.00001055
 Variable       Old X    -DE/DX   Delta X   Delta X   Delta X     New X
                                 (Linear)    (Quad)   (Total)
    R1        2.71917  -0.01483   0.00000  -0.03196  -0.03189   2.68728
    R2        2.71391  -0.05063   0.00000  -0.10188  -0.10192   2.61199
    R3        2.03793   0.00178   0.00000   0.00389   0.00389   2.04181
    R4        2.75906  -0.05827   0.00000  -0.12526  -0.12516   2.63391
    R5        2.81042   0.01090   0.00000   0.02525   0.02525   2.83567
    R6        3.39578  -0.01948   0.00000  -0.05313  -0.05313   3.34265
    R7        2.74954  -0.00654   0.00000  -0.01379  -0.01379   2.73575
    R8        2.06439  -0.00067   0.00000  -0.00153  -0.00153   2.06286
    R9        2.05781   0.00346   0.00000   0.00778   0.00778   2.06559
   R10        2.07638  -0.00308   0.00000  -0.00712  -0.00712   2.06925
   R11        3.28671  -0.01705   0.00000  -0.04027  -0.04038   3.24634
   R12        2.04073  -0.00028   0.00000  -0.00062  -0.00062   2.04011
   R13        3.38289  -0.01073   0.00000  -0.02553  -0.02633   3.35656
   R14        2.76777  -0.06282   0.00000  -0.13594  -0.13642   2.63135
   R15        3.27007  -0.00059   0.00000  -0.00015   0.00004   3.27011
   R16        2.72299  -0.03131   0.00000  -0.06762  -0.06610   2.65689
   R17        2.69391  -0.00178   0.00000  -0.00626  -0.00566   2.68826
   R18        2.70832  -0.01153   0.00000  -0.02576  -0.02532   2.68300
   R19        3.27379   0.00187   0.00000   0.00647   0.00639   3.28018
   R20        2.03859   0.00171   0.00000   0.00373   0.00373   2.04231
   R21        3.33487  -0.01214   0.00000  -0.02859  -0.02937   3.30550
   R22        2.72990  -0.05775   0.00000  -0.11843  -0.11867   2.61123
   R23        2.04341  -0.00147   0.00000  -0.00324  -0.00324   2.04017
   R24        2.05514  -0.00444   0.00000  -0.00995  -0.00995   2.04520
    A1        1.97020   0.00747   0.00000   0.01881   0.01884   1.98904
    A2        2.17330  -0.00474   0.00000  -0.01369  -0.01371   2.15959
    A3        2.13967  -0.00273   0.00000  -0.00509  -0.00512   2.13455
    A4        1.97187  -0.00200   0.00000  -0.01051  -0.01034   1.96153
    A5        2.09905   0.01282   0.00000   0.04064   0.04055   2.13959
    A6        2.21227  -0.01082   0.00000  -0.03012  -0.03021   2.18205
    A7        1.90440   0.00516   0.00000   0.01675   0.01685   1.92125
    A8        2.31891  -0.00965   0.00000  -0.02960  -0.02966   2.28925
    A9        2.05972   0.00449   0.00000   0.01274   0.01268   2.07240
   A10        1.94548  -0.00369   0.00000  -0.01425  -0.01420   1.93128
   A11        1.93409   0.00301   0.00000   0.01183   0.01183   1.94593
   A12        1.93331   0.00369   0.00000   0.01525   0.01526   1.94857
   A13        1.87410   0.00075   0.00000   0.00419   0.00423   1.87833
   A14        1.86607   0.00082   0.00000   0.00551   0.00556   1.87163
   A15        1.90848  -0.00483   0.00000  -0.02356  -0.02359   1.88489
   A16        1.95339  -0.00319   0.00000  -0.01098  -0.01112   1.94226
   A17        2.17580   0.00692   0.00000   0.02830   0.02836   2.20416
   A18        2.15384  -0.00372   0.00000  -0.01724  -0.01717   2.13667
   A19        1.62490  -0.00744   0.00000  -0.01401  -0.01421   1.61069
   A20        2.12888  -0.00365   0.00000  -0.01055  -0.01053   2.11835
   A21        2.24026  -0.00245   0.00000  -0.00701  -0.00699   2.23328
   A22        1.91336   0.00616   0.00000   0.01798   0.01787   1.93123
   A23        1.61926  -0.00552   0.00000  -0.01277  -0.01220   1.60705
   A24        1.96146  -0.01126   0.00000  -0.02733  -0.02843   1.93303
   A25        2.23887   0.00886   0.00000   0.04876   0.04597   2.28484
   A26        1.96534   0.00611   0.00000   0.01878   0.01897   1.98430
   A27        1.96639   0.00774   0.00000   0.02224   0.02225   1.98864
   A28        1.96661  -0.01363   0.00000  -0.03396  -0.03491   1.93170
   A29        2.23702   0.00949   0.00000   0.05000   0.04739   2.28442
   A30        1.96359   0.00291   0.00000   0.00004   0.00066   1.96425
   A31        2.16087  -0.00561   0.00000  -0.01507  -0.01609   2.14478
   A32        2.14679   0.00329   0.00000   0.02320   0.02221   2.16900
   A33        1.59270   0.00079   0.00000   0.00433   0.00490   1.59760
   A34        1.96059   0.00130   0.00000   0.00220   0.00185   1.96243
   A35        2.13490  -0.00448   0.00000  -0.01343  -0.01464   2.12026
   A36        2.17050   0.00420   0.00000   0.02455   0.02352   2.19402
   A37        1.93923   0.00542   0.00000   0.00855   0.00910   1.94833
   A38        2.16532   0.00012   0.00000   0.01614   0.01404   2.17936
   A39        2.14202  -0.00368   0.00000  -0.00121  -0.00340   2.13862
    D1        0.00683  -0.00027   0.00000  -0.00652  -0.00659   0.00025
    D2       -3.13456  -0.00056   0.00000  -0.01073  -0.01087   3.13775
    D3       -3.13952   0.00021   0.00000   0.00163   0.00158  -3.13794
    D4        0.00227  -0.00008   0.00000  -0.00258  -0.00271  -0.00044
    D5       -0.00671   0.00066   0.00000   0.00875   0.00871   0.00200
    D6       -3.13020   0.00026   0.00000   0.00439   0.00439  -3.12581
    D7        3.13954   0.00020   0.00000   0.00081   0.00070   3.14024
    D8        0.01605  -0.00020   0.00000  -0.00355  -0.00362   0.01243
    D9       -0.00388  -0.00016   0.00000   0.00161   0.00158  -0.00230
   D10        3.11762   0.00025   0.00000  -0.00476  -0.00475   3.11287
   D11        3.13750   0.00015   0.00000   0.00615   0.00600  -3.13968
   D12       -0.02418   0.00056   0.00000  -0.00022  -0.00033  -0.02451
   D13        0.03777  -0.00010   0.00000  -0.00017  -0.00016   0.03761
   D14       -2.04840  -0.00062   0.00000  -0.00394  -0.00391  -2.05231
   D15        2.11332   0.00095   0.00000   0.00753   0.00750   2.12082
   D16       -3.10360  -0.00043   0.00000  -0.00501  -0.00501  -3.10860
   D17        1.09342  -0.00094   0.00000  -0.00878  -0.00876   1.08466
   D18       -1.02805   0.00063   0.00000   0.00269   0.00266  -1.02539
   D19        0.00006   0.00049   0.00000   0.00294   0.00286   0.00292
   D20       -3.12486   0.00034   0.00000   0.00880   0.00887  -3.11599
   D21        1.22190  -0.00204   0.00000   0.00000  -0.00000   1.22190
   D22       -1.96384  -0.00004   0.00000   0.01391   0.01399  -1.94985
   D23       -1.94119  -0.00161   0.00000  -0.00684  -0.00681  -1.94800
   D24        1.15625   0.00038   0.00000   0.00707   0.00719   1.16344
   D25        0.00376  -0.00066   0.00000  -0.00666  -0.00655  -0.00279
   D26        3.12751  -0.00013   0.00000  -0.00181  -0.00188   3.12563
   D27        3.13748   0.00081   0.00000   0.00658   0.00645  -3.13925
   D28        0.03264  -0.00070   0.00000  -0.00456  -0.00489   0.02775
   D29       -3.13845  -0.00138   0.00000  -0.01031  -0.01001   3.13473
   D30       -0.15825   0.00301   0.00000   0.04678   0.04658  -0.11167
   D31       -0.03662   0.00024   0.00000   0.00170   0.00223  -0.03438
   D32        2.94358   0.00463   0.00000   0.05879   0.05883   3.00241
   D33       -0.02097   0.00135   0.00000   0.00733   0.00724  -0.01373
   D34       -2.61643  -0.00741   0.00000  -0.08058  -0.08105  -2.69748
   D35        0.00317  -0.00107   0.00000  -0.00682  -0.00655  -0.00339
   D36       -2.68826  -0.01047   0.00000  -0.09155  -0.08881  -2.77707
   D37        2.68732   0.00821   0.00000   0.07947   0.07749   2.76480
   D38       -0.00411  -0.00118   0.00000  -0.00525  -0.00476  -0.00888
   D39        2.61355   0.00548   0.00000   0.08255   0.08445   2.69801
   D40       -0.24648  -0.00094   0.00000  -0.00508  -0.00420  -0.25068
   D41        0.01907   0.00107   0.00000   0.00606   0.00565   0.02472
   D42       -2.84097  -0.00535   0.00000  -0.08157  -0.08300  -2.92397
   D43        0.02218   0.00059   0.00000   0.00324   0.00284   0.02503
   D44       -2.95952  -0.00282   0.00000  -0.04925  -0.05054  -3.01006
   D45        2.62781   0.00432   0.00000   0.07560   0.07752   2.70533
   D46       -0.35389   0.00092   0.00000   0.02311   0.02414  -0.32975
   D47       -0.00917   0.00100   0.00000   0.00280   0.00261  -0.00655
   D48       -2.61474  -0.00803   0.00000  -0.08352  -0.08357  -2.69831
   D49        0.02012  -0.00028   0.00000   0.00090   0.00079   0.02091
   D50        2.97139   0.00588   0.00000   0.07676   0.07573   3.04712
   D51       -0.02589  -0.00029   0.00000  -0.00385  -0.00344  -0.02933
   D52        2.83855   0.00672   0.00000   0.08566   0.08604   2.92459
   D53       -2.97259  -0.00548   0.00000  -0.07659  -0.07712  -3.04971
   D54       -0.10815   0.00153   0.00000   0.01292   0.01236  -0.09579
         Item               Value     Threshold  Converged?
 Maximum Force            0.062818     0.000450     NO 
 RMS     Force            0.012375     0.000300     NO 
 Maximum Displacement     0.392999     0.001800     NO 
 RMS     Displacement     0.101161     0.001200     NO 
 Predicted change in Energy=-2.874414D-02
 GradGradGradGradGradGradGradGradGradGradGradGradGradGradGradGradGradGrad

                          Input orientation:                          
 ---------------------------------------------------------------------
 Center     Atomic      Atomic             Coordinates (Angstroms)
 Number     Number       Type             X           Y           Z
 ---------------------------------------------------------------------
      1          6           0       -4.213794   -1.382732   -0.234517
      2          6           0       -2.893110   -1.010195   -0.607659
      3          6           0       -2.012679   -2.090621   -0.593274
      4          6           0       -2.523674    0.396914   -0.975459
      5          6           0       -4.355406   -2.724930    0.063709
      6          1           0       -5.041897   -0.690302   -0.187360
      7         16           0       -2.864648   -3.561814   -0.104820
      8          1           0       -5.268507   -3.221918    0.354821
      9          6           0       -0.606779   -2.178705   -0.927202
     10         16           0        0.636097   -1.433915    0.100167
     11          6           0        1.908834   -1.969570   -0.942776
     12          6           0        1.391195   -2.705447   -2.023184
     13          6           0       -0.022219   -2.838518   -2.005093
     14          1           0       -0.583363   -3.464373   -2.684383
     15         16           0        2.618625   -3.714872   -2.721373
     16          6           0        3.809431   -3.139264   -1.576671
     17          6           0        3.281918   -2.231285   -0.678519
     18          1           0        4.803342   -3.559034   -1.537989
     19          1           0        3.810542   -1.920529    0.213278
     20          1           0       -3.385062    1.059920   -0.875127
     21          1           0       -2.174562    0.462138   -2.009215
     22          1           0       -1.734284    0.790052   -0.326356
 ---------------------------------------------------------------------
                    Distance matrix (angstroms):
                    1          2          3          4          5
     1  C    0.000000
     2  C    1.422050   0.000000
     3  C    2.339812   1.393803   0.000000
     4  C    2.563716   1.500572   2.568076   0.000000
     5  C    1.382204   2.351460   2.514427   3.765770   0.000000
     6  H    1.080481   2.212752   3.361819   2.853872   2.161948
     7  S    2.566206   2.600849   1.768855   4.067653   1.717887
     8  H    2.200533   3.385351   3.574792   4.732832   1.079582
     9  C    3.758183   2.587437   1.447695   3.211017   3.915670
    10  S    4.861695   3.624342   2.815695   3.806975   5.155886
    11  C    6.191331   4.908295   3.938917   5.024783   6.389388
    12  C    6.030324   4.820047   3.742861   5.103780   6.113831
    13  C    4.777400   3.679347   2.552354   4.217279   4.803056
    14  H    4.849238   3.958624   2.881472   4.647018   4.725156
    15  S    7.635789   6.493249   5.349390   6.811626   7.574548
    16  C    8.322194   7.099012   5.996973   7.278340   8.338290
    17  C    7.556644   6.295002   5.297151   6.379695   7.689168
    18  H    9.367181   8.160727   7.036112   8.345726   9.335086
    19  H    8.054794   6.814807   5.881272   6.848791   8.206835
    20  H    2.657768   2.144513   3.448013   1.091620   4.018467
    21  H    3.272853   2.156022   2.923641   1.093062   4.382978
    22  H    3.298089   2.159375   2.906378   1.095002   4.401992
                    6          7          8          9         10
     6  H    0.000000
     7  S    3.604554   0.000000
     8  H    2.598921   2.470898   0.000000
     9  C    4.736347   2.772594   4.946068   0.000000
    10  S    5.733694   4.101853   6.174638   1.776215   0.000000
    11  C    7.107731   5.101327   7.400429   2.524339   1.730467
    12  C    6.986825   4.746123   7.090366   2.338917   2.587583
    13  C    5.754663   3.494796   5.765391   1.392448   2.615035
    14  H    5.814562   3.444982   5.589824   2.177425   3.655621
    15  S    8.617009   6.077504   8.480143   3.997761   4.134522
    16  C    9.288359   6.847498   9.281512   4.565895   3.973670
    17  C    8.479490   6.315039   8.669424   3.896995   2.870979
    18  H   10.343237   7.800773  10.253708   5.616741   4.956372
    19  H    8.946488   6.881364   9.172937   4.569472   3.213516
    20  H    2.506272   4.714301   4.836763   4.267349   4.831163
    21  H    3.587322   4.505012   5.360357   3.256186   3.993033
    22  H    3.626440   4.501727   5.389864   3.231997   3.278210
                   11         12         13         14         15
    11  C    0.000000
    12  C    1.405968   0.000000
    13  C    2.369083   1.419780   0.000000
    14  H    3.388020   2.216311   1.080747   0.000000
    15  S    2.591002   1.735797   2.873171   3.211984   0.000000
    16  C    2.319974   2.497086   3.867239   4.541956   1.749196
    17  C    1.422563   2.368076   3.611904   4.525969   2.610411
    18  H    3.355422   3.550602   4.901365   5.508155   2.489513
    19  H    2.226064   3.386901   4.522602   5.485098   3.640401
    20  H    6.099814   6.189399   5.270992   5.620691   7.889964
    21  H    4.870793   4.769530   3.940422   4.290135   6.397595
    22  H    4.611703   4.986618   4.349235   4.998505   6.706584
                   16         17         18         19         20
    16  C    0.000000
    17  C    1.381801   0.000000
    18  H    1.079612   2.194616   0.000000
    19  H    2.165465   1.082273   2.595629   0.000000
    20  H    8.359788   7.437695   9.424654   7.864123   0.000000
    21  H    6.997526   6.228841   8.067406   6.814547   1.763182
    22  H    6.909096   5.866412   7.945009   6.195446   1.760411
                   21         22
    21  H    0.000000
    22  H    1.770137   0.000000
 Stoichiometry    C11H8S3
 Framework group  C1[X(C11H8S3)]
 Deg. of freedom    60
 Full point group                 C1      NOp   1
 Largest Abelian subgroup         C1      NOp   1
 Largest concise Abelian subgroup C1      NOp   1
                         Standard orientation:                         
 ---------------------------------------------------------------------
 Center     Atomic      Atomic             Coordinates (Angstroms)
 Number     Number       Type             X           Y           Z
 ---------------------------------------------------------------------
      1          6           0        4.035098    0.184495    0.269337
      2          6           0        2.745227    0.736990    0.500004
      3          6           0        1.723368   -0.085877    0.029493
      4          6           0        2.542012    2.058215    1.181754
      5          6           0        4.014744   -1.042077   -0.367527
      6          1           0        4.955985    0.667366    0.563003
      7         16           0        2.406321   -1.544739   -0.701359
      8          1           0        4.874148   -1.642167   -0.626010
      9          6           0        0.283849    0.059849    0.078185
     10         16           0       -0.554738    1.287258   -0.894018
     11          6           0       -2.100160    0.808485   -0.280046
     12          6           0       -1.968326   -0.263430    0.620156
     13          6           0       -0.629345   -0.696490    0.808211
     14          1           0       -0.347319   -1.576570    1.368510
     15         16           0       -3.471622   -1.115911    0.782538
     16          6           0       -4.262005   -0.031272   -0.339310
     17          6           0       -3.402672    0.928374   -0.839310
     18          1           0       -5.277438   -0.199151   -0.665308
     19          1           0       -3.658160    1.555298   -1.683708
     20          1           0        3.501908    2.518878    1.422634
     21          1           0        1.985427    1.945536    2.115725
     22          1           0        1.995338    2.761478    0.544889
 ---------------------------------------------------------------------
 Rotational constants (GHZ):           1.2338020           0.2710947           0.2481702
 Standard basis: 6-311+G(d,p) (5D, 7F)
 There are   394 symmetry adapted cartesian basis functions of A   symmetry.
 There are   380 symmetry adapted basis functions of A   symmetry.
   380 basis functions,   610 primitive gaussians,   394 cartesian basis functions
    61 alpha electrons       61 beta electrons
       nuclear repulsion energy      1119.6773810054 Hartrees.
 NAtoms=   22 NActive=   22 NUniq=   22 SFac= 1.00D+00 NAtFMM=   60 NAOKFM=F Big=F
 Integral buffers will be    131072 words long.
 Raffenetti 2 integral format.
 Two-electron integral symmetry is turned on.
 One-electron integrals computed using PRISM.
 NBasis=   380 RedAO= T EigKep=  1.23D-06  NBF=   380
 NBsUse=   379 1.00D-06 EigRej=  2.85D-07 NBFU=   379
 Initial guess from the checkpoint file:  "/tmp/pbs.4729010[245].pbs/Gau-3251744.chk"
 B after Tr=    -0.000000    0.000000    0.000000
         Rot=    0.999972   -0.001547    0.002594   -0.006868 Ang=  -0.86 deg.
 ExpMin= 4.05D-02 ExpMax= 9.34D+04 ExpMxC= 3.17D+03 IAcc=3 IRadAn=         5 AccDes= 0.00D+00
 Harris functional with IExCor=  402 and IRadAn=       5 diagonalized for initial guess.
 HarFok:  IExCor=  402 AccDes= 0.00D+00 IRadAn=         5 IDoV= 1 UseB2=F ITyADJ=14
 ICtDFT=  3500011 ScaDFX=  1.000000  1.000000  1.000000  1.000000
 FoFCou: FMM=F IPFlag=           0 FMFlag=      100000 FMFlg1=           0
         NFxFlg=           0 DoJE=T BraDBF=F KetDBF=T FulRan=T
         wScrn=  0.000000 ICntrl=       500 IOpCl=  0 I1Cent=   200000004 NGrid=           0
         NMat0=    1 NMatS0=      1 NMatT0=    0 NMatD0=    1 NMtDS0=    0 NMtDT0=    0
 Petite list used in FoFCou.
 Requested convergence on RMS density matrix=1.00D-08 within 128 cycles.
 Requested convergence on MAX density matrix=1.00D-06.
 Requested convergence on             energy=1.00D-06.
 No special actions if energy rises.
 SCF Done:  E(RB3LYP) =  -1618.70491582     A.U. after   15 cycles
            NFock= 15  Conv=0.50D-08     -V/T= 2.0023
 Calling FoFJK, ICntrl=      2127 FMM=F ISym2X=0 I1Cent= 0 IOpClX= 0 NMat=1 NMatS=1 NMatT=0.
 ***** Axes restored to original set *****
 -------------------------------------------------------------------
 Center     Atomic                   Forces (Hartrees/Bohr)
 Number     Number              X              Y              Z
 -------------------------------------------------------------------
      1        6          -0.001753921   -0.015811746    0.004103392
      2        6           0.007936069   -0.008033323    0.002276940
      3        6          -0.019397513    0.001887764    0.002515268
      4        6           0.002053441    0.003261387    0.000449810
      5        6          -0.000779361    0.016677931   -0.004024820
      6        1          -0.000444668    0.001753725   -0.000347576
      7       16           0.003674185    0.001981303   -0.001064022
      8        1           0.001718562   -0.002642483    0.000295963
      9        6           0.016067933   -0.004441357   -0.015915390
     10       16          -0.007417028    0.007259819   -0.000403960
     11        6          -0.001086501   -0.014740162   -0.003699886
     12        6          -0.000271120   -0.001140328    0.015867086
     13        6          -0.006095046    0.007351322    0.012824708
     14        1          -0.002053277    0.003294470   -0.002260740
     15       16           0.008116274    0.001014066   -0.005984346
     16        6          -0.008783691    0.010078580    0.012930169
     17        6           0.005757567   -0.012749988   -0.007064485
     18        1           0.000233540    0.000611644   -0.004950778
     19        1           0.001473046    0.005096210   -0.003330917
     20        1          -0.000511976   -0.000478584   -0.000181472
     21        1           0.001487534    0.000178578   -0.000103019
     22        1           0.000075951   -0.000408826   -0.001931924
 -------------------------------------------------------------------
 Cartesian Forces:  Max     0.019397513 RMS     0.007066880

 GradGradGradGradGradGradGradGradGradGradGradGradGradGradGradGradGradGrad
 Berny optimization.
 Using GEDIIS/GDIIS optimizer.
 FormGI is forming the generalized inverse of G from B-inverse, IUseBI=4.
 Internal  Forces:  Max     0.016619415 RMS     0.003560753
 Search for a local minimum.
 Step number   2 out of a maximum of  127
 All quantities printed in internal units (Hartrees-Bohrs-Radians)
 Mixed Optimization -- RFO/linear search
 Update second derivatives using D2CorX and points    1    2
 DE= -2.99D-02 DEPred=-2.87D-02 R= 1.04D+00
 TightC=F SS=  1.41D+00  RLast= 4.07D-01 DXNew= 5.0454D-01 1.2208D+00
 Trust test= 1.04D+00 RLast= 4.07D-01 DXMaxT set to 5.05D-01
 ITU=  1  0
 Use linear search instead of GDIIS.
     Eigenvalues ---    0.00935   0.00982   0.01047   0.01209   0.01241
     Eigenvalues ---    0.01276   0.01292   0.01375   0.01463   0.01471
     Eigenvalues ---    0.01500   0.01584   0.01592   0.01699   0.01983
     Eigenvalues ---    0.02233   0.07206   0.07353   0.15584   0.15693
     Eigenvalues ---    0.15889   0.15964   0.16000   0.16000   0.16000
     Eigenvalues ---    0.16039   0.19147   0.22476   0.22566   0.23463
     Eigenvalues ---    0.24313   0.24578   0.24813   0.24991   0.25073
     Eigenvalues ---    0.25982   0.26511   0.28351   0.30315   0.31060
     Eigenvalues ---    0.31424   0.33685   0.33813   0.34529   0.34640
     Eigenvalues ---    0.34937   0.35104   0.35773   0.35835   0.36006
     Eigenvalues ---    0.36110   0.36145   0.36215   0.37058   0.38198
     Eigenvalues ---    0.38974   0.39455   0.40531   0.421591000.00000
     Eigenvalues --- 1000.000001000.000001000.000001000.000001000.00000
     Eigenvalues --- 1000.000001000.000001000.000001000.000001000.00000
     Eigenvalues --- 1000.000001000.000001000.000001000.000001000.00000
     Eigenvalues --- 1000.000001000.000001000.000001000.000001000.00000
     Eigenvalues --- 1000.000001000.000001000.000001000.000001000.00000
     Eigenvalues --- 1000.000001000.000001000.000001000.000001000.00000
     Eigenvalues --- 1000.000001000.000001000.000001000.000001000.00000
     Eigenvalues --- 1000.000001000.000001000.000001000.000001000.00000
     Eigenvalues --- 1000.000001000.000001000.000001000.000001000.00000
     Eigenvalues --- 1000.000001000.000001000.000001000.000001000.00000
     Eigenvalues --- 1000.000001000.000001000.000001000.000001000.00000
     Eigenvalues --- 1000.000001000.00000
 RFO step:  Lambda=-6.49716370D-03 EMin= 9.35093060D-03
 Quartic linear search produced a step of  0.36429.
 Iteration  1 RMS(Cart)=  0.10439243 RMS(Int)=  0.00664484
 Iteration  2 RMS(Cart)=  0.00923115 RMS(Int)=  0.00220259
 Iteration  3 RMS(Cart)=  0.00004325 RMS(Int)=  0.00220225
 Iteration  4 RMS(Cart)=  0.00000005 RMS(Int)=  0.00220225
 Iteration  1 RMS(Cart)=  0.00003040 RMS(Int)=  0.00001203
 Iteration  2 RMS(Cart)=  0.00001665 RMS(Int)=  0.00001344
 Iteration  3 RMS(Cart)=  0.00000912 RMS(Int)=  0.00001518
 Iteration  4 RMS(Cart)=  0.00000499 RMS(Int)=  0.00001634
 Iteration  5 RMS(Cart)=  0.00000273 RMS(Int)=  0.00001702
 Iteration  6 RMS(Cart)=  0.00000150 RMS(Int)=  0.00001741
 Iteration  7 RMS(Cart)=  0.00000082 RMS(Int)=  0.00001762
 Variable       Old X    -DE/DX   Delta X   Delta X   Delta X     New X
                                 (Linear)    (Quad)   (Total)
    R1        2.68728   0.00200  -0.01162   0.02031   0.00871   2.69600
    R2        2.61199  -0.01214  -0.03713   0.00439  -0.03278   2.57921
    R3        2.04181   0.00145   0.00142   0.00355   0.00497   2.04678
    R4        2.63391  -0.01222  -0.04559   0.01182  -0.03371   2.60019
    R5        2.83567   0.00359   0.00920   0.00262   0.01181   2.84748
    R6        3.34265  -0.00584  -0.01935  -0.00327  -0.02260   3.32005
    R7        2.73575   0.00613  -0.00502   0.02763   0.02260   2.75835
    R8        2.06286   0.00010  -0.00056   0.00106   0.00050   2.06336
    R9        2.06559   0.00058   0.00283  -0.00129   0.00155   2.06713
   R10        2.06925  -0.00124  -0.00260  -0.00161  -0.00420   2.06505
   R11        3.24634   0.00102  -0.01471   0.02299   0.00823   3.25456
   R12        2.04011  -0.00016  -0.00022  -0.00030  -0.00053   2.03959
   R13        3.35656  -0.00282  -0.00959   0.00722  -0.00490   3.35166
   R14        2.63135  -0.01662  -0.04970   0.00407  -0.04720   2.58414
   R15        3.27011   0.00495   0.00001   0.01856   0.01921   3.28932
   R16        2.65689  -0.00785  -0.02408  -0.00832  -0.02787   2.62903
   R17        2.68826   0.00164  -0.00206   0.00463   0.00409   2.69234
   R18        2.68300   0.00125  -0.00922   0.01203   0.00415   2.68714
   R19        3.28018   0.00466   0.00233   0.01519   0.01745   3.29763
   R20        2.04231   0.00058   0.00136   0.00045   0.00181   2.04413
   R21        3.30550  -0.00274  -0.01070   0.00861  -0.00417   3.30133
   R22        2.61123  -0.01389  -0.04323   0.00795  -0.03606   2.57516
   R23        2.04017  -0.00020  -0.00118   0.00071  -0.00047   2.03970
   R24        2.04520  -0.00056  -0.00362   0.00235  -0.00128   2.04392
    A1        1.98904  -0.00023   0.00686  -0.01183  -0.00499   1.98405
    A2        2.15959  -0.00104  -0.00500  -0.00106  -0.00605   2.15354
    A3        2.13455   0.00127  -0.00186   0.01288   0.01102   2.14557
    A4        1.96153  -0.00068  -0.00377   0.00070  -0.00302   1.95852
    A5        2.13959   0.00362   0.01477  -0.00029   0.01440   2.15399
    A6        2.18205  -0.00294  -0.01101  -0.00047  -0.01155   2.17051
    A7        1.92125   0.00293   0.00614   0.00748   0.01370   1.93495
    A8        2.28925  -0.00501  -0.01081  -0.01205  -0.02290   2.26635
    A9        2.07240   0.00208   0.00462   0.00464   0.00922   2.08162
   A10        1.93128  -0.00068  -0.00517   0.00477  -0.00039   1.93089
   A11        1.94593   0.00022   0.00431  -0.00672  -0.00241   1.94352
   A12        1.94857   0.00081   0.00556  -0.00238   0.00317   1.95175
   A13        1.87833   0.00044   0.00154   0.00215   0.00370   1.88204
   A14        1.87163   0.00062   0.00202   0.00572   0.00775   1.87938
   A15        1.88489  -0.00142  -0.00859  -0.00309  -0.01170   1.87319
   A16        1.94226   0.00072  -0.00405   0.00978   0.00564   1.94790
   A17        2.20416   0.00286   0.01033   0.00863   0.01899   2.22316
   A18        2.13667  -0.00358  -0.00626  -0.01835  -0.02458   2.11209
   A19        1.61069  -0.00274  -0.00518  -0.00612  -0.01133   1.59935
   A20        2.11835  -0.00290  -0.00383  -0.01098  -0.01478   2.10357
   A21        2.23328   0.00008  -0.00254   0.00293   0.00042   2.23370
   A22        1.93123   0.00286   0.00651   0.00832   0.01463   1.94586
   A23        1.60705  -0.00248  -0.00445  -0.01177  -0.01414   1.59291
   A24        1.93303  -0.00203  -0.01036   0.01132  -0.00142   1.93161
   A25        2.28484   0.00379   0.01675   0.04148   0.04769   2.33253
   A26        1.98430   0.00046   0.00691  -0.00292   0.00317   1.98748
   A27        1.98864   0.00020   0.00810  -0.00518   0.00196   1.99060
   A28        1.93170  -0.00177  -0.01272   0.01654   0.00118   1.93288
   A29        2.28442   0.00375   0.01726   0.03947   0.04607   2.33049
   A30        1.96425   0.00148   0.00024  -0.00249  -0.00079   1.96345
   A31        2.14478  -0.00187  -0.00586   0.00541  -0.00417   2.14061
   A32        2.16900   0.00069   0.00809   0.00575   0.01012   2.17912
   A33        1.59760  -0.00210   0.00179  -0.01947  -0.01489   1.58271
   A34        1.96243   0.00259   0.00067   0.01662   0.01583   1.97826
   A35        2.12026  -0.00459  -0.00533  -0.02049  -0.03018   2.09008
   A36        2.19402   0.00247   0.00857   0.01645   0.02057   2.21459
   A37        1.94833   0.00084   0.00331  -0.00996  -0.00493   1.94340
   A38        2.17936  -0.00054   0.00511   0.00609   0.00497   2.18434
   A39        2.13862   0.00053  -0.00124   0.02314   0.01575   2.15437
    D1        0.00025  -0.00004  -0.00240   0.00251   0.00008   0.00032
    D2        3.13775  -0.00035  -0.00396  -0.01069  -0.01482   3.12292
    D3       -3.13794   0.00016   0.00058   0.00372   0.00427  -3.13367
    D4       -0.00044  -0.00016  -0.00099  -0.00948  -0.01064  -0.01107
    D5        0.00200   0.00025   0.00317  -0.00287   0.00026   0.00226
    D6       -3.12581  -0.00002   0.00160  -0.00665  -0.00508  -3.13089
    D7        3.14024   0.00005   0.00026  -0.00409  -0.00394   3.13630
    D8        0.01243  -0.00021  -0.00132  -0.00787  -0.00928   0.00315
    D9       -0.00230  -0.00019   0.00058  -0.00100  -0.00040  -0.00269
   D10        3.11287   0.00029  -0.00173   0.00217   0.00044   3.11331
   D11       -3.13968   0.00012   0.00219   0.01258   0.01460  -3.12508
   D12       -0.02451   0.00060  -0.00012   0.01575   0.01544  -0.00907
   D13        0.03761  -0.00013  -0.00006  -0.00031  -0.00037   0.03724
   D14       -2.05231  -0.00037  -0.00143  -0.00178  -0.00319  -2.05550
   D15        2.12082   0.00073   0.00273   0.00852   0.01125   2.13208
   D16       -3.10860  -0.00048  -0.00182  -0.01521  -0.01705  -3.12565
   D17        1.08466  -0.00073  -0.00319  -0.01669  -0.01987   1.06479
   D18       -1.02539   0.00038   0.00097  -0.00638  -0.00542  -1.03082
   D19        0.00292   0.00028   0.00104  -0.00052   0.00045   0.00337
   D20       -3.11599  -0.00001   0.00323  -0.00294   0.00028  -3.11571
   D21        1.22190  -0.00156  -0.00000   0.00000   0.00000   1.22190
   D22       -1.94985  -0.00008   0.00510   0.01249   0.01780  -1.93205
   D23       -1.94800  -0.00105  -0.00248   0.00340   0.00090  -1.94710
   D24        1.16344   0.00044   0.00262   0.01589   0.01870   1.18214
   D25       -0.00279  -0.00030  -0.00239   0.00191  -0.00040  -0.00319
   D26        3.12563   0.00001  -0.00068   0.00575   0.00494   3.13057
   D27       -3.13925   0.00061   0.00235   0.00671   0.00869  -3.13057
   D28        0.02775  -0.00061  -0.00178  -0.00379  -0.00625   0.02149
   D29        3.13473  -0.00072  -0.00365  -0.00500  -0.00825   3.12648
   D30       -0.11167   0.00246   0.01697   0.08312   0.09980  -0.01187
   D31       -0.03438   0.00056   0.00081   0.00613   0.00783  -0.02655
   D32        3.00241   0.00374   0.02143   0.09425   0.11587   3.11828
   D33       -0.01373   0.00057   0.00264   0.00036   0.00321  -0.01052
   D34       -2.69748  -0.00515  -0.02952  -0.13046  -0.16261  -2.86009
   D35       -0.00339  -0.00023  -0.00239   0.00323   0.00098  -0.00240
   D36       -2.77707  -0.00596  -0.03235  -0.11899  -0.14530  -2.92237
   D37        2.76480   0.00552   0.02823   0.12183   0.14454   2.90934
[...]
     18          1           0       -5.387333    0.176733   -0.158408
     19          1           0       -3.741384    1.786841   -1.417230
     20          1           0        2.884298    2.118947    2.227477
     21          1           0        1.265141    2.105095    1.515393
     22          1           0        2.592895    2.921312    0.685001
 ---------------------------------------------------------------------
 Rotational constants (GHZ):           1.2638128           0.2666136           0.2466684

 **********************************************************************

            Population analysis using the SCF Density.

 **********************************************************************

 Orbital symmetries:
       Occupied  (A) (A) (A) (A) (A) (A) (A) (A) (A) (A) (A) (A)
                 (A) (A) (A) (A) (A) (A) (A) (A) (A) (A) (A) (A)
                 (A) (A) (A) (A) (A) (A) (A) (A) (A) (A) (A) (A)
                 (A) (A) (A) (A) (A) (A) (A) (A) (A) (A) (A) (A)
                 (A) (A) (A) (A) (A) (A) (A) (A) (A) (A) (A) (A)
                 (A)
       Virtual   (A) (A) (A) (A) (A) (A) (A) (A) (A) (A) (A) (A)
                 (A) (A) (A) (A) (A) (A) (A) (A) (A) (A) (A) (A)
                 (A) (A) (A) (A) (A) (A) (A) (A) (A) (A) (A) (A)
                 (A) (A) (A) (A) (A) (A) (A) (A) (A) (A) (A) (A)
                 (A) (A) (A) (A) (A) (A) (A) (A) (A) (A) (A) (A)
                 (A) (A) (A) (A) (A) (A) (A) (A) (A) (A) (A) (A)
                 (A) (A) (A) (A) (A) (A) (A) (A) (A) (A) (A) (A)
                 (A) (A) (A) (A) (A) (A) (A) (A) (A) (A) (A) (A)
                 (A) (A) (A) (A) (A) (A) (A) (A) (A) (A) (A) (A)
                 (A) (A) (A) (A) (A) (A) (A) (A) (A) (A) (A) (A)
                 (A) (A) (A) (A) (A) (A) (A) (A) (A) (A) (A) (A)
                 (A) (A) (A) (A) (A) (A) (A) (A) (A) (A) (A) (A)
                 (A) (A) (A) (A) (A) (A) (A) (A) (A) (A) (A) (A)
                 (A) (A) (A) (A) (A) (A) (A) (A) (A) (A) (A) (A)
                 (A) (A) (A) (A) (A) (A) (A) (A) (A) (A) (A) (A)
                 (A) (A) (A) (A) (A) (A) (A) (A) (A) (A) (A) (A)
                 (A) (A) (A) (A) (A) (A) (A) (A) (A) (A) (A) (A)
                 (A) (A) (A) (A) (A) (A) (A) (A) (A) (A) (A) (A)
                 (A) (A) (A) (A) (A) (A) (A) (A) (A) (A) (A) (A)
                 (A) (A) (A) (A) (A) (A) (A) (A) (A) (A) (A) (A)
                 (A) (A) (A) (A) (A) (A) (A) (A) (A) (A) (A) (A)
                 (A) (A) (A) (A) (A) (A) (A) (A) (A) (A) (A) (A)
                 (A) (A) (A) (A) (A) (A) (A) (A) (A) (A) (A) (A)
                 (A) (A) (A) (A) (A) (A) (A) (A) (A) (A) (A) (A)
                 (A) (A) (A) (A) (A) (A) (A) (A) (A) (A) (A) (A)
                 (A) (A) (A) (A) (A) (A) (A) (A) (A) (A) (A) (A)
                 (A) (A) (A) (A) (A)
 The electronic state is 1-A.
 Alpha  occ. eigenvalues --  -88.88461 -88.88254 -88.87921 -10.22213 -10.21248
 Alpha  occ. eigenvalues --  -10.21167 -10.21103 -10.21084 -10.20446 -10.19369
 Alpha  occ. eigenvalues --  -10.19357 -10.19242 -10.18024 -10.17377  -7.97035
 Alpha  occ. eigenvalues --   -7.96825  -7.96531  -5.93347  -5.93142  -5.92982
 Alpha  occ. eigenvalues --   -5.92821  -5.92778  -5.92585  -5.92445  -5.92360
 Alpha  occ. eigenvalues --   -5.92126  -0.91641  -0.89128  -0.84907  -0.77526
 Alpha  occ. eigenvalues --   -0.77202  -0.75565  -0.71421  -0.70511  -0.67908
 Alpha  occ. eigenvalues --   -0.61328  -0.57593  -0.56752  -0.54006  -0.52127
 Alpha  occ. eigenvalues --   -0.49945  -0.49683  -0.44533  -0.43760  -0.43530
 Alpha  occ. eigenvalues --   -0.42108  -0.41441  -0.39944  -0.39470  -0.39014
 Alpha  occ. eigenvalues --   -0.37692  -0.37338  -0.36614  -0.34895  -0.34252
 Alpha  occ. eigenvalues --   -0.33702  -0.29086  -0.25473  -0.24814  -0.23791
 Alpha  occ. eigenvalues --   -0.22039
 Alpha virt. eigenvalues --   -0.04988  -0.02670  -0.00589  -0.00379  -0.00037
 Alpha virt. eigenvalues --    0.00498   0.00836   0.01563   0.01891   0.02518
 Alpha virt. eigenvalues --    0.03118   0.03310   0.03718   0.04210   0.04395
 Alpha virt. eigenvalues --    0.04613   0.05400   0.05955   0.06091   0.06597
 Alpha virt. eigenvalues --    0.07114   0.07345   0.07901   0.08128   0.08590
 Alpha virt. eigenvalues --    0.09235   0.09561   0.09710   0.10770   0.11031
 Alpha virt. eigenvalues --    0.11714   0.12360   0.12468   0.13054   0.13326
 Alpha virt. eigenvalues --    0.13452   0.13879   0.14583   0.14758   0.15477
 Alpha virt. eigenvalues --    0.15879   0.16149   0.16395   0.16771   0.17095
 Alpha virt. eigenvalues --    0.17484   0.17924   0.18390   0.18584   0.18943
 Alpha virt. eigenvalues --    0.19068   0.19562   0.20590   0.20658   0.21063
 Alpha virt. eigenvalues --    0.21356   0.21505   0.22156   0.22449   0.22656
 Alpha virt. eigenvalues --    0.23036   0.23243   0.23858   0.24164   0.24789
 Alpha virt. eigenvalues --    0.25022   0.25492   0.25735   0.26711   0.26887
 Alpha virt. eigenvalues --    0.28314   0.28995   0.29583   0.29816   0.30873
 Alpha virt. eigenvalues --    0.31755   0.33062   0.33156   0.33663   0.34682
 Alpha virt. eigenvalues --    0.35514   0.36040   0.37116   0.37587   0.39023
 Alpha virt. eigenvalues --    0.39521   0.41255   0.42665   0.43516   0.44966
 Alpha virt. eigenvalues --    0.46101   0.46995   0.47789   0.48846   0.49452
 Alpha virt. eigenvalues --    0.51503   0.52237   0.53370   0.55118   0.55537
 Alpha virt. eigenvalues --    0.56351   0.56630   0.58047   0.58487   0.59489
 Alpha virt. eigenvalues --    0.59693   0.61053   0.61779   0.62282   0.62967
 Alpha virt. eigenvalues --    0.63924   0.64633   0.65297   0.66267   0.66919
 Alpha virt. eigenvalues --    0.67818   0.68984   0.70291   0.70937   0.71474
 Alpha virt. eigenvalues --    0.72229   0.73039   0.74043   0.74755   0.75830
 Alpha virt. eigenvalues --    0.76425   0.76816   0.77804   0.78341   0.78804
 Alpha virt. eigenvalues --    0.79632   0.80466   0.81796   0.82524   0.82721
 Alpha virt. eigenvalues --    0.83409   0.84488   0.84750   0.85303   0.86947
 Alpha virt. eigenvalues --    0.88202   0.88567   0.89680   0.89880   0.92505
 Alpha virt. eigenvalues --    0.93499   0.93957   0.95225   0.96487   0.97193
 Alpha virt. eigenvalues --    0.98378   0.99033   1.01658   1.03351   1.03617
 Alpha virt. eigenvalues --    1.03995   1.04651   1.06197   1.07001   1.08227
 Alpha virt. eigenvalues --    1.08666   1.11174   1.12193   1.13455   1.15887
 Alpha virt. eigenvalues --    1.18046   1.20325   1.21468   1.27048   1.33801
 Alpha virt. eigenvalues --    1.34398   1.35641   1.36451   1.37983   1.39122
 Alpha virt. eigenvalues --    1.43223   1.45801   1.47547   1.50435   1.52885
 Alpha virt. eigenvalues --    1.55383   1.55628   1.56995   1.59463   1.59641
 Alpha virt. eigenvalues --    1.60132   1.60388   1.61321   1.61764   1.62789
 Alpha virt. eigenvalues --    1.65265   1.68466   1.69134   1.70556   1.71729
 Alpha virt. eigenvalues --    1.73215   1.74322   1.75420   1.76290   1.77265
 Alpha virt. eigenvalues --    1.78025   1.80358   1.81299   1.82977   1.85438
 Alpha virt. eigenvalues --    1.85681   1.87662   1.89083   1.91159   1.91987
 Alpha virt. eigenvalues --    1.92992   1.94585   1.96571   1.98353   1.99346
 Alpha virt. eigenvalues --    2.00822   2.02811   2.05030   2.06234   2.06794
 Alpha virt. eigenvalues --    2.08251   2.09145   2.10215   2.10977   2.12311
 Alpha virt. eigenvalues --    2.14022   2.14538   2.16199   2.17614   2.19767
 Alpha virt. eigenvalues --    2.19793   2.27227   2.30806   2.32554   2.38030
 Alpha virt. eigenvalues --    2.40788   2.42304   2.43574   2.44909   2.47187
 Alpha virt. eigenvalues --    2.52397   2.54905   2.55899   2.59493   2.60510
 Alpha virt. eigenvalues --    2.62544   2.64195   2.65754   2.70084   2.70244
 Alpha virt. eigenvalues --    2.71650   2.72483   2.73492   2.74046   2.74622
 Alpha virt. eigenvalues --    2.77022   2.78301   2.83937   2.84897   2.88976
 Alpha virt. eigenvalues --    2.90863   2.92266   2.94692   2.96165   3.02033
 Alpha virt. eigenvalues --    3.04348   3.05458   3.06677   3.11217   3.13509
 Alpha virt. eigenvalues --    3.16564   3.22784   3.29411   3.29613   3.32825
 Alpha virt. eigenvalues --    3.34318   3.42393   3.44271   3.47053   3.53399
 Alpha virt. eigenvalues --    3.57670   3.69973   3.79843   3.83590   3.94485
 Alpha virt. eigenvalues --    3.98208   4.06308   4.13421   4.33594   4.35732
 Alpha virt. eigenvalues --    4.50281   7.98745   8.00293   8.00586  17.28288
 Alpha virt. eigenvalues --   17.30566  17.31437  17.45388  17.47140  17.51348
 Alpha virt. eigenvalues --   17.52165  17.54668  17.56904  23.47632  23.63846
 Alpha virt. eigenvalues --   23.77331  23.81265  23.85110  23.95609  24.01892
 Alpha virt. eigenvalues --   24.08193  24.13813  24.15156  24.15497 189.15577
 Alpha virt. eigenvalues --  189.17776 189.17879
          Condensed to atoms (all electrons):
               1          2          3          4          5          6
     1  C    9.704185  -4.008202   1.423093  -1.311546  -0.600995   0.344715
     2  C   -4.008202  18.205840  -4.690238   0.434550   2.059035  -0.013319
     3  C    1.423093  -4.690238  11.418510  -0.439365  -1.258761   0.004126
     4  C   -1.311546   0.434550  -0.439365   7.320485   0.018631   0.017090
     5  C   -0.600995   2.059035  -1.258761   0.018631   6.163904  -0.014730
     6  H    0.344715  -0.013319   0.004126   0.017090  -0.014730   0.535948
     7  S   -0.955014   0.341020  -0.835487   0.628436   0.175682   0.012414
     8  H    0.049243  -0.062414   0.034472  -0.001450   0.358123  -0.005661
     9  C    0.987683  -3.596974   1.507123  -0.698534  -0.601867  -0.006648
    10  S   -0.176739   1.319267   0.293440   0.175838   0.082651   0.000724
    11  C    0.110713  -0.828736  -0.548610  -0.081665  -0.064982  -0.000389
    12  C   -0.467289   1.858714   1.182164   0.364309   0.205948   0.000188
    13  C    0.751146  -3.895481  -2.247551  -0.747774  -0.343654  -0.001293
    14  H   -0.001536   0.016995   0.034081   0.001988   0.003167   0.000001
    15  S    0.002852  -0.010242  -0.007106  -0.007993  -0.000178  -0.000002
    16  C   -0.008162   0.056313   0.078425   0.012487   0.003218   0.000001
    17  C    0.052427  -0.543569  -0.265372  -0.082488  -0.023575  -0.000028
    18  H    0.000000  -0.000052  -0.000361  -0.000003  -0.000001   0.000000
    19  H   -0.000009   0.000230  -0.000207  -0.000002   0.000004   0.000000
    20  H    0.046549  -0.041855  -0.061733   0.423997   0.020309   0.000423
    21  H   -0.052798  -0.079571   0.035811   0.433894  -0.002107   0.000127
    22  H    0.009047  -0.019247   0.006050   0.359531  -0.007225   0.000369
               7          8          9         10         11         12
     1  C   -0.955014   0.049243   0.987683  -0.176739   0.110713  -0.467289
     2  C    0.341020  -0.062414  -3.596974   1.319267  -0.828736   1.858714
     3  C   -0.835487   0.034472   1.507123   0.293440  -0.548610   1.182164
     4  C    0.628436  -0.001450  -0.698534   0.175838  -0.081665   0.364309
     5  C    0.175682   0.358123  -0.601867   0.082651  -0.064982   0.205948
     6  H    0.012414  -0.005661  -0.006648   0.000724  -0.000389   0.000188
     7  S   17.327180  -0.019544  -0.477289   0.087358  -0.052102   0.220387
     8  H   -0.019544   0.486999   0.001257  -0.000189   0.000081  -0.000924
     9  C   -0.477289   0.001257  10.957465  -0.367006  -0.400238  -1.545826
    10  S    0.087358  -0.000189  -0.367006  18.091573  -0.539147   1.432451
    11  C   -0.052102   0.000081  -0.400238  -0.539147  17.204209  -4.307907
    12  C    0.220387  -0.000924  -1.545826   1.432451  -4.307907  15.906549
    13  C   -0.258512  -0.000364   0.147276  -3.171613   0.466150  -7.391226
    14  H    0.004255  -0.000004  -0.003325   0.014171  -0.069386   0.037783
    15  S   -0.004042   0.000000  -0.627427   0.237867   0.288161  -0.419469
    16  C   -0.001471  -0.000002  -0.046355   0.224279   1.309171  -0.321009
    17  C    0.025505   0.000003  -0.018077  -1.240191  -6.766426  -0.214077
    18  H    0.000013   0.000000   0.003751  -0.001848  -0.000306   0.023221
    19  H   -0.000015   0.000000  -0.007850   0.017502   0.026261  -0.063090
    20  H   -0.001214  -0.000012  -0.018818  -0.001847  -0.002931   0.005360
    21  H    0.000527   0.000015   0.025064   0.008640  -0.004732   0.000620
    22  H    0.003776  -0.000010  -0.007508   0.012301   0.001127  -0.000255
              13         14         15         16         17         18
     1  C    0.751146  -0.001536   0.002852  -0.008162   0.052427   0.000000
     2  C   -3.895481   0.016995  -0.010242   0.056313  -0.543569  -0.000052
     3  C   -2.247551   0.034081  -0.007106   0.078425  -0.265372  -0.000361
     4  C   -0.747774   0.001988  -0.007993   0.012487  -0.082488  -0.000003
     5  C   -0.343654   0.003167  -0.000178   0.003218  -0.023575  -0.000001
     6  H   -0.001293   0.000001  -0.000002   0.000001  -0.000028   0.000000
     7  S   -0.258512   0.004255  -0.004042  -0.001471   0.025505   0.000013
     8  H   -0.000364  -0.000004   0.000000  -0.000002   0.000003   0.000000
     9  C    0.147276  -0.003325  -0.627427  -0.046355  -0.018077   0.003751
    10  S   -3.171613   0.014171   0.237867   0.224279  -1.240191  -0.001848
    11  C    0.466150  -0.069386   0.288161   1.309171  -6.766426  -0.000306
    12  C   -7.391226   0.037783  -0.419469  -0.321009  -0.214077   0.023221
    13  C   20.247187   0.291711  -0.491574  -0.801863   2.979433   0.009025
    14  H    0.291711   0.516441   0.011014  -0.000377   0.003842  -0.000005
    15  S   -0.491574   0.011014  17.239622   0.472218  -0.274816  -0.042359
    16  C   -0.801863  -0.000377   0.472218   5.810085  -0.975599   0.368432
    17  C    2.979433   0.003842  -0.274816  -0.975599  12.858868  -0.000191
    18  H    0.009025  -0.000005  -0.042359   0.368432  -0.000191   0.478144
    19  H   -0.006406   0.000007   0.013105   0.033228   0.336613  -0.004991
    20  H   -0.005198   0.000014  -0.000009   0.000033  -0.000238   0.000000
    21  H    0.008047  -0.000059   0.000037   0.000022  -0.001198  -0.000000
    22  H   -0.007324   0.000003   0.000006  -0.000010   0.000184  -0.000000
              19         20         21         22
     1  C   -0.000009   0.046549  -0.052798   0.009047
     2  C    0.000230  -0.041855  -0.079571  -0.019247
     3  C   -0.000207  -0.061733   0.035811   0.006050
     4  C   -0.000002   0.423997   0.433894   0.359531
     5  C    0.000004   0.020309  -0.002107  -0.007225
     6  H    0.000000   0.000423   0.000127   0.000369
     7  S   -0.000015  -0.001214   0.000527   0.003776
     8  H    0.000000  -0.000012   0.000015  -0.000010
     9  C   -0.007850  -0.018818   0.025064  -0.007508
    10  S    0.017502  -0.001847   0.008640   0.012301
    11  C    0.026261  -0.002931  -0.004732   0.001127
    12  C   -0.063090   0.005360   0.000620  -0.000255
    13  C   -0.006406  -0.005198   0.008047  -0.007324
    14  H    0.000007   0.000014  -0.000059   0.000003
    15  S    0.013105  -0.000009   0.000037   0.000006
    16  C    0.033228   0.000033   0.000022  -0.000010
    17  C    0.336613  -0.000238  -0.001198   0.000184
    18  H   -0.004991   0.000000  -0.000000  -0.000000
    19  H    0.519851   0.000000   0.000001   0.000000
    20  H    0.000000   0.550199  -0.027462  -0.034028
    21  H    0.000001  -0.027462   0.517960  -0.023957
    22  H    0.000000  -0.034028  -0.023957   0.542581
 Mulliken charges:
               1
     1  C    0.100637
     2  C   -0.502064
     3  C    0.337497
     4  C   -0.820417
     5  C   -0.172597
     6  H    0.125945
     7  S   -0.221864
     8  H    0.160381
     9  C    0.794119
    10  S   -0.499483
    11  C    0.261684
    12  C   -0.506619
    13  C    0.469856
    14  H    0.139218
    15  S   -0.379664
    16  C   -0.213061
    17  C    0.148968
    18  H    0.167531
    19  H    0.135767
    20  H    0.148459
    21  H    0.161119
    22  H    0.164589
 Sum of Mulliken charges =  -0.00000
 Mulliken charges with hydrogens summed into heavy atoms:
               1
     1  C    0.226582
     2  C   -0.502064
     3  C    0.337497
     4  C   -0.346250
     5  C   -0.012216
     7  S   -0.221864
     9  C    0.794119
    10  S   -0.499483
    11  C    0.261684
    12  C   -0.506619
    13  C    0.609074
    15  S   -0.379664
    16  C   -0.045530
    17  C    0.284735
 Electronic spatial extent (au):  <R**2>=           4360.3261
 Charge=              0.0000 electrons
 Dipole moment (field-independent basis, Debye):
    X=              0.2965    Y=              0.7582    Z=              0.5032  Tot=              0.9571
 Quadrupole moment (field-independent basis, Debye-Ang):
   XX=            -88.1396   YY=           -101.2789   ZZ=           -105.6620
   XY=             -1.5801   XZ=              3.2651   YZ=             -1.1362
 Traceless Quadrupole moment (field-independent basis, Debye-Ang):
   XX=             10.2206   YY=             -2.9187   ZZ=             -7.3018
   XY=             -1.5801   XZ=              3.2651   YZ=             -1.1362
 Octapole moment (field-independent basis, Debye-Ang**2):
  XXX=             -4.0466  YYY=              1.9989  ZZZ=              1.7730  XYY=              7.1770
  XXY=              7.4608  XXZ=             -6.7598  XZZ=             -0.0511  YZZ=              2.3137
  YYZ=             -0.6934  XYZ=             16.9608
 Hexadecapole moment (field-independent basis, Debye-Ang**3):
 XXXX=          -4220.7931 YYYY=           -868.3360 ZZZZ=           -474.3404 XXXY=            -73.8707
 XXXZ=             28.1264 YYYX=             -6.6554 YYYZ=             -9.7330 ZZZX=              6.0599
 ZZZY=             -4.0926 XXYY=           -921.2856 XXZZ=           -916.6671 YYZZ=           -211.5608
 XXYZ=              8.7712 YYXZ=              5.2411 ZZXY=             -1.4649
 N-N= 1.119506617471D+03 E-N=-6.063448224024D+03  KE= 1.615136689695D+03
 Unable to Open any file for archive entry.
 1\1\GINC-CX3-3-15\FOpt\RB3LYP\6-311+G(d,p)\C11H8S3\NS5018\17-Oct-2021\
 0\\# opt=modredundant b3lyp/6-311+g(d,p)\\pBTTT_70.pdb\\0,1\C,-4.22581
 64047,-1.3079872763,-0.2383150774\C,-2.8646241941,-1.0285138377,-0.580
 3099069\C,-2.0815414308,-2.1615254085,-0.5527399289\C,-2.3774077848,0.
 3477497093,-0.9429810657\C,-4.4635763834,-2.6230031911,0.0358692995\H,
 -4.9975930273,-0.5486201927,-0.2121883701\S,-3.0262077575,-3.571946466
 4,-0.1049578016\H,-5.397723221,-3.0910665174,0.3071661319\C,-0.6592562
 596,-2.3129866345,-0.8549021884\S,0.5613172158,-1.6375167869,0.2391212
 944\C,1.8494427464,-2.2761094063,-0.7432507874\C,1.3365031414,-2.98000
 06818,-1.8255019135\C,-0.0828873611,-3.0064188727,-1.8883805271\H,-0.6
 643764015,-3.4972608656,-2.6567060039\S,2.6253747837,-3.6158015221,-2.
 8132499353\C,3.8201071151,-2.9167115412,-1.7446824806\C,3.2726334723,-
 2.235676096,-0.6959960126\H,4.8671039181,-3.059848831,-1.9643914655\H,
 3.8572117687,-1.7389081715,0.0657473018\H,-3.0541648429,0.819102763,-1
 .6614729466\H,-1.3808298779,0.3169362547,-1.3845192712\H,-2.3336892145
 ,0.9971135727,-0.0623583449\\Version=ES64L-G16RevC.01\State=1-A\HF=-16
 18.7167163\RMSD=4.314e-09\RMSF=3.503e-04\Dipole=-0.0799259,0.3618435,-
 0.0667889\Quadrupole=8.1004775,-2.9273329,-5.1731446,-1.0241071,-0.151
 2246,1.5495833\PG=C01 [X(C11H8S3)]\\@
 The archive entry for this job was punched.


 ON INDUCTION, OR "WHY DO YOU BELIEVE THE SUN WILL RISE TOMORROW?":

 ... THE FARMER WHO HAS FED THE CHICKEN EVERY DAY THROUGHOUT ITS
 LIFE AT LAST WRINGS ITS NECK INSTEAD, SHOWING THAT MORE REFINED VIEWS
 AS TO THE UNIFORMITY OF NATURE WOULD HAVE BEEN USEFUL TO THE CHICKEN.

                               -- BERTRAND RUSSELL
 Job cpu time:       0 days  4 hours 43 minutes 59.5 seconds.
 Elapsed time:       0 days  0 hours 35 minutes 45.4 seconds.
 File lengths (MBytes):  RWF=     96 Int=      0 D2E=      0 Chk=     12 Scr=      1
 Normal termination of Gaussian 16 at Sun Oct 17 01:19:15 2021.
