 Entering Gaussian System, Link 0=g16
 Input=pBTTT_0.gjf
 Output=pBTTT_0.log
 Initial command:
 /apps/gaussian/g16-c01-avx/g16/l1.exe "/tmp/pbs.4729010[175].pbs/Gau-14895.inp" -scrdir="/tmp/pbs.4729010[175].pbs/"
 Entering Link 1 = /apps/gaussian/g16-c01-avx/g16/l1.exe PID=     14896.
  
 Copyright (c) 1988-2019, Gaussian, Inc.  All Rights Reserved.
  
 This is part of the Gaussian(R) 16 program.  It is based on
 the Gaussian(R) 09 system (copyright 2009, Gaussian, Inc.),
 the Gaussian(R) 03 system (copyright 2003, Gaussian, Inc.),
 the Gaussian(R) 98 system (copyright 1998, Gaussian, Inc.),
 the Gaussian(R) 94 system (copyright 1995, Gaussian, Inc.),
 the Gaussian 92(TM) system (copyright 1992, Gaussian, Inc.),
 the Gaussian 90(TM) system (copyright 1990, Gaussian, Inc.),
 the Gaussian 88(TM) system (copyright 1988, Gaussian, Inc.),
 the Gaussian 86(TM) system (copyright 1986, Carnegie Mellon
 University), and the Gaussian 82(TM) system (copyright 1983,
 Carnegie Mellon University). Gaussian is a federally registered
 trademark of Gaussian, Inc.
  
 This software contains proprietary and confidential information,
 including trade secrets, belonging to Gaussian, Inc.
  
 This software is provided under written license and may be
 used, copied, transmitted, or stored only in accord with that
 written license.
  
 The following legend is applicable only to US Government
 contracts under FAR:
  
                    RESTRICTED RIGHTS LEGEND
  
 Use, reproduction and disclosure by the US Government is
 subject to restrictions as set forth in subparagraphs (a)
 and (c) of the Commercial Computer Software - Restricted
 Rights clause in FAR 52.227-19.
  
 Gaussian, Inc.
 340 Quinnipiac St., Bldg. 40, Wallingford CT 06492
  
  
 ---------------------------------------------------------------
 Warning -- This program may not be used in any manner that
 competes with the business of Gaussian, Inc. or will provide
 assistance to any competitor of Gaussian, Inc.  The licensee
 of this program is prohibited from giving any competitor of
 Gaussian, Inc. access to this program.  By using this program,
 the user acknowledges that Gaussian, Inc. is engaged in the
 business of creating and licensing software in the field of
 computational chemistry and represents and warrants to the
 licensee that it is not a competitor of Gaussian, Inc. and that
 it will not use this program in any manner prohibited above.
 ---------------------------------------------------------------
  

 Cite this work as:
 Gaussian 16, Revision C.01,
 M. J. Frisch, G. W. Trucks, H. B. Schlegel, G. E. Scuseria, 
 M. A. Robb, J. R. Cheeseman, G. Scalmani, V. Barone, 
 G. A. Petersson, H. Nakatsuji, X. Li, M. Caricato, A. V. Marenich, 
 J. Bloino, B. G. Janesko, R. Gomperts, B. Mennucci, H. P. Hratchian, 
 J. V. Ortiz, A. F. Izmaylov, J. L. Sonnenberg, D. Williams-Young, 
 F. Ding, F. Lipparini, F. Egidi, J. Goings, B. Peng, A. Petrone, 
 T. Henderson, D. Ranasinghe, V. G. Zakrzewski, J. Gao, N. Rega, 
 G. Zheng, W. Liang, M. Hada, M. Ehara, K. Toyota, R. Fukuda, 
 J. Hasegawa, M. Ishida, T. Nakajima, Y. Honda, O. Kitao, H. Nakai, 
 T. Vreven, K. Throssell, J. A. Montgomery, Jr., J. E. Peralta, 
 F. Ogliaro, M. J. Bearpark, J. J. Heyd, E. N. Brothers, K. N. Kudin, 
 V. N. Staroverov, T. A. Keith, R. Kobayashi, J. Normand, 
 K. Raghavachari, A. P. Rendell, J. C. Burant, S. S. Iyengar, 
 J. Tomasi, M. Cossi, J. M. Millam, M. Klene, C. Adamo, R. Cammi, 
 J. W. Ochterski, R. L. Martin, K. Morokuma, O. Farkas, 
 J. B. Foresman, and D. J. Fox, Gaussian, Inc., Wallingford CT, 2019.
 
 ******************************************
 Gaussian 16:  ES64L-G16RevC.01  3-Jul-2019
                17-Oct-2021 
 ******************************************
 %mem=10GB
 %nprocshared=8
 Will use up to    8 processors via shared memory.
 -------------------------------------
 # opt=modredundant b3lyp/6-311+g(d,p)
 -------------------------------------
 1/18=120,19=15,26=3,38=1/1,3;
 2/9=110,12=2,17=6,18=5,40=1/2;
 3/5=4,6=6,7=111,11=2,25=1,30=1,71=1,74=-5/1,2,3;
 4//1;
 5/5=2,38=5/2;
 6/7=2,8=2,9=2,10=2,28=1/1;
 7//1,2,3,16;
 1/18=20,19=15,26=3/3(2);
 2/9=110/2;
 99//99;
 2/9=110/2;
 3/5=4,6=6,7=111,11=2,25=1,30=1,71=1,74=-5/1,2,3;
 4/5=5,16=3,69=1/1;
 5/5=2,38=5/2;
 7//1,2,3,16;
 1/18=20,19=15,26=3/3(-5);
 2/9=110/2;
 6/7=2,8=2,9=2,10=2,19=2,28=1/1;
 99/9=1/99;
 -----------
 pBTTT_0.pdb
 -----------
 Symbolic Z-matrix:
 Charge =  0 Multiplicity = 1
 C                    -4.25     -1.36     -0.21 
 C                    -2.93     -0.95     -0.61 
 C                    -1.97     -2.05     -0.62 
 C                    -2.66      0.47     -0.96 
 C                    -4.33     -2.76      0.1 
 H                    -5.1      -0.7      -0.14 
 S                    -2.8      -3.56     -0.11 
 H                    -5.23     -3.27      0.41 
 C                    -0.56     -2.13     -0.97 
 S                     0.362    -0.699    -1.523 
 C                     1.825    -1.605    -1.699 
 C                     1.664    -2.987    -1.323 
 C                     0.331    -3.29     -0.895 
 H                     0.062    -4.223    -0.425 
 S                     3.147    -3.715    -0.803 
 C                     4.03     -2.213    -1.084 
 C                     3.169    -1.15     -1.552 
 H                     5.05     -2.071    -0.757 
 H                     3.457    -0.103    -1.518 
 H                    -3.55      1.09     -0.83 
 H                    -2.35      0.56     -2. 
 H                    -1.88      0.89     -0.31 
 
 The following ModRedundant input section has been read:
 D       2       3       9      10 F                                           
 

 GradGradGradGradGradGradGradGradGradGradGradGradGradGradGradGradGradGrad
 Berny optimization.
 Initialization pass.
                           ----------------------------
                           !    Initial Parameters    !
                           ! (Angstroms and Degrees)  !
 --------------------------                            --------------------------
 ! Name  Definition              Value          Derivative Info.                !
 --------------------------------------------------------------------------------
 ! R1    R(1,2)                  1.4389         estimate D2E/DX2                !
 ! R2    R(1,5)                  1.4361         estimate D2E/DX2                !
 ! R3    R(1,6)                  1.0784         estimate D2E/DX2                !
 ! R4    R(2,3)                  1.46           estimate D2E/DX2                !
 ! R5    R(2,4)                  1.4872         estimate D2E/DX2                !
 ! R6    R(3,7)                  1.797          estimate D2E/DX2                !
 ! R7    R(3,9)                  1.455          estimate D2E/DX2                !
 ! R8    R(4,20)                 1.0924         estimate D2E/DX2                !
 ! R9    R(4,21)                 1.0889         estimate D2E/DX2                !
 ! R10   R(4,22)                 1.0988         estimate D2E/DX2                !
 ! R11   R(5,7)                  1.7393         estimate D2E/DX2                !
 ! R12   R(5,8)                  1.0799         estimate D2E/DX2                !
 ! R13   R(9,10)                 1.7899         estimate D2E/DX2                !
 ! R14   R(9,13)                 1.4646         estimate D2E/DX2                !
 ! R15   R(10,11)                1.7298         estimate D2E/DX2                !
 ! R16   R(11,12)                1.4413         estimate D2E/DX2                !
 ! R17   R(11,17)                1.4265         estimate D2E/DX2                !
 ! R18   R(12,13)                1.4324         estimate D2E/DX2                !
 ! R19   R(12,15)                1.732          estimate D2E/DX2                !
 ! R20   R(13,14)                1.0788         estimate D2E/DX2                !
 ! R21   R(15,16)                1.7648         estimate D2E/DX2                !
 ! R22   R(16,17)                1.4458         estimate D2E/DX2                !
 ! R23   R(16,18)                1.0805         estimate D2E/DX2                !
 ! R24   R(17,19)                1.0864         estimate D2E/DX2                !
 ! A1    A(2,1,5)              112.8843         estimate D2E/DX2                !
 ! A2    A(2,1,6)              124.5209         estimate D2E/DX2                !
 ! A3    A(5,1,6)              122.5942         estimate D2E/DX2                !
 ! A4    A(1,2,3)              112.9799         estimate D2E/DX2                !
 ! A5    A(1,2,4)              120.2665         estimate D2E/DX2                !
 ! A6    A(3,2,4)              126.7536         estimate D2E/DX2                !
 ! A7    A(2,3,7)              109.1138         estimate D2E/DX2                !
 ! A8    A(2,3,9)              132.8639         estimate D2E/DX2                !
 ! A9    A(7,3,9)              118.0132         estimate D2E/DX2                !
 ! A10   A(2,4,20)             111.468          estimate D2E/DX2                !
 ! A11   A(2,4,21)             110.8154         estimate D2E/DX2                !
 ! A12   A(2,4,22)             110.7706         estimate D2E/DX2                !
 ! A13   A(20,4,21)            107.3779         estimate D2E/DX2                !
 ! A14   A(20,4,22)            106.918          estimate D2E/DX2                !
 ! A15   A(21,4,22)            109.3476         estimate D2E/DX2                !
 ! A16   A(1,5,7)              111.9209         estimate D2E/DX2                !
 ! A17   A(1,5,8)              124.6643         estimate D2E/DX2                !
 ! A18   A(7,5,8)              123.4062         estimate D2E/DX2                !
 ! A19   A(3,7,5)               93.0997         estimate D2E/DX2                !
 ! A20   A(3,9,10)             121.9753         estimate D2E/DX2                !
 ! A21   A(3,9,13)             128.3722         estimate D2E/DX2                !
 ! A22   A(10,9,13)            109.6128         estimate D2E/DX2                !
 ! A23   A(9,10,11)             92.7719         estimate D2E/DX2                !
 ! A24   A(10,11,12)           112.4084         estimate D2E/DX2                !
 ! A25   A(10,11,17)           128.2648         estimate D2E/DX2                !
 ! A26   A(12,11,17)           112.5944         estimate D2E/DX2                !
 ! A27   A(11,12,13)           112.6272         estimate D2E/DX2                !
 ! A28   A(11,12,15)           112.689          estimate D2E/DX2                !
 ! A29   A(13,12,15)           128.1845         estimate D2E/DX2                !
 ! A30   A(9,13,12)            112.5373         estimate D2E/DX2                !
 ! A31   A(9,13,14)            123.7524         estimate D2E/DX2                !
 ! A32   A(12,13,14)           123.0362         estimate D2E/DX2                !
 ! A33   A(12,15,16)            91.3106         estimate D2E/DX2                !
 ! A34   A(15,16,17)           112.2916         estimate D2E/DX2                !
 ! A35   A(15,16,18)           122.4099         estimate D2E/DX2                !
 ! A36   A(17,16,18)           124.299          estimate D2E/DX2                !
 ! A37   A(11,17,16)           111.0952         estimate D2E/DX2                !
 ! A38   A(11,17,19)           124.081          estimate D2E/DX2                !
 ! A39   A(16,17,19)           122.7219         estimate D2E/DX2                !
 ! D1    D(5,1,2,3)              0.3915         estimate D2E/DX2                !
 ! D2    D(5,1,2,4)           -179.5973         estimate D2E/DX2                !
 ! D3    D(6,1,2,3)           -179.8811         estimate D2E/DX2                !
 ! D4    D(6,1,2,4)              0.13           estimate D2E/DX2                !
 ! D5    D(2,1,5,7)             -0.3845         estimate D2E/DX2                !
 ! D6    D(2,1,5,8)           -179.3471         estimate D2E/DX2                !
 ! D7    D(6,1,5,7)            179.8822         estimate D2E/DX2                !
 ! D8    D(6,1,5,8)              0.9196         estimate D2E/DX2                !
 ! D9    D(1,2,3,7)             -0.2224         estimate D2E/DX2                !
 ! D10   D(1,2,3,9)            178.6265         estimate D2E/DX2                !
 ! D11   D(4,2,3,7)            179.7656         estimate D2E/DX2                !
 ! D12   D(4,2,3,9)             -1.3855         estimate D2E/DX2                !
 ! D13   D(1,2,4,20)             2.1641         estimate D2E/DX2                !
 ! D14   D(1,2,4,21)          -117.3645         estimate D2E/DX2                !
 ! D15   D(1,2,4,22)           121.0843         estimate D2E/DX2                !
 ! D16   D(3,2,4,20)          -177.8231         estimate D2E/DX2                !
 ! D17   D(3,2,4,21)            62.6483         estimate D2E/DX2                !
 ! D18   D(3,2,4,22)           -58.9029         estimate D2E/DX2                !
 ! D19   D(2,3,7,5)              0.0033         estimate D2E/DX2                !
 ! D20   D(9,3,7,5)           -179.041          estimate D2E/DX2                !
 ! D21   D(2,3,9,10)            -0.0088         Frozen                          !
 ! D22   D(2,3,9,13)           177.452          estimate D2E/DX2                !
 ! D23   D(7,3,9,10)           178.7592         estimate D2E/DX2                !
 ! D24   D(7,3,9,13)            -3.78           estimate D2E/DX2                !
 ! D25   D(1,5,7,3)              0.2153         estimate D2E/DX2                !
 ! D26   D(8,5,7,3)            179.1932         estimate D2E/DX2                !
 ! D27   D(3,9,10,11)          179.7703         estimate D2E/DX2                !
 ! D28   D(13,9,10,11)           1.8835         estimate D2E/DX2                !
 ! D29   D(3,9,13,12)         -179.8393         estimate D2E/DX2                !
 ! D30   D(3,9,13,14)           -9.014          estimate D2E/DX2                !
 ! D31   D(10,9,13,12)          -2.1258         estimate D2E/DX2                !
 ! D32   D(10,9,13,14)         168.6995         estimate D2E/DX2                !
 ! D33   D(9,10,11,12)          -1.1989         estimate D2E/DX2                !
 ! D34   D(9,10,11,17)        -149.9078         estimate D2E/DX2                !
 ! D35   D(10,11,12,13)          0.1621         estimate D2E/DX2                !
 ! D36   D(10,11,12,15)       -154.0208         estimate D2E/DX2                !
 ! D37   D(17,11,12,13)        153.9497         estimate D2E/DX2                !
 ! D38   D(17,11,12,15)         -0.2333         estimate D2E/DX2                !
 ! D39   D(10,11,17,16)        149.7713         estimate D2E/DX2                !
 ! D40   D(10,11,17,19)        -14.0791         estimate D2E/DX2                !
 ! D41   D(12,11,17,16)          1.1093         estimate D2E/DX2                !
 ! D42   D(12,11,17,19)       -162.7411         estimate D2E/DX2                !
 ! D43   D(11,12,13,9)           1.3015         estimate D2E/DX2                !
 ! D44   D(11,12,13,14)       -169.5997         estimate D2E/DX2                !
 ! D45   D(15,12,13,9)         150.5593         estimate D2E/DX2                !
 ! D46   D(15,12,13,14)        -20.3419         estimate D2E/DX2                !
 ! D47   D(11,12,15,16)         -0.5419         estimate D2E/DX2                !
 ! D48   D(13,12,15,16)       -149.7843         estimate D2E/DX2                !
 ! D49   D(12,15,16,17)          1.179          estimate D2E/DX2                !
 ! D50   D(12,15,16,18)        170.1897         estimate D2E/DX2                !
 ! D51   D(15,16,17,11)         -1.5118         estimate D2E/DX2                !
 ! D52   D(15,16,17,19)        162.5959         estimate D2E/DX2                !
 ! D53   D(18,16,17,11)       -170.2783         estimate D2E/DX2                !
 ! D54   D(18,16,17,19)         -6.1706         estimate D2E/DX2                !
 --------------------------------------------------------------------------------
 Trust Radius=3.00D-01 FncErr=1.00D-07 GrdErr=1.00D-06 EigMax=2.50D+02 EigMin=1.00D-04
 Number of steps in this run=    127 maximum allowed number of steps=    132.
 GradGradGradGradGradGradGradGradGradGradGradGradGradGradGradGradGradGrad

                          Input orientation:                          
 ---------------------------------------------------------------------
 Center     Atomic      Atomic             Coordinates (Angstroms)
 Number     Number       Type             X           Y           Z
 ---------------------------------------------------------------------
      1          6           0       -4.250000   -1.360000   -0.210000
      2          6           0       -2.930000   -0.950000   -0.610000
      3          6           0       -1.970000   -2.050000   -0.620000
      4          6           0       -2.660000    0.470000   -0.960000
      5          6           0       -4.330000   -2.760000    0.100000
      6          1           0       -5.100000   -0.700000   -0.140000
      7         16           0       -2.800000   -3.560000   -0.110000
      8          1           0       -5.230000   -3.270000    0.410000
      9          6           0       -0.560000   -2.130000   -0.970000
     10         16           0        0.362000   -0.699000   -1.523000
     11          6           0        1.825000   -1.605000   -1.699000
     12          6           0        1.664000   -2.987000   -1.323000
     13          6           0        0.331000   -3.290000   -0.895000
     14          1           0        0.062000   -4.223000   -0.425000
     15         16           0        3.147000   -3.715000   -0.803000
     16          6           0        4.030000   -2.213000   -1.084000
     17          6           0        3.169000   -1.150000   -1.552000
     18          1           0        5.050000   -2.071000   -0.757000
     19          1           0        3.457000   -0.103000   -1.518000
     20          1           0       -3.550000    1.090000   -0.830000
     21          1           0       -2.350000    0.560000   -2.000000
     22          1           0       -1.880000    0.890000   -0.310000
 ---------------------------------------------------------------------
                    Distance matrix (angstroms):
                    1          2          3          4          5
     1  C    0.000000
     2  C    1.438923   0.000000
     3  C    2.417147   1.460034   0.000000
     4  C    2.537617   1.487212   2.634787   0.000000
     5  C    1.436141   2.395871   2.567509   3.787532   0.000000
     6  H    1.078425   2.234346   3.442354   2.827525   2.212261
     7  S    2.636759   2.660639   1.796970   4.121044   1.739253
     8  H    2.234480   3.422397   3.630000   4.740190   1.079907
     9  C    3.845335   2.671872   1.454991   3.342170   3.969219
    10  S    4.840603   3.425468   2.842329   3.288771   5.375566
    11  C    6.259614   4.921887   3.970427   4.996696   6.515708
    12  C    6.233883   5.075685   3.818132   5.547936   6.164779
    13  C    5.017936   4.023797   2.628274   4.804988   4.795398
    14  H    5.180380   4.438335   2.981439   5.451583   4.658933
    15  S    7.785453   6.679252   5.384181   7.159618   7.591638
    16  C    8.369581   7.089531   6.020122   7.209020   8.461127
    17  C    7.542322   6.174558   5.299806   6.078824   7.845776
    18  H    9.343165   8.059693   7.021368   8.120467   9.444235
    19  H    7.917624   6.506585   5.835199   6.169067   8.385401
    20  H    2.622384   2.143455   3.521378   1.092428   4.036806
    21  H    3.240447   2.132745   2.976726   1.088944   4.399182
    22  H    3.269465   2.139650   2.957668   1.098772   4.415099
                    6          7          8          9         10
     6  H    0.000000
     7  S    3.670218   0.000000
     8  H    2.631406   2.501879   0.000000
     9  C    4.831708   2.793224   5.001290   0.000000
    10  S    5.634371   4.492230   6.451123   1.789875   0.000000
    11  C    7.155776   5.266647   7.549380   2.548586   1.729792
    12  C    7.237510   4.661222   7.114114   2.409405   2.640104
    13  C    6.064148   3.239180   5.712105   1.464618   2.666201
    14  H    6.256117   2.954630   5.441571   2.250457   3.703266
    15  S    8.805839   5.989247   8.476056   4.035091   4.167839
    16  C    9.302538   7.029366   9.439115   4.592166   3.992385
    17  C    8.400750   6.596698   8.881838   3.899303   2.843148
    18  H   10.260742   8.016123  10.415272   5.614352   4.944339
    19  H    8.687781   7.285833   9.445160   4.532695   3.151867
    20  H    2.466313   4.764808   4.834211   4.396374   4.357122
    21  H    3.551014   4.555107   5.363898   3.391327   3.027797
    22  H    3.595191   4.548505   5.389480   3.361309   3.003807
                   11         12         13         14         15
    11  C    0.000000
    12  C    1.441257   0.000000
    13  C    2.391166   1.432439   0.000000
    14  H    3.403699   2.213708   1.078772   0.000000
    15  S    2.646243   1.731956   2.849376   3.149313   0.000000
    16  C    2.368526   2.500830   3.857234   4.496599   1.764838
    17  C    1.426524   2.385799   3.614622   4.512971   2.672211
    18  H    3.391923   3.553084   4.875855   5.442561   2.515206
    19  H    2.225351   3.401519   4.507435   5.449319   3.695114
    20  H    6.075262   6.637076   5.852417   6.437277   8.242485
    21  H    4.712584   5.399235   4.819884   5.583499   7.065794
    22  H    4.677753   5.349508   4.764782   5.470590   6.835189
                   16         17         18         19         20
    16  C    0.000000
    17  C    1.445792   0.000000
    18  H    1.080506   2.240185   0.000000
    19  H    2.229077   1.086420   2.643822   0.000000
    20  H    8.272287   7.119259   9.162819   7.141053   0.000000
    21  H    7.016622   5.795185   7.951554   5.864567   1.757783
    22  H    6.719805   5.585389   7.549320   5.561374   1.760483
                   21         22
    21  H    0.000000
    22  H    1.784909   0.000000
 Stoichiometry    C11H8S3
 Framework group  C1[X(C11H8S3)]
 Deg. of freedom    60
 Full point group                 C1      NOp   1
 Largest Abelian subgroup         C1      NOp   1
 Largest concise Abelian subgroup C1      NOp   1
                         Standard orientation:                         
 ---------------------------------------------------------------------
 Center     Atomic      Atomic             Coordinates (Angstroms)
 Number     Number       Type             X           Y           Z
 ---------------------------------------------------------------------
      1          6           0       -4.087508    0.292929    0.192301
      2          6           0       -2.773956    0.874482    0.109374
      3          6           0       -1.716556   -0.122985   -0.027248
      4          6           0       -2.602868    2.350750    0.165588
      5          6           0       -4.067937   -1.141784    0.131343
      6          1           0       -5.000573    0.857651    0.294284
      7         16           0       -2.451966   -1.762552   -0.036838
      8          1           0       -4.945544   -1.770083    0.166664
      9          6           0       -0.272152   -0.021045   -0.169743
     10         16           0        0.567426    1.559264   -0.206969
     11          6           0        2.123388    0.823319   -0.378863
     12          6           0        2.052705   -0.616193   -0.384393
     13          6           0        0.712098   -1.102657   -0.250201
     14          1           0        0.478199   -2.140435   -0.071149
     15         16           0        3.520543   -1.359221    0.156934
     16          6           0        4.279350    0.216764    0.391744
     17          6           0        3.385252    1.308352    0.076562
     18          1           0        5.229227    0.333191    0.893412
     19          1           0        3.561270    2.326924    0.410982
     20          1           0       -3.559213    2.858890    0.309108
     21          1           0       -2.171120    2.725834   -0.761076
     22          1           0       -1.959185    2.636582    1.008957
 ---------------------------------------------------------------------
 Rotational constants (GHZ):           1.1863559           0.2807774           0.2296412
 Standard basis: 6-311+G(d,p) (5D, 7F)
 There are   394 symmetry adapted cartesian basis functions of A   symmetry.
 There are   380 symmetry adapted basis functions of A   symmetry.
   380 basis functions,   610 primitive gaussians,   394 cartesian basis functions
    61 alpha electrons       61 beta electrons
       nuclear repulsion energy      1108.0152603541 Hartrees.
 NAtoms=   22 NActive=   22 NUniq=   22 SFac= 1.00D+00 NAtFMM=   60 NAOKFM=F Big=F
 Integral buffers will be    131072 words long.
 Raffenetti 2 integral format.
 Two-electron integral symmetry is turned on.
 One-electron integrals computed using PRISM.
 NBasis=   380 RedAO= T EigKep=  2.06D-06  NBF=   380
 NBsUse=   378 1.00D-06 EigRej=  8.07D-07 NBFU=   378
 ExpMin= 4.05D-02 ExpMax= 9.34D+04 ExpMxC= 3.17D+03 IAcc=3 IRadAn=         5 AccDes= 0.00D+00
 Harris functional with IExCor=  402 and IRadAn=       5 diagonalized for initial guess.
 HarFok:  IExCor=  402 AccDes= 0.00D+00 IRadAn=         5 IDoV= 1 UseB2=F ITyADJ=14
 ICtDFT=  3500011 ScaDFX=  1.000000  1.000000  1.000000  1.000000
 FoFCou: FMM=F IPFlag=           0 FMFlag=      100000 FMFlg1=           0
         NFxFlg=           0 DoJE=T BraDBF=F KetDBF=T FulRan=T
         wScrn=  0.000000 ICntrl=       500 IOpCl=  0 I1Cent=   200000004 NGrid=           0
         NMat0=    1 NMatS0=      1 NMatT0=    0 NMatD0=    1 NMtDS0=    0 NMtDT0=    0
 Petite list used in FoFCou.
 Requested convergence on RMS density matrix=1.00D-08 within 128 cycles.
 Requested convergence on MAX density matrix=1.00D-06.
 Requested convergence on             energy=1.00D-06.
 No special actions if energy rises.
 SCF Done:  E(RB3LYP) =  -1618.67802304     A.U. after   17 cycles
            NFock= 17  Conv=0.35D-08     -V/T= 2.0028

 **********************************************************************

            Population analysis using the SCF Density.

 **********************************************************************

 Orbital symmetries:
       Occupied  (A) (A) (A) (A) (A) (A) (A) (A) (A) (A) (A) (A)
                 (A) (A) (A) (A) (A) (A) (A) (A) (A) (A) (A) (A)
                 (A) (A) (A) (A) (A) (A) (A) (A) (A) (A) (A) (A)
                 (A) (A) (A) (A) (A) (A) (A) (A) (A) (A) (A) (A)
                 (A) (A) (A) (A) (A) (A) (A) (A) (A) (A) (A) (A)
                 (A)
       Virtual   (A) (A) (A) (A) (A) (A) (A) (A) (A) (A) (A) (A)
                 (A) (A) (A) (A) (A) (A) (A) (A) (A) (A) (A) (A)
                 (A) (A) (A) (A) (A) (A) (A) (A) (A) (A) (A) (A)
                 (A) (A) (A) (A) (A) (A) (A) (A) (A) (A) (A) (A)
                 (A) (A) (A) (A) (A) (A) (A) (A) (A) (A) (A) (A)
                 (A) (A) (A) (A) (A) (A) (A) (A) (A) (A) (A) (A)
                 (A) (A) (A) (A) (A) (A) (A) (A) (A) (A) (A) (A)
                 (A) (A) (A) (A) (A) (A) (A) (A) (A) (A) (A) (A)
                 (A) (A) (A) (A) (A) (A) (A) (A) (A) (A) (A) (A)
                 (A) (A) (A) (A) (A) (A) (A) (A) (A) (A) (A) (A)
                 (A) (A) (A) (A) (A) (A) (A) (A) (A) (A) (A) (A)
                 (A) (A) (A) (A) (A) (A) (A) (A) (A) (A) (A) (A)
                 (A) (A) (A) (A) (A) (A) (A) (A) (A) (A) (A) (A)
                 (A) (A) (A) (A) (A) (A) (A) (A) (A) (A) (A) (A)
                 (A) (A) (A) (A) (A) (A) (A) (A) (A) (A) (A) (A)
                 (A) (A) (A) (A) (A) (A) (A) (A) (A) (A) (A) (A)
                 (A) (A) (A) (A) (A) (A) (A) (A) (A) (A) (A) (A)
                 (A) (A) (A) (A) (A) (A) (A) (A) (A) (A) (A) (A)
                 (A) (A) (A) (A) (A) (A) (A) (A) (A) (A) (A) (A)
                 (A) (A) (A) (A) (A) (A) (A) (A) (A) (A) (A) (A)
                 (A) (A) (A) (A) (A) (A) (A) (A) (A) (A) (A) (A)
                 (A) (A) (A) (A) (A) (A) (A) (A) (A) (A) (A) (A)
                 (A) (A) (A) (A) (A) (A) (A) (A) (A) (A) (A) (A)
                 (A) (A) (A) (A) (A) (A) (A) (A) (A) (A) (A) (A)
                 (A) (A) (A) (A) (A) (A) (A) (A) (A) (A) (A) (A)
                 (A) (A) (A) (A) (A) (A) (A) (A) (A) (A) (A) (A)
                 (A) (A) (A) (A) (A)
 The electronic state is 1-A.
 Alpha  occ. eigenvalues --  -88.89006 -88.88861 -88.88829 -10.23970 -10.23180
 Alpha  occ. eigenvalues --  -10.22023 -10.21914 -10.21766 -10.21582 -10.20667
 Alpha  occ. eigenvalues --  -10.20263 -10.20219 -10.19242 -10.17903  -7.97532
 Alpha  occ. eigenvalues --   -7.97374  -7.97347  -5.93845  -5.93701  -5.93651
 Alpha  occ. eigenvalues --   -5.93487  -5.93332  -5.93279  -5.93083  -5.92939
 Alpha  occ. eigenvalues --   -5.92899  -0.90621  -0.87759  -0.83643  -0.78091
 Alpha  occ. eigenvalues --   -0.77331  -0.74917  -0.71156  -0.69713  -0.67478
 Alpha  occ. eigenvalues --   -0.61215  -0.57862  -0.56906  -0.53198  -0.52106
 Alpha  occ. eigenvalues --   -0.49497  -0.49125  -0.44617  -0.43849  -0.43651
 Alpha  occ. eigenvalues --   -0.41808  -0.41172  -0.39947  -0.39543  -0.38927
 Alpha  occ. eigenvalues --   -0.37832  -0.37498  -0.36882  -0.35112  -0.33904
 Alpha  occ. eigenvalues --   -0.33694  -0.29516  -0.26102  -0.25714  -0.23618
 Alpha  occ. eigenvalues --   -0.19426
 Alpha virt. eigenvalues --   -0.07566  -0.03357  -0.01120  -0.00648  -0.00190
 Alpha virt. eigenvalues --    0.00292   0.00470   0.01136   0.01486   0.02184
 Alpha virt. eigenvalues --    0.02812   0.02915   0.03604   0.03781   0.04607
 Alpha virt. eigenvalues --    0.05061   0.05273   0.05561   0.05838   0.06635
 Alpha virt. eigenvalues --    0.06743   0.07063   0.07522   0.07752   0.08094
 Alpha virt. eigenvalues --    0.08772   0.09707   0.10311   0.10761   0.10928
 Alpha virt. eigenvalues --    0.11397   0.11617   0.12026   0.12448   0.13251
 Alpha virt. eigenvalues --    0.13905   0.14483   0.14969   0.15296   0.15715
 Alpha virt. eigenvalues --    0.15812   0.16279   0.16630   0.16909   0.17015
 Alpha virt. eigenvalues --    0.17674   0.18241   0.18619   0.18832   0.19285
 Alpha virt. eigenvalues --    0.19310   0.19622   0.19907   0.20197   0.20671
 Alpha virt. eigenvalues --    0.20838   0.21336   0.21584   0.21908   0.22146
 Alpha virt. eigenvalues --    0.22607   0.23357   0.24058   0.24276   0.24494
 Alpha virt. eigenvalues --    0.24902   0.25314   0.25512   0.26513   0.27371
 Alpha virt. eigenvalues --    0.27715   0.28345   0.28919   0.29600   0.30009
 Alpha virt. eigenvalues --    0.31080   0.31767   0.32172   0.32909   0.33733
 Alpha virt. eigenvalues --    0.34125   0.34352   0.35469   0.36173   0.36665
 Alpha virt. eigenvalues --    0.37025   0.39172   0.41056   0.41803   0.42974
 Alpha virt. eigenvalues --    0.44431   0.45055   0.45765   0.47286   0.48556
 Alpha virt. eigenvalues --    0.51739   0.52509   0.54566   0.55166   0.55633
 Alpha virt. eigenvalues --    0.56080   0.56342   0.57177   0.57264   0.58441
 Alpha virt. eigenvalues --    0.59302   0.60936   0.61039   0.61538   0.61861
 Alpha virt. eigenvalues --    0.62251   0.63265   0.64238   0.65350   0.66260
 Alpha virt. eigenvalues --    0.66771   0.67846   0.68887   0.69305   0.69884
 Alpha virt. eigenvalues --    0.70441   0.71200   0.71988   0.72901   0.73551
 Alpha virt. eigenvalues --    0.74355   0.74948   0.75894   0.76012   0.76585
 Alpha virt. eigenvalues --    0.77859   0.78593   0.79247   0.80171   0.81469
 Alpha virt. eigenvalues --    0.82012   0.82419   0.83613   0.84660   0.86009
 Alpha virt. eigenvalues --    0.86337   0.88273   0.89144   0.89669   0.91571
 Alpha virt. eigenvalues --    0.91830   0.92184   0.93095   0.94790   0.95236
 Alpha virt. eigenvalues --    0.96023   0.97097   0.98167   1.00088   1.00935
 Alpha virt. eigenvalues --    1.01364   1.02720   1.03504   1.05102   1.05608
 Alpha virt. eigenvalues --    1.08079   1.10000   1.10964   1.14758   1.16865
 Alpha virt. eigenvalues --    1.18111   1.22231   1.25130   1.29183   1.33146
 Alpha virt. eigenvalues --    1.33508   1.34778   1.36412   1.39747   1.40997
 Alpha virt. eigenvalues --    1.41618   1.45384   1.47504   1.49842   1.51416
 Alpha virt. eigenvalues --    1.52075   1.53246   1.54636   1.55787   1.56350
 Alpha virt. eigenvalues --    1.57455   1.59164   1.61520   1.62426   1.63879
 Alpha virt. eigenvalues --    1.64320   1.65043   1.65505   1.67300   1.69396
 Alpha virt. eigenvalues --    1.69720   1.72196   1.73048   1.73861   1.74686
 Alpha virt. eigenvalues --    1.75946   1.77402   1.79373   1.81039   1.81453
 Alpha virt. eigenvalues --    1.82197   1.84374   1.86018   1.86256   1.89520
 Alpha virt. eigenvalues --    1.91161   1.93418   1.94664   1.95576   1.96091
 Alpha virt. eigenvalues --    1.98010   1.99067   2.00159   2.02655   2.03458
 Alpha virt. eigenvalues --    2.06189   2.07503   2.08144   2.09305   2.10213
 Alpha virt. eigenvalues --    2.12214   2.12447   2.14085   2.14718   2.16079
 Alpha virt. eigenvalues --    2.17834   2.20986   2.27864   2.31363   2.34948
 Alpha virt. eigenvalues --    2.35627   2.36652   2.39148   2.43662   2.45060
 Alpha virt. eigenvalues --    2.46993   2.50410   2.51503   2.55340   2.56949
 Alpha virt. eigenvalues --    2.60039   2.61125   2.65171   2.67882   2.69340
 Alpha virt. eigenvalues --    2.70008   2.70646   2.71986   2.72289   2.73810
 Alpha virt. eigenvalues --    2.74886   2.76301   2.80426   2.82604   2.82938
 Alpha virt. eigenvalues --    2.85853   2.91916   2.92565   2.96735   2.97347
 Alpha virt. eigenvalues --    2.98548   3.00251   3.02703   3.03492   3.04983
 Alpha virt. eigenvalues --    3.13629   3.16017   3.21317   3.26089   3.27228
 Alpha virt. eigenvalues --    3.31177   3.36621   3.39313   3.40448   3.47426
 Alpha virt. eigenvalues --    3.57060   3.65116   3.80112   3.81727   3.91996
 Alpha virt. eigenvalues --    3.94752   4.04785   4.10989   4.31209   4.33677
 Alpha virt. eigenvalues --    4.51540   7.94923   7.97674   7.98991  17.27778
 Alpha virt. eigenvalues --   17.28736  17.29946  17.42795  17.45846  17.46731
 Alpha virt. eigenvalues --   17.49515  17.52128  17.55049  23.47646  23.60943
 Alpha virt. eigenvalues --   23.72830  23.77342  23.81820  23.86057  23.88169
 Alpha virt. eigenvalues --   23.94569  23.95865  23.96114  23.98736 189.11012
 Alpha virt. eigenvalues --  189.14408 189.16350
          Condensed to atoms (all electrons):
               1          2          3          4          5          6
     1  C    7.633723   0.080453  -0.766497  -0.069970   0.246753   0.363291
     2  C    0.080453   8.658401   0.294656  -1.656739   0.028774  -0.051064
     3  C   -0.766497   0.294656   7.281712  -0.111821  -0.028822   0.013597
     4  C   -0.069970  -1.656739  -0.111821   7.533731  -0.258598   0.009651
     5  C    0.246753   0.028774  -0.028822  -0.258598   5.720043  -0.004308
     6  H    0.363291  -0.051064   0.013597   0.009651  -0.004308   0.530804
     7  S   -0.615559  -0.382575  -0.857693   0.613081   0.027235   0.013964
     8  H    0.012404  -0.013922   0.003063   0.004818   0.368094  -0.004323
     9  C   -0.543548   0.573589   0.140303  -0.261325   0.166633  -0.003693
    10  S   -0.210831   0.099547   0.292133  -0.145158   0.086462   0.000924
    11  C   -0.074641  -0.650761  -0.279654   0.137498  -0.032216   0.000010
    12  C   -0.047060   0.487298   0.173931  -0.121501  -0.003778   0.000179
    13  C   -0.042773  -1.605435  -0.811102   0.209639  -0.162112  -0.000034
    14  H   -0.004234   0.013659   0.017571   0.000347   0.005397   0.000000
    15  S   -0.001111  -0.020731  -0.038230  -0.005099   0.001574  -0.000006
    16  C   -0.002322   0.002920  -0.015847   0.000605  -0.000329   0.000002
    17  C    0.013084  -0.021250   0.104037   0.003794  -0.000339  -0.000005
    18  H    0.000000  -0.000054  -0.000043   0.000000  -0.000001   0.000000
    19  H   -0.000008  -0.000229  -0.001028   0.000499   0.000001  -0.000000
    20  H    0.060495  -0.079169  -0.021638   0.399636   0.015318   0.002593
    21  H   -0.043696  -0.002895   0.020233   0.362950  -0.000279   0.000074
    22  H   -0.007605   0.013228   0.020028   0.352772  -0.001368   0.000033
               7          8          9         10         11         12
     1  C   -0.615559   0.012404  -0.543548  -0.210831  -0.074641  -0.047060
     2  C   -0.382575  -0.013922   0.573589   0.099547  -0.650761   0.487298
     3  C   -0.857693   0.003063   0.140303   0.292133  -0.279654   0.173931
     4  C    0.613081   0.004818  -0.261325  -0.145158   0.137498  -0.121501
     5  C    0.027235   0.368094   0.166633   0.086462  -0.032216  -0.003778
     6  H    0.013964  -0.004323  -0.003693   0.000924   0.000010   0.000179
     7  S   17.679294  -0.014085   0.057248   0.036374   0.233163  -0.314357
     8  H   -0.014085   0.481484  -0.005386  -0.000703  -0.000045   0.000170
     9  C    0.057248  -0.005386   9.032907   0.197084  -1.722346   1.146465
    10  S    0.036374  -0.000703   0.197084  17.899113  -0.904350   1.419880
    11  C    0.233163  -0.000045  -1.722346  -0.904350  14.013381  -6.215657
    12  C   -0.314357   0.000170   1.146465   1.419880  -6.215657  18.558498
    13  C    0.073525   0.002425  -2.789508  -2.177985   2.643444  -7.527263
    14  H    0.020424  -0.000001   0.148929   0.012824  -0.058995  -0.001942
    15  S   -0.016608   0.000007  -0.344741   0.166011   0.865127  -1.179880
    16  C   -0.000044  -0.000001   0.046714   0.010526   0.624187  -0.159763
    17  C    0.023685  -0.000004   0.090509  -0.145785  -2.727777  -0.428982
    18  H    0.000026   0.000000  -0.002651   0.000309  -0.014667   0.001965
    19  H    0.000016   0.000000   0.003038   0.034782   0.021960  -0.042309
    20  H   -0.002109  -0.000036  -0.008397   0.002259   0.000351   0.000177
    21  H    0.001532   0.000005  -0.002830   0.022767  -0.000151   0.000300
    22  H    0.003182   0.000007  -0.031444   0.012009   0.003297  -0.001789
              13         14         15         16         17         18
     1  C   -0.042773  -0.004234  -0.001111  -0.002322   0.013084   0.000000
     2  C   -1.605435   0.013659  -0.020731   0.002920  -0.021250  -0.000054
     3  C   -0.811102   0.017571  -0.038230  -0.015847   0.104037  -0.000043
     4  C    0.209639   0.000347  -0.005099   0.000605   0.003794   0.000000
     5  C   -0.162112   0.005397   0.001574  -0.000329  -0.000339  -0.000001
     6  H   -0.000034   0.000000  -0.000006   0.000002  -0.000005   0.000000
     7  S    0.073525   0.020424  -0.016608  -0.000044   0.023685   0.000026
     8  H    0.002425  -0.000001   0.000007  -0.000001  -0.000004   0.000000
     9  C   -2.789508   0.148929  -0.344741   0.046714   0.090509  -0.002651
    10  S   -2.177985   0.012824   0.166011   0.010526  -0.145785   0.000309
    11  C    2.643444  -0.058995   0.865127   0.624187  -2.727777  -0.014667
    12  C   -7.527263  -0.001942  -1.179880  -0.159763  -0.428982   0.001965
    13  C   16.629577   0.184351   0.509536  -0.470578   1.009236   0.015299
    14  H    0.184351   0.520952   0.007665   0.000376  -0.010357  -0.000002
    15  S    0.509536   0.007665  16.556884   0.388262  -0.756201  -0.022002
    16  C   -0.470578   0.000376   0.388262   5.555235  -0.097836   0.370206
    17  C    1.009236  -0.010357  -0.756201  -0.097836   8.678246   0.006752
    18  H    0.015299  -0.000002  -0.022002   0.370206   0.006752   0.474483
    19  H   -0.001784   0.000015   0.003004   0.006444   0.322866  -0.003715
    20  H   -0.001096  -0.000000  -0.000003   0.000007   0.000071   0.000000
    21  H   -0.006016   0.000000   0.000127   0.000162  -0.001801   0.000000
    22  H   -0.012712   0.000011  -0.000240  -0.000157   0.002274  -0.000000
              19         20         21         22
     1  C   -0.000008   0.060495  -0.043696  -0.007605
     2  C   -0.000229  -0.079169  -0.002895   0.013228
     3  C   -0.001028  -0.021638   0.020233   0.020028
     4  C    0.000499   0.399636   0.362950   0.352772
     5  C    0.000001   0.015318  -0.000279  -0.001368
     6  H   -0.000000   0.002593   0.000074   0.000033
     7  S    0.000016  -0.002109   0.001532   0.003182
     8  H    0.000000  -0.000036   0.000005   0.000007
     9  C    0.003038  -0.008397  -0.002830  -0.031444
    10  S    0.034782   0.002259   0.022767   0.012009
    11  C    0.021960   0.000351  -0.000151   0.003297
    12  C   -0.042309   0.000177   0.000300  -0.001789
    13  C   -0.001784  -0.001096  -0.006016  -0.012712
    14  H    0.000015  -0.000000   0.000000   0.000011
    15  S    0.003004  -0.000003   0.000127  -0.000240
    16  C    0.006444   0.000007   0.000162  -0.000157
    17  C    0.322866   0.000071  -0.001801   0.002274
    18  H   -0.003715   0.000000   0.000000  -0.000000
    19  H    0.517968   0.000000  -0.000000  -0.000002
    20  H    0.000000   0.535533  -0.024354  -0.024537
    21  H   -0.000000  -0.024354   0.532634  -0.032459
    22  H   -0.000002  -0.024537  -0.032459   0.537936
 Mulliken charges:
               1
     1  C    0.019653
     2  C    0.232300
     3  C    0.571108
     4  C   -0.998811
     5  C   -0.174134
     6  H    0.128310
     7  S   -0.579721
     8  H    0.166027
     9  C    0.112452
    10  S   -0.708192
    11  C    0.138842
    12  C    0.255416
    13  C    0.331365
    14  H    0.143009
    15  S   -0.113346
    16  C   -0.258770
    17  C   -0.064217
    18  H    0.174093
    19  H    0.138482
    20  H    0.144901
    21  H    0.173696
    22  H    0.167536
 Sum of Mulliken charges =  -0.00000
 Mulliken charges with hydrogens summed into heavy atoms:
               1
     1  C    0.147963
     2  C    0.232300
     3  C    0.571108
     4  C   -0.512678
     5  C   -0.008107
     7  S   -0.579721
     9  C    0.112452
    10  S   -0.708192
    11  C    0.138842
    12  C    0.255416
    13  C    0.474374
    15  S   -0.113346
    16  C   -0.084677
    17  C    0.074265
 Electronic spatial extent (au):  <R**2>=           4441.5204
 Charge=              0.0000 electrons
 Dipole moment (field-independent basis, Debye):
    X=             -0.9225    Y=              0.8717    Z=              1.1692  Tot=              1.7256
 Quadrupole moment (field-independent basis, Debye-Ang):
   XX=            -90.1564   YY=            -97.0425   ZZ=           -110.1416
   XY=              0.6429   XZ=              3.6417   YZ=              1.0042
 Traceless Quadrupole moment (field-independent basis, Debye-Ang):
   XX=              8.9571   YY=              2.0710   ZZ=            -11.0280
   XY=              0.6429   XZ=              3.6417   YZ=              1.0042
 Octapole moment (field-independent basis, Debye-Ang**2):
  XXX=            -26.1597  YYY=              1.4387  ZZZ=              2.0092  XYY=             -8.4050
  XXY=              9.2565  XXZ=             29.0231  XZZ=              4.1811  YZZ=              1.9742
  YYZ=              4.2198  XYZ=              1.9761
 Hexadecapole moment (field-independent basis, Debye-Ang**3):
 XXXX=          -4396.1140 YYYY=          -1187.0547 ZZZZ=           -182.8228 XXXY=             50.5617
 XXXZ=            105.8186 YYYX=             16.7467 YYYZ=              5.1483 ZZZX=             10.2612
 ZZZY=             -0.0601 XXYY=           -942.3364 XXZZ=           -907.6953 YYZZ=           -243.1287
 XXYZ=             13.1152 YYXZ=              8.2773 ZZXY=             -8.7895
 N-N= 1.108015260354D+03 E-N=-6.039262361472D+03  KE= 1.614170324602D+03
 Calling FoFJK, ICntrl=      2127 FMM=F ISym2X=0 I1Cent= 0 IOpClX= 0 NMat=1 NMatS=1 NMatT=0.
 ***** Axes restored to original set *****
 -------------------------------------------------------------------
 Center     Atomic                   Forces (Hartrees/Bohr)
 Number     Number              X              Y              Z
 -------------------------------------------------------------------
      1        6           0.022819733   -0.057487741    0.007152645
      2        6           0.008410987   -0.041472256    0.006811907
      3        6          -0.031631362    0.016530717    0.001685645
      4        6           0.006922051    0.006227755    0.002199312
      5        6           0.006780216    0.051512317   -0.012908874
      6        1          -0.000689228    0.001848681   -0.000258972
      7       16          -0.004319834    0.018969578   -0.004039833
      8        1           0.003480644   -0.004465346    0.000840740
      9        6           0.028021910   -0.033911829    0.003891438
     10       16          -0.011692041   -0.008964817   -0.004916729
     11        6           0.016591333   -0.025951167    0.019846046
     12        6          -0.027547033    0.031806050    0.008637173
     13        6          -0.018880628    0.046924858   -0.008683922
     14        1          -0.004628199   -0.001687721   -0.002603196
     15       16           0.012679663    0.009926590   -0.009343137
     16        6          -0.038667844    0.042210966   -0.015102320
     17        6           0.024960576   -0.043361260    0.025228245
     18        1           0.001169375   -0.005911171   -0.004287465
     19        1           0.002953405   -0.004406930   -0.007408970
     20        1          -0.000611398   -0.002240730    0.000283408
     21        1           0.003798366    0.003116114   -0.002491661
     22        1           0.000079307    0.000787344   -0.004531481
 -------------------------------------------------------------------
 Cartesian Forces:  Max     0.057487741 RMS     0.019698456

 GradGradGradGradGradGradGradGradGradGradGradGradGradGradGradGradGradGrad
 Berny optimization.
 FormGI is forming the generalized inverse of G from B-inverse, IUseBI=4.
 Internal  Forces:  Max     0.058187262 RMS     0.011961117
 Search for a local minimum.
 Step number   1 out of a maximum of  127
 All quantities printed in internal units (Hartrees-Bohrs-Radians)
 Mixed Optimization -- RFO/linear search
 Second derivative matrix not updated -- first step.
 ITU=  0
     Eigenvalues ---    0.00935   0.00982   0.01057   0.01215   0.01241
     Eigenvalues ---    0.01276   0.01297   0.01419   0.01457   0.01493
     Eigenvalues ---    0.01498   0.01591   0.01592   0.01762   0.02199
     Eigenvalues ---    0.02652   0.07307   0.07353   0.15076   0.15686
     Eigenvalues ---    0.15734   0.15997   0.16000   0.16000   0.16000
     Eigenvalues ---    0.16000   0.17990   0.22444   0.22545   0.23319
     Eigenvalues ---    0.23978   0.24718   0.24978   0.24995   0.25000
     Eigenvalues ---    0.26147   0.26581   0.28412   0.30920   0.31348
     Eigenvalues ---    0.31593   0.33757   0.33818   0.34533   0.34801
     Eigenvalues ---    0.34935   0.35230   0.35877   0.35933   0.36006
     Eigenvalues ---    0.36143   0.36185   0.36285   0.37598   0.38200
     Eigenvalues ---    0.38438   0.39458   0.39716   0.405631000.00000
     Eigenvalues --- 1000.000001000.000001000.000001000.000001000.00000
     Eigenvalues --- 1000.000001000.000001000.000001000.000001000.00000
     Eigenvalues --- 1000.000001000.000001000.000001000.000001000.00000
     Eigenvalues --- 1000.000001000.000001000.000001000.000001000.00000
     Eigenvalues --- 1000.000001000.000001000.000001000.000001000.00000
     Eigenvalues --- 1000.000001000.000001000.000001000.000001000.00000
     Eigenvalues --- 1000.000001000.000001000.000001000.000001000.00000
     Eigenvalues --- 1000.000001000.000001000.000001000.000001000.00000
     Eigenvalues --- 1000.000001000.000001000.000001000.000001000.00000
     Eigenvalues --- 1000.000001000.000001000.000001000.000001000.00000
     Eigenvalues --- 1000.000001000.000001000.000001000.000001000.00000
     Eigenvalues --- 1000.000001000.00000
 RFO step:  Lambda=-4.73592748D-02 EMin= 9.35106172D-03
 Linear search not attempted -- first point.
 Maximum step size (   0.300) exceeded in Quadratic search.
    -- Step size scaled by   0.922
 Iteration  1 RMS(Cart)=  0.07966935 RMS(Int)=  0.00292184
 Iteration  2 RMS(Cart)=  0.00454952 RMS(Int)=  0.00082396
 Iteration  3 RMS(Cart)=  0.00000873 RMS(Int)=  0.00082393
 Iteration  4 RMS(Cart)=  0.00000001 RMS(Int)=  0.00082393
 Iteration  1 RMS(Cart)=  0.00001533 RMS(Int)=  0.00000686
 Iteration  2 RMS(Cart)=  0.00000836 RMS(Int)=  0.00000767
 Iteration  3 RMS(Cart)=  0.00000456 RMS(Int)=  0.00000866
 Iteration  4 RMS(Cart)=  0.00000248 RMS(Int)=  0.00000931
 Iteration  5 RMS(Cart)=  0.00000135 RMS(Int)=  0.00000970
 Iteration  6 RMS(Cart)=  0.00000074 RMS(Int)=  0.00000991
 Variable       Old X    -DE/DX   Delta X   Delta X   Delta X     New X
                                 (Linear)    (Quad)   (Total)
    R1        2.71917  -0.01583   0.00000  -0.03514  -0.03505   2.68412
    R2        2.71391  -0.05202   0.00000  -0.10847  -0.10848   2.60544
    R3        2.03793   0.00166   0.00000   0.00374   0.00374   2.04166
    R4        2.75906  -0.05232   0.00000  -0.11601  -0.11593   2.64314
    R5        2.81042   0.01045   0.00000   0.02504   0.02504   2.83547
    R6        3.39578  -0.01884   0.00000  -0.05276  -0.05279   3.34299
    R7        2.74954  -0.01621   0.00000  -0.03530  -0.03530   2.71423
    R8        2.06439  -0.00074   0.00000  -0.00174  -0.00174   2.06265
    R9        2.05781   0.00372   0.00000   0.00865   0.00865   2.06645
   R10        2.07638  -0.00232   0.00000  -0.00556  -0.00556   2.07082
   R11        3.28671  -0.01524   0.00000  -0.03731  -0.03741   3.24930
   R12        2.04073  -0.00055   0.00000  -0.00125  -0.00125   2.03948
   R13        3.38237  -0.00951   0.00000  -0.02245  -0.02335   3.35902
   R14        2.76773  -0.05819   0.00000  -0.12992  -0.13045   2.63728
   R15        3.26883   0.00080   0.00000   0.00315   0.00335   3.27219
   R16        2.72358  -0.03142   0.00000  -0.07064  -0.06895   2.65463
   R17        2.69574  -0.00328   0.00000  -0.00964  -0.00896   2.68678
   R18        2.70692  -0.01362   0.00000  -0.03093  -0.03044   2.67648
   R19        3.27292   0.00197   0.00000   0.00699   0.00688   3.27980
   R20        2.03858   0.00148   0.00000   0.00334   0.00334   2.04192
   R21        3.33506  -0.01163   0.00000  -0.02797  -0.02883   3.30623
   R22        2.73215  -0.05817   0.00000  -0.12370  -0.12395   2.60821
   R23        2.04186  -0.00097   0.00000  -0.00220  -0.00220   2.03966
   R24        2.05304  -0.00370   0.00000  -0.00853  -0.00853   2.04451
    A1        1.97020   0.00811   0.00000   0.02102   0.02109   1.99129
    A2        2.17330  -0.00518   0.00000  -0.01550  -0.01554   2.15777
    A3        2.13967  -0.00293   0.00000  -0.00551  -0.00555   2.13412
    A4        1.97187  -0.00227   0.00000  -0.01143  -0.01126   1.96061
    A5        2.09905   0.00992   0.00000   0.03296   0.03287   2.13192
    A6        2.21227  -0.00765   0.00000  -0.02153  -0.02161   2.19065
    A7        1.90440   0.00403   0.00000   0.01461   0.01465   1.91905
    A8        2.31891  -0.00807   0.00000  -0.02618  -0.02622   2.29269
    A9        2.05972   0.00405   0.00000   0.01144   0.01140   2.07112
   A10        1.94548  -0.00404   0.00000  -0.01698  -0.01691   1.92858
   A11        1.93409   0.00399   0.00000   0.01709   0.01708   1.95118
   A12        1.93331   0.00365   0.00000   0.01589   0.01589   1.94920
   A13        1.87410   0.00027   0.00000   0.00188   0.00195   1.87605
   A14        1.86607   0.00068   0.00000   0.00430   0.00436   1.87044
   A15        1.90848  -0.00486   0.00000  -0.02351  -0.02359   1.88489
   A16        1.95339  -0.00241   0.00000  -0.00965  -0.00977   1.94362
   A17        2.17580   0.00697   0.00000   0.03048   0.03054   2.20634
   A18        2.15384  -0.00456   0.00000  -0.02081  -0.02076   2.13309
   A19        1.62490  -0.00745   0.00000  -0.01453  -0.01480   1.61010
   A20        2.12887  -0.00119   0.00000  -0.00349  -0.00348   2.12539
   A21        2.24052  -0.00378   0.00000  -0.01155  -0.01155   2.22897
   A22        1.91310   0.00504   0.00000   0.01572   0.01554   1.92865
   A23        1.61918  -0.00554   0.00000  -0.01314  -0.01257   1.60661
   A24        1.96190  -0.01098   0.00000  -0.02775  -0.02889   1.93300
   A25        2.23864   0.00829   0.00000   0.04939   0.04629   2.28494
   A26        1.96514   0.00631   0.00000   0.01977   0.02007   1.98521
   A27        1.96572   0.00848   0.00000   0.02512   0.02511   1.99082
   A28        1.96679  -0.01373   0.00000  -0.03522  -0.03634   1.93046
   A29        2.23724   0.00887   0.00000   0.05080   0.04790   2.28514
   A30        1.96415   0.00302   0.00000   0.00017   0.00090   1.96505
   A31        2.15989  -0.00436   0.00000  -0.00994  -0.01098   2.14891
   A32        2.14739   0.00189   0.00000   0.01786   0.01679   2.16418
   A33        1.59367   0.00053   0.00000   0.00385   0.00447   1.59814
   A34        1.95986   0.00107   0.00000   0.00154   0.00117   1.96103
   A35        2.13646  -0.00451   0.00000  -0.01410  -0.01548   2.12098
   A36        2.16943   0.00448   0.00000   0.02685   0.02566   2.19508
   A37        1.93898   0.00581   0.00000   0.00990   0.01041   1.94939
   A38        2.16562  -0.00006   0.00000   0.01704   0.01455   2.18017
   A39        2.14190  -0.00382   0.00000  -0.00095  -0.00355   2.13835
    D1        0.00683  -0.00022   0.00000  -0.00624  -0.00623   0.00061
    D2       -3.13456  -0.00005   0.00000  -0.00339  -0.00332  -3.13788
    D3       -3.13952  -0.00023   0.00000  -0.00516  -0.00520   3.13846
    D4        0.00227  -0.00006   0.00000  -0.00231  -0.00229  -0.00002
    D5       -0.00671  -0.00015   0.00000  -0.00317  -0.00322  -0.00993
    D6       -3.13020  -0.00029   0.00000  -0.00363  -0.00369  -3.13389
    D7        3.13954  -0.00012   0.00000  -0.00419  -0.00419   3.13534
    D8        0.01605  -0.00027   0.00000  -0.00465  -0.00467   0.01138
    D9       -0.00388   0.00053   0.00000   0.01251   0.01254   0.00866
   D10        3.11762   0.00077   0.00000   0.00420   0.00420   3.12182
   D11        3.13750   0.00035   0.00000   0.00944   0.00952  -3.13617
   D12       -0.02418   0.00059   0.00000   0.00113   0.00118  -0.02300
   D13        0.03777  -0.00022   0.00000  -0.00286  -0.00288   0.03489
   D14       -2.04840  -0.00056   0.00000  -0.00544  -0.00540  -2.05380
   D15        2.11332   0.00041   0.00000   0.00196   0.00189   2.11521
   D16       -3.10360  -0.00003   0.00000   0.00041   0.00042  -3.10317
   D17        1.09342  -0.00037   0.00000  -0.00217  -0.00209   1.09132
   D18       -1.02805   0.00060   0.00000   0.00523   0.00519  -1.02286
   D19        0.00006  -0.00048   0.00000  -0.01205  -0.01215  -0.01209
   D20       -3.12486  -0.00052   0.00000  -0.00465  -0.00452  -3.12937
   D21       -0.00015  -0.00185   0.00000   0.00000  -0.00000  -0.00016
   D22        3.09712   0.00050   0.00000   0.02202   0.02217   3.11929
   D23        3.11994  -0.00161   0.00000  -0.00891  -0.00895   3.11098
   D24       -0.06597   0.00074   0.00000   0.01311   0.01322  -0.05275
   D25        0.00376   0.00037   0.00000   0.00887   0.00877   0.01253
   D26        3.12751   0.00065   0.00000   0.00994   0.00984   3.13735
   D27        3.13758   0.00106   0.00000   0.01302   0.01307  -3.13253
   D28        0.03287  -0.00071   0.00000  -0.00476  -0.00510   0.02777
   D29       -3.13879  -0.00190   0.00000  -0.01968  -0.01936   3.12504
   D30       -0.15732   0.00210   0.00000   0.03672   0.03675  -0.12058
   D31       -0.03710   0.00011   0.00000  -0.00016   0.00045  -0.03665
   D32        2.94436   0.00411   0.00000   0.05624   0.05656   3.00092
   D33       -0.02093   0.00145   0.00000   0.00944   0.00931  -0.01161
   D34       -2.61639  -0.00720   0.00000  -0.08132  -0.08181  -2.69820
   D35        0.00283  -0.00130   0.00000  -0.01046  -0.01014  -0.00731
   D36       -2.68817  -0.01053   0.00000  -0.09974  -0.09668  -2.78485
   D37        2.68693   0.00764   0.00000   0.07819   0.07609   2.76302
   D38       -0.00407  -0.00160   0.00000  -0.01109  -0.01046  -0.01453
   D39        2.61400   0.00576   0.00000   0.09081   0.09287   2.70687
   D40       -0.24573  -0.00093   0.00000  -0.00620  -0.00531  -0.25104
   D41        0.01936   0.00145   0.00000   0.01186   0.01151   0.03087
   D42       -2.84037  -0.00524   0.00000  -0.08515  -0.08667  -2.92703
   D43        0.02272   0.00082   0.00000   0.00678   0.00638   0.02910
   D44       -2.96007  -0.00248   0.00000  -0.04622  -0.04733  -3.00741
   D45        2.62776   0.00462   0.00000   0.08402   0.08609   2.71385
   D46       -0.35503   0.00131   0.00000   0.03102   0.03237  -0.32266
   D47       -0.00946   0.00127   0.00000   0.00607   0.00580  -0.00366
   D48       -2.61423  -0.00804   0.00000  -0.08622  -0.08619  -2.70042
   D49        0.02058  -0.00034   0.00000   0.00094   0.00085   0.02143
   D50        2.97037   0.00589   0.00000   0.08187   0.08071   3.05108
   D51       -0.02639  -0.00047   0.00000  -0.00719  -0.00672  -0.03310
   D52        2.83783   0.00680   0.00000   0.09165   0.09208   2.92991
   D53       -2.97192  -0.00567   0.00000  -0.08455  -0.08515  -3.05707
   D54       -0.10770   0.00160   0.00000   0.01429   0.01365  -0.09405
         Item               Value     Threshold  Converged?
 Maximum Force            0.058185     0.000450     NO 
 RMS     Force            0.012010     0.000300     NO 
 Maximum Displacement     0.367716     0.001800     NO 
 RMS     Displacement     0.080099     0.001200     NO 
 Predicted change in Energy=-2.771712D-02
 GradGradGradGradGradGradGradGradGradGradGradGradGradGradGradGradGradGrad

                          Input orientation:                          
 ---------------------------------------------------------------------
 Center     Atomic      Atomic             Coordinates (Angstroms)
 Number     Number       Type             X           Y           Z
 ---------------------------------------------------------------------
      1          6           0       -4.209992   -1.412249   -0.242509
      2          6           0       -2.900066   -1.002237   -0.607821
      3          6           0       -1.986075   -2.060742   -0.585109
      4          6           0       -2.579035    0.419061   -0.965931
      5          6           0       -4.316597   -2.753595    0.058062
      6          1           0       -5.055926   -0.741748   -0.196758
      7         16           0       -2.805992   -3.556349   -0.115668
      8          1           0       -5.214873   -3.275000    0.351340
      9          6           0       -0.584969   -2.111776   -0.897007
     10         16           0        0.310262   -0.668717   -1.422086
     11          6           0        1.783783   -1.564201   -1.580719
     12          6           0        1.588904   -2.909889   -1.227843
     13          6           0        0.266174   -3.215356   -0.824016
     14          1           0       -0.033959   -4.165950   -0.407056
     15         16           0        3.101530   -3.662384   -0.830337
     16          6           0        3.976322   -2.180075   -1.144238
     17          6           0        3.140495   -1.144762   -1.510953
     18          1           0        5.035161   -2.098078   -0.951587
     19          1           0        3.473909   -0.116540   -1.556971
     20          1           0       -3.465471    1.048033   -0.865845
     21          1           0       -2.227491    0.508342   -1.997546
     22          1           0       -1.809092    0.838213   -0.308402
 ---------------------------------------------------------------------
                    Distance matrix (angstroms):
                    1          2          3          4          5
     1  C    0.000000
     2  C    1.420376   0.000000
     3  C    2.341735   1.398688   0.000000
     4  C    2.556767   1.500464   2.577994   0.000000
     5  C    1.378737   2.348875   2.514964   3.759445   0.000000
     6  H    1.080402   2.210104   3.363710   2.841495   2.158487
     7  S    2.566022   2.602797   1.769033   4.071651   1.719454
     8  H    2.198246   3.382865   3.574422   4.725350   1.079248
     9  C    3.749466   2.583482   1.436309   3.222761   3.905014
    10  S    4.730427   3.328734   2.812727   3.120797   5.286339
    11  C    6.143227   4.816718   3.930601   4.831716   6.427666
    12  C    6.069679   4.916748   3.730232   5.340620   6.045901
    13  C    4.860598   3.869071   2.542211   4.617829   4.689678
    14  H    5.004917   4.273635   2.876518   5.273716   4.533439
    15  S    7.672484   6.568490   5.339394   6.996099   7.526205
    16  C    8.271542   6.997125   5.989745   7.054077   8.399223
    17  C    7.463924   6.109365   5.289417   5.954462   7.788348
    18  H    9.297634   8.017909   7.030893   8.019487   9.428916
    19  H    7.902468   6.504837   5.876722   6.105270   8.381788
    20  H    2.644966   2.142397   3.454260   1.091509   4.003797
    21  H    3.270954   2.159987   2.941676   1.093519   4.385216
    22  H    3.291389   2.160354   2.917504   1.095831   4.395789
                    6          7          8          9         10
     6  H    0.000000
     7  S    3.604269   0.000000
     8  H    2.596737   2.469810   0.000000
     9  C    4.728295   2.762286   4.934316   0.000000
    10  S    5.504792   4.444793   6.361200   1.777517   0.000000
    11  C    7.026620   5.213546   7.459281   2.525527   1.731566
    12  C    7.065248   4.579296   6.994176   2.339265   2.587569
    13  C    5.902282   3.171158   5.605970   1.395587   2.616296
    14  H    6.081902   2.853189   5.311386   2.182497   3.657788
    15  S    8.687671   5.951539   8.408864   3.999889   4.135625
    16  C    9.194999   6.996561   9.376230   4.568497   3.975098
    17  C    8.310887   6.566832   8.821464   3.897580   2.871365
    18  H   10.209771   8.019289  10.399325   5.620412   4.958741
    19  H    8.660204   7.303889   9.439939   4.570668   3.214305
    20  H    2.486069   4.711476   4.819809   4.275822   4.184829
    21  H    3.578493   4.516397   5.362406   3.282390   2.856013
    22  H    3.612571   4.510336   5.380811   3.247671   2.828920
                   11         12         13         14         15
    11  C    0.000000
    12  C    1.404769   0.000000
    13  C    2.366864   1.416333   0.000000
    14  H    3.383898   2.210218   1.080539   0.000000
    15  S    2.588803   1.735598   2.870387   3.203754   0.000000
    16  C    2.318845   2.497876   3.865171   4.535360   1.749581
    17  C    1.421782   2.367121   3.608457   4.519217   2.608290
    18  H    3.354443   3.551344   4.899777   5.501689   2.490117
    19  H    2.225492   3.385908   4.519894   5.479522   3.638636
    20  H    5.906732   6.429844   5.665987   6.258704   8.081757
    21  H    4.534258   5.180889   4.632652   5.402800   6.867008
    22  H    4.505456   5.141985   4.583013   5.310600   6.681467
                   16         17         18         19         20
    16  C    0.000000
    17  C    1.380203   0.000000
    18  H    1.079341   2.193504   0.000000
    19  H    2.163549   1.081907   2.594319   0.000000
    20  H    8.116555   6.990229   9.064553   7.070281   0.000000
    21  H    6.814911   5.637800   7.786756   5.752438   1.761990
    22  H    6.578730   5.465960   7.475245   5.511857   1.760216
                   21         22
    21  H    0.000000
    22  H    1.771180   0.000000
 Stoichiometry    C11H8S3
 Framework group  C1[X(C11H8S3)]
 Deg. of freedom    60
 Full point group                 C1      NOp   1
 Largest Abelian subgroup         C1      NOp   1
 Largest concise Abelian subgroup C1      NOp   1
                         Standard orientation:                         
 ---------------------------------------------------------------------
 Center     Atomic      Atomic             Coordinates (Angstroms)
 Number     Number       Type             X           Y           Z
 ---------------------------------------------------------------------
      1          6           0       -4.012121    0.301897    0.147451
      2          6           0       -2.705671    0.855622    0.083851
      3          6           0       -1.715564   -0.127813   -0.010344
      4          6           0       -2.463175    2.335891    0.121155
      5          6           0       -4.042143   -1.075857    0.104929
      6          1           0       -4.910821    0.896402    0.225997
      7         16           0       -2.458997   -1.732919   -0.030867
      8          1           0       -4.923121   -1.698642    0.133076
      9          6           0       -0.286709   -0.028859   -0.117878
     10         16           0        0.542780    1.542872   -0.152214
     11          6           0        2.095227    0.790428   -0.300740
     12          6           0        1.971612   -0.608878   -0.306888
     13          6           0        0.638653   -1.071480   -0.183530
     14          1           0        0.369180   -2.109377   -0.050418
     15         16           0        3.478793   -1.357132    0.118345
     16          6           0        4.257507    0.199809    0.293193
     17          6           0        3.390974    1.249087    0.062765
     18          1           0        5.271804    0.286365    0.651922
     19          1           0        3.638874    2.272966    0.309218
     20          1           0       -3.405369    2.874797    0.236231
     21          1           0       -1.990366    2.693132   -0.797875
     22          1           0       -1.822947    2.620135    0.963863
 ---------------------------------------------------------------------
 Rotational constants (GHZ):           1.2353535           0.2883642           0.2355226
 Standard basis: 6-311+G(d,p) (5D, 7F)
 There are   394 symmetry adapted cartesian basis functions of A   symmetry.
 There are   380 symmetry adapted basis functions of A   symmetry.
   380 basis functions,   610 primitive gaussians,   394 cartesian basis functions
    61 alpha electrons       61 beta electrons
       nuclear repulsion energy      1124.6044415512 Hartrees.
 NAtoms=   22 NActive=   22 NUniq=   22 SFac= 1.00D+00 NAtFMM=   60 NAOKFM=F Big=F
 Integral buffers will be    131072 words long.
 Raffenetti 2 integral format.
 Two-electron integral symmetry is turned on.
 One-electron integrals computed using PRISM.
 NBasis=   380 RedAO= T EigKep=  1.44D-06  NBF=   380
 NBsUse=   378 1.00D-06 EigRej=  5.62D-07 NBFU=   378
 Initial guess from the checkpoint file:  "/tmp/pbs.4729010[175].pbs/Gau-14896.chk"
 B after Tr=     0.000000    0.000000    0.000000
         Rot=    0.999990    0.000018   -0.000698    0.004472 Ang=   0.52 deg.
 ExpMin= 4.05D-02 ExpMax= 9.34D+04 ExpMxC= 3.17D+03 IAcc=3 IRadAn=         5 AccDes= 0.00D+00
 Harris functional with IExCor=  402 and IRadAn=       5 diagonalized for initial guess.
 HarFok:  IExCor=  402 AccDes= 0.00D+00 IRadAn=         5 IDoV= 1 UseB2=F ITyADJ=14
 ICtDFT=  3500011 ScaDFX=  1.000000  1.000000  1.000000  1.000000
 FoFCou: FMM=F IPFlag=           0 FMFlag=      100000 FMFlg1=           0
         NFxFlg=           0 DoJE=T BraDBF=F KetDBF=T FulRan=T
         wScrn=  0.000000 ICntrl=       500 IOpCl=  0 I1Cent=   200000004 NGrid=           0
         NMat0=    1 NMatS0=      1 NMatT0=    0 NMatD0=    1 NMtDS0=    0 NMtDT0=    0
 Petite list used in FoFCou.
 Requested convergence on RMS density matrix=1.00D-08 within 128 cycles.
 Requested convergence on MAX density matrix=1.00D-06.
 Requested convergence on             energy=1.00D-06.
 No special actions if energy rises.
 SCF Done:  E(RB3LYP) =  -1618.70631077     A.U. after   15 cycles
            NFock= 15  Conv=0.32D-08     -V/T= 2.0023
 Calling FoFJK, ICntrl=      2127 FMM=F ISym2X=0 I1Cent= 0 IOpClX= 0 NMat=1 NMatS=1 NMatT=0.
 ***** Axes restored to original set *****
 -------------------------------------------------------------------
 Center     Atomic                   Forces (Hartrees/Bohr)
 Number     Number              X              Y              Z
 -------------------------------------------------------------------
      1        6          -0.001834173   -0.014388347    0.003991192
      2        6           0.007316151   -0.006569817    0.000736143
      3        6          -0.015212615    0.001282590   -0.000015671
      4        6           0.000000792    0.002762817    0.000958693
      5        6          -0.002405675    0.016020035   -0.003658013
      6        1          -0.000442106    0.001785347   -0.000281803
      7       16           0.002925953    0.000999547   -0.000851575
      8        1           0.001961780   -0.002726260    0.000621988
      9        6           0.014429038   -0.008919677   -0.000122330
     10       16          -0.005291194    0.000310131   -0.006172151
     11        6           0.003347643   -0.008273842    0.011547118
     12        6          -0.002522097    0.013177487    0.007522783
     13        6          -0.007051209    0.011103058   -0.002222498
     14        1          -0.001562879   -0.001308431   -0.002699823
     15       16           0.008118675   -0.004525668   -0.004674753
     16        6          -0.011307755    0.012973073   -0.002129515
     17        6           0.008328734   -0.008681154    0.007460596
     18        1           0.000705070   -0.004303836   -0.002424160
     19        1           0.000482640   -0.000700603   -0.006057767
     20        1          -0.000625975   -0.000554010   -0.000009448
     21        1           0.000829724    0.000633981    0.000058450
     22        1          -0.000190523   -0.000096419   -0.001577456
 -------------------------------------------------------------------
 Cartesian Forces:  Max     0.016020035 RMS     0.006197896

 GradGradGradGradGradGradGradGradGradGradGradGradGradGradGradGradGradGrad
 Berny optimization.
 Using GEDIIS/GDIIS optimizer.
 FormGI is forming the generalized inverse of G from B-inverse, IUseBI=4.
 Internal  Forces:  Max     0.012656440 RMS     0.003116015
 Search for a local minimum.
 Step number   2 out of a maximum of  127
 All quantities printed in internal units (Hartrees-Bohrs-Radians)
 Mixed Optimization -- RFO/linear search
 Update second derivatives using D2CorX and points    1    2
 DE= -2.83D-02 DEPred=-2.77D-02 R= 1.02D+00
 TightC=F SS=  1.41D+00  RLast= 4.18D-01 DXNew= 5.0454D-01 1.2529D+00
 Trust test= 1.02D+00 RLast= 4.18D-01 DXMaxT set to 5.05D-01
 ITU=  1  0
 Use linear search instead of GDIIS.
     Eigenvalues ---    0.00935   0.00983   0.01050   0.01210   0.01240
     Eigenvalues ---    0.01274   0.01288   0.01367   0.01464   0.01474
     Eigenvalues ---    0.01500   0.01579   0.01592   0.01681   0.01974
     Eigenvalues ---    0.02216   0.07174   0.07365   0.15623   0.15664
     Eigenvalues ---    0.15885   0.15960   0.16000   0.16000   0.16000
     Eigenvalues ---    0.16026   0.19214   0.22476   0.22560   0.23432
     Eigenvalues ---    0.24273   0.24701   0.24864   0.24994   0.25220
     Eigenvalues ---    0.26232   0.26690   0.28375   0.30430   0.30980
     Eigenvalues ---    0.31495   0.33687   0.33811   0.34524   0.34611
     Eigenvalues ---    0.34938   0.35232   0.35580   0.35933   0.36006
     Eigenvalues ---    0.36122   0.36144   0.36220   0.36768   0.38215
     Eigenvalues ---    0.39042   0.39603   0.40428   0.431131000.00000
     Eigenvalues --- 1000.000001000.000001000.000001000.000001000.00000
     Eigenvalues --- 1000.000001000.000001000.000001000.000001000.00000
     Eigenvalues --- 1000.000001000.000001000.000001000.000001000.00000
     Eigenvalues --- 1000.000001000.000001000.000001000.000001000.00000
     Eigenvalues --- 1000.000001000.000001000.000001000.000001000.00000
     Eigenvalues --- 1000.000001000.000001000.000001000.000001000.00000
     Eigenvalues --- 1000.000001000.000001000.000001000.000001000.00000
     Eigenvalues --- 1000.000001000.000001000.000001000.000001000.00000
     Eigenvalues --- 1000.000001000.000001000.000001000.000001000.00000
     Eigenvalues --- 1000.000001000.000001000.000001000.000001000.00000
     Eigenvalues --- 1000.000001000.000001000.000001000.000001000.00000
     Eigenvalues --- 1000.000001000.00000
 RFO step:  Lambda=-7.32963528D-03 EMin= 9.35105546D-03
 Quartic linear search produced a step of  0.28929.
 Iteration  1 RMS(Cart)=  0.09783150 RMS(Int)=  0.00633189
 Iteration  2 RMS(Cart)=  0.00808450 RMS(Int)=  0.00219456
 Iteration  3 RMS(Cart)=  0.00003678 RMS(Int)=  0.00219433
 Iteration  4 RMS(Cart)=  0.00000006 RMS(Int)=  0.00219433
 Iteration  1 RMS(Cart)=  0.00003822 RMS(Int)=  0.00001772
 Iteration  2 RMS(Cart)=  0.00002085 RMS(Int)=  0.00001980
 Iteration  3 RMS(Cart)=  0.00001137 RMS(Int)=  0.00002236
 Iteration  4 RMS(Cart)=  0.00000620 RMS(Int)=  0.00002405
 Iteration  5 RMS(Cart)=  0.00000338 RMS(Int)=  0.00002504
 Iteration  6 RMS(Cart)=  0.00000185 RMS(Int)=  0.00002560
 Iteration  7 RMS(Cart)=  0.00000101 RMS(Int)=  0.00002591
 Iteration  8 RMS(Cart)=  0.00000055 RMS(Int)=  0.00002608
 Variable       Old X    -DE/DX   Delta X   Delta X   Delta X     New X
                                 (Linear)    (Quad)   (Total)
    R1        2.68412   0.00280  -0.01014   0.01951   0.00939   2.69352
    R2        2.60544  -0.01185  -0.03138  -0.00333  -0.03471   2.57073
    R3        2.04166   0.00144   0.00108   0.00375   0.00483   2.04650
    R4        2.64314  -0.00688  -0.03354   0.01397  -0.01954   2.62360
    R5        2.83547   0.00274   0.00724   0.00198   0.00923   2.84469
    R6        3.34299  -0.00383  -0.01527   0.00075  -0.01453   3.32846
    R7        2.71423   0.00745  -0.01021   0.03572   0.02551   2.73974
    R8        2.06265   0.00019  -0.00050   0.00123   0.00073   2.06338
    R9        2.06645   0.00026   0.00250  -0.00183   0.00067   2.06712
   R10        2.07082  -0.00112  -0.00161  -0.00230  -0.00391   2.06691
   R11        3.24930   0.00101  -0.01082   0.01596   0.00511   3.25441
   R12        2.03948  -0.00015  -0.00036  -0.00011  -0.00047   2.03901
   R13        3.35902  -0.00071  -0.00676   0.01323   0.00396   3.36298
   R14        2.63728  -0.01266  -0.03774   0.00209  -0.03725   2.60002
   R15        3.27219   0.00472   0.00097   0.01521   0.01688   3.28907
   R16        2.65463  -0.00760  -0.01995  -0.01363  -0.02913   2.62550
   R17        2.68678   0.00142  -0.00259   0.00404   0.00300   2.68978
   R18        2.67648   0.00034  -0.00880   0.00743  -0.00008   2.67640
   R19        3.27980   0.00506   0.00199   0.01612   0.01794   3.29774
   R20        2.04192   0.00054   0.00097   0.00080   0.00177   2.04369
   R21        3.30623  -0.00213  -0.00834   0.00783  -0.00253   3.30370
   R22        2.60821  -0.01229  -0.03586   0.00256  -0.03396   2.57425
   R23        2.03966  -0.00007  -0.00064   0.00047  -0.00017   2.03949
   R24        2.04451  -0.00026  -0.00247   0.00181  -0.00066   2.04385
    A1        1.99129   0.00059   0.00610  -0.00552   0.00060   1.99189
    A2        2.15777  -0.00150  -0.00449  -0.00435  -0.00886   2.14890
    A3        2.13412   0.00090  -0.00161   0.00989   0.00827   2.14239
    A4        1.96061  -0.00033  -0.00326   0.00238  -0.00083   1.95978
    A5        2.13192  -0.00167   0.00951  -0.01960  -0.01012   2.12180
    A6        2.19065   0.00200  -0.00625   0.01721   0.01093   2.20159
    A7        1.91905   0.00028   0.00424  -0.00257   0.00168   1.92072
    A8        2.29269   0.00210  -0.00758   0.01874   0.01114   2.30384
    A9        2.07112  -0.00236   0.00330  -0.01610  -0.01281   2.05831
   A10        1.92858  -0.00126  -0.00489  -0.00246  -0.00732   1.92126
   A11        1.95118   0.00088   0.00494  -0.00071   0.00424   1.95541
   A12        1.94920   0.00099   0.00460   0.00146   0.00605   1.95525
   A13        1.87605   0.00018   0.00057   0.00023   0.00083   1.87688
   A14        1.87044   0.00043   0.00126   0.00286   0.00415   1.87458
   A15        1.88489  -0.00127  -0.00682  -0.00125  -0.00810   1.87679
   A16        1.94362   0.00028  -0.00283   0.00395   0.00106   1.94468
   A17        2.20634   0.00331   0.00883   0.01416   0.02296   2.22930
   A18        2.13309  -0.00359  -0.00600  -0.01785  -0.02388   2.10920
   A19        1.61010  -0.00082  -0.00428   0.00190  -0.00245   1.60765
   A20        2.12539   0.00323  -0.00101   0.01601   0.01506   2.14045
   A21        2.22897  -0.00323  -0.00334  -0.01298  -0.01627   2.21270
   A22        1.92865   0.00002   0.00450  -0.00266   0.00136   1.93001
   A23        1.60661  -0.00120  -0.00364  -0.00611  -0.00773   1.59888
   A24        1.93300  -0.00196  -0.00836   0.00761  -0.00306   1.92994
   A25        2.28494   0.00349   0.01339   0.04420   0.04714   2.33208
   A26        1.98521   0.00060   0.00581  -0.00023   0.00489   1.99010
   A27        1.99082   0.00022   0.00726  -0.00357   0.00268   1.99350
   A28        1.93046  -0.00146  -0.01051   0.01379   0.00064   1.93110
   A29        2.28514   0.00335   0.01386   0.04188   0.04523   2.33037
   A30        1.96505   0.00295   0.00026   0.00521   0.00715   1.97219
   A31        2.14891  -0.00180  -0.00318   0.00292  -0.00344   2.14547
   A32        2.16418  -0.00087   0.00486  -0.00034   0.00132   2.16549
   A33        1.59814  -0.00227   0.00129  -0.01875  -0.01466   1.58349
   A34        1.96103   0.00249   0.00034   0.01595   0.01487   1.97590
   A35        2.12098  -0.00460  -0.00448  -0.02085  -0.02998   2.09100
   A36        2.19508   0.00256   0.00742   0.01808   0.02073   2.21582
   A37        1.94939   0.00066   0.00301  -0.01000  -0.00539   1.94399
   A38        2.18017  -0.00053   0.00421   0.00769   0.00528   2.18545
   A39        2.13835   0.00065  -0.00103   0.02252   0.01492   2.15327
    D1        0.00061  -0.00008  -0.00180  -0.00521  -0.00705  -0.00645
    D2       -3.13788  -0.00000  -0.00096  -0.00320  -0.00418   3.14112
    D3        3.13846  -0.00007  -0.00150  -0.00214  -0.00375   3.13472
    D4       -0.00002   0.00001  -0.00066  -0.00012  -0.00088  -0.00090
    D5       -0.00993   0.00016  -0.00093   0.01058   0.00959  -0.00033
    D6       -3.13389  -0.00024  -0.00107  -0.00634  -0.00761  -3.14150
    D7        3.13534   0.00016  -0.00121   0.00758   0.00634  -3.14150
    D8        0.01138  -0.00024  -0.00135  -0.00934  -0.01086   0.00052
    D9        0.00866  -0.00003   0.00363  -0.00238   0.00130   0.00995
   D10        3.12182   0.00051   0.00121   0.00033   0.00148   3.12330
   D11       -3.13617  -0.00012   0.00275  -0.00455  -0.00178  -3.13794
   D12       -0.02300   0.00042   0.00034  -0.00185  -0.00159  -0.02459
   D13        0.03489  -0.00020  -0.00083  -0.00412  -0.00497   0.02992
   D14       -2.05380  -0.00017  -0.00156  -0.00229  -0.00385  -2.05765
   D15        2.11521   0.00014   0.00055  -0.00121  -0.00070   2.11450
   D16       -3.10317  -0.00011   0.00012  -0.00179  -0.00165  -3.10482
   D17        1.09132  -0.00007  -0.00061   0.00003  -0.00054   1.09079
   D18       -1.02286   0.00024   0.00150   0.00112   0.00261  -1.02025
   D19       -0.01209   0.00011  -0.00352   0.00706   0.00342  -0.00867
   D20       -3.12937  -0.00042  -0.00131   0.00413   0.00286  -3.12651
   D21       -0.00016  -0.00179  -0.00000   0.00000   0.00000  -0.00015
   D22        3.11929   0.00005   0.00641   0.02311   0.02993  -3.13396
   D23        3.11098  -0.00117  -0.00259   0.00314   0.00043   3.11141
   D24       -0.05275   0.00067   0.00382   0.02625   0.03036  -0.02240
   D25        0.01253  -0.00015   0.00254  -0.00993  -0.00738   0.00514
   D26        3.13735   0.00031   0.00285   0.00653   0.00899  -3.13684
   D27       -3.13253   0.00072   0.00378   0.00825   0.01224  -3.12029
   D28        0.02777  -0.00078  -0.00148  -0.01110  -0.01313   0.01464
   D29        3.12504  -0.00102  -0.00560  -0.00799  -0.01297   3.11207
   D30       -0.12058   0.00177   0.01063   0.07192   0.08289  -0.03768
   D31       -0.03665   0.00069   0.00013   0.01320   0.01413  -0.02252
   D32        3.00092   0.00348   0.01636   0.09312   0.10999   3.11091
   D33       -0.01161   0.00067   0.00269   0.00586   0.00869  -0.00292
   D34       -2.69820  -0.00489  -0.02367  -0.13079  -0.15697  -2.85517
   D35       -0.00731  -0.00031  -0.00293   0.00070  -0.00209  -0.00940
   D36       -2.78485  -0.00584  -0.02797  -0.12623  -0.14824  -2.93309
[...]
     15         16           0        3.523344   -1.360677   -0.000016
     16          6           0        4.315693    0.199857   -0.000003
     17          6           0        3.439986    1.247658   -0.000030
     18          1           0        5.394171    0.240036    0.000047
     19          1           0        3.747369    2.284163   -0.000130
     20          1           0       -3.484464    2.847175   -0.000086
     21          1           0       -1.967402    2.668345   -0.881440
     22          1           0       -1.967635    2.668314    0.881679
 ---------------------------------------------------------------------
 Rotational constants (GHZ):           1.2510674           0.2842096           0.2319298

 **********************************************************************

            Population analysis using the SCF Density.

 **********************************************************************

 Orbital symmetries:
       Occupied  (A) (A) (A) (A) (A) (A) (A) (A) (A) (A) (A) (A)
                 (A) (A) (A) (A) (A) (A) (A) (A) (A) (A) (A) (A)
                 (A) (A) (A) (A) (A) (A) (A) (A) (A) (A) (A) (A)
                 (A) (A) (A) (A) (A) (A) (A) (A) (A) (A) (A) (A)
                 (A) (A) (A) (A) (A) (A) (A) (A) (A) (A) (A) (A)
                 (A)
       Virtual   (A) (A) (A) (A) (A) (A) (A) (A) (A) (A) (A) (A)
                 (A) (A) (A) (A) (A) (A) (A) (A) (A) (A) (A) (A)
                 (A) (A) (A) (A) (A) (A) (A) (A) (A) (A) (A) (A)
                 (A) (A) (A) (A) (A) (A) (A) (A) (A) (A) (A) (A)
                 (A) (A) (A) (A) (A) (A) (A) (A) (A) (A) (A) (A)
                 (A) (A) (A) (A) (A) (A) (A) (A) (A) (A) (A) (A)
                 (A) (A) (A) (A) (A) (A) (A) (A) (A) (A) (A) (A)
                 (A) (A) (A) (A) (A) (A) (A) (A) (A) (A) (A) (A)
                 (A) (A) (A) (A) (A) (A) (A) (A) (A) (A) (A) (A)
                 (A) (A) (A) (A) (A) (A) (A) (A) (A) (A) (A) (A)
                 (A) (A) (A) (A) (A) (A) (A) (A) (A) (A) (A) (A)
                 (A) (A) (A) (A) (A) (A) (A) (A) (A) (A) (A) (A)
                 (A) (A) (A) (A) (A) (A) (A) (A) (A) (A) (A) (A)
                 (A) (A) (A) (A) (A) (A) (A) (A) (A) (A) (A) (A)
                 (A) (A) (A) (A) (A) (A) (A) (A) (A) (A) (A) (A)
                 (A) (A) (A) (A) (A) (A) (A) (A) (A) (A) (A) (A)
                 (A) (A) (A) (A) (A) (A) (A) (A) (A) (A) (A) (A)
                 (A) (A) (A) (A) (A) (A) (A) (A) (A) (A) (A) (A)
                 (A) (A) (A) (A) (A) (A) (A) (A) (A) (A) (A) (A)
                 (A) (A) (A) (A) (A) (A) (A) (A) (A) (A) (A) (A)
                 (A) (A) (A) (A) (A) (A) (A) (A) (A) (A) (A) (A)
                 (A) (A) (A) (A) (A) (A) (A) (A) (A) (A) (A) (A)
                 (A) (A) (A) (A) (A) (A) (A) (A) (A) (A) (A) (A)
                 (A) (A) (A) (A) (A) (A) (A) (A) (A) (A) (A) (A)
                 (A) (A) (A) (A) (A) (A) (A) (A) (A) (A) (A) (A)
                 (A) (A) (A) (A) (A) (A) (A) (A) (A) (A) (A) (A)
                 (A) (A) (A) (A)
 The electronic state is 1-A.
 Alpha  occ. eigenvalues --  -88.88440 -88.88381 -88.88069 -10.22712 -10.21889
 Alpha  occ. eigenvalues --  -10.21160 -10.21031 -10.20970 -10.20583 -10.19481
 Alpha  occ. eigenvalues --  -10.19346 -10.19109 -10.18218 -10.17781  -7.97015
 Alpha  occ. eigenvalues --   -7.96955  -7.96704  -5.93340  -5.93269  -5.93007
 Alpha  occ. eigenvalues --   -5.92973  -5.92904  -5.92625  -5.92535  -5.92501
 Alpha  occ. eigenvalues --   -5.92277  -0.91710  -0.89329  -0.84933  -0.77991
 Alpha  occ. eigenvalues --   -0.77276  -0.75810  -0.71420  -0.70489  -0.68317
 Alpha  occ. eigenvalues --   -0.61555  -0.58066  -0.57023  -0.53354  -0.52441
 Alpha  occ. eigenvalues --   -0.50266  -0.49799  -0.44554  -0.43964  -0.43760
 Alpha  occ. eigenvalues --   -0.42023  -0.41685  -0.40305  -0.39534  -0.38751
 Alpha  occ. eigenvalues --   -0.38193  -0.38080  -0.36682  -0.34704  -0.34504
 Alpha  occ. eigenvalues --   -0.33727  -0.29377  -0.26758  -0.25600  -0.23830
 Alpha  occ. eigenvalues --   -0.20330
 Alpha virt. eigenvalues --   -0.06305  -0.01555  -0.00583  -0.00351   0.00237
 Alpha virt. eigenvalues --    0.00445   0.01475   0.01591   0.02074   0.02513
 Alpha virt. eigenvalues --    0.03076   0.03200   0.03718   0.04574   0.04805
 Alpha virt. eigenvalues --    0.05005   0.05497   0.05664   0.06696   0.06820
 Alpha virt. eigenvalues --    0.07217   0.07453   0.07539   0.07915   0.08091
 Alpha virt. eigenvalues --    0.09175   0.09484   0.10494   0.11076   0.11265
 Alpha virt. eigenvalues --    0.11705   0.11863   0.12117   0.12586   0.13343
 Alpha virt. eigenvalues --    0.14551   0.14974   0.15098   0.15605   0.15892
 Alpha virt. eigenvalues --    0.16308   0.16341   0.16429   0.16678   0.17051
 Alpha virt. eigenvalues --    0.18017   0.18672   0.19047   0.19282   0.19442
 Alpha virt. eigenvalues --    0.19785   0.19882   0.20576   0.20620   0.20736
 Alpha virt. eigenvalues --    0.21360   0.21398   0.21593   0.22502   0.22981
 Alpha virt. eigenvalues --    0.23379   0.23447   0.23754   0.24219   0.25232
 Alpha virt. eigenvalues --    0.25830   0.26898   0.27336   0.28331   0.28767
 Alpha virt. eigenvalues --    0.29218   0.30499   0.31783   0.31863   0.32198
 Alpha virt. eigenvalues --    0.32441   0.33849   0.34449   0.34867   0.35430
 Alpha virt. eigenvalues --    0.35496   0.36903   0.37968   0.38770   0.40185
 Alpha virt. eigenvalues --    0.42566   0.42609   0.43096   0.44212   0.45614
 Alpha virt. eigenvalues --    0.46682   0.47710   0.49973   0.51119   0.52546
 Alpha virt. eigenvalues --    0.52976   0.54113   0.55184   0.55617   0.56904
 Alpha virt. eigenvalues --    0.57249   0.57731   0.57960   0.58764   0.59862
 Alpha virt. eigenvalues --    0.61745   0.62149   0.62223   0.62595   0.63339
 Alpha virt. eigenvalues --    0.64814   0.65199   0.65935   0.66601   0.68072
 Alpha virt. eigenvalues --    0.69068   0.71070   0.71935   0.72417   0.73075
 Alpha virt. eigenvalues --    0.73437   0.73663   0.73860   0.75215   0.75530
 Alpha virt. eigenvalues --    0.77368   0.78073   0.78512   0.79177   0.79388
 Alpha virt. eigenvalues --    0.81305   0.82240   0.82648   0.82850   0.83460
 Alpha virt. eigenvalues --    0.84656   0.85690   0.86075   0.87149   0.88263
 Alpha virt. eigenvalues --    0.90244   0.90592   0.90667   0.92307   0.93387
 Alpha virt. eigenvalues --    0.93922   0.94658   0.96148   0.97751   0.97990
 Alpha virt. eigenvalues --    1.01140   1.01429   1.02904   1.02987   1.04601
 Alpha virt. eigenvalues --    1.05425   1.06246   1.07338   1.07440   1.08876
 Alpha virt. eigenvalues --    1.12173   1.13523   1.14932   1.17357   1.18500
 Alpha virt. eigenvalues --    1.19297   1.24679   1.29458   1.32276   1.34008
 Alpha virt. eigenvalues --    1.34821   1.35874   1.36963   1.41394   1.41906
 Alpha virt. eigenvalues --    1.44826   1.45869   1.51852   1.53493   1.54518
 Alpha virt. eigenvalues --    1.55097   1.56723   1.57940   1.58461   1.59447
 Alpha virt. eigenvalues --    1.59926   1.61727   1.63220   1.65077   1.65223
 Alpha virt. eigenvalues --    1.67304   1.69322   1.69559   1.72537   1.73288
 Alpha virt. eigenvalues --    1.74001   1.74210   1.76396   1.77131   1.77685
 Alpha virt. eigenvalues --    1.80285   1.80862   1.81867   1.83464   1.85846
 Alpha virt. eigenvalues --    1.86200   1.88142   1.90553   1.91397   1.95486
 Alpha virt. eigenvalues --    1.96100   1.97065   1.98097   2.00305   2.01962
 Alpha virt. eigenvalues --    2.03644   2.05036   2.05490   2.07227   2.09718
 Alpha virt. eigenvalues --    2.09814   2.10648   2.12387   2.14364   2.15644
 Alpha virt. eigenvalues --    2.15757   2.18087   2.18568   2.19212   2.22511
 Alpha virt. eigenvalues --    2.22861   2.32293   2.36073   2.36299   2.41338
 Alpha virt. eigenvalues --    2.42380   2.43278   2.46040   2.49201   2.51472
 Alpha virt. eigenvalues --    2.53233   2.55560   2.57896   2.62583   2.64512
 Alpha virt. eigenvalues --    2.67145   2.69716   2.70329   2.70462   2.71140
 Alpha virt. eigenvalues --    2.71733   2.72790   2.75065   2.76085   2.76152
 Alpha virt. eigenvalues --    2.77696   2.83022   2.85702   2.86640   2.89543
 Alpha virt. eigenvalues --    2.92855   2.93561   2.99543   3.00000   3.02433
 Alpha virt. eigenvalues --    3.05666   3.06453   3.12237   3.13126   3.21197
 Alpha virt. eigenvalues --    3.22398   3.28543   3.29767   3.35059   3.35923
 Alpha virt. eigenvalues --    3.42706   3.45776   3.47366   3.53436   3.57818
 Alpha virt. eigenvalues --    3.68835   3.78547   3.83177   3.94557   3.97275
 Alpha virt. eigenvalues --    4.06805   4.13593   4.33737   4.37831   4.60423
 Alpha virt. eigenvalues --    7.98846   8.00606   8.01766  17.27677  17.28617
 Alpha virt. eigenvalues --   17.29931  17.45698  17.48044  17.51015  17.53878
 Alpha virt. eigenvalues --   17.58612  17.59177  23.47493  23.63831  23.77455
 Alpha virt. eigenvalues --   23.81173  23.86537  23.95384  24.02322  24.07309
 Alpha virt. eigenvalues --   24.10888  24.15053  24.16092 189.15743 189.17828
 Alpha virt. eigenvalues --  189.19409
          Condensed to atoms (all electrons):
               1          2          3          4          5          6
     1  C    7.573915   0.335360  -0.495897  -0.435581   0.281560   0.368748
     2  C    0.335360   8.126447   0.543209  -1.764139  -0.027123  -0.063933
     3  C   -0.495897   0.543209   7.826498  -0.182855   0.043293   0.020669
     4  C   -0.435581  -1.764139  -0.182855   7.737443  -0.263941   0.001513
     5  C    0.281560  -0.027123   0.043293  -0.263941   5.671968   0.004701
     6  H    0.368748  -0.063933   0.020669   0.001513   0.004701   0.540080
     7  S   -0.793813  -0.412992  -0.935690   0.685598   0.107091   0.013365
     8  H    0.018512  -0.006886   0.004053   0.004652   0.360591  -0.005576
     9  C   -0.518457   0.676237   0.189014  -0.261928   0.202000  -0.003687
    10  S   -0.100167   0.194266   0.258545  -0.252361   0.096704   0.000518
    11  C   -0.091255  -0.426706  -0.677561   0.194455  -0.035182   0.000221
    12  C   -0.033100  -0.569552  -0.290568   0.103127  -0.066706  -0.000386
    13  C   -0.192188  -0.803253  -1.145362   0.295712  -0.200266   0.000473
    14  H   -0.007784  -0.013134   0.001933  -0.000278   0.007508   0.000000
    15  S    0.003072  -0.042120  -0.066778  -0.003215  -0.003715  -0.000007
    16  C   -0.004432  -0.021984  -0.066932   0.002834   0.000338   0.000000
    17  C    0.023455   0.062273   0.275466   0.006363  -0.006368   0.000010
    18  H    0.000003   0.000097   0.000279  -0.000010  -0.000001   0.000000
    19  H   -0.000052  -0.001134  -0.001318   0.000587   0.000003   0.000000
    20  H    0.038926  -0.073877  -0.009009   0.388667   0.017310   0.003278
    21  H   -0.010692   0.021551   0.017873   0.352725  -0.000447   0.000014
    22  H   -0.010540   0.021638   0.017734   0.352691  -0.000439   0.000014
               7          8          9         10         11         12
     1  C   -0.793813   0.018512  -0.518457  -0.100167  -0.091255  -0.033100
     2  C   -0.412992  -0.006886   0.676237   0.194266  -0.426706  -0.569552
     3  C   -0.935690   0.004053   0.189014   0.258545  -0.677561  -0.290568
     4  C    0.685598   0.004652  -0.261928  -0.252361   0.194455   0.103127
     5  C    0.107091   0.360591   0.202000   0.096704  -0.035182  -0.066706
     6  H    0.013365  -0.005576  -0.003687   0.000518   0.000221  -0.000386
     7  S   17.820959  -0.019182  -0.062305   0.036260   0.216158  -0.016591
     8  H   -0.019182   0.486129  -0.005568  -0.000891  -0.000139   0.000500
     9  C   -0.062305  -0.005568   9.682264   0.461064  -2.001923  -1.738652
    10  S    0.036260  -0.000891   0.461064  17.984123   0.066307  -0.926196
    11  C    0.216158  -0.000139  -2.001923   0.066307  14.824761  -3.347409
    12  C   -0.016591   0.000500  -1.738652  -0.926196  -3.347409  11.081213
    13  C   -0.054358   0.003627  -0.385916  -0.638921  -0.166368   1.425925
    14  H    0.036358  -0.000005   0.107693   0.022944  -0.083083  -0.112682
    15  S   -0.018066   0.000012  -0.756296   0.055272   0.237857  -0.488021
    16  C    0.005231  -0.000001  -0.257822   0.057901   1.039539  -0.812276
    17  C    0.022930  -0.000007   0.305291  -0.687778  -3.983752   1.679409
    18  H   -0.000002   0.000000   0.008874  -0.003095   0.017545   0.028820
    19  H    0.000015   0.000000  -0.014626   0.033796   0.022689  -0.078977
    20  H   -0.002276  -0.000040  -0.002293   0.004785   0.001857  -0.000049
    21  H    0.001803   0.000005  -0.028523   0.018143   0.000744  -0.005196
    22  H    0.001790   0.000005  -0.028518   0.018100   0.000721  -0.005182
              13         14         15         16         17         18
     1  C   -0.192188  -0.007784   0.003072  -0.004432   0.023455   0.000003
     2  C   -0.803253  -0.013134  -0.042120  -0.021984   0.062273   0.000097
     3  C   -1.145362   0.001933  -0.066778  -0.066932   0.275466   0.000279
     4  C    0.295712  -0.000278  -0.003215   0.002834   0.006363  -0.000010
     5  C   -0.200266   0.007508  -0.003715   0.000338  -0.006368  -0.000001
     6  H    0.000473   0.000000  -0.000007   0.000000   0.000010   0.000000
     7  S   -0.054358   0.036358  -0.018066   0.005231   0.022930  -0.000002
     8  H    0.003627  -0.000005   0.000012  -0.000001  -0.000007   0.000000
     9  C   -0.385916   0.107693  -0.756296  -0.257822   0.305291   0.008874
    10  S   -0.638921   0.022944   0.055272   0.057901  -0.687778  -0.003095
    11  C   -0.166368  -0.083083   0.237857   1.039539  -3.983752   0.017545
    12  C    1.425925  -0.112682  -0.488021  -0.812276   1.679409   0.028820
    13  C    7.986783   0.369548   0.031068   0.024679  -0.672741   0.002078
    14  H    0.369548   0.525666   0.011781  -0.001344  -0.002609  -0.000004
    15  S    0.031068   0.011781  17.444869   0.410213  -0.391011  -0.038038
    16  C    0.024679  -0.001344   0.410213   5.633208  -0.264504   0.375236
    17  C   -0.672741  -0.002609  -0.391011  -0.264504   9.413056  -0.032681
    18  H    0.002078  -0.000004  -0.038038   0.375236  -0.032681   0.479031
    19  H   -0.004687   0.000004   0.010750   0.028749   0.352348  -0.005060
    20  H    0.000270  -0.000001   0.000000   0.000013   0.000291   0.000000
    21  H   -0.014840   0.000012  -0.000047  -0.000028  -0.000108  -0.000000
    22  H   -0.014841   0.000012  -0.000047  -0.000028  -0.000109  -0.000000
              19         20         21         22
     1  C   -0.000052   0.038926  -0.010692  -0.010540
     2  C   -0.001134  -0.073877   0.021551   0.021638
     3  C   -0.001318  -0.009009   0.017873   0.017734
     4  C    0.000587   0.388667   0.352725   0.352691
     5  C    0.000003   0.017310  -0.000447  -0.000439
     6  H    0.000000   0.003278   0.000014   0.000014
     7  S    0.000015  -0.002276   0.001803   0.001790
     8  H    0.000000  -0.000040   0.000005   0.000005
     9  C   -0.014626  -0.002293  -0.028523  -0.028518
    10  S    0.033796   0.004785   0.018143   0.018100
    11  C    0.022689   0.001857   0.000744   0.000721
    12  C   -0.078977  -0.000049  -0.005196  -0.005182
    13  C   -0.004687   0.000270  -0.014840  -0.014841
    14  H    0.000004  -0.000001   0.000012   0.000012
    15  S    0.010750   0.000000  -0.000047  -0.000047
    16  C    0.028749   0.000013  -0.000028  -0.000028
    17  C    0.352348   0.000291  -0.000108  -0.000109
    18  H   -0.005060   0.000000  -0.000000  -0.000000
    19  H    0.523916   0.000000  -0.000000  -0.000000
    20  H    0.000000   0.531328  -0.022036  -0.022033
    21  H   -0.000000  -0.022036   0.534151  -0.037650
    22  H   -0.000000  -0.022033  -0.037650   0.534117
 Mulliken charges:
               1
     1  C    0.050409
     2  C    0.245754
     3  C    0.673403
     4  C   -0.962061
     5  C   -0.188880
     6  H    0.119985
     7  S   -0.632281
     8  H    0.160210
     9  C    0.434079
    10  S   -0.699320
    11  C    0.190524
    12  C    0.172549
    13  C    0.153579
    14  H    0.137464
    15  S   -0.397532
    16  C   -0.148590
    17  C   -0.099223
    18  H    0.166928
    19  H    0.132999
    20  H    0.144889
    21  H    0.172548
    22  H    0.172566
 Sum of Mulliken charges =  -0.00000
 Mulliken charges with hydrogens summed into heavy atoms:
               1
     1  C    0.170395
     2  C    0.245754
     3  C    0.673403
     4  C   -0.472058
     5  C   -0.028670
     7  S   -0.632281
     9  C    0.434079
    10  S   -0.699320
    11  C    0.190524
    12  C    0.172549
    13  C    0.291043
    15  S   -0.397532
    16  C    0.018338
    17  C    0.033776
 Electronic spatial extent (au):  <R**2>=           4378.9947
 Charge=              0.0000 electrons
 Dipole moment (field-independent basis, Debye):
    X=             -0.5416    Y=              0.9414    Z=             -0.0000  Tot=              1.0861
 Quadrupole moment (field-independent basis, Debye-Ang):
   XX=            -87.6986   YY=            -97.2043   ZZ=           -110.0278
   XY=              1.8530   XZ=             -0.0000   YZ=             -0.0002
 Traceless Quadrupole moment (field-independent basis, Debye-Ang):
   XX=             10.6117   YY=              1.1059   ZZ=            -11.7176
   XY=              1.8530   XZ=             -0.0000   YZ=             -0.0002
 Octapole moment (field-independent basis, Debye-Ang**2):
  XXX=             -0.2098  YYY=              2.5107  ZZZ=              0.0003  XYY=             -6.9172
  XXY=             11.6351  XXZ=             -0.0017  XZZ=             -0.3918  YZZ=              1.3712
  YYZ=             -0.0007  XYZ=             -0.0009
 Hexadecapole moment (field-independent basis, Debye-Ang**3):
 XXXX=          -4230.9209 YYYY=          -1159.5054 ZZZZ=           -146.6903 XXXY=             75.5999
 XXXZ=              0.0128 YYYX=             25.8036 YYYZ=             -0.0025 ZZZX=             -0.0015
 ZZZY=              0.0012 XXYY=           -928.0262 XXZZ=           -916.7491 YYZZ=           -234.1905
 XXYZ=             -0.0008 YYXZ=             -0.0028 ZZXY=             -7.7379
 N-N= 1.122187306374D+03 E-N=-6.068641506645D+03  KE= 1.615141861336D+03
 Unable to Open any file for archive entry.
 1\1\GINC-CX3-2-24\FOpt\RB3LYP\6-311+G(d,p)\C11H8S3\NS5018\17-Oct-2021\
 0\\# opt=modredundant b3lyp/6-311+g(d,p)\\pBTTT_0.pdb\\0,1\C,-4.253797
 7288,-1.4486316959,-0.3382953731\C,-2.9246810054,-1.0062053114,-0.6205
 792532\C,-2.0009184193,-2.0360781487,-0.5337946798\C,-2.6279845352,0.4
 288260723,-0.9663378803\C,-4.3476931368,-2.775597905,-0.044152629\H,-5
 .1082808444,-0.783983763,-0.3576763746\S,-2.8012006359,-3.5439149068,-
 0.1010552001\H,-5.2264054932,-3.3512939611,0.2023730218\C,-0.563999083
 2,-2.0530932458,-0.7340805795\S,0.3454358412,-0.5893896166,-1.17298808
 47\C,1.8435378115,-1.4745742508,-1.1983596472\C,1.6291246732,-2.809817
 7769,-0.8852768031\C,0.2775634879,-3.140048594,-0.6234568911\H,-0.0689
 683336,-4.1309895619,-0.3645628391\S,3.1316791473,-3.6953041033,-0.911
 2254711\C,4.0069949812,-2.2425300245,-1.342912813\C,3.2028373541,-1.14
 52001479,-1.4610121449\H,5.0757037078,-2.2967311265,-1.4830983211\H,3.
 5677765434,-0.161337543,-1.7211323734\H,-3.5494853537,1.0137414799,-0.
 9594440361\H,-2.1812689815,0.5272975397,-1.9602422039\H,-1.9389699965,
 0.8888565914,-0.2516894234\\Version=ES64L-G16RevC.01\State=1-A\HF=-161
 8.7161118\RMSD=8.246e-09\RMSF=7.932e-06\Dipole=-0.1888857,0.3795439,-0
 .0535273\Quadrupole=7.7112896,0.2416048,-7.9528944,0.4469243,-2.425910
 1,-1.9583255\PG=C01 [X(C11H8S3)]\\@
 The archive entry for this job was punched.


 OF ALL THE WONDERS OF THE UNIVERSE, THE GREATEST IS MAN.

                                    -- ARISTOTLE
 Job cpu time:       0 days  2 hours 50 minutes 35.6 seconds.
 Elapsed time:       0 days  0 hours 21 minutes 30.6 seconds.
 File lengths (MBytes):  RWF=     91 Int=      0 D2E=      0 Chk=     12 Scr=      1
 Normal termination of Gaussian 16 at Sun Oct 17 00:42:29 2021.
