 Entering Gaussian System, Link 0=g16
 Input=pBTTT_145.gjf
 Output=pBTTT_145.log
 Initial command:
 /apps/gaussian/g16-c01-avx/g16/l1.exe "/tmp/pbs.4729010[320].pbs/Gau-1325064.inp" -scrdir="/tmp/pbs.4729010[320].pbs/"
 Entering Link 1 = /apps/gaussian/g16-c01-avx/g16/l1.exe PID=   1325065.
  
 Copyright (c) 1988-2019, Gaussian, Inc.  All Rights Reserved.
  
 This is part of the Gaussian(R) 16 program.  It is based on
 the Gaussian(R) 09 system (copyright 2009, Gaussian, Inc.),
 the Gaussian(R) 03 system (copyright 2003, Gaussian, Inc.),
 the Gaussian(R) 98 system (copyright 1998, Gaussian, Inc.),
 the Gaussian(R) 94 system (copyright 1995, Gaussian, Inc.),
 the Gaussian 92(TM) system (copyright 1992, Gaussian, Inc.),
 the Gaussian 90(TM) system (copyright 1990, Gaussian, Inc.),
 the Gaussian 88(TM) system (copyright 1988, Gaussian, Inc.),
 the Gaussian 86(TM) system (copyright 1986, Carnegie Mellon
 University), and the Gaussian 82(TM) system (copyright 1983,
 Carnegie Mellon University). Gaussian is a federally registered
 trademark of Gaussian, Inc.
  
 This software contains proprietary and confidential information,
 including trade secrets, belonging to Gaussian, Inc.
  
 This software is provided under written license and may be
 used, copied, transmitted, or stored only in accord with that
 written license.
  
 The following legend is applicable only to US Government
 contracts under FAR:
  
                    RESTRICTED RIGHTS LEGEND
  
 Use, reproduction and disclosure by the US Government is
 subject to restrictions as set forth in subparagraphs (a)
 and (c) of the Commercial Computer Software - Restricted
 Rights clause in FAR 52.227-19.
  
 Gaussian, Inc.
 340 Quinnipiac St., Bldg. 40, Wallingford CT 06492
  
  
 ---------------------------------------------------------------
 Warning -- This program may not be used in any manner that
 competes with the business of Gaussian, Inc. or will provide
 assistance to any competitor of Gaussian, Inc.  The licensee
 of this program is prohibited from giving any competitor of
 Gaussian, Inc. access to this program.  By using this program,
 the user acknowledges that Gaussian, Inc. is engaged in the
 business of creating and licensing software in the field of
 computational chemistry and represents and warrants to the
 licensee that it is not a competitor of Gaussian, Inc. and that
 it will not use this program in any manner prohibited above.
 ---------------------------------------------------------------
  

 Cite this work as:
 Gaussian 16, Revision C.01,
 M. J. Frisch, G. W. Trucks, H. B. Schlegel, G. E. Scuseria, 
 M. A. Robb, J. R. Cheeseman, G. Scalmani, V. Barone, 
 G. A. Petersson, H. Nakatsuji, X. Li, M. Caricato, A. V. Marenich, 
 J. Bloino, B. G. Janesko, R. Gomperts, B. Mennucci, H. P. Hratchian, 
 J. V. Ortiz, A. F. Izmaylov, J. L. Sonnenberg, D. Williams-Young, 
 F. Ding, F. Lipparini, F. Egidi, J. Goings, B. Peng, A. Petrone, 
 T. Henderson, D. Ranasinghe, V. G. Zakrzewski, J. Gao, N. Rega, 
 G. Zheng, W. Liang, M. Hada, M. Ehara, K. Toyota, R. Fukuda, 
 J. Hasegawa, M. Ishida, T. Nakajima, Y. Honda, O. Kitao, H. Nakai, 
 T. Vreven, K. Throssell, J. A. Montgomery, Jr., J. E. Peralta, 
 F. Ogliaro, M. J. Bearpark, J. J. Heyd, E. N. Brothers, K. N. Kudin, 
 V. N. Staroverov, T. A. Keith, R. Kobayashi, J. Normand, 
 K. Raghavachari, A. P. Rendell, J. C. Burant, S. S. Iyengar, 
 J. Tomasi, M. Cossi, J. M. Millam, M. Klene, C. Adamo, R. Cammi, 
 J. W. Ochterski, R. L. Martin, K. Morokuma, O. Farkas, 
 J. B. Foresman, and D. J. Fox, Gaussian, Inc., Wallingford CT, 2019.
 
 ******************************************
 Gaussian 16:  ES64L-G16RevC.01  3-Jul-2019
                17-Oct-2021 
 ******************************************
 %mem=10GB
 %nprocshared=8
 Will use up to    8 processors via shared memory.
 -------------------------------------
 # opt=modredundant b3lyp/6-311+g(d,p)
 -------------------------------------
 1/18=120,19=15,26=3,38=1/1,3;
 2/9=110,12=2,17=6,18=5,40=1/2;
 3/5=4,6=6,7=111,11=2,25=1,30=1,71=1,74=-5/1,2,3;
 4//1;
 5/5=2,38=5/2;
 6/7=2,8=2,9=2,10=2,28=1/1;
 7//1,2,3,16;
 1/18=20,19=15,26=3/3(2);
 2/9=110/2;
 99//99;
 2/9=110/2;
 3/5=4,6=6,7=111,11=2,25=1,30=1,71=1,74=-5/1,2,3;
 4/5=5,16=3,69=1/1;
 5/5=2,38=5/2;
 7//1,2,3,16;
 1/18=20,19=15,26=3/3(-5);
 2/9=110/2;
 6/7=2,8=2,9=2,10=2,19=2,28=1/1;
 99/9=1/99;
 -------------
 pBTTT_145.pdb
 -------------
 Symbolic Z-matrix:
 Charge =  0 Multiplicity = 1
 C                    -4.25     -1.36     -0.21 
 C                    -2.93     -0.95     -0.61 
 C                    -1.97     -2.05     -0.62 
 C                    -2.66      0.47     -0.96 
 C                    -4.33     -2.76      0.1 
 H                    -5.1      -0.7      -0.14 
 S                    -2.8      -3.56     -0.11 
 H                    -5.23     -3.27      0.41 
 C                    -0.56     -2.13     -0.97 
 S                     0.571    -3.217    -0.107 
 C                     1.915    -2.73     -1.082 
 C                     1.543    -1.767    -2.088 
 C                     0.15     -1.435    -2.046 
 H                    -0.341    -0.863    -2.817 
 S                     2.596    -1.8      -3.464 
 C                     3.57     -3.08     -2.738 
 C                     3.061    -3.494    -1.45 
 H                     4.334    -3.609    -3.29 
 H                     3.345    -4.431    -0.98 
 H                    -3.55      1.09     -0.83 
 H                    -2.35      0.56     -2. 
 H                    -1.88      0.89     -0.31 
 
 The following ModRedundant input section has been read:
 D       2       3       9      10 F                                           
 

 GradGradGradGradGradGradGradGradGradGradGradGradGradGradGradGradGradGrad
 Berny optimization.
 Initialization pass.
                           ----------------------------
                           !    Initial Parameters    !
                           ! (Angstroms and Degrees)  !
 --------------------------                            --------------------------
 ! Name  Definition              Value          Derivative Info.                !
 --------------------------------------------------------------------------------
 ! R1    R(1,2)                  1.4389         estimate D2E/DX2                !
 ! R2    R(1,5)                  1.4361         estimate D2E/DX2                !
 ! R3    R(1,6)                  1.0784         estimate D2E/DX2                !
 ! R4    R(2,3)                  1.46           estimate D2E/DX2                !
 ! R5    R(2,4)                  1.4872         estimate D2E/DX2                !
 ! R6    R(3,7)                  1.797          estimate D2E/DX2                !
 ! R7    R(3,9)                  1.455          estimate D2E/DX2                !
 ! R8    R(4,20)                 1.0924         estimate D2E/DX2                !
 ! R9    R(4,21)                 1.0889         estimate D2E/DX2                !
 ! R10   R(4,22)                 1.0988         estimate D2E/DX2                !
 ! R11   R(5,7)                  1.7393         estimate D2E/DX2                !
 ! R12   R(5,8)                  1.0799         estimate D2E/DX2                !
 ! R13   R(9,10)                 1.7904         estimate D2E/DX2                !
 ! R14   R(9,13)                 1.4645         estimate D2E/DX2                !
 ! R15   R(10,11)                1.7304         estimate D2E/DX2                !
 ! R16   R(11,12)                1.4415         estimate D2E/DX2                !
 ! R17   R(11,17)                1.4256         estimate D2E/DX2                !
 ! R18   R(12,13)                1.4326         estimate D2E/DX2                !
 ! R19   R(12,15)                1.733          estimate D2E/DX2                !
 ! R20   R(13,14)                1.0783         estimate D2E/DX2                !
 ! R21   R(15,16)                1.7647         estimate D2E/DX2                !
 ! R22   R(16,17)                1.4455         estimate D2E/DX2                !
 ! R23   R(16,18)                1.0809         estimate D2E/DX2                !
 ! R24   R(17,19)                1.0861         estimate D2E/DX2                !
 ! A1    A(2,1,5)              112.8843         estimate D2E/DX2                !
 ! A2    A(2,1,6)              124.5209         estimate D2E/DX2                !
 ! A3    A(5,1,6)              122.5942         estimate D2E/DX2                !
 ! A4    A(1,2,3)              112.9799         estimate D2E/DX2                !
 ! A5    A(1,2,4)              120.2665         estimate D2E/DX2                !
 ! A6    A(3,2,4)              126.7536         estimate D2E/DX2                !
 ! A7    A(2,3,7)              109.1138         estimate D2E/DX2                !
 ! A8    A(2,3,9)              132.8639         estimate D2E/DX2                !
 ! A9    A(7,3,9)              118.0132         estimate D2E/DX2                !
 ! A10   A(2,4,20)             111.468          estimate D2E/DX2                !
 ! A11   A(2,4,21)             110.8154         estimate D2E/DX2                !
 ! A12   A(2,4,22)             110.7706         estimate D2E/DX2                !
 ! A13   A(20,4,21)            107.3779         estimate D2E/DX2                !
 ! A14   A(20,4,22)            106.918          estimate D2E/DX2                !
 ! A15   A(21,4,22)            109.3476         estimate D2E/DX2                !
 ! A16   A(1,5,7)              111.9209         estimate D2E/DX2                !
 ! A17   A(1,5,8)              124.6643         estimate D2E/DX2                !
 ! A18   A(7,5,8)              123.4062         estimate D2E/DX2                !
 ! A19   A(3,7,5)               93.0997         estimate D2E/DX2                !
 ! A20   A(3,9,10)             121.9787         estimate D2E/DX2                !
 ! A21   A(3,9,13)             128.3483         estimate D2E/DX2                !
 ! A22   A(10,9,13)            109.6337         estimate D2E/DX2                !
 ! A23   A(9,10,11)             92.7617         estimate D2E/DX2                !
 ! A24   A(10,11,12)           112.3848         estimate D2E/DX2                !
 ! A25   A(10,11,17)           128.2423         estimate D2E/DX2                !
 ! A26   A(12,11,17)           112.6639         estimate D2E/DX2                !
 ! A27   A(11,12,13)           112.662          estimate D2E/DX2                !
 ! A28   A(11,12,15)           112.6193         estimate D2E/DX2                !
 ! A29   A(13,12,15)           128.2066         estimate D2E/DX2                !
 ! A30   A(9,13,12)            112.5163         estimate D2E/DX2                !
 ! A31   A(9,13,14)            123.8009         estimate D2E/DX2                !
 ! A32   A(12,13,14)           123.0058         estimate D2E/DX2                !
 ! A33   A(12,15,16)            91.2907         estimate D2E/DX2                !
 ! A34   A(15,16,17)           112.3318         estimate D2E/DX2                !
 ! A35   A(15,16,18)           122.346          estimate D2E/DX2                !
 ! A36   A(17,16,18)           124.3186         estimate D2E/DX2                !
 ! A37   A(11,17,16)           111.0745         estimate D2E/DX2                !
 ! A38   A(11,17,19)           124.1143         estimate D2E/DX2                !
 ! A39   A(16,17,19)           122.7264         estimate D2E/DX2                !
 ! D1    D(5,1,2,3)              0.3915         estimate D2E/DX2                !
 ! D2    D(5,1,2,4)           -179.5973         estimate D2E/DX2                !
 ! D3    D(6,1,2,3)           -179.8811         estimate D2E/DX2                !
 ! D4    D(6,1,2,4)              0.13           estimate D2E/DX2                !
 ! D5    D(2,1,5,7)             -0.3845         estimate D2E/DX2                !
 ! D6    D(2,1,5,8)           -179.3471         estimate D2E/DX2                !
 ! D7    D(6,1,5,7)            179.8822         estimate D2E/DX2                !
 ! D8    D(6,1,5,8)              0.9196         estimate D2E/DX2                !
 ! D9    D(1,2,3,7)             -0.2224         estimate D2E/DX2                !
 ! D10   D(1,2,3,9)            178.6265         estimate D2E/DX2                !
 ! D11   D(4,2,3,7)            179.7656         estimate D2E/DX2                !
 ! D12   D(4,2,3,9)             -1.3855         estimate D2E/DX2                !
 ! D13   D(1,2,4,20)             2.1641         estimate D2E/DX2                !
 ! D14   D(1,2,4,21)          -117.3645         estimate D2E/DX2                !
 ! D15   D(1,2,4,22)           121.0843         estimate D2E/DX2                !
 ! D16   D(3,2,4,20)          -177.8231         estimate D2E/DX2                !
 ! D17   D(3,2,4,21)            62.6483         estimate D2E/DX2                !
 ! D18   D(3,2,4,22)           -58.9029         estimate D2E/DX2                !
 ! D19   D(2,3,7,5)              0.0033         estimate D2E/DX2                !
 ! D20   D(9,3,7,5)           -179.041          estimate D2E/DX2                !
 ! D21   D(2,3,9,10)           144.9849         Frozen                          !
 ! D22   D(2,3,9,13)           -37.5409         estimate D2E/DX2                !
 ! D23   D(7,3,9,10)           -36.2472         estimate D2E/DX2                !
 ! D24   D(7,3,9,13)           141.2271         estimate D2E/DX2                !
 ! D25   D(1,5,7,3)              0.2153         estimate D2E/DX2                !
 ! D26   D(8,5,7,3)            179.1932         estimate D2E/DX2                !
 ! D27   D(3,9,10,11)          179.7503         estimate D2E/DX2                !
 ! D28   D(13,9,10,11)           1.8532         estimate D2E/DX2                !
 ! D29   D(3,9,13,12)         -179.845          estimate D2E/DX2                !
 ! D30   D(3,9,13,14)           -9.0431         estimate D2E/DX2                !
 ! D31   D(10,9,13,12)          -2.1196         estimate D2E/DX2                !
 ! D32   D(10,9,13,14)         168.6823         estimate D2E/DX2                !
 ! D33   D(9,10,11,12)          -1.1507         estimate D2E/DX2                !
 ! D34   D(9,10,11,17)        -149.9308         estimate D2E/DX2                !
 ! D35   D(10,11,12,13)          0.1092         estimate D2E/DX2                !
 ! D36   D(10,11,12,15)       -154.0573         estimate D2E/DX2                !
 ! D37   D(17,11,12,13)        153.9314         estimate D2E/DX2                !
 ! D38   D(17,11,12,15)         -0.235          estimate D2E/DX2                !
 ! D39   D(10,11,17,16)        149.8341         estimate D2E/DX2                !
 ! D40   D(10,11,17,19)        -14.0807         estimate D2E/DX2                !
 ! D41   D(12,11,17,16)          1.1242         estimate D2E/DX2                !
 ! D42   D(12,11,17,19)       -162.7906         estimate D2E/DX2                !
 ! D43   D(11,12,13,9)           1.3306         estimate D2E/DX2                !
 ! D44   D(11,12,13,14)       -169.5558         estimate D2E/DX2                !
 ! D45   D(15,12,13,9)         150.5404         estimate D2E/DX2                !
 ! D46   D(15,12,13,14)        -20.346          estimate D2E/DX2                !
 ! D47   D(11,12,15,16)         -0.5511         estimate D2E/DX2                !
 ! D48   D(13,12,15,16)       -149.7715         estimate D2E/DX2                !
 ! D49   D(12,15,16,17)          1.1972         estimate D2E/DX2                !
 ! D50   D(12,15,16,18)        170.189          estimate D2E/DX2                !
 ! D51   D(15,16,17,11)         -1.534          estimate D2E/DX2                !
 ! D52   D(15,16,17,19)        162.6426         estimate D2E/DX2                !
 ! D53   D(18,16,17,11)       -170.2704         estimate D2E/DX2                !
 ! D54   D(18,16,17,19)         -6.0938         estimate D2E/DX2                !
 --------------------------------------------------------------------------------
 Trust Radius=3.00D-01 FncErr=1.00D-07 GrdErr=1.00D-06 EigMax=2.50D+02 EigMin=1.00D-04
 Number of steps in this run=    127 maximum allowed number of steps=    132.
 GradGradGradGradGradGradGradGradGradGradGradGradGradGradGradGradGradGrad

                          Input orientation:                          
 ---------------------------------------------------------------------
 Center     Atomic      Atomic             Coordinates (Angstroms)
 Number     Number       Type             X           Y           Z
 ---------------------------------------------------------------------
      1          6           0       -4.250000   -1.360000   -0.210000
      2          6           0       -2.930000   -0.950000   -0.610000
      3          6           0       -1.970000   -2.050000   -0.620000
      4          6           0       -2.660000    0.470000   -0.960000
      5          6           0       -4.330000   -2.760000    0.100000
      6          1           0       -5.100000   -0.700000   -0.140000
      7         16           0       -2.800000   -3.560000   -0.110000
      8          1           0       -5.230000   -3.270000    0.410000
      9          6           0       -0.560000   -2.130000   -0.970000
     10         16           0        0.571000   -3.217000   -0.107000
     11          6           0        1.915000   -2.730000   -1.082000
     12          6           0        1.543000   -1.767000   -2.088000
     13          6           0        0.150000   -1.435000   -2.046000
     14          1           0       -0.341000   -0.863000   -2.817000
     15         16           0        2.596000   -1.800000   -3.464000
     16          6           0        3.570000   -3.080000   -2.738000
     17          6           0        3.061000   -3.494000   -1.450000
     18          1           0        4.334000   -3.609000   -3.290000
     19          1           0        3.345000   -4.431000   -0.980000
     20          1           0       -3.550000    1.090000   -0.830000
     21          1           0       -2.350000    0.560000   -2.000000
     22          1           0       -1.880000    0.890000   -0.310000
 ---------------------------------------------------------------------
                    Distance matrix (angstroms):
                    1          2          3          4          5
     1  C    0.000000
     2  C    1.438923   0.000000
     3  C    2.417147   1.460034   0.000000
     4  C    2.537617   1.487212   2.634787   0.000000
     5  C    1.436141   2.395871   2.567509   3.787532   0.000000
     6  H    1.078425   2.234346   3.442354   2.827525   2.212261
     7  S    2.636759   2.660639   1.796970   4.121044   1.739253
     8  H    2.234480   3.422397   3.630000   4.740190   1.079907
     9  C    3.845335   2.671872   1.454991   3.342170   3.969219
    10  S    5.167311   4.201107   2.842840   4.976036   4.926611
    11  C    6.375305   5.183166   3.971029   5.584399   6.355946
    12  C    6.103391   4.781182   3.817890   4.893032   6.345512
    13  C    4.768283   3.432742   2.627946   3.564340   5.141142
    14  H    4.724800   3.403137   2.981513   3.256240   5.293356
    15  S    7.592749   6.277300   5.385090   6.248876   7.848132
    16  C    8.396522   7.163469   6.019836   7.387603   8.400395
    17  C    7.716364   6.562745   5.299528   6.977337   7.587367
    18  H    9.393054   8.186475   7.021381   8.425151   9.342259
    19  H    8.228485   7.185394   5.835065   7.751144   7.928699
    20  H    2.622384   2.143455   3.521378   1.092428   4.036806
    21  H    3.240447   2.132745   2.976726   1.088944   4.399182
    22  H    3.269465   2.139650   2.957668   1.098772   4.415099
                    6          7          8          9         10
     6  H    0.000000
     7  S    3.670218   0.000000
     8  H    2.631406   2.501879   0.000000
     9  C    4.831708   2.793224   5.001290   0.000000
    10  S    6.204564   3.388407   5.824234   1.790391   0.000000
    11  C    7.363321   4.885172   7.319063   2.549151   1.730355
    12  C    7.004473   5.097939   7.373774   2.409212   2.640387
    13  C    5.633432   4.119007   6.192218   1.464548   2.666924
    14  H    5.462690   4.544044   6.333206   2.250480   3.703668
    15  S    8.455022   6.592703   8.855227   4.035997   4.168688
    16  C    9.358574   6.907509   9.348048   4.591865   3.991858
    17  C    8.724933   6.012593   8.500027   3.899043   2.842618
    18  H   10.362680   7.810810  10.260361   5.614363   4.944221
    19  H    9.270598   6.267102   8.764168   4.532519   3.151349
    20  H    2.466313   4.764808   4.834211   4.396374   6.004633
    21  H    3.551014   4.555107   5.363898   3.391327   5.136285
    22  H    3.595191   4.548505   5.389480   3.361309   4.787072
                   11         12         13         14         15
    11  C    0.000000
    12  C    1.441454   0.000000
    13  C    2.391975   1.432633   0.000000
    14  H    3.403741   2.213168   1.078288   0.000000
    15  S    2.646240   1.732996   2.850766   3.150007   0.000000
    16  C    2.367248   2.501039   3.857627   4.496360   1.764696
    17  C    1.425635   2.386189   3.615054   4.512699   2.672463
    18  H    3.391086   3.553512   4.876440   5.442414   2.514637
    19  H    2.224568   3.401730   4.507815   5.449017   3.695053
    20  H    6.672490   5.973580   4.641582   4.249713   7.284461
    21  H    5.464160   4.536311   3.198772   2.593935   5.672373
    22  H    5.301171   4.683787   3.541217   3.424409   6.100688
                   16         17         18         19         20
    16  C    0.000000
    17  C    1.445483   0.000000
    18  H    1.080852   2.240391   0.000000
    19  H    2.228540   1.086059   2.643843   0.000000
    20  H    8.468988   8.068629   9.502087   8.834306   0.000000
    21  H    6.988608   6.783534   7.982513   7.640910   1.757783
    22  H    7.166490   6.703174   8.230140   7.487494   1.760483
                   21         22
    21  H    0.000000
    22  H    1.784909   0.000000
 Stoichiometry    C11H8S3
 Framework group  C1[X(C11H8S3)]
 Deg. of freedom    60
 Full point group                 C1      NOp   1
 Largest Abelian subgroup         C1      NOp   1
 Largest concise Abelian subgroup C1      NOp   1
                         Standard orientation:                         
 ---------------------------------------------------------------------
 Center     Atomic      Atomic             Coordinates (Angstroms)
 Number     Number       Type             X           Y           Z
 ---------------------------------------------------------------------
      1          6           0       -4.059146    0.649728   -0.094265
      2          6           0       -2.725535    1.084482    0.226629
      3          6           0       -1.720845    0.046864    0.012983
      4          6           0       -2.486088    2.467010    0.719663
      5          6           0       -4.108944   -0.712701   -0.545714
      6          1           0       -4.940252    1.265393   -0.007038
      7         16           0       -2.530570   -1.442291   -0.583558
      8          1           0       -5.009447   -1.227903   -0.845481
      9          6           0       -0.274391    0.022685    0.168506
     10         16           0        0.595167   -1.440263    0.724518
     11          6           0        2.137877   -0.662794    0.625943
     12          6           0        2.039136    0.694696    0.151325
     13          6           0        0.689059    1.085700   -0.125882
     14          1           0        0.435837    1.999461   -0.639327
     15         16           0        3.492445    1.238318   -0.620454
     16          6           0        4.278929   -0.312846   -0.321315
     17          6           0        3.406362   -1.251060    0.347867
     18          1           0        5.229734   -0.574033   -0.764024
     19          1           0        3.600843   -2.319290    0.372064
     20          1           0       -3.421186    3.022349    0.822566
     21          1           0       -1.853543    3.020596    0.027400
     22          1           0       -2.013152    2.450620    1.711309
 ---------------------------------------------------------------------
 Rotational constants (GHZ):           1.1864079           0.2731730           0.2352875
 Standard basis: 6-311+G(d,p) (5D, 7F)
 There are   394 symmetry adapted cartesian basis functions of A   symmetry.
 There are   380 symmetry adapted basis functions of A   symmetry.
   380 basis functions,   610 primitive gaussians,   394 cartesian basis functions
    61 alpha electrons       61 beta electrons
       nuclear repulsion energy      1106.4275343681 Hartrees.
 NAtoms=   22 NActive=   22 NUniq=   22 SFac= 1.00D+00 NAtFMM=   60 NAOKFM=F Big=F
 Integral buffers will be    131072 words long.
 Raffenetti 2 integral format.
 Two-electron integral symmetry is turned on.
 One-electron integrals computed using PRISM.
 NBasis=   380 RedAO= T EigKep=  1.26D-06  NBF=   380
 NBsUse=   379 1.00D-06 EigRej=  3.24D-07 NBFU=   379
 ExpMin= 4.05D-02 ExpMax= 9.34D+04 ExpMxC= 3.17D+03 IAcc=3 IRadAn=         5 AccDes= 0.00D+00
 Harris functional with IExCor=  402 and IRadAn=       5 diagonalized for initial guess.
 HarFok:  IExCor=  402 AccDes= 0.00D+00 IRadAn=         5 IDoV= 1 UseB2=F ITyADJ=14
 ICtDFT=  3500011 ScaDFX=  1.000000  1.000000  1.000000  1.000000
 FoFCou: FMM=F IPFlag=           0 FMFlag=      100000 FMFlg1=           0
         NFxFlg=           0 DoJE=T BraDBF=F KetDBF=T FulRan=T
         wScrn=  0.000000 ICntrl=       500 IOpCl=  0 I1Cent=   200000004 NGrid=           0
         NMat0=    1 NMatS0=      1 NMatT0=    0 NMatD0=    1 NMtDS0=    0 NMtDT0=    0
 Petite list used in FoFCou.
 Requested convergence on RMS density matrix=1.00D-08 within 128 cycles.
 Requested convergence on MAX density matrix=1.00D-06.
 Requested convergence on             energy=1.00D-06.
 No special actions if energy rises.
 SCF Done:  E(RB3LYP) =  -1618.67718534     A.U. after   17 cycles
            NFock= 17  Conv=0.34D-08     -V/T= 2.0028

 **********************************************************************

            Population analysis using the SCF Density.

 **********************************************************************

 Orbital symmetries:
       Occupied  (A) (A) (A) (A) (A) (A) (A) (A) (A) (A) (A) (A)
                 (A) (A) (A) (A) (A) (A) (A) (A) (A) (A) (A) (A)
                 (A) (A) (A) (A) (A) (A) (A) (A) (A) (A) (A) (A)
                 (A) (A) (A) (A) (A) (A) (A) (A) (A) (A) (A) (A)
                 (A) (A) (A) (A) (A) (A) (A) (A) (A) (A) (A) (A)
                 (A)
       Virtual   (A) (A) (A) (A) (A) (A) (A) (A) (A) (A) (A) (A)
                 (A) (A) (A) (A) (A) (A) (A) (A) (A) (A) (A) (A)
                 (A) (A) (A) (A) (A) (A) (A) (A) (A) (A) (A) (A)
                 (A) (A) (A) (A) (A) (A) (A) (A) (A) (A) (A) (A)
                 (A) (A) (A) (A) (A) (A) (A) (A) (A) (A) (A) (A)
                 (A) (A) (A) (A) (A) (A) (A) (A) (A) (A) (A) (A)
                 (A) (A) (A) (A) (A) (A) (A) (A) (A) (A) (A) (A)
                 (A) (A) (A) (A) (A) (A) (A) (A) (A) (A) (A) (A)
                 (A) (A) (A) (A) (A) (A) (A) (A) (A) (A) (A) (A)
                 (A) (A) (A) (A) (A) (A) (A) (A) (A) (A) (A) (A)
                 (A) (A) (A) (A) (A) (A) (A) (A) (A) (A) (A) (A)
                 (A) (A) (A) (A) (A) (A) (A) (A) (A) (A) (A) (A)
                 (A) (A) (A) (A) (A) (A) (A) (A) (A) (A) (A) (A)
                 (A) (A) (A) (A) (A) (A) (A) (A) (A) (A) (A) (A)
                 (A) (A) (A) (A) (A) (A) (A) (A) (A) (A) (A) (A)
                 (A) (A) (A) (A) (A) (A) (A) (A) (A) (A) (A) (A)
                 (A) (A) (A) (A) (A) (A) (A) (A) (A) (A) (A) (A)
                 (A) (A) (A) (A) (A) (A) (A) (A) (A) (A) (A) (A)
                 (A) (A) (A) (A) (A) (A) (A) (A) (A) (A) (A) (A)
                 (A) (A) (A) (A) (A) (A) (A) (A) (A) (A) (A) (A)
                 (A) (A) (A) (A) (A) (A) (A) (A) (A) (A) (A) (A)
                 (A) (A) (A) (A) (A) (A) (A) (A) (A) (A) (A) (A)
                 (A) (A) (A) (A) (A) (A) (A) (A) (A) (A) (A) (A)
                 (A) (A) (A) (A) (A) (A) (A) (A) (A) (A) (A) (A)
                 (A) (A) (A) (A) (A) (A) (A) (A) (A) (A) (A) (A)
                 (A) (A) (A) (A) (A) (A) (A) (A) (A) (A) (A) (A)
                 (A) (A) (A) (A) (A) (A)
 The electronic state is 1-A.
 Alpha  occ. eigenvalues --  -88.89070 -88.88828 -88.88685 -10.23703 -10.22894
 Alpha  occ. eigenvalues --  -10.21989 -10.21975 -10.21789 -10.21556 -10.20657
 Alpha  occ. eigenvalues --  -10.20392 -10.20255 -10.19200 -10.17769  -7.97593
 Alpha  occ. eigenvalues --   -7.97308  -7.97227  -5.93905  -5.93601  -5.93553
 Alpha  occ. eigenvalues --   -5.93548  -5.93232  -5.93185  -5.93147  -5.92920
 Alpha  occ. eigenvalues --   -5.92755  -0.90578  -0.87663  -0.83579  -0.77901
 Alpha  occ. eigenvalues --   -0.77264  -0.74930  -0.71003  -0.69782  -0.67307
 Alpha  occ. eigenvalues --   -0.61135  -0.57608  -0.56950  -0.53536  -0.51918
 Alpha  occ. eigenvalues --   -0.49325  -0.49067  -0.44562  -0.43693  -0.43435
 Alpha  occ. eigenvalues --   -0.41694  -0.41211  -0.40049  -0.39712  -0.38854
 Alpha  occ. eigenvalues --   -0.37696  -0.37157  -0.36652  -0.35243  -0.34275
 Alpha  occ. eigenvalues --   -0.33227  -0.29294  -0.25831  -0.25400  -0.23513
 Alpha  occ. eigenvalues --   -0.20008
 Alpha virt. eigenvalues --   -0.07341  -0.03512  -0.01598  -0.00532  -0.00341
 Alpha virt. eigenvalues --    0.00044   0.00629   0.00740   0.01730   0.02331
 Alpha virt. eigenvalues --    0.02695   0.03053   0.03451   0.03927   0.04558
 Alpha virt. eigenvalues --    0.04876   0.05060   0.05367   0.05858   0.06602
 Alpha virt. eigenvalues --    0.06727   0.06886   0.07362   0.08197   0.08438
 Alpha virt. eigenvalues --    0.08872   0.09596   0.09932   0.10643   0.11012
 Alpha virt. eigenvalues --    0.11424   0.11918   0.12063   0.12344   0.12691
 Alpha virt. eigenvalues --    0.13303   0.13847   0.14244   0.14927   0.15224
 Alpha virt. eigenvalues --    0.15313   0.15982   0.16104   0.16298   0.17067
 Alpha virt. eigenvalues --    0.17660   0.17897   0.18570   0.18822   0.19042
 Alpha virt. eigenvalues --    0.19387   0.19589   0.20128   0.20274   0.20653
 Alpha virt. eigenvalues --    0.20935   0.21069   0.21440   0.21706   0.22078
 Alpha virt. eigenvalues --    0.22511   0.22843   0.23079   0.23965   0.24453
 Alpha virt. eigenvalues --    0.24722   0.24998   0.25638   0.26124   0.26365
 Alpha virt. eigenvalues --    0.27080   0.27677   0.28441   0.28930   0.29330
 Alpha virt. eigenvalues --    0.29851   0.30996   0.31360   0.32411   0.32814
 Alpha virt. eigenvalues --    0.33678   0.34460   0.35506   0.35578   0.36375
 Alpha virt. eigenvalues --    0.37090   0.37892   0.39475   0.41937   0.42187
 Alpha virt. eigenvalues --    0.42732   0.43571   0.44333   0.45574   0.47287
 Alpha virt. eigenvalues --    0.48694   0.50029   0.51738   0.54081   0.54173
 Alpha virt. eigenvalues --    0.55136   0.55670   0.56185   0.56710   0.57646
 Alpha virt. eigenvalues --    0.58490   0.59860   0.60252   0.61169   0.61504
 Alpha virt. eigenvalues --    0.62360   0.62627   0.64098   0.64403   0.64877
 Alpha virt. eigenvalues --    0.65986   0.67503   0.67924   0.68715   0.69136
 Alpha virt. eigenvalues --    0.69711   0.70656   0.71084   0.71602   0.73548
 Alpha virt. eigenvalues --    0.74257   0.74469   0.74654   0.75834   0.75985
 Alpha virt. eigenvalues --    0.77017   0.77566   0.78025   0.79504   0.80465
 Alpha virt. eigenvalues --    0.80946   0.82061   0.82709   0.83040   0.85122
 Alpha virt. eigenvalues --    0.85765   0.86954   0.87716   0.88873   0.89810
 Alpha virt. eigenvalues --    0.90934   0.91833   0.92517   0.93372   0.94365
 Alpha virt. eigenvalues --    0.95189   0.95698   0.97377   0.97575   0.98749
 Alpha virt. eigenvalues --    1.00252   1.01263   1.02561   1.02606   1.04886
 Alpha virt. eigenvalues --    1.05641   1.07539   1.08302   1.11109   1.14961
 Alpha virt. eigenvalues --    1.16369   1.20441   1.21431   1.24796   1.27661
 Alpha virt. eigenvalues --    1.33635   1.34615   1.35632   1.37252   1.39547
 Alpha virt. eigenvalues --    1.40986   1.41320   1.45181   1.47329   1.49920
 Alpha virt. eigenvalues --    1.51211   1.52814   1.53152   1.55512   1.55961
 Alpha virt. eigenvalues --    1.57066   1.58707   1.60355   1.60535   1.61437
 Alpha virt. eigenvalues --    1.63167   1.64320   1.64819   1.66592   1.68222
 Alpha virt. eigenvalues --    1.68757   1.69600   1.70199   1.71677   1.74262
 Alpha virt. eigenvalues --    1.76045   1.76507   1.78141   1.79281   1.80875
 Alpha virt. eigenvalues --    1.81476   1.83168   1.84694   1.85493   1.88322
 Alpha virt. eigenvalues --    1.88926   1.90924   1.93087   1.94018   1.94725
 Alpha virt. eigenvalues --    1.96144   1.97269   1.99617   2.00996   2.02419
 Alpha virt. eigenvalues --    2.02990   2.03316   2.05911   2.07412   2.08805
 Alpha virt. eigenvalues --    2.09299   2.10846   2.13090   2.14434   2.15224
 Alpha virt. eigenvalues --    2.17456   2.17994   2.20832   2.26311   2.30816
 Alpha virt. eigenvalues --    2.33145   2.35964   2.37036   2.39143   2.43499
 Alpha virt. eigenvalues --    2.44589   2.46656   2.50369   2.51767   2.54687
 Alpha virt. eigenvalues --    2.56083   2.59442   2.60575   2.64191   2.65669
 Alpha virt. eigenvalues --    2.69241   2.69957   2.70948   2.71617   2.72847
 Alpha virt. eigenvalues --    2.74302   2.74601   2.78765   2.78949   2.83026
 Alpha virt. eigenvalues --    2.84119   2.86302   2.91141   2.93363   2.94351
 Alpha virt. eigenvalues --    2.97788   2.99513   3.00360   3.02436   3.03741
 Alpha virt. eigenvalues --    3.05440   3.11938   3.16004   3.21124   3.25602
 Alpha virt. eigenvalues --    3.27033   3.31663   3.36329   3.39096   3.40092
 Alpha virt. eigenvalues --    3.48133   3.56691   3.65329   3.79941   3.82204
 Alpha virt. eigenvalues --    3.90886   3.94713   4.05270   4.09861   4.30605
 Alpha virt. eigenvalues --    4.33496   4.49869   7.94786   7.97217   7.99834
 Alpha virt. eigenvalues --   17.28246  17.29161  17.30604  17.42517  17.44252
 Alpha virt. eigenvalues --   17.46787  17.48092  17.51013  17.52556  23.48041
 Alpha virt. eigenvalues --   23.61653  23.73800  23.76986  23.81979  23.85794
 Alpha virt. eigenvalues --   23.88562  23.94283  23.95935  23.96122  23.98734
 Alpha virt. eigenvalues --  189.11050 189.14187 189.17034
          Condensed to atoms (all electrons):
               1          2          3          4          5          6
     1  C   10.713423  -7.729367   7.697393  -1.853002  -0.896632   0.333121
     2  C   -7.729367  27.267699 -21.664614   2.334324   2.380393   0.008458
     3  C    7.697393 -21.664614  33.338617  -5.162859  -2.478876  -0.028277
     4  C   -1.853002   2.334324  -5.162859   8.672481   0.235309   0.020549
     5  C   -0.896632   2.380393  -2.478876   0.235309   5.921906  -0.003936
     6  H    0.333121   0.008458  -0.028277   0.020549  -0.003936   0.529844
     7  S   -1.018608   0.532087  -2.158547   0.762730   0.061528   0.009634
     8  H    0.005720  -0.008069  -0.007191   0.003533   0.384623  -0.004555
     9  C   -0.927167   1.641814  -1.944342   0.048098   0.315726  -0.000632
    10  S   -0.146657   0.839255   0.004903  -0.002877   0.072814  -0.000257
    11  C   -0.015333  -0.080825  -0.618278   0.111986   0.000267  -0.000093
    12  C   -0.129031   0.945450  -0.231520   0.061030   0.038874   0.000249
    13  C    0.238363  -0.935916  -0.708290   0.338535  -0.078554   0.001094
    14  H    0.005555   0.007187   0.031932  -0.017946  -0.000634  -0.000001
    15  S    0.001681   0.020153  -0.033251   0.015410   0.001458  -0.000002
    16  C    0.002886  -0.039838   0.012722  -0.007393  -0.001247   0.000001
    17  C    0.000434   0.001704  -0.087697   0.036899  -0.006267  -0.000010
    18  H   -0.000002   0.000120   0.000132   0.000009  -0.000000  -0.000000
    19  H    0.000003  -0.000394  -0.000843  -0.000038   0.000002  -0.000000
    20  H    0.059694  -0.097812  -0.068206   0.456843   0.015780   0.002019
    21  H   -0.019966   0.000712   0.097451   0.269116  -0.006370   0.000150
    22  H   -0.024772  -0.011050  -0.080558   0.457721   0.005009   0.000091
               7          8          9         10         11         12
     1  C   -1.018608   0.005720  -0.927167  -0.146657  -0.015333  -0.129031
     2  C    0.532087  -0.008069   1.641814   0.839255  -0.080825   0.945450
     3  C   -2.158547  -0.007191  -1.944342   0.004903  -0.618278  -0.231520
     4  C    0.762730   0.003533   0.048098  -0.002877   0.111986   0.061030
     5  C    0.061528   0.384623   0.315726   0.072814   0.000267   0.038874
     6  H    0.009634  -0.004555  -0.000632  -0.000257  -0.000093   0.000249
     7  S   17.943148  -0.013379   0.048694  -0.332920   0.155726  -0.264402
     8  H   -0.013379   0.481030  -0.005902  -0.000458   0.000083  -0.000046
     9  C    0.048694  -0.005902  11.178696   0.373166  -1.150870   1.436195
    10  S   -0.332920  -0.000458   0.373166  18.376930  -1.358626   2.398712
    11  C    0.155726   0.000083  -1.150870  -1.358626  14.120744  -7.128709
    12  C   -0.264402  -0.000046   1.436195   2.398712  -7.128709  18.683988
    13  C    0.648471  -0.000321  -4.482310  -3.550452   3.460492  -8.497367
    14  H   -0.005031  -0.000000   0.119119   0.018616  -0.057981   0.099694
    15  S    0.002453  -0.000001  -0.458964   0.151947   0.386344  -1.023669
    16  C   -0.003893  -0.000001   0.344812  -0.047371   0.727687  -0.416507
    17  C    0.079509   0.000017  -0.716884  -0.376700  -2.610720  -0.273640
    18  H   -0.000049   0.000000  -0.005480   0.002787  -0.009682   0.005617
    19  H    0.000051   0.000000   0.008854   0.019207   0.022084  -0.027459
    20  H   -0.000435  -0.000025  -0.001388  -0.000353   0.000823  -0.002530
    21  H   -0.001167   0.000010   0.011945   0.001411  -0.003391   0.008878
    22  H    0.002758   0.000014   0.005947  -0.000845  -0.000576  -0.002752
              13         14         15         16         17         18
     1  C    0.238363   0.005555   0.001681   0.002886   0.000434  -0.000002
     2  C   -0.935916   0.007187   0.020153  -0.039838   0.001704   0.000120
     3  C   -0.708290   0.031932  -0.033251   0.012722  -0.087697   0.000132
     4  C    0.338535  -0.017946   0.015410  -0.007393   0.036899   0.000009
     5  C   -0.078554  -0.000634   0.001458  -0.001247  -0.006267  -0.000000
     6  H    0.001094  -0.000001  -0.000002   0.000001  -0.000010  -0.000000
     7  S    0.648471  -0.005031   0.002453  -0.003893   0.079509  -0.000049
     8  H   -0.000321  -0.000000  -0.000001  -0.000001   0.000017   0.000000
     9  C   -4.482310   0.119119  -0.458964   0.344812  -0.716884  -0.005480
    10  S   -3.550452   0.018616   0.151947  -0.047371  -0.376700   0.002787
    11  C    3.460492  -0.057981   0.386344   0.727687  -2.610720  -0.009682
    12  C   -8.497367   0.099694  -1.023669  -0.416507  -0.273640   0.005617
    13  C   17.769953   0.143795   0.469663  -0.328416   1.528659   0.007445
    14  H    0.143795   0.524504   0.009451   0.002159  -0.016232  -0.000002
    15  S    0.469663   0.009451  16.610350   0.230793  -0.262324  -0.020128
    16  C   -0.328416   0.002159   0.230793   5.735531  -0.277943   0.367341
    17  C    1.528659  -0.016232  -0.262324  -0.277943   8.705567   0.006556
    18  H    0.007445  -0.000002  -0.020128   0.367341   0.006556   0.474373
    19  H   -0.010959   0.000018   0.004439   0.007727   0.324864  -0.003606
    20  H    0.004663   0.000027   0.000023  -0.000009   0.000038   0.000000
    21  H   -0.010094   0.000656  -0.000393   0.000123  -0.000345  -0.000000
    22  H    0.008207   0.000133   0.000644  -0.000125   0.000637   0.000000
              19         20         21         22
     1  C    0.000003   0.059694  -0.019966  -0.024772
     2  C   -0.000394  -0.097812   0.000712  -0.011050
     3  C   -0.000843  -0.068206   0.097451  -0.080558
     4  C   -0.000038   0.456843   0.269116   0.457721
     5  C    0.000002   0.015780  -0.006370   0.005009
     6  H   -0.000000   0.002019   0.000150   0.000091
     7  S    0.000051  -0.000435  -0.001167   0.002758
     8  H    0.000000  -0.000025   0.000010   0.000014
     9  C    0.008854  -0.001388   0.011945   0.005947
    10  S    0.019207  -0.000353   0.001411  -0.000845
    11  C    0.022084   0.000823  -0.003391  -0.000576
    12  C   -0.027459  -0.002530   0.008878  -0.002752
    13  C   -0.010959   0.004663  -0.010094   0.008207
    14  H    0.000018   0.000027   0.000656   0.000133
    15  S    0.004439   0.000023  -0.000393   0.000644
    16  C    0.007727  -0.000009   0.000123  -0.000125
    17  C    0.324864   0.000038  -0.000345   0.000637
    18  H   -0.003606   0.000000  -0.000000   0.000000
    19  H    0.515143  -0.000000   0.000000   0.000000
    20  H   -0.000000   0.544303  -0.028873  -0.026241
    21  H    0.000000  -0.028873   0.556221  -0.028015
    22  H    0.000000  -0.026241  -0.028015   0.524839
 Mulliken charges:
               1
     1  C   -0.297737
     2  C    0.588527
     3  C    0.090200
     4  C   -0.780457
     5  C    0.038825
     6  H    0.132553
     7  S   -0.448358
     8  H    0.164916
     9  C    0.160874
    10  S   -0.442230
    11  C    0.048848
    12  C    0.318945
    13  C   -0.016659
    14  H    0.134982
    15  S   -0.106078
    16  C   -0.309039
    17  C   -0.056124
    18  H    0.174571
    19  H    0.140908
    20  H    0.141658
    21  H    0.151940
    22  H    0.168935
 Sum of Mulliken charges =  -0.00000
 Mulliken charges with hydrogens summed into heavy atoms:
               1
     1  C   -0.165185
     2  C    0.588527
     3  C    0.090200
     4  C   -0.317923
     5  C    0.203741
     7  S   -0.448358
     9  C    0.160874
    10  S   -0.442230
    11  C    0.048848
    12  C    0.318945
    13  C    0.118323
    15  S   -0.106078
    16  C   -0.134468
    17  C    0.084784
 Electronic spatial extent (au):  <R**2>=           4441.3822
 Charge=             -0.0000 electrons
 Dipole moment (field-independent basis, Debye):
    X=             -0.7804    Y=              0.6004    Z=             -0.8476  Tot=              1.2992
 Quadrupole moment (field-independent basis, Debye-Ang):
   XX=            -90.2678   YY=            -97.8451   ZZ=           -108.9465
   XY=             -5.9931   XZ=             -2.8644   YZ=              0.3150
 Traceless Quadrupole moment (field-independent basis, Debye-Ang):
   XX=              8.7520   YY=              1.1747   ZZ=             -9.9267
   XY=             -5.9931   XZ=             -2.8644   YZ=              0.3150
 Octapole moment (field-independent basis, Debye-Ang**2):
  XXX=            -23.5742  YYY=              0.1600  ZZZ=             -1.3108  XYY=             -5.0312
  XXY=            -15.4255  XXZ=            -26.9665  XZZ=              0.8673  YZZ=              1.3685
  YYZ=             -2.3141  XYZ=             -9.8718
 Hexadecapole moment (field-independent basis, Debye-Ang**3):
 XXXX=          -4386.8854 YYYY=          -1075.8441 ZZZZ=           -317.5581 XXXY=            -64.0842
 XXXZ=            -69.2647 YYYX=            -31.8442 YYYZ=             -7.1723 ZZZX=            -16.9397
 ZZZY=              3.6988 XXYY=           -933.9526 XXZZ=           -913.8843 YYZZ=           -237.6935
 XXYZ=             31.9054 YYXZ=             -0.3115 ZZXY=              8.0659
 N-N= 1.106427534368D+03 E-N=-6.036150478127D+03  KE= 1.614162124860D+03
 Calling FoFJK, ICntrl=      2127 FMM=F ISym2X=0 I1Cent= 0 IOpClX= 0 NMat=1 NMatS=1 NMatT=0.
 ***** Axes restored to original set *****
 -------------------------------------------------------------------
 Center     Atomic                   Forces (Hartrees/Bohr)
 Number     Number              X              Y              Z
 -------------------------------------------------------------------
      1        6           0.023123557   -0.056734382    0.005813035
      2        6           0.009058196   -0.042792761    0.004890006
      3        6          -0.034519147    0.018861444    0.006372446
      4        6           0.008197299    0.006918136    0.001773278
      5        6           0.008150331    0.049395617   -0.012165312
      6        1          -0.000762752    0.001853985   -0.000213890
      7       16          -0.006158383    0.019427767   -0.003096774
      8        1           0.003341147   -0.004333057    0.000941619
      9        6           0.025466796    0.029065679   -0.040784155
     10       16          -0.009226474    0.013678447    0.003691259
     11        6           0.002888255    0.005709800   -0.035600762
     12        6          -0.025017460   -0.023475265    0.023330024
     13        6          -0.012187579   -0.028106267    0.043324838
     14        1          -0.003624936    0.003390691    0.002820141
     15       16           0.015723417   -0.006264017    0.007935583
     16        6          -0.025734920   -0.017198800    0.049993068
     17        6           0.009697808    0.015860815   -0.053823398
     18        1           0.002614286    0.006881305   -0.000693168
     19        1           0.005809532    0.006656739    0.001684197
     20        1          -0.000662894   -0.002227110    0.000211139
     21        1           0.003073652    0.003466165   -0.001551281
     22        1           0.000750269   -0.000034930   -0.004851893
 -------------------------------------------------------------------
 Cartesian Forces:  Max     0.056734382 RMS     0.020264721

 GradGradGradGradGradGradGradGradGradGradGradGradGradGradGradGradGradGrad
 Berny optimization.
 FormGI is forming the generalized inverse of G from B-inverse, IUseBI=4.
 Internal  Forces:  Max     0.060513267 RMS     0.012146100
 Search for a local minimum.
 Step number   1 out of a maximum of  127
 All quantities printed in internal units (Hartrees-Bohrs-Radians)
 Mixed Optimization -- RFO/linear search
 Second derivative matrix not updated -- first step.
 ITU=  0
     Eigenvalues ---    0.00935   0.00982   0.01054   0.01214   0.01241
     Eigenvalues ---    0.01276   0.01297   0.01420   0.01457   0.01492
     Eigenvalues ---    0.01498   0.01592   0.01594   0.01768   0.02197
     Eigenvalues ---    0.02649   0.07307   0.07353   0.15083   0.15685
     Eigenvalues ---    0.15734   0.15997   0.16000   0.16000   0.16000
     Eigenvalues ---    0.16000   0.17993   0.22443   0.22545   0.23318
     Eigenvalues ---    0.23980   0.24718   0.24978   0.24995   0.25000
     Eigenvalues ---    0.26147   0.26544   0.28422   0.30920   0.31259
     Eigenvalues ---    0.31545   0.33757   0.33818   0.34533   0.34792
     Eigenvalues ---    0.34935   0.35272   0.35877   0.35892   0.36006
     Eigenvalues ---    0.36185   0.36202   0.36284   0.37598   0.38225
     Eigenvalues ---    0.38438   0.39458   0.39694   0.406761000.00000
     Eigenvalues --- 1000.000001000.000001000.000001000.000001000.00000
     Eigenvalues --- 1000.000001000.000001000.000001000.000001000.00000
     Eigenvalues --- 1000.000001000.000001000.000001000.000001000.00000
     Eigenvalues --- 1000.000001000.000001000.000001000.000001000.00000
     Eigenvalues --- 1000.000001000.000001000.000001000.000001000.00000
     Eigenvalues --- 1000.000001000.000001000.000001000.000001000.00000
     Eigenvalues --- 1000.000001000.000001000.000001000.000001000.00000
     Eigenvalues --- 1000.000001000.000001000.000001000.000001000.00000
     Eigenvalues --- 1000.000001000.000001000.000001000.000001000.00000
     Eigenvalues --- 1000.000001000.000001000.000001000.000001000.00000
     Eigenvalues --- 1000.000001000.000001000.000001000.000001000.00000
     Eigenvalues --- 1000.000001000.00000
 RFO step:  Lambda=-4.86053431D-02 EMin= 9.35106172D-03
 Linear search not attempted -- first point.
 Maximum step size (   0.300) exceeded in Quadratic search.
    -- Step size scaled by   0.907
 Iteration  1 RMS(Cart)=  0.10627922 RMS(Int)=  0.00328695
 Iteration  2 RMS(Cart)=  0.00497588 RMS(Int)=  0.00076722
 Iteration  3 RMS(Cart)=  0.00000925 RMS(Int)=  0.00076719
 Iteration  4 RMS(Cart)=  0.00000001 RMS(Int)=  0.00076719
 Iteration  1 RMS(Cart)=  0.00000456 RMS(Int)=  0.00000171
 Iteration  2 RMS(Cart)=  0.00000248 RMS(Int)=  0.00000191
 Iteration  3 RMS(Cart)=  0.00000136 RMS(Int)=  0.00000216
 Iteration  4 RMS(Cart)=  0.00000074 RMS(Int)=  0.00000233
 Variable       Old X    -DE/DX   Delta X   Delta X   Delta X     New X
                                 (Linear)    (Quad)   (Total)
    R1        2.71917  -0.01603   0.00000  -0.03488  -0.03480   2.68437
    R2        2.71391  -0.05050   0.00000  -0.10319  -0.10321   2.61071
    R3        2.03793   0.00172   0.00000   0.00381   0.00381   2.04173
    R4        2.75906  -0.05499   0.00000  -0.11976  -0.11967   2.63940
    R5        2.81042   0.01086   0.00000   0.02551   0.02551   2.83593
    R6        3.39578  -0.01814   0.00000  -0.04984  -0.04986   3.34592
    R7        2.74954  -0.01396   0.00000  -0.02984  -0.02984   2.71970
    R8        2.06439  -0.00070   0.00000  -0.00161  -0.00161   2.06278
    R9        2.05781   0.00264   0.00000   0.00602   0.00602   2.06383
   R10        2.07638  -0.00235   0.00000  -0.00551  -0.00551   2.07086
   R11        3.28671  -0.01656   0.00000  -0.03973  -0.03984   3.24687
   R12        2.04073  -0.00047   0.00000  -0.00104  -0.00104   2.03969
   R13        3.38335  -0.01016   0.00000  -0.02419  -0.02498   3.35837
   R14        2.76759  -0.06051   0.00000  -0.13262  -0.13313   2.63446
   R15        3.26990   0.00068   0.00000   0.00282   0.00305   3.27295
   R16        2.72395  -0.03137   0.00000  -0.06890  -0.06738   2.65657
   R17        2.69406  -0.00223   0.00000  -0.00732  -0.00665   2.68741
   R18        2.70728  -0.01257   0.00000  -0.02814  -0.02774   2.67954
   R19        3.27489   0.00154   0.00000   0.00586   0.00570   3.28059
   R20        2.03767   0.00143   0.00000   0.00317   0.00317   2.04084
   R21        3.33479  -0.01188   0.00000  -0.02824  -0.02904   3.30575
   R22        2.73157  -0.05807   0.00000  -0.12109  -0.12127   2.61029
   R23        2.04251  -0.00117   0.00000  -0.00260  -0.00260   2.03992
   R24        2.05235  -0.00350   0.00000  -0.00790  -0.00790   2.04445
    A1        1.97020   0.00798   0.00000   0.02043   0.02048   1.99068
    A2        2.17330  -0.00506   0.00000  -0.01487  -0.01490   2.15840
    A3        2.13967  -0.00292   0.00000  -0.00557  -0.00560   2.13407
    A4        1.97187  -0.00237   0.00000  -0.01173  -0.01158   1.96029
    A5        2.09905   0.01173   0.00000   0.03789   0.03780   2.13684
    A6        2.21227  -0.00935   0.00000  -0.02616  -0.02624   2.18602
    A7        1.90440   0.00481   0.00000   0.01631   0.01637   1.92077
    A8        2.31891  -0.01201   0.00000  -0.03737  -0.03741   2.28151
    A9        2.05972   0.00720   0.00000   0.02102   0.02098   2.08070
   A10        1.94548  -0.00389   0.00000  -0.01564  -0.01558   1.92990
   A11        1.93409   0.00457   0.00000   0.01897   0.01898   1.95307
   A12        1.93331   0.00269   0.00000   0.01135   0.01135   1.94466
   A13        1.87410  -0.00011   0.00000   0.00023   0.00030   1.87440
   A14        1.86607   0.00133   0.00000   0.00758   0.00763   1.87370
   A15        1.90848  -0.00489   0.00000  -0.02369  -0.02374   1.88474
   A16        1.95339  -0.00261   0.00000  -0.00968  -0.00980   1.94358
   A17        2.17580   0.00689   0.00000   0.02912   0.02918   2.20499
   A18        2.15384  -0.00428   0.00000  -0.01944  -0.01938   2.13446
   A19        1.62490  -0.00781   0.00000  -0.01533  -0.01557   1.60932
   A20        2.12893  -0.00245   0.00000  -0.00708  -0.00714   2.12179
   A21        2.24010  -0.00354   0.00000  -0.01041  -0.01047   2.22963
   A22        1.91347   0.00608   0.00000   0.01853   0.01826   1.93172
   A23        1.61900  -0.00598   0.00000  -0.01427  -0.01366   1.60534
   A24        1.96148  -0.01087   0.00000  -0.02636  -0.02771   1.93378
   A25        2.23825   0.00887   0.00000   0.05043   0.04763   2.28588
   A26        1.96636   0.00574   0.00000   0.01798   0.01804   1.98440
   A27        1.96632   0.00804   0.00000   0.02319   0.02326   1.98958
   A28        1.96558  -0.01334   0.00000  -0.03375  -0.03456   1.93102
   A29        2.23763   0.00873   0.00000   0.04757   0.04493   2.28256
   A30        1.96378   0.00278   0.00000  -0.00045   0.00021   1.96399
   A31        2.16073  -0.00492   0.00000  -0.01292  -0.01371   2.14703
   A32        2.14686   0.00262   0.00000   0.02007   0.01926   2.16611
   A33        1.59332   0.00068   0.00000   0.00424   0.00471   1.59804
   A34        1.96056   0.00102   0.00000   0.00126   0.00094   1.96150
   A35        2.13534  -0.00444   0.00000  -0.01348  -0.01481   2.12053
   A36        2.16977   0.00447   0.00000   0.02618   0.02503   2.19480
   A37        1.93862   0.00590   0.00000   0.01014   0.01069   1.94930
   A38        2.16620  -0.00017   0.00000   0.01589   0.01351   2.17971
   A39        2.14198  -0.00381   0.00000  -0.00095  -0.00340   2.13858
    D1        0.00683   0.00001   0.00000  -0.00199  -0.00195   0.00488
    D2       -3.13456   0.00046   0.00000   0.00495   0.00513  -3.12944
    D3       -3.13952  -0.00033   0.00000  -0.00597  -0.00600   3.13766
    D4        0.00227   0.00013   0.00000   0.00096   0.00107   0.00334
    D5       -0.00671  -0.00045   0.00000  -0.00704  -0.00707  -0.01378
    D6       -3.13020  -0.00047   0.00000  -0.00644  -0.00653  -3.13673
    D7        3.13954  -0.00012   0.00000  -0.00312  -0.00305   3.13649
    D8        0.01605  -0.00013   0.00000  -0.00252  -0.00251   0.01354
    D9       -0.00388   0.00048   0.00000   0.00981   0.00984   0.00596
   D10        3.11762   0.00079   0.00000   0.00702   0.00701   3.12463
   D11        3.13750  -0.00001   0.00000   0.00234   0.00254   3.14004
   D12       -0.02418   0.00031   0.00000  -0.00045  -0.00030  -0.02448
   D13        0.03777  -0.00005   0.00000   0.00079   0.00076   0.03853
   D14       -2.04840  -0.00040   0.00000  -0.00183  -0.00181  -2.05020
   D15        2.11332   0.00086   0.00000   0.00761   0.00755   2.12087
   D16       -3.10360   0.00047   0.00000   0.00876   0.00878  -3.09482
   D17        1.09342   0.00012   0.00000   0.00614   0.00621   1.09962
   D18       -1.02805   0.00138   0.00000   0.01558   0.01557  -1.01249
   D19        0.00006  -0.00059   0.00000  -0.01163  -0.01168  -0.01162
   D20       -3.12486  -0.00060   0.00000  -0.00856  -0.00845  -3.13331
   D21        2.53046  -0.00114   0.00000   0.00000  -0.00000   2.53046
   D22       -0.65521   0.00176   0.00000   0.03384   0.03394  -0.62127
   D23       -0.63263  -0.00085   0.00000  -0.00310  -0.00317  -0.63580
   D24        2.46488   0.00205   0.00000   0.03074   0.03077   2.49565
   D25        0.00376   0.00060   0.00000   0.01082   0.01065   0.01441
   D26        3.12751   0.00076   0.00000   0.01081   0.01073   3.13824
   D27        3.13723   0.00069   0.00000   0.00892   0.00898  -3.13697
   D28        0.03234  -0.00154   0.00000  -0.01870  -0.01915   0.01319
   D29       -3.13889  -0.00175   0.00000  -0.01875  -0.01846   3.12584
   D30       -0.15783   0.00188   0.00000   0.02848   0.02838  -0.12945
   D31       -0.03699   0.00071   0.00000   0.01129   0.01200  -0.02499
   D32        2.94406   0.00434   0.00000   0.05851   0.05884   3.00290
   D33       -0.02008   0.00233   0.00000   0.02259   0.02215   0.00207
   D34       -2.61679  -0.00639   0.00000  -0.06913  -0.06997  -2.68675
   D35        0.00191  -0.00196   0.00000  -0.01922  -0.01888  -0.01698
   D36       -2.68881  -0.01078   0.00000  -0.10071  -0.09788  -2.78668
   D37        2.68661   0.00737   0.00000   0.07102   0.06898   2.75559
   D38       -0.00410  -0.00145   0.00000  -0.01047  -0.01002  -0.01412
   D39        2.61510   0.00591   0.00000   0.09153   0.09362   2.70872
   D40       -0.24575  -0.00077   0.00000  -0.00253  -0.00161  -0.24736
   D41        0.01962   0.00134   0.00000   0.01071   0.01048   0.03010
   D42       -2.84123  -0.00534   0.00000  -0.08335  -0.08475  -2.92598
   D43        0.02322   0.00084   0.00000   0.00469   0.00434   0.02757
   D44       -2.95931  -0.00196   0.00000  -0.03862  -0.03957  -2.99887
   D45        2.62743   0.00429   0.00000   0.07430   0.07599   2.70341
   D46       -0.35511   0.00150   0.00000   0.03099   0.03208  -0.32302
   D47       -0.00962   0.00117   0.00000   0.00613   0.00598  -0.00364
   D48       -2.61401  -0.00759   0.00000  -0.07760  -0.07739  -2.69139
   D49        0.02090  -0.00030   0.00000   0.00022   0.00008   0.02097
   D50        2.97036   0.00592   0.00000   0.07908   0.07797   3.04832
   D51       -0.02677  -0.00043   0.00000  -0.00600  -0.00558  -0.03236
   D52        2.83865   0.00680   0.00000   0.08967   0.09016   2.92881
   D53       -2.97178  -0.00563   0.00000  -0.08148  -0.08211  -3.05389
   D54       -0.10636   0.00159   0.00000   0.01419   0.01363  -0.09273
         Item               Value     Threshold  Converged?
 Maximum Force            0.060511     0.000450     NO 
 RMS     Force            0.012197     0.000300     NO 
 Maximum Displacement     0.423553     0.001800     NO 
 RMS     Displacement     0.106459     0.001200     NO 
 Predicted change in Energy=-2.824564D-02
 GradGradGradGradGradGradGradGradGradGradGradGradGradGradGradGradGradGrad

                          Input orientation:                          
 ---------------------------------------------------------------------
 Center     Atomic      Atomic             Coordinates (Angstroms)
 Number     Number       Type             X           Y           Z
 ---------------------------------------------------------------------
      1          6           0       -4.198593   -1.365478   -0.204714
      2          6           0       -2.890088   -1.006518   -0.625202
      3          6           0       -2.015718   -2.095680   -0.625757
      4          6           0       -2.524634    0.397756   -1.008070
      5          6           0       -4.339140   -2.700788    0.120568
      6          1           0       -5.017952   -0.664874   -0.132937
      7         16           0       -2.866891   -3.557764   -0.103466
      8          1           0       -5.242864   -3.185245    0.457611
      9          6           0       -0.626855   -2.184538   -0.992456
     10         16           0        0.492974   -3.269608   -0.139843
     11          6           0        1.822724   -2.776311   -1.133893
     12          6           0        1.412807   -1.816350   -2.075544
     13          6           0        0.032746   -1.497331   -2.010386
     14          1           0       -0.481088   -0.880779   -2.732992
     15         16           0        2.532715   -1.741119   -3.399886
     16          6           0        3.536552   -2.982049   -2.683958
     17          6           0        3.020307   -3.454065   -1.492865
     18          1           0        4.392388   -3.384866   -3.204109
     19          1           0        3.395121   -4.346332   -1.009300
     20          1           0       -3.377789    1.065756   -0.876002
     21          1           0       -2.214028    0.467467   -2.052780
     22          1           0       -1.708694    0.782715   -0.386021
 ---------------------------------------------------------------------
                    Distance matrix (angstroms):
                    1          2          3          4          5
     1  C    0.000000
     2  C    1.420510   0.000000
     3  C    2.339961   1.396709   0.000000
     4  C    2.560569   1.500710   2.573399   0.000000
     5  C    1.381526   2.350845   2.514249   3.763938   0.000000
     6  H    1.080439   2.210623   3.362066   2.848100   2.161018
     7  S    2.567059   2.604150   1.770586   4.072049   1.718172
     8  H    2.200165   3.384507   3.574257   4.730210   1.079358
     9  C    3.748160   2.577756   1.439202   3.204692   3.909782
    10  S    5.063666   4.099055   2.812073   4.827974   4.872442
    11  C    6.253805   5.059796   3.931297   5.384242   6.288716
    12  C    5.932209   4.612399   3.732919   4.641682   6.220131
    13  C    4.602397   3.271481   2.543898   3.337092   5.010255
    14  H    4.521833   3.203416   2.876024   2.964134   5.132232
    15  S    7.460612   6.135577   5.339452   5.989353   7.780550
    16  C    8.282054   7.031564   5.987449   7.139304   8.364867
    17  C    7.624569   6.455703   5.287593   6.768894   7.571794
    18  H    9.320904   8.083425   7.026643   8.183887   9.368086
    19  H    8.197398   7.127814   5.872795   7.586163   7.987691
    20  H    2.652404   2.143612   3.451455   1.091577   4.013004
    21  H    3.273153   2.160479   2.940313   1.092133   4.390601
    22  H    3.293509   2.157373   2.904634   1.095854   4.394391
                    6          7          8          9         10
     6  H    0.000000
     7  S    3.605099   0.000000
     8  H    2.598385   2.469579   0.000000
     9  C    4.725451   2.773773   4.940814   0.000000
    10  S    6.095489   3.372395   5.767486   1.777173   0.000000
    11  C    7.228757   4.864663   7.254147   2.524013   1.731968
    12  C    6.815738   5.023687   7.251807   2.338560   2.589400
    13  C    5.452279   4.036040   6.064002   1.394097   2.617576
    14  H    5.233549   4.446652   6.177785   2.179565   3.657830
    15  S    8.297218   6.581971   8.799171   3.996902   4.138201
    16  C    9.222611   6.927805   9.326783   4.564117   3.977258
    17  C    8.616415   6.049818   8.494505   3.894086   2.872649
    18  H   10.265718   7.895633  10.309516   5.614713   4.960690
    19  H    9.225017   6.376141   8.838254   4.566172   3.215237
    20  H    2.497470   4.715375   4.829910   4.259766   5.858337
    21  H    3.581896   4.519794   5.368260   3.267497   4.995289
    22  H    3.620878   4.501224   5.380221   3.216012   4.618362
                   11         12         13         14         15
    11  C    0.000000
    12  C    1.405797   0.000000
    13  C    2.368133   1.417952   0.000000
    14  H    3.384924   2.212322   1.079964   0.000000
    15  S    2.590451   1.736011   2.870538   3.204362   0.000000
    16  C    2.319965   2.497862   3.864550   4.534222   1.749328
    17  C    1.422117   2.367632   3.608623   4.518792   2.609341
    18  H    3.355489   3.551310   4.898392   5.499379   2.489702
    19  H    2.225516   3.386333   4.519352   5.477789   3.639476
    20  H    6.470961   5.717976   4.414521   3.953263   7.013031
    21  H    5.259451   4.286056   2.985000   2.298595   5.405934
    22  H    5.069211   4.399250   3.296936   3.127699   5.782964
                   16         17         18         19         20
    16  C    0.000000
    17  C    1.381308   0.000000
    18  H    1.079478   2.194481   0.000000
    19  H    2.164660   1.081878   2.595408   0.000000
    20  H    8.213498   7.857795   9.252231   8.670685   0.000000
    21  H    6.735482   6.564312   7.733742   7.464856   1.759856
    22  H    6.853216   6.445066   7.907816   7.262543   1.762405
                   21         22
    21  H    0.000000
    22  H    1.769980   0.000000
 Stoichiometry    C11H8S3
 Framework group  C1[X(C11H8S3)]
 Deg. of freedom    60
 Full point group                 C1      NOp   1
 Largest Abelian subgroup         C1      NOp   1
 Largest concise Abelian subgroup C1      NOp   1
                         Standard orientation:                         
 ---------------------------------------------------------------------
 Center     Atomic      Atomic             Coordinates (Angstroms)
 Number     Number       Type             X           Y           Z
 ---------------------------------------------------------------------
      1          6           0       -3.967835    0.693423   -0.042468
      2          6           0       -2.626688    1.078740    0.223434
      3          6           0       -1.721225    0.040147   -0.005163
      4          6           0       -2.264515    2.453438    0.704234
      5          6           0       -4.105035   -0.615643   -0.462154
      6          1           0       -4.815359    1.352810    0.076947
      7         16           0       -2.581509   -1.403662   -0.562211
      8          1           0       -5.028540   -1.110886   -0.720776
      9          6           0       -0.287822    0.000166    0.117557
     10         16           0        0.558555   -1.462960    0.666420
     11          6           0        2.103316   -0.690478    0.537207
     12          6           0        1.962546    0.635857    0.093040
     13          6           0        0.621457    1.019251   -0.162057
     14          1           0        0.336009    1.951431   -0.626688
     15         16           0        3.455193    1.219394   -0.574212
     16          6           0        4.251323   -0.304062   -0.249549
     17          6           0        3.400942   -1.230843    0.321362
     18          1           0        5.261530   -0.494005   -0.579212
     19          1           0        3.658615   -2.277523    0.413698
     20          1           0       -3.161588    3.059037    0.845833
     21          1           0       -1.624966    2.978883   -0.008253
     22          1           0       -1.740302    2.415915    1.665842
 ---------------------------------------------------------------------
 Rotational constants (GHZ):           1.2370203           0.2811087           0.2410409
 Standard basis: 6-311+G(d,p) (5D, 7F)
 There are   394 symmetry adapted cartesian basis functions of A   symmetry.
 There are   380 symmetry adapted basis functions of A   symmetry.
   380 basis functions,   610 primitive gaussians,   394 cartesian basis functions
    61 alpha electrons       61 beta electrons
       nuclear repulsion energy      1122.4168058628 Hartrees.
 NAtoms=   22 NActive=   22 NUniq=   22 SFac= 1.00D+00 NAtFMM=   60 NAOKFM=F Big=F
 Integral buffers will be    131072 words long.
 Raffenetti 2 integral format.
 Two-electron integral symmetry is turned on.
 One-electron integrals computed using PRISM.
 NBasis=   380 RedAO= T EigKep=  1.85D-06  NBF=   380
 NBsUse=   378 1.00D-06 EigRej=  9.34D-07 NBFU=   378
 Initial guess from the checkpoint file:  "/tmp/pbs.4729010[320].pbs/Gau-1325065.chk"
 B after Tr=    -0.000000    0.000000   -0.000000
         Rot=    0.999969   -0.004366   -0.002188    0.006196 Ang=  -0.90 deg.
 ExpMin= 4.05D-02 ExpMax= 9.34D+04 ExpMxC= 3.17D+03 IAcc=3 IRadAn=         5 AccDes= 0.00D+00
 Harris functional with IExCor=  402 and IRadAn=       5 diagonalized for initial guess.
 HarFok:  IExCor=  402 AccDes= 0.00D+00 IRadAn=         5 IDoV= 1 UseB2=F ITyADJ=14
 ICtDFT=  3500011 ScaDFX=  1.000000  1.000000  1.000000  1.000000
 FoFCou: FMM=F IPFlag=           0 FMFlag=      100000 FMFlg1=           0
         NFxFlg=           0 DoJE=T BraDBF=F KetDBF=T FulRan=T
         wScrn=  0.000000 ICntrl=       500 IOpCl=  0 I1Cent=   200000004 NGrid=           0
         NMat0=    1 NMatS0=      1 NMatT0=    0 NMatD0=    1 NMtDS0=    0 NMtDT0=    0
 Petite list used in FoFCou.
 Requested convergence on RMS density matrix=1.00D-08 within 128 cycles.
 Requested convergence on MAX density matrix=1.00D-06.
 Requested convergence on             energy=1.00D-06.
 No special actions if energy rises.
 SCF Done:  E(RB3LYP) =  -1618.70618676     A.U. after   15 cycles
            NFock= 15  Conv=0.36D-08     -V/T= 2.0023
 Calling FoFJK, ICntrl=      2127 FMM=F ISym2X=0 I1Cent= 0 IOpClX= 0 NMat=1 NMatS=1 NMatT=0.
 ***** Axes restored to original set *****
 -------------------------------------------------------------------
 Center     Atomic                   Forces (Hartrees/Bohr)
 Number     Number              X              Y              Z
 -------------------------------------------------------------------
      1        6          -0.001694209   -0.015074764    0.003633880
      2        6           0.006749978   -0.007536975   -0.001652453
      3        6          -0.015477373   -0.000282902    0.005739410
      4        6           0.001608070    0.003111371    0.001146236
      5        6          -0.001120925    0.016295642   -0.003715423
      6        1          -0.000456526    0.001764877   -0.000256204
      7       16           0.002892956    0.002023813   -0.000813315
      8        1           0.001833812   -0.002647177    0.000577864
      9        6           0.014068317    0.009830579   -0.013867976
     10       16          -0.004879068    0.004267678    0.007678060
     11        6          -0.002786559   -0.000606561   -0.014935511
     12        6          -0.003931300   -0.014381271    0.004038780
     13        6          -0.005762274   -0.005600317    0.012143939
     14        1          -0.000108419    0.001910675    0.001790013
     15       16           0.009009223    0.004065045   -0.002081307
     16        6          -0.008762335   -0.007285317    0.014197752
     17        6           0.003839686    0.001789977   -0.014783853
     18        1           0.001477753    0.004711093   -0.000924598
     19        1           0.003156155    0.003700119    0.003732807
     20        1          -0.000481923   -0.000441150    0.000143267
     21        1           0.000155943    0.001165970    0.000180882
     22        1           0.000669018   -0.000780406   -0.001972251
 -------------------------------------------------------------------
 Cartesian Forces:  Max     0.016295642 RMS     0.006695252

 GradGradGradGradGradGradGradGradGradGradGradGradGradGradGradGradGradGrad
 Berny optimization.
 Using GEDIIS/GDIIS optimizer.
 FormGI is forming the generalized inverse of G from B-inverse, IUseBI=4.
 Internal  Forces:  Max     0.014558520 RMS     0.003268018
 Search for a local minimum.
 Step number   2 out of a maximum of  127
 All quantities printed in internal units (Hartrees-Bohrs-Radians)
 Mixed Optimization -- RFO/linear search
 Update second derivatives using D2CorX and points    1    2
 DE= -2.90D-02 DEPred=-2.82D-02 R= 1.03D+00
 TightC=F SS=  1.41D+00  RLast= 4.11D-01 DXNew= 5.0454D-01 1.2335D+00
 Trust test= 1.03D+00 RLast= 4.11D-01 DXMaxT set to 5.05D-01
 ITU=  1  0
 Use linear search instead of GDIIS.
     Eigenvalues ---    0.00934   0.00982   0.01045   0.01208   0.01239
     Eigenvalues ---    0.01272   0.01294   0.01369   0.01463   0.01479
     Eigenvalues ---    0.01500   0.01582   0.01592   0.01691   0.01983
     Eigenvalues ---    0.02234   0.07186   0.07361   0.15613   0.15684
     Eigenvalues ---    0.15868   0.15962   0.15999   0.16000   0.16000
     Eigenvalues ---    0.16029   0.19152   0.22475   0.22575   0.23456
     Eigenvalues ---    0.24352   0.24628   0.24809   0.24997   0.25254
     Eigenvalues ---    0.26037   0.26522   0.28366   0.30382   0.31008
     Eigenvalues ---    0.31416   0.33663   0.33815   0.34528   0.34615
     Eigenvalues ---    0.34942   0.35275   0.35737   0.35892   0.36006
     Eigenvalues ---    0.36102   0.36200   0.36227   0.36893   0.38191
     Eigenvalues ---    0.38988   0.39510   0.40526   0.424341000.00000
     Eigenvalues --- 1000.000001000.000001000.000001000.000001000.00000
     Eigenvalues --- 1000.000001000.000001000.000001000.000001000.00000
     Eigenvalues --- 1000.000001000.000001000.000001000.000001000.00000
     Eigenvalues --- 1000.000001000.000001000.000001000.000001000.00000
     Eigenvalues --- 1000.000001000.000001000.000001000.000001000.00000
     Eigenvalues --- 1000.000001000.000001000.000001000.000001000.00000
     Eigenvalues --- 1000.000001000.000001000.000001000.000001000.00000
     Eigenvalues --- 1000.000001000.000001000.000001000.000001000.00000
     Eigenvalues --- 1000.000001000.000001000.000001000.000001000.00000
     Eigenvalues --- 1000.000001000.000001000.000001000.000001000.00000
     Eigenvalues --- 1000.000001000.000001000.000001000.000001000.00000
     Eigenvalues --- 1000.000001000.00000
 RFO step:  Lambda=-6.76003498D-03 EMin= 9.34360736D-03
 Quartic linear search produced a step of  0.32716.
 Iteration  1 RMS(Cart)=  0.09937487 RMS(Int)=  0.00673529
 Iteration  2 RMS(Cart)=  0.00887680 RMS(Int)=  0.00217376
 Iteration  3 RMS(Cart)=  0.00004355 RMS(Int)=  0.00217340
 Iteration  4 RMS(Cart)=  0.00000005 RMS(Int)=  0.00217340
 Iteration  1 RMS(Cart)=  0.00002325 RMS(Int)=  0.00000877
 Iteration  2 RMS(Cart)=  0.00001272 RMS(Int)=  0.00000979
 Iteration  3 RMS(Cart)=  0.00000695 RMS(Int)=  0.00001106
 Iteration  4 RMS(Cart)=  0.00000380 RMS(Int)=  0.00001191
 Iteration  5 RMS(Cart)=  0.00000208 RMS(Int)=  0.00001240
 Iteration  6 RMS(Cart)=  0.00000114 RMS(Int)=  0.00001268
 Iteration  7 RMS(Cart)=  0.00000062 RMS(Int)=  0.00001283
 Variable       Old X    -DE/DX   Delta X   Delta X   Delta X     New X
                                 (Linear)    (Quad)   (Total)
    R1        2.68437   0.00204  -0.01138   0.01947   0.00812   2.69249
    R2        2.61071  -0.01197  -0.03377   0.00029  -0.03350   2.57720
    R3        2.04173   0.00147   0.00125   0.00376   0.00500   2.04673
    R4        2.63940  -0.00926  -0.03915   0.01384  -0.02526   2.61414
    R5        2.83593   0.00346   0.00834   0.00320   0.01154   2.84747
    R6        3.34592  -0.00512  -0.01631  -0.00369  -0.02000   3.32592
    R7        2.71970   0.00575  -0.00976   0.03101   0.02125   2.74095
    R8        2.06278   0.00012  -0.00053   0.00108   0.00056   2.06334
    R9        2.06383  -0.00005   0.00197  -0.00253  -0.00056   2.06327
   R10        2.07086  -0.00090  -0.00180  -0.00124  -0.00305   2.06782
   R11        3.24687   0.00084  -0.01303   0.01912   0.00604   3.25292
   R12        2.03969  -0.00017  -0.00034  -0.00019  -0.00053   2.03916
   R13        3.35837  -0.00222  -0.00817   0.00813  -0.00249   3.35588
   R14        2.63446  -0.01456  -0.04356   0.00361  -0.04164   2.59282
   R15        3.27295   0.00479   0.00100   0.01600   0.01780   3.29075
   R16        2.65657  -0.00777  -0.02204  -0.01089  -0.02855   2.62802
   R17        2.68741   0.00146  -0.00218   0.00397   0.00337   2.69079
   R18        2.67954   0.00120  -0.00908   0.01125   0.00335   2.68289
   R19        3.28059   0.00472   0.00186   0.01563   0.01726   3.29784
   R20        2.04084  -0.00006   0.00104  -0.00141  -0.00038   2.04046
   R21        3.30575  -0.00241  -0.00950   0.00834  -0.00317   3.30258
   R22        2.61029  -0.01337  -0.03968   0.00473  -0.03554   2.57475
   R23        2.03992  -0.00014  -0.00085   0.00050  -0.00035   2.03957
   R24        2.04445  -0.00029  -0.00258   0.00200  -0.00059   2.04387
    A1        1.99068   0.00023   0.00670  -0.00873  -0.00200   1.98867
    A2        2.15840  -0.00124  -0.00488  -0.00226  -0.00715   2.15125
    A3        2.13407   0.00101  -0.00183   0.01100   0.00915   2.14322
    A4        1.96029  -0.00067  -0.00379   0.00107  -0.00273   1.95756
    A5        2.13684   0.00104   0.01237  -0.01029   0.00191   2.13875
    A6        2.18602  -0.00038  -0.00859   0.00906   0.00031   2.18633
    A7        1.92077   0.00173   0.00536   0.00283   0.00824   1.92901
    A8        2.28151  -0.00352  -0.01224  -0.00273  -0.01503   2.26648
    A9        2.08070   0.00181   0.00686   0.00013   0.00694   2.08764
   A10        1.92990  -0.00102  -0.00510   0.00041  -0.00466   1.92524
   A11        1.95307   0.00152   0.00621   0.00161   0.00783   1.96090
   A12        1.94466   0.00027   0.00371  -0.00298   0.00073   1.94539
   A13        1.87440  -0.00029   0.00010  -0.00293  -0.00281   1.87159
   A14        1.87370   0.00090   0.00249   0.00612   0.00863   1.88233
   A15        1.88474  -0.00143  -0.00777  -0.00207  -0.00985   1.87489
   A16        1.94358   0.00058  -0.00321   0.00692   0.00360   1.94719
   A17        2.20499   0.00301   0.00955   0.01108   0.02059   2.22558
   A18        2.13446  -0.00358  -0.00634  -0.01766  -0.02404   2.11042
   A19        1.60932  -0.00187  -0.00509  -0.00188  -0.00703   1.60229
   A20        2.12179  -0.00359  -0.00234  -0.01633  -0.01857   2.10323
   A21        2.22963   0.00189  -0.00342   0.01288   0.00955   2.23918
   A22        1.93172   0.00171   0.00597   0.00357   0.00894   1.94067
   A23        1.60534  -0.00173  -0.00447  -0.00799  -0.01026   1.59507
   A24        1.93378  -0.00218  -0.00906   0.00831  -0.00336   1.93042
   A25        2.28588   0.00376   0.01558   0.04309   0.04819   2.33408
   A26        1.98440   0.00058   0.00590  -0.00055   0.00440   1.98879
   A27        1.98958   0.00043   0.00761  -0.00317   0.00356   1.99314
   A28        1.93102  -0.00172  -0.01131   0.01408   0.00047   1.93149
   A29        2.28256   0.00336   0.01470   0.03997   0.04454   2.32711
   A30        1.96399   0.00177   0.00007  -0.00062   0.00120   1.96519
   A31        2.14703  -0.00121  -0.00448   0.00780   0.00070   2.14773
   A32        2.16611  -0.00030   0.00630   0.00004   0.00370   2.16981
   A33        1.59804  -0.00212   0.00154  -0.01861  -0.01443   1.58361
   A34        1.96150   0.00247   0.00031   0.01609   0.01505   1.97655
   A35        2.12053  -0.00456  -0.00484  -0.02047  -0.02997   2.09056
   A36        2.19480   0.00255   0.00819   0.01747   0.02089   2.21570
   A37        1.94930   0.00081   0.00350  -0.01024  -0.00508   1.94423
   A38        2.17971  -0.00059   0.00442   0.00709   0.00485   2.18456
   A39        2.13858   0.00058  -0.00111   0.02299   0.01527   2.15385
    D1        0.00488  -0.00007  -0.00064  -0.00990  -0.01055  -0.00566
    D2       -3.12944   0.00045   0.00168   0.01412   0.01583  -3.11361
    D3        3.13766  -0.00021  -0.00196  -0.00866  -0.01070   3.12696
    D4        0.00334   0.00031   0.00035   0.01536   0.01567   0.01901
    D5       -0.01378   0.00009  -0.00231   0.01450   0.01216  -0.00162
    D6       -3.13673  -0.00029  -0.00214  -0.00541  -0.00778   3.13867
    D7        3.13649   0.00024  -0.00100   0.01336   0.01241  -3.13429
    D8        0.01354  -0.00014  -0.00082  -0.00655  -0.00754   0.00600
    D9        0.00596   0.00004   0.00322   0.00087   0.00411   0.01007
   D10        3.12463   0.00071   0.00229   0.01334   0.01554   3.14017
   D11        3.14004  -0.00048   0.00083  -0.02405  -0.02312   3.11692
   D12       -0.02448   0.00018  -0.00010  -0.01158  -0.01169  -0.03617
   D13        0.03853   0.00010   0.00025   0.02196   0.02218   0.06071
   D14       -2.05020   0.00015  -0.00059   0.02433   0.02373  -2.02648
   D15        2.12087   0.00073   0.00247   0.02797   0.03041   2.15128
   D16       -3.09482   0.00069   0.00287   0.04922   0.05211  -3.04271
   D17        1.09962   0.00074   0.00203   0.05159   0.05366   1.15328
   D18       -1.01249   0.00132   0.00509   0.05523   0.06034  -0.95215
   D19       -0.01162   0.00002  -0.00382   0.00616   0.00225  -0.00937
   D20       -3.13331  -0.00047  -0.00277  -0.00463  -0.00751  -3.14082
   D21        2.53046  -0.00139  -0.00000   0.00000   0.00000   2.53046
   D22       -0.62127   0.00051   0.01110   0.01617   0.02754  -0.59373
   D23       -0.63580  -0.00069  -0.00104   0.01345   0.01229  -0.62352
   D24        2.49565   0.00121   0.01007   0.02962   0.03983   2.53547
   D25        0.01441  -0.00005   0.00349  -0.01160  -0.00818   0.00624
   D26        3.13824   0.00038   0.00351   0.00772   0.01080  -3.13415
   D27       -3.13697   0.00066   0.00294   0.01166   0.01429  -3.12269
   D28        0.01319  -0.00095  -0.00627  -0.00208  -0.00893   0.00426
   D29        3.12584  -0.00093  -0.00604  -0.01124  -0.01711   3.10873
   D30       -0.12945   0.00148   0.00928   0.05625   0.06550  -0.06395
   D31       -0.02499   0.00077   0.00393   0.00338   0.00821  -0.01679
   D32        3.00290   0.00318   0.01925   0.07087   0.09081   3.09372
   D33        0.00207   0.00092   0.00725   0.00029   0.00743   0.00950
   D34       -2.68675  -0.00476  -0.02289  -0.13538  -0.16112  -2.84787
   D35       -0.01698  -0.00059  -0.00618   0.00167  -0.00412  -0.02109
   D36       -2.78668  -0.00596  -0.03202  -0.11968  -0.14570  -2.93238
   D37        2.75559   0.00509   0.02257   0.12410   0.14135   2.89693
   D38       -0.01412  -0.00027  -0.00328   0.00274  -0.00024  -0.01436
[...]
     16          6           0        4.304824   -0.250114    0.031028
     17          6           0        3.428428   -1.235710    0.384382
     18          1           0        5.383203   -0.293683    0.031373
     19          1           0        3.734846   -2.216907    0.719237
     20          1           0       -2.875499    2.930503    1.340205
     21          1           0       -1.956915    3.146426   -0.146839
     22          1           0       -1.185268    2.411484    1.260128
 ---------------------------------------------------------------------
 Rotational constants (GHZ):           1.2722049           0.2783796           0.2371488

 **********************************************************************

            Population analysis using the SCF Density.

 **********************************************************************

 Orbital symmetries:
       Occupied  (A) (A) (A) (A) (A) (A) (A) (A) (A) (A) (A) (A)
                 (A) (A) (A) (A) (A) (A) (A) (A) (A) (A) (A) (A)
                 (A) (A) (A) (A) (A) (A) (A) (A) (A) (A) (A) (A)
                 (A) (A) (A) (A) (A) (A) (A) (A) (A) (A) (A) (A)
                 (A) (A) (A) (A) (A) (A) (A) (A) (A) (A) (A) (A)
                 (A)
       Virtual   (A) (A) (A) (A) (A) (A) (A) (A) (A) (A) (A) (A)
                 (A) (A) (A) (A) (A) (A) (A) (A) (A) (A) (A) (A)
                 (A) (A) (A) (A) (A) (A) (A) (A) (A) (A) (A) (A)
                 (A) (A) (A) (A) (A) (A) (A) (A) (A) (A) (A) (A)
                 (A) (A) (A) (A) (A) (A) (A) (A) (A) (A) (A) (A)
                 (A) (A) (A) (A) (A) (A) (A) (A) (A) (A) (A) (A)
                 (A) (A) (A) (A) (A) (A) (A) (A) (A) (A) (A) (A)
                 (A) (A) (A) (A) (A) (A) (A) (A) (A) (A) (A) (A)
                 (A) (A) (A) (A) (A) (A) (A) (A) (A) (A) (A) (A)
                 (A) (A) (A) (A) (A) (A) (A) (A) (A) (A) (A) (A)
                 (A) (A) (A) (A) (A) (A) (A) (A) (A) (A) (A) (A)
                 (A) (A) (A) (A) (A) (A) (A) (A) (A) (A) (A) (A)
                 (A) (A) (A) (A) (A) (A) (A) (A) (A) (A) (A) (A)
                 (A) (A) (A) (A) (A) (A) (A) (A) (A) (A) (A) (A)
                 (A) (A) (A) (A) (A) (A) (A) (A) (A) (A) (A) (A)
                 (A) (A) (A) (A) (A) (A) (A) (A) (A) (A) (A) (A)
                 (A) (A) (A) (A) (A) (A) (A) (A) (A) (A) (A) (A)
                 (A) (A) (A) (A) (A) (A) (A) (A) (A) (A) (A) (A)
                 (A) (A) (A) (A) (A) (A) (A) (A) (A) (A) (A) (A)
                 (A) (A) (A) (A) (A) (A) (A) (A) (A) (A) (A) (A)
                 (A) (A) (A) (A) (A) (A) (A) (A) (A) (A) (A) (A)
                 (A) (A) (A) (A) (A) (A) (A) (A) (A) (A) (A) (A)
                 (A) (A) (A) (A) (A) (A) (A) (A) (A) (A) (A) (A)
                 (A) (A) (A) (A) (A) (A) (A) (A) (A) (A) (A) (A)
                 (A) (A) (A) (A) (A) (A) (A) (A) (A) (A) (A) (A)
                 (A) (A) (A) (A) (A) (A) (A) (A) (A) (A) (A) (A)
                 (A) (A) (A) (A) (A)
 The electronic state is 1-A.
 Alpha  occ. eigenvalues --  -88.88465 -88.88291 -88.88051 -10.22475 -10.21577
 Alpha  occ. eigenvalues --  -10.21191 -10.21118 -10.21048 -10.20510 -10.19368
 Alpha  occ. eigenvalues --  -10.19344 -10.19317 -10.18166 -10.17708  -7.97040
 Alpha  occ. eigenvalues --   -7.96871  -7.96672  -5.93352  -5.93191  -5.92987
 Alpha  occ. eigenvalues --   -5.92967  -5.92829  -5.92589  -5.92588  -5.92395
 Alpha  occ. eigenvalues --   -5.92259  -0.91708  -0.89272  -0.84949  -0.78000
 Alpha  occ. eigenvalues --   -0.76940  -0.75862  -0.71453  -0.70561  -0.68143
 Alpha  occ. eigenvalues --   -0.61480  -0.57506  -0.57178  -0.54158  -0.52112
 Alpha  occ. eigenvalues --   -0.50040  -0.49754  -0.44601  -0.43846  -0.43667
 Alpha  occ. eigenvalues --   -0.42003  -0.41573  -0.40168  -0.39719  -0.38980
 Alpha  occ. eigenvalues --   -0.37872  -0.37778  -0.36457  -0.35039  -0.34274
 Alpha  occ. eigenvalues --   -0.33930  -0.29222  -0.26270  -0.25443  -0.23796
 Alpha  occ. eigenvalues --   -0.20943
 Alpha virt. eigenvalues --   -0.05852  -0.02054  -0.00766  -0.00461   0.00293
 Alpha virt. eigenvalues --    0.00702   0.00982   0.01493   0.02021   0.02763
 Alpha virt. eigenvalues --    0.02977   0.03375   0.03819   0.04244   0.04564
 Alpha virt. eigenvalues --    0.05286   0.05419   0.05682   0.05979   0.06673
 Alpha virt. eigenvalues --    0.06960   0.07276   0.07869   0.08518   0.08759
 Alpha virt. eigenvalues --    0.08901   0.09520   0.10242   0.10710   0.11144
 Alpha virt. eigenvalues --    0.11612   0.12164   0.12281   0.12879   0.13161
 Alpha virt. eigenvalues --    0.13772   0.14250   0.14484   0.14747   0.15462
 Alpha virt. eigenvalues --    0.15928   0.16014   0.16668   0.16842   0.17271
 Alpha virt. eigenvalues --    0.17626   0.18094   0.18527   0.18908   0.19186
 Alpha virt. eigenvalues --    0.19405   0.19822   0.20351   0.20630   0.20934
 Alpha virt. eigenvalues --    0.21364   0.21453   0.21857   0.22185   0.22714
 Alpha virt. eigenvalues --    0.22848   0.23241   0.23897   0.24846   0.25428
 Alpha virt. eigenvalues --    0.25715   0.25791   0.26226   0.26794   0.27373
 Alpha virt. eigenvalues --    0.27920   0.28438   0.28963   0.30357   0.31527
 Alpha virt. eigenvalues --    0.31933   0.33345   0.33469   0.33800   0.34264
 Alpha virt. eigenvalues --    0.35097   0.35677   0.35832   0.38297   0.39052
 Alpha virt. eigenvalues --    0.39460   0.41792   0.42588   0.43978   0.44502
 Alpha virt. eigenvalues --    0.44766   0.45853   0.47828   0.48153   0.49808
 Alpha virt. eigenvalues --    0.50829   0.52043   0.54050   0.55250   0.55499
 Alpha virt. eigenvalues --    0.56213   0.56643   0.57455   0.58672   0.58892
 Alpha virt. eigenvalues --    0.59802   0.60958   0.61859   0.62315   0.63026
 Alpha virt. eigenvalues --    0.63867   0.64526   0.65114   0.65776   0.66903
 Alpha virt. eigenvalues --    0.68803   0.69413   0.70403   0.71187   0.71547
 Alpha virt. eigenvalues --    0.72395   0.73006   0.73842   0.74447   0.75333
 Alpha virt. eigenvalues --    0.76571   0.77379   0.77933   0.78766   0.79106
 Alpha virt. eigenvalues --    0.79254   0.81033   0.82077   0.82173   0.82469
 Alpha virt. eigenvalues --    0.83439   0.83901   0.84284   0.86485   0.87171
 Alpha virt. eigenvalues --    0.88138   0.88292   0.88949   0.89630   0.90943
 Alpha virt. eigenvalues --    0.91703   0.93556   0.94886   0.96704   0.97294
 Alpha virt. eigenvalues --    0.98193   0.99460   1.01504   1.02804   1.03499
 Alpha virt. eigenvalues --    1.03755   1.05144   1.05532   1.06275   1.07709
 Alpha virt. eigenvalues --    1.09133   1.10918   1.12666   1.13503   1.18403
 Alpha virt. eigenvalues --    1.18873   1.20634   1.22434   1.26148   1.33963
 Alpha virt. eigenvalues --    1.34358   1.35228   1.35955   1.38129   1.39932
 Alpha virt. eigenvalues --    1.42553   1.43718   1.47771   1.51402   1.51826
 Alpha virt. eigenvalues --    1.55599   1.55791   1.56674   1.58040   1.58656
 Alpha virt. eigenvalues --    1.60027   1.60487   1.61684   1.62267   1.63476
 Alpha virt. eigenvalues --    1.66597   1.66701   1.69135   1.70397   1.72407
 Alpha virt. eigenvalues --    1.72636   1.73509   1.74593   1.75740   1.77200
 Alpha virt. eigenvalues --    1.77451   1.80508   1.82159   1.83156   1.84063
 Alpha virt. eigenvalues --    1.84816   1.87622   1.88640   1.90448   1.92602
 Alpha virt. eigenvalues --    1.93825   1.95711   1.97329   1.97473   1.98861
 Alpha virt. eigenvalues --    2.01644   2.03230   2.04427   2.06639   2.07111
 Alpha virt. eigenvalues --    2.07946   2.08443   2.10108   2.10665   2.12539
 Alpha virt. eigenvalues --    2.14072   2.15266   2.16787   2.18259   2.18933
 Alpha virt. eigenvalues --    2.21135   2.25654   2.30800   2.34746   2.37466
 Alpha virt. eigenvalues --    2.40320   2.41068   2.43209   2.45192   2.48339
 Alpha virt. eigenvalues --    2.52792   2.53085   2.56440   2.59719   2.60973
 Alpha virt. eigenvalues --    2.62100   2.63002   2.68639   2.70260   2.70438
 Alpha virt. eigenvalues --    2.71195   2.72247   2.73300   2.74026   2.74834
 Alpha virt. eigenvalues --    2.77688   2.80305   2.83158   2.83643   2.87429
 Alpha virt. eigenvalues --    2.90758   2.93749   2.94737   2.96014   3.01945
 Alpha virt. eigenvalues --    3.02468   3.05669   3.07087   3.11759   3.13675
 Alpha virt. eigenvalues --    3.18119   3.20765   3.28858   3.29554   3.30818
 Alpha virt. eigenvalues --    3.36758   3.41911   3.44955   3.47415   3.53484
 Alpha virt. eigenvalues --    3.57391   3.69209   3.79750   3.82801   3.93839
 Alpha virt. eigenvalues --    3.97221   4.06776   4.12145   4.33651   4.36693
 Alpha virt. eigenvalues --    4.57870   7.98268   7.99599   8.01429  17.28102
 Alpha virt. eigenvalues --   17.29555  17.30464  17.45171  17.46056  17.50950
 Alpha virt. eigenvalues --   17.51948  17.54917  17.57090  23.47363  23.64178
 Alpha virt. eigenvalues --   23.77724  23.81372  23.85793  23.95074  24.02065
 Alpha virt. eigenvalues --   24.07699  24.11214  24.14973  24.15600 189.15282
 Alpha virt. eigenvalues --  189.16737 189.18658
          Condensed to atoms (all electrons):
               1          2          3          4          5          6
     1  C   11.272751  -5.735668   3.188718  -2.009132  -0.865421   0.369734
     2  C   -5.735668  18.637466  -7.018860   1.278321   1.967015  -0.055318
     3  C    3.188718  -7.018860  13.140574  -1.735090  -1.340492   0.022540
     4  C   -2.009132   1.278321  -1.735090   7.946591   0.166042   0.007727
     5  C   -0.865421   1.967015  -1.340492   0.166042   5.942759  -0.012909
     6  H    0.369734  -0.055318   0.022540   0.007727  -0.012909   0.536453
     7  S   -0.860275  -0.106672  -1.013685   0.531898   0.035980   0.012394
     8  H    0.019155  -0.024929   0.013211   0.001524   0.379249  -0.005641
     9  C    0.035723  -0.759694  -0.123746   0.012232  -0.033136  -0.003447
    10  S   -0.246566   1.467167  -0.069648   0.178716   0.117557  -0.000412
    11  C    0.149418  -0.810110  -0.016406  -0.073074  -0.055705  -0.000323
    12  C   -0.717671   2.046659  -0.491342   0.879740   0.185873   0.000377
    13  C    1.261969  -4.351091   0.910538  -1.282421  -0.387849   0.002326
    14  H   -0.005173   0.080812  -0.042844   0.027243   0.004266  -0.000004
    15  S   -0.003898   0.012437  -0.036232  -0.010894   0.002398   0.000007
    16  C   -0.006685   0.040892   0.016335   0.020540   0.001313  -0.000001
    17  C    0.046838  -0.429226   0.021346  -0.067489  -0.017888  -0.000015
    18  H    0.000000  -0.000044  -0.000214  -0.000013  -0.000001   0.000000
    19  H   -0.000006   0.000099  -0.000534   0.000015   0.000007  -0.000000
    20  H    0.025795  -0.060578  -0.040310   0.419176   0.017386   0.001524
    21  H    0.052109  -0.014897  -0.009845   0.343311  -0.002313   0.000054
    22  H   -0.049832  -0.135790   0.110430   0.395827  -0.008020   0.000103
               7          8          9         10         11         12
     1  C   -0.860275   0.019155   0.035723  -0.246566   0.149418  -0.717671
     2  C   -0.106672  -0.024929  -0.759694   1.467167  -0.810110   2.046659
     3  C   -1.013685   0.013211  -0.123746  -0.069648  -0.016406  -0.491342
     4  C    0.531898   0.001524   0.012232   0.178716  -0.073074   0.879740
     5  C    0.035980   0.379249  -0.033136   0.117557  -0.055705   0.185873
     6  H    0.012394  -0.005641  -0.003447  -0.000412  -0.000323   0.000377
     7  S   17.789686  -0.020937  -0.113600  -0.222487   0.045166   0.001024
     8  H   -0.020937   0.485330  -0.005999  -0.000209  -0.000104  -0.000241
     9  C   -0.113600  -0.005999   9.849695   0.168210  -0.875594  -0.669169
    10  S   -0.222487  -0.000209   0.168210  18.287784  -0.013142   1.216466
    11  C    0.045166  -0.000104  -0.875594  -0.013142  15.783613  -4.360173
    12  C    0.001024  -0.000241  -0.669169   1.216466  -4.360173  17.470660
    13  C    0.313499  -0.000274  -1.078868  -3.299934   0.110343  -8.760415
    14  H   -0.005259  -0.000001   0.024513   0.021482  -0.067440   0.122136
    15  S   -0.001420  -0.000002  -0.734883   0.158259   0.444901  -0.275595
    16  C   -0.007642  -0.000000  -0.078665   0.166949   1.007801  -0.222682
    17  C    0.032677  -0.000009  -0.114818  -1.355157  -5.670206  -0.088193
    18  H    0.000006   0.000000   0.004200  -0.001685   0.005468   0.025267
    19  H    0.000061   0.000000  -0.007433   0.019865   0.034647  -0.066379
    20  H    0.001344  -0.000016  -0.014567  -0.000607  -0.001796   0.007759
    21  H   -0.001412   0.000001   0.033485   0.001857   0.001779  -0.020865
    22  H    0.007933   0.000016  -0.003528  -0.005268  -0.011435  -0.028851
              13         14         15         16         17         18
     1  C    1.261969  -0.005173  -0.003898  -0.006685   0.046838   0.000000
     2  C   -4.351091   0.080812   0.012437   0.040892  -0.429226  -0.000044
     3  C    0.910538  -0.042844  -0.036232   0.016335   0.021346  -0.000214
     4  C   -1.282421   0.027243  -0.010894   0.020540  -0.067489  -0.000013
     5  C   -0.387849   0.004266   0.002398   0.001313  -0.017888  -0.000001
     6  H    0.002326  -0.000004   0.000007  -0.000001  -0.000015   0.000000
     7  S    0.313499  -0.005259  -0.001420  -0.007642   0.032677   0.000006
     8  H   -0.000274  -0.000001  -0.000002  -0.000000  -0.000009   0.000000
     9  C   -1.078868   0.024513  -0.734883  -0.078665  -0.114818   0.004200
    10  S   -3.299934   0.021482   0.158259   0.166949  -1.355157  -0.001685
    11  C    0.110343  -0.067440   0.444901   1.007801  -5.670206   0.005468
    12  C   -8.760415   0.122136  -0.275595  -0.222682  -0.088193   0.025267
    13  C   20.823265   0.178876  -0.559196  -0.824243   2.440814   0.008234
    14  H    0.178876   0.521973   0.011667   0.002876  -0.009545  -0.000006
    15  S   -0.559196   0.011667  17.374951   0.422494  -0.376275  -0.042328
    16  C   -0.824243   0.002876   0.422494   5.855002  -0.630654   0.372010
    17  C    2.440814  -0.009545  -0.376275  -0.630654  11.999460  -0.011338
    18  H    0.008234  -0.000006  -0.042328   0.372010  -0.011338   0.477991
    19  H   -0.007183   0.000007   0.012806   0.029275   0.333167  -0.004964
    20  H    0.006076   0.000409   0.000214   0.000004  -0.000220   0.000000
    21  H   -0.028294  -0.000829  -0.000384  -0.000008   0.000556   0.000000
    22  H    0.093076  -0.001929   0.001938  -0.000554  -0.000283   0.000000
              19         20         21         22
     1  C   -0.000006   0.025795   0.052109  -0.049832
     2  C    0.000099  -0.060578  -0.014897  -0.135790
     3  C   -0.000534  -0.040310  -0.009845   0.110430
     4  C    0.000015   0.419176   0.343311   0.395827
     5  C    0.000007   0.017386  -0.002313  -0.008020
     6  H   -0.000000   0.001524   0.000054   0.000103
     7  S    0.000061   0.001344  -0.001412   0.007933
     8  H    0.000000  -0.000016   0.000001   0.000016
     9  C   -0.007433  -0.014567   0.033485  -0.003528
    10  S    0.019865  -0.000607   0.001857  -0.005268
    11  C    0.034647  -0.001796   0.001779  -0.011435
    12  C   -0.066379   0.007759  -0.020865  -0.028851
    13  C   -0.007183   0.006076  -0.028294   0.093076
    14  H    0.000007   0.000409  -0.000829  -0.001929
    15  S    0.012806   0.000214  -0.000384   0.001938
    16  C    0.029275   0.000004  -0.000008  -0.000554
    17  C    0.333167  -0.000220   0.000556  -0.000283
    18  H   -0.004964   0.000000   0.000000   0.000000
    19  H    0.520829   0.000000  -0.000000  -0.000000
    20  H    0.000000   0.543237  -0.027676  -0.021841
    21  H   -0.000000  -0.027676   0.538614  -0.032300
    22  H   -0.000000  -0.021841  -0.032300   0.526935
 Mulliken charges:
               1
     1  C    0.078117
     2  C   -0.027991
     3  C    0.515557
     4  C   -1.030788
     5  C   -0.096110
     6  H    0.124831
     7  S   -0.418280
     8  H    0.159875
     9  C    0.489088
    10  S   -0.589195
    11  C    0.372370
    12  C   -0.254385
    13  C    0.430751
    14  H    0.136771
    15  S   -0.400964
    16  C   -0.164357
    17  C   -0.103544
    18  H    0.167414
    19  H    0.135721
    20  H    0.144687
    21  H    0.167059
    22  H    0.163373
 Sum of Mulliken charges =  -0.00000
 Mulliken charges with hydrogens summed into heavy atoms:
               1
     1  C    0.202948
     2  C   -0.027991
     3  C    0.515557
     4  C   -0.555670
     5  C    0.063765
     7  S   -0.418280
     9  C    0.489088
    10  S   -0.589195
    11  C    0.372370
    12  C   -0.254385
    13  C    0.567522
    15  S   -0.400964
    16  C    0.003056
    17  C    0.032178
 Electronic spatial extent (au):  <R**2>=           4358.7319
 Charge=             -0.0000 electrons
 Dipole moment (field-independent basis, Debye):
    X=             -0.2918    Y=              0.8730    Z=              0.2231  Tot=              0.9471
 Quadrupole moment (field-independent basis, Debye-Ang):
   XX=            -88.2458   YY=            -98.3603   ZZ=           -108.6203
   XY=             -5.0365   XZ=              0.7943   YZ=             -0.7103
 Traceless Quadrupole moment (field-independent basis, Debye-Ang):
   XX=             10.1630   YY=              0.0485   ZZ=            -10.2115
   XY=             -5.0365   XZ=              0.7943   YZ=             -0.7103
 Octapole moment (field-independent basis, Debye-Ang**2):
  XXX=              1.0053  YYY=              2.8701  ZZZ=              0.6542  XYY=             -4.4139
  XXY=            -14.7263  XXZ=              2.1163  XZZ=             -0.8428  YZZ=              1.3054
  YYZ=              1.5773  XYZ=            -11.2880
 Hexadecapole moment (field-independent basis, Debye-Ang**3):
 XXXX=          -4199.1126 YYYY=          -1066.5897 ZZZZ=           -255.3310 XXXY=            -20.9167
 XXXZ=             26.5745 YYYX=            -27.6185 YYYZ=            -11.7363 ZZZX=             -4.8127
 ZZZY=              1.8473 XXYY=           -932.5633 XXZZ=           -911.8832 YYZZ=           -222.3917
 XXYZ=              8.9922 YYXZ=              6.0864 ZZXY=              0.2381
 N-N= 1.121820492726D+03 E-N=-6.067959093627D+03  KE= 1.615142632455D+03
 Unable to Open any file for archive entry.
 1\1\GINC-CX3-12-21\FOpt\RB3LYP\6-311+G(d,p)\C11H8S3\NS5018\17-Oct-2021
 \0\\# opt=modredundant b3lyp/6-311+g(d,p)\\pBTTT_145.pdb\\0,1\C,-4.200
 1843475,-1.298856496,-0.1559227977\C,-2.8830233495,-1.0242721759,-0.63
 74988069\C,-2.0918100319,-2.1581807101,-0.657704552\C,-2.4375900419,0.
 3575551151,-1.031476155\C,-4.4036688887,-2.6042065969,0.1834932396\H,-
 4.9617153746,-0.5355691822,-0.0545668224\S,-2.9893273904,-3.5583212797
 ,-0.0897956816\H,-5.2959062977,-3.063167608,0.5808728576\C,-0.71549479
 38,-2.3029131328,-1.0980552509\S,0.3712368164,-3.4344961846,-0.2691961
 627\C,1.677135336,-3.0310966562,-1.348583351\C,1.2748135806,-2.0689918
 438,-2.2655644454\C,-0.0782186794,-1.6601403484,-2.1337298171\H,-0.575
 9760962,-0.9591006692,-2.7874335495\S,2.5830864658,-1.6650618648,-3.34
 59994552\C,3.6360918886,-2.8011767862,-2.5334589168\C,3.0283328095,-3.
 4528788444,-1.4989340424\H,4.6521680328,-2.9138400063,-2.8794321486\H,
 3.5236413718,-4.1905317097,-0.8830569509\H,-2.9788956379,1.1115319517,
 -0.4550100157\H,-2.6320337147,0.5592246781,-2.0909688962\H,-1.36866165
 72,0.4984903503,-0.8599782791\\Version=ES64L-G16RevC.01\State=1-A\HF=-
 1618.717294\RMSD=4.935e-09\RMSF=1.888e-04\Dipole=-0.1124214,0.3525405,
 -0.0439167\Quadrupole=6.9084794,-1.5347179,-5.3737615,-4.6751842,-2.50
 69156,-2.0959621\PG=C01 [X(C11H8S3)]\\@
 The archive entry for this job was punched.


 KNOWLEDGE IS OF TWO KINDS:  WE KNOW A SUBJECT OURSELVES OR WE KNOW 
 WHERE WE CAN FIND INFORMATION UPON IT.

                                    -- SAMUEL JOHNSON
 Job cpu time:       0 days  2 hours 25 minutes 11.8 seconds.
 Elapsed time:       0 days  0 hours 18 minutes 23.0 seconds.
 File lengths (MBytes):  RWF=     91 Int=      0 D2E=      0 Chk=     11 Scr=      1
 Normal termination of Gaussian 16 at Sun Oct 17 01:22:44 2021.
