 Entering Gaussian System, Link 0=g16
 Input=pBTTT_-105.gjf
 Output=pBTTT_-105.log
 Initial command:
 /apps/gaussian/g16-c01-avx/g16/l1.exe "/tmp/pbs.4729010[70].pbs/Gau-4070319.inp" -scrdir="/tmp/pbs.4729010[70].pbs/"
 Entering Link 1 = /apps/gaussian/g16-c01-avx/g16/l1.exe PID=   4070320.
  
 Copyright (c) 1988-2019, Gaussian, Inc.  All Rights Reserved.
  
 This is part of the Gaussian(R) 16 program.  It is based on
 the Gaussian(R) 09 system (copyright 2009, Gaussian, Inc.),
 the Gaussian(R) 03 system (copyright 2003, Gaussian, Inc.),
 the Gaussian(R) 98 system (copyright 1998, Gaussian, Inc.),
 the Gaussian(R) 94 system (copyright 1995, Gaussian, Inc.),
 the Gaussian 92(TM) system (copyright 1992, Gaussian, Inc.),
 the Gaussian 90(TM) system (copyright 1990, Gaussian, Inc.),
 the Gaussian 88(TM) system (copyright 1988, Gaussian, Inc.),
 the Gaussian 86(TM) system (copyright 1986, Carnegie Mellon
 University), and the Gaussian 82(TM) system (copyright 1983,
 Carnegie Mellon University). Gaussian is a federally registered
 trademark of Gaussian, Inc.
  
 This software contains proprietary and confidential information,
 including trade secrets, belonging to Gaussian, Inc.
  
 This software is provided under written license and may be
 used, copied, transmitted, or stored only in accord with that
 written license.
  
 The following legend is applicable only to US Government
 contracts under FAR:
  
                    RESTRICTED RIGHTS LEGEND
  
 Use, reproduction and disclosure by the US Government is
 subject to restrictions as set forth in subparagraphs (a)
 and (c) of the Commercial Computer Software - Restricted
 Rights clause in FAR 52.227-19.
  
 Gaussian, Inc.
 340 Quinnipiac St., Bldg. 40, Wallingford CT 06492
  
  
 ---------------------------------------------------------------
 Warning -- This program may not be used in any manner that
 competes with the business of Gaussian, Inc. or will provide
 assistance to any competitor of Gaussian, Inc.  The licensee
 of this program is prohibited from giving any competitor of
 Gaussian, Inc. access to this program.  By using this program,
 the user acknowledges that Gaussian, Inc. is engaged in the
 business of creating and licensing software in the field of
 computational chemistry and represents and warrants to the
 licensee that it is not a competitor of Gaussian, Inc. and that
 it will not use this program in any manner prohibited above.
 ---------------------------------------------------------------
  

 Cite this work as:
 Gaussian 16, Revision C.01,
 M. J. Frisch, G. W. Trucks, H. B. Schlegel, G. E. Scuseria, 
 M. A. Robb, J. R. Cheeseman, G. Scalmani, V. Barone, 
 G. A. Petersson, H. Nakatsuji, X. Li, M. Caricato, A. V. Marenich, 
 J. Bloino, B. G. Janesko, R. Gomperts, B. Mennucci, H. P. Hratchian, 
 J. V. Ortiz, A. F. Izmaylov, J. L. Sonnenberg, D. Williams-Young, 
 F. Ding, F. Lipparini, F. Egidi, J. Goings, B. Peng, A. Petrone, 
 T. Henderson, D. Ranasinghe, V. G. Zakrzewski, J. Gao, N. Rega, 
 G. Zheng, W. Liang, M. Hada, M. Ehara, K. Toyota, R. Fukuda, 
 J. Hasegawa, M. Ishida, T. Nakajima, Y. Honda, O. Kitao, H. Nakai, 
 T. Vreven, K. Throssell, J. A. Montgomery, Jr., J. E. Peralta, 
 F. Ogliaro, M. J. Bearpark, J. J. Heyd, E. N. Brothers, K. N. Kudin, 
 V. N. Staroverov, T. A. Keith, R. Kobayashi, J. Normand, 
 K. Raghavachari, A. P. Rendell, J. C. Burant, S. S. Iyengar, 
 J. Tomasi, M. Cossi, J. M. Millam, M. Klene, C. Adamo, R. Cammi, 
 J. W. Ochterski, R. L. Martin, K. Morokuma, O. Farkas, 
 J. B. Foresman, and D. J. Fox, Gaussian, Inc., Wallingford CT, 2019.
 
 ******************************************
 Gaussian 16:  ES64L-G16RevC.01  3-Jul-2019
                16-Oct-2021 
 ******************************************
 %mem=10GB
 %nprocshared=8
 Will use up to    8 processors via shared memory.
 -------------------------------------
 # opt=modredundant b3lyp/6-311+g(d,p)
 -------------------------------------
 1/18=120,19=15,26=3,38=1/1,3;
 2/9=110,12=2,17=6,18=5,40=1/2;
 3/5=4,6=6,7=111,11=2,25=1,30=1,71=1,74=-5/1,2,3;
 4//1;
 5/5=2,38=5/2;
 6/7=2,8=2,9=2,10=2,28=1/1;
 7//1,2,3,16;
 1/18=20,19=15,26=3/3(2);
 2/9=110/2;
 99//99;
 2/9=110/2;
 3/5=4,6=6,7=111,11=2,25=1,30=1,71=1,74=-5/1,2,3;
 4/5=5,16=3,69=1/1;
 5/5=2,38=5/2;
 7//1,2,3,16;
 1/18=20,19=15,26=3/3(-5);
 2/9=110/2;
 6/7=2,8=2,9=2,10=2,19=2,28=1/1;
 99/9=1/99;
 --------------
 pBTTT_-105.pdb
 --------------
 Symbolic Z-matrix:
 Charge =  0 Multiplicity = 1
 C                    -4.25     -1.36     -0.21 
 C                    -2.93     -0.95     -0.61 
 C                    -1.97     -2.05     -0.62 
 C                    -2.66      0.47     -0.96 
 C                    -4.33     -2.76      0.1 
 H                    -5.1      -0.7      -0.14 
 S                    -2.8      -3.56     -0.11 
 H                    -5.23     -3.27      0.41 
 C                    -0.56     -2.13     -0.97 
 S                    -0.004    -2.869    -2.503 
 C                     1.661    -2.564    -2.144 
 C                     1.835    -1.88     -0.887 
 C                     0.592    -1.616    -0.226 
 H                     0.511    -0.974     0.638 
 S                     3.298    -0.954    -0.828 
 C                     3.73     -1.459    -2.463 
 C                     2.73     -2.318    -3.055 
 H                     4.551    -1.015    -3.008 
 H                     2.674    -2.505    -4.124 
 H                    -3.55      1.09     -0.83 
 H                    -2.35      0.56     -2. 
 H                    -1.88      0.89     -0.31 
 
 The following ModRedundant input section has been read:
 D       2       3       9      10 F                                           
 

 GradGradGradGradGradGradGradGradGradGradGradGradGradGradGradGradGradGrad
 Berny optimization.
 Initialization pass.
                           ----------------------------
                           !    Initial Parameters    !
                           ! (Angstroms and Degrees)  !
 --------------------------                            --------------------------
 ! Name  Definition              Value          Derivative Info.                !
 --------------------------------------------------------------------------------
 ! R1    R(1,2)                  1.4389         estimate D2E/DX2                !
 ! R2    R(1,5)                  1.4361         estimate D2E/DX2                !
 ! R3    R(1,6)                  1.0784         estimate D2E/DX2                !
 ! R4    R(2,3)                  1.46           estimate D2E/DX2                !
 ! R5    R(2,4)                  1.4872         estimate D2E/DX2                !
 ! R6    R(3,7)                  1.797          estimate D2E/DX2                !
 ! R7    R(3,9)                  1.455          estimate D2E/DX2                !
 ! R8    R(4,20)                 1.0924         estimate D2E/DX2                !
 ! R9    R(4,21)                 1.0889         estimate D2E/DX2                !
 ! R10   R(4,22)                 1.0988         estimate D2E/DX2                !
 ! R11   R(5,7)                  1.7393         estimate D2E/DX2                !
 ! R12   R(5,8)                  1.0799         estimate D2E/DX2                !
 ! R13   R(9,10)                 1.7903         estimate D2E/DX2                !
 ! R14   R(9,13)                 1.4645         estimate D2E/DX2                !
 ! R15   R(10,11)                1.7304         estimate D2E/DX2                !
 ! R16   R(11,12)                1.4416         estimate D2E/DX2                !
 ! R17   R(11,17)                1.4259         estimate D2E/DX2                !
 ! R18   R(12,13)                1.4324         estimate D2E/DX2                !
 ! R19   R(12,15)                1.7324         estimate D2E/DX2                !
 ! R20   R(13,14)                1.0795         estimate D2E/DX2                !
 ! R21   R(15,16)                1.7649         estimate D2E/DX2                !
 ! R22   R(16,17)                1.4451         estimate D2E/DX2                !
 ! R23   R(16,18)                1.0808         estimate D2E/DX2                !
 ! R24   R(17,19)                1.0867         estimate D2E/DX2                !
 ! A1    A(2,1,5)              112.8843         estimate D2E/DX2                !
 ! A2    A(2,1,6)              124.5209         estimate D2E/DX2                !
 ! A3    A(5,1,6)              122.5942         estimate D2E/DX2                !
 ! A4    A(1,2,3)              112.9799         estimate D2E/DX2                !
 ! A5    A(1,2,4)              120.2665         estimate D2E/DX2                !
 ! A6    A(3,2,4)              126.7536         estimate D2E/DX2                !
 ! A7    A(2,3,7)              109.1138         estimate D2E/DX2                !
 ! A8    A(2,3,9)              132.8639         estimate D2E/DX2                !
 ! A9    A(7,3,9)              118.0132         estimate D2E/DX2                !
 ! A10   A(2,4,20)             111.468          estimate D2E/DX2                !
 ! A11   A(2,4,21)             110.8154         estimate D2E/DX2                !
 ! A12   A(2,4,22)             110.7706         estimate D2E/DX2                !
 ! A13   A(20,4,21)            107.3779         estimate D2E/DX2                !
 ! A14   A(20,4,22)            106.918          estimate D2E/DX2                !
 ! A15   A(21,4,22)            109.3476         estimate D2E/DX2                !
 ! A16   A(1,5,7)              111.9209         estimate D2E/DX2                !
 ! A17   A(1,5,8)              124.6643         estimate D2E/DX2                !
 ! A18   A(7,5,8)              123.4062         estimate D2E/DX2                !
 ! A19   A(3,7,5)               93.0997         estimate D2E/DX2                !
 ! A20   A(3,9,10)             121.9798         estimate D2E/DX2                !
 ! A21   A(3,9,13)             128.373          estimate D2E/DX2                !
 ! A22   A(10,9,13)            109.6076         estimate D2E/DX2                !
 ! A23   A(9,10,11)             92.7753         estimate D2E/DX2                !
 ! A24   A(10,11,12)           112.3758         estimate D2E/DX2                !
 ! A25   A(10,11,17)           128.2608         estimate D2E/DX2                !
 ! A26   A(12,11,17)           112.6276         estimate D2E/DX2                !
 ! A27   A(11,12,13)           112.6495         estimate D2E/DX2                !
 ! A28   A(11,12,15)           112.6583         estimate D2E/DX2                !
 ! A29   A(13,12,15)           128.2141         estimate D2E/DX2                !
 ! A30   A(9,13,12)            112.5499         estimate D2E/DX2                !
 ! A31   A(9,13,14)            123.8022         estimate D2E/DX2                !
 ! A32   A(12,13,14)           122.9633         estimate D2E/DX2                !
 ! A33   A(12,15,16)            91.2729         estimate D2E/DX2                !
 ! A34   A(15,16,17)           112.3466         estimate D2E/DX2                !
 ! A35   A(15,16,18)           122.3788         estimate D2E/DX2                !
 ! A36   A(17,16,18)           124.2809         estimate D2E/DX2                !
 ! A37   A(11,17,16)           111.0761         estimate D2E/DX2                !
 ! A38   A(11,17,19)           124.0681         estimate D2E/DX2                !
 ! A39   A(16,17,19)           122.7479         estimate D2E/DX2                !
 ! D1    D(5,1,2,3)              0.3915         estimate D2E/DX2                !
 ! D2    D(5,1,2,4)           -179.5973         estimate D2E/DX2                !
 ! D3    D(6,1,2,3)           -179.8811         estimate D2E/DX2                !
 ! D4    D(6,1,2,4)              0.13           estimate D2E/DX2                !
 ! D5    D(2,1,5,7)             -0.3845         estimate D2E/DX2                !
 ! D6    D(2,1,5,8)           -179.3471         estimate D2E/DX2                !
 ! D7    D(6,1,5,7)            179.8822         estimate D2E/DX2                !
 ! D8    D(6,1,5,8)              0.9196         estimate D2E/DX2                !
 ! D9    D(1,2,3,7)             -0.2224         estimate D2E/DX2                !
 ! D10   D(1,2,3,9)            178.6265         estimate D2E/DX2                !
 ! D11   D(4,2,3,7)            179.7656         estimate D2E/DX2                !
 ! D12   D(4,2,3,9)             -1.3855         estimate D2E/DX2                !
 ! D13   D(1,2,4,20)             2.1641         estimate D2E/DX2                !
 ! D14   D(1,2,4,21)          -117.3645         estimate D2E/DX2                !
 ! D15   D(1,2,4,22)           121.0843         estimate D2E/DX2                !
 ! D16   D(3,2,4,20)          -177.8231         estimate D2E/DX2                !
 ! D17   D(3,2,4,21)            62.6483         estimate D2E/DX2                !
 ! D18   D(3,2,4,22)           -58.9029         estimate D2E/DX2                !
 ! D19   D(2,3,7,5)              0.0033         estimate D2E/DX2                !
 ! D20   D(9,3,7,5)           -179.041          estimate D2E/DX2                !
 ! D21   D(2,3,9,10)          -104.9855         Frozen                          !
 ! D22   D(2,3,9,13)            72.4804         estimate D2E/DX2                !
 ! D23   D(7,3,9,10)            73.7825         estimate D2E/DX2                !
 ! D24   D(7,3,9,13)          -108.7516         estimate D2E/DX2                !
 ! D25   D(1,5,7,3)              0.2153         estimate D2E/DX2                !
 ! D26   D(8,5,7,3)            179.1932         estimate D2E/DX2                !
 ! D27   D(3,9,10,11)          179.7697         estimate D2E/DX2                !
 ! D28   D(13,9,10,11)           1.8785         estimate D2E/DX2                !
 ! D29   D(3,9,13,12)         -179.8199         estimate D2E/DX2                !
 ! D30   D(3,9,13,14)           -9.0725         estimate D2E/DX2                !
 ! D31   D(10,9,13,12)          -2.1016         estimate D2E/DX2                !
 ! D32   D(10,9,13,14)         168.6458         estimate D2E/DX2                !
 ! D33   D(9,10,11,12)          -1.214          estimate D2E/DX2                !
 ! D34   D(9,10,11,17)        -149.9241         estimate D2E/DX2                !
 ! D35   D(10,11,12,13)          0.1945         estimate D2E/DX2                !
 ! D36   D(10,11,12,15)       -154.0362         estimate D2E/DX2                !
 ! D37   D(17,11,12,13)        153.9746         estimate D2E/DX2                !
 ! D38   D(17,11,12,15)         -0.2561         estimate D2E/DX2                !
 ! D39   D(10,11,17,16)        149.754          estimate D2E/DX2                !
 ! D40   D(10,11,17,19)        -14.0784         estimate D2E/DX2                !
 ! D41   D(12,11,17,16)          1.1074         estimate D2E/DX2                !
 ! D42   D(12,11,17,19)       -162.7251         estimate D2E/DX2                !
 ! D43   D(11,12,13,9)           1.2655         estimate D2E/DX2                !
 ! D44   D(11,12,13,14)       -169.5715         estimate D2E/DX2                !
 ! D45   D(15,12,13,9)         150.5605         estimate D2E/DX2                !
 ! D46   D(15,12,13,14)        -20.2764         estimate D2E/DX2                !
 ! D47   D(11,12,15,16)         -0.5103         estimate D2E/DX2                !
 ! D48   D(13,12,15,16)       -149.8031         estimate D2E/DX2                !
 ! D49   D(12,15,16,17)          1.147          estimate D2E/DX2                !
 ! D50   D(12,15,16,18)        170.1881         estimate D2E/DX2                !
 ! D51   D(15,16,17,11)         -1.4871         estimate D2E/DX2                !
 ! D52   D(15,16,17,19)        162.5957         estimate D2E/DX2                !
 ! D53   D(18,16,17,11)       -170.2832         estimate D2E/DX2                !
 ! D54   D(18,16,17,19)         -6.2003         estimate D2E/DX2                !
 --------------------------------------------------------------------------------
 Trust Radius=3.00D-01 FncErr=1.00D-07 GrdErr=1.00D-06 EigMax=2.50D+02 EigMin=1.00D-04
 Number of steps in this run=    127 maximum allowed number of steps=    132.
 GradGradGradGradGradGradGradGradGradGradGradGradGradGradGradGradGradGrad

                          Input orientation:                          
 ---------------------------------------------------------------------
 Center     Atomic      Atomic             Coordinates (Angstroms)
 Number     Number       Type             X           Y           Z
 ---------------------------------------------------------------------
      1          6           0       -4.250000   -1.360000   -0.210000
      2          6           0       -2.930000   -0.950000   -0.610000
      3          6           0       -1.970000   -2.050000   -0.620000
      4          6           0       -2.660000    0.470000   -0.960000
      5          6           0       -4.330000   -2.760000    0.100000
      6          1           0       -5.100000   -0.700000   -0.140000
      7         16           0       -2.800000   -3.560000   -0.110000
      8          1           0       -5.230000   -3.270000    0.410000
      9          6           0       -0.560000   -2.130000   -0.970000
     10         16           0       -0.004000   -2.869000   -2.503000
     11          6           0        1.661000   -2.564000   -2.144000
     12          6           0        1.835000   -1.880000   -0.887000
     13          6           0        0.592000   -1.616000   -0.226000
     14          1           0        0.511000   -0.974000    0.638000
     15         16           0        3.298000   -0.954000   -0.828000
     16          6           0        3.730000   -1.459000   -2.463000
     17          6           0        2.730000   -2.318000   -3.055000
     18          1           0        4.551000   -1.015000   -3.008000
     19          1           0        2.674000   -2.505000   -4.124000
     20          1           0       -3.550000    1.090000   -0.830000
     21          1           0       -2.350000    0.560000   -2.000000
     22          1           0       -1.880000    0.890000   -0.310000
 ---------------------------------------------------------------------
                    Distance matrix (angstroms):
                    1          2          3          4          5
     1  C    0.000000
     2  C    1.438923   0.000000
     3  C    2.417147   1.460034   0.000000
     4  C    2.537617   1.487212   2.634787   0.000000
     5  C    1.436141   2.395871   2.567509   3.787532   0.000000
     6  H    1.078425   2.234346   3.442354   2.827525   2.212261
     7  S    2.636759   2.660639   1.796970   4.121044   1.739253
     8  H    2.234480   3.422397   3.630000   4.740190   1.079907
     9  C    3.845335   2.671872   1.454991   3.342170   3.969219
    10  S    5.056031   3.978377   2.842817   4.536971   5.049927
    11  C    6.334816   5.102493   3.971263   5.410920   6.400471
    12  C    6.144587   4.862803   3.818143   5.072756   6.305220
    13  C    4.848789   3.604927   2.628200   3.932640   5.063704
    14  H    4.851311   3.660404   2.982566   3.833273   5.187921
    15  S    7.584132   6.231815   5.384822   6.127231   7.893618
    16  C    8.292539   6.931687   6.019629   6.841941   8.557171
    17  C    7.598170   6.315461   5.300099   6.419818   7.745514
    18  H    9.241506   7.856207   7.021197   7.641862   9.569579
    19  H    8.035683   6.794927   5.835390   6.878450   8.183106
    20  H    2.622384   2.143455   3.521378   1.092428   4.036806
    21  H    3.240447   2.132745   2.976726   1.088944   4.399182
    22  H    3.269465   2.139650   2.957668   1.098772   4.415099
                    6          7          8          9         10
     6  H    0.000000
     7  S    3.670218   0.000000
     8  H    2.631406   2.501879   0.000000
     9  C    4.831708   2.793224   5.001290   0.000000
    10  S    6.021424   3.744535   5.996453   1.790348   0.000000
    11  C    7.293945   5.002968   7.382901   2.549406   1.730356
    12  C    7.074223   4.990927   7.316320   2.409443   2.640359
    13  C    5.765875   3.911299   6.085712   1.464526   2.666450
    14  H    5.671303   4.267273   6.187300   2.251453   3.704339
    15  S    8.429962   6.670260   8.923188   4.035753   4.168459
    16  C    9.161949   7.252014   9.582038   4.591665   3.991548
    17  C    8.510232   6.387213   8.733506   3.899573   2.843072
    18  H   10.073056   8.301363  10.603571   5.614178   4.943720
    19  H    8.919942   6.869490   9.144156   4.532891   3.151479
    20  H    2.466313   4.764808   4.834211   4.396374   5.571959
    21  H    3.551014   4.555107   5.363898   3.391327   4.185065
    22  H    3.595191   4.548505   5.389480   3.361309   4.739062
                   11         12         13         14         15
    11  C    0.000000
    12  C    1.441590   0.000000
    13  C    2.391692   1.432364   0.000000
    14  H    3.404427   2.213467   1.079454   0.000000
    15  S    2.646455   1.732434   2.850102   3.149115   0.000000
    16  C    2.367181   2.500408   3.856924   4.495930   1.764901
    17  C    1.425903   2.386020   3.614843   4.513153   2.672573
    18  H    3.390870   3.552960   4.875901   5.442113   2.515180
    19  H    2.224871   3.401869   4.507710   5.449695   3.695753
    20  H    6.498679   6.149990   4.984317   4.786109   7.146541
    21  H    5.086082   4.970573   4.066622   4.183004   5.963697
    22  H    5.275638   4.669802   3.521062   3.176489   5.520901
                   16         17         18         19         20
    16  C    0.000000
    17  C    1.445111   0.000000
    18  H    1.080834   2.239656   0.000000
    19  H    2.228940   1.086677   2.643612   0.000000
    20  H    7.884319   7.483548   8.648752   7.906493   0.000000
    21  H    6.423171   5.933153   7.149859   6.256691   1.757783
    22  H    6.451768   6.251271   7.229522   6.841896   1.760483
                   21         22
    21  H    0.000000
    22  H    1.784909   0.000000
 Stoichiometry    C11H8S3
 Framework group  C1[X(C11H8S3)]
 Deg. of freedom    60
 Full point group                 C1      NOp   1
 Largest Abelian subgroup         C1      NOp   1
 Largest concise Abelian subgroup C1      NOp   1
                         Standard orientation:                         
 ---------------------------------------------------------------------
 Center     Atomic      Atomic             Coordinates (Angstroms)
 Number     Number       Type             X           Y           Z
 ---------------------------------------------------------------------
      1          6           0        3.981299    0.803693    0.287591
      2          6           0        2.579011    1.078737    0.456233
      3          6           0        1.722627    0.032493   -0.094837
      4          6           0        2.136033    2.326048    1.134308
      5          6           0        4.229272   -0.435840   -0.394000
      6          1           0        4.775809    1.449619    0.626020
      7         16           0        2.752378   -1.254502   -0.810629
      8          1           0        5.210208   -0.831536   -0.611692
      9          6           0        0.279017   -0.143548   -0.139539
     10         16           0       -0.567084   -1.311516    0.921267
     11          6           0       -2.119050   -0.903775    0.273747
     12          6           0       -2.041574    0.131257   -0.726697
     13          6           0       -0.700027    0.578036   -0.955398
     14          1           0       -0.464260    1.452203   -1.543163
     15         16           0       -3.511243    1.038219   -0.863873
     16          6           0       -4.277316    0.061497    0.390727
     17          6           0       -3.385997   -0.941708    0.926896
     18          1           0       -5.231998    0.322407    0.825135
     19          1           0       -3.568673   -1.445540    1.872225
     20          1           0        2.986164    2.951949    1.415245
     21          1           0        1.585850    2.096635    2.045608
     22          1           0        1.502317    2.927706    0.468192
 ---------------------------------------------------------------------
 Rotational constants (GHZ):           1.2055062           0.2616717           0.2433491
 Standard basis: 6-311+G(d,p) (5D, 7F)
 There are   394 symmetry adapted cartesian basis functions of A   symmetry.
 There are   380 symmetry adapted basis functions of A   symmetry.
   380 basis functions,   610 primitive gaussians,   394 cartesian basis functions
    61 alpha electrons       61 beta electrons
       nuclear repulsion energy      1104.1820012773 Hartrees.
 NAtoms=   22 NActive=   22 NUniq=   22 SFac= 1.00D+00 NAtFMM=   60 NAOKFM=F Big=F
 Integral buffers will be    131072 words long.
 Raffenetti 2 integral format.
 Two-electron integral symmetry is turned on.
 One-electron integrals computed using PRISM.
 NBasis=   380 RedAO= T EigKep=  1.40D-06  NBF=   380
 NBsUse=   379 1.00D-06 EigRej=  4.30D-07 NBFU=   379
 ExpMin= 4.05D-02 ExpMax= 9.34D+04 ExpMxC= 3.17D+03 IAcc=3 IRadAn=         5 AccDes= 0.00D+00
 Harris functional with IExCor=  402 and IRadAn=       5 diagonalized for initial guess.
 HarFok:  IExCor=  402 AccDes= 0.00D+00 IRadAn=         5 IDoV= 1 UseB2=F ITyADJ=14
 ICtDFT=  3500011 ScaDFX=  1.000000  1.000000  1.000000  1.000000
 FoFCou: FMM=F IPFlag=           0 FMFlag=      100000 FMFlg1=           0
         NFxFlg=           0 DoJE=T BraDBF=F KetDBF=T FulRan=T
         wScrn=  0.000000 ICntrl=       500 IOpCl=  0 I1Cent=   200000004 NGrid=           0
         NMat0=    1 NMatS0=      1 NMatT0=    0 NMatD0=    1 NMtDS0=    0 NMtDT0=    0
 Petite list used in FoFCou.
 Requested convergence on RMS density matrix=1.00D-08 within 128 cycles.
 Requested convergence on MAX density matrix=1.00D-06.
 Requested convergence on             energy=1.00D-06.
 No special actions if energy rises.
 SCF Done:  E(RB3LYP) =  -1618.67382626     A.U. after   17 cycles
            NFock= 17  Conv=0.66D-08     -V/T= 2.0028

 **********************************************************************

            Population analysis using the SCF Density.

 **********************************************************************

 Orbital symmetries:
       Occupied  (A) (A) (A) (A) (A) (A) (A) (A) (A) (A) (A) (A)
                 (A) (A) (A) (A) (A) (A) (A) (A) (A) (A) (A) (A)
                 (A) (A) (A) (A) (A) (A) (A) (A) (A) (A) (A) (A)
                 (A) (A) (A) (A) (A) (A) (A) (A) (A) (A) (A) (A)
                 (A) (A) (A) (A) (A) (A) (A) (A) (A) (A) (A) (A)
                 (A)
       Virtual   (A) (A) (A) (A) (A) (A) (A) (A) (A) (A) (A) (A)
                 (A) (A) (A) (A) (A) (A) (A) (A) (A) (A) (A) (A)
                 (A) (A) (A) (A) (A) (A) (A) (A) (A) (A) (A) (A)
                 (A) (A) (A) (A) (A) (A) (A) (A) (A) (A) (A) (A)
                 (A) (A) (A) (A) (A) (A) (A) (A) (A) (A) (A) (A)
                 (A) (A) (A) (A) (A) (A) (A) (A) (A) (A) (A) (A)
                 (A) (A) (A) (A) (A) (A) (A) (A) (A) (A) (A) (A)
                 (A) (A) (A) (A) (A) (A) (A) (A) (A) (A) (A) (A)
                 (A) (A) (A) (A) (A) (A) (A) (A) (A) (A) (A) (A)
                 (A) (A) (A) (A) (A) (A) (A) (A) (A) (A) (A) (A)
                 (A) (A) (A) (A) (A) (A) (A) (A) (A) (A) (A) (A)
                 (A) (A) (A) (A) (A) (A) (A) (A) (A) (A) (A) (A)
                 (A) (A) (A) (A) (A) (A) (A) (A) (A) (A) (A) (A)
                 (A) (A) (A) (A) (A) (A) (A) (A) (A) (A) (A) (A)
                 (A) (A) (A) (A) (A) (A) (A) (A) (A) (A) (A) (A)
                 (A) (A) (A) (A) (A) (A) (A) (A) (A) (A) (A) (A)
                 (A) (A) (A) (A) (A) (A) (A) (A) (A) (A) (A) (A)
                 (A) (A) (A) (A) (A) (A) (A) (A) (A) (A) (A) (A)
                 (A) (A) (A) (A) (A) (A) (A) (A) (A) (A) (A) (A)
                 (A) (A) (A) (A) (A) (A) (A) (A) (A) (A) (A) (A)
                 (A) (A) (A) (A) (A) (A) (A) (A) (A) (A) (A) (A)
                 (A) (A) (A) (A) (A) (A) (A) (A) (A) (A) (A) (A)
                 (A) (A) (A) (A) (A) (A) (A) (A) (A) (A) (A) (A)
                 (A) (A) (A) (A) (A) (A) (A) (A) (A) (A) (A) (A)
                 (A) (A) (A) (A) (A) (A) (A) (A) (A) (A) (A) (A)
                 (A) (A) (A) (A) (A) (A) (A) (A) (A) (A) (A) (A)
                 (A) (A) (A) (A) (A) (A)
 The electronic state is 1-A.
 Alpha  occ. eigenvalues --  -88.89185 -88.88747 -88.88537 -10.23396 -10.22371
 Alpha  occ. eigenvalues --  -10.22184 -10.21998 -10.21950 -10.21309 -10.20547
 Alpha  occ. eigenvalues --  -10.20533 -10.20403 -10.18904 -10.17600  -7.97709
 Alpha  occ. eigenvalues --   -7.97273  -7.97002  -5.94019  -5.93662  -5.93587
 Alpha  occ. eigenvalues --   -5.93289  -5.93264  -5.93225  -5.92920  -5.92822
 Alpha  occ. eigenvalues --   -5.92630  -0.90614  -0.87364  -0.83567  -0.77597
 Alpha  occ. eigenvalues --   -0.77374  -0.74757  -0.71077  -0.69631  -0.67139
 Alpha  occ. eigenvalues --   -0.61050  -0.57692  -0.56474  -0.53663  -0.51872
 Alpha  occ. eigenvalues --   -0.49232  -0.49039  -0.44464  -0.43525  -0.43192
 Alpha  occ. eigenvalues --   -0.41841  -0.41243  -0.39788  -0.39543  -0.39357
 Alpha  occ. eigenvalues --   -0.37753  -0.37020  -0.36016  -0.34980  -0.34585
 Alpha  occ. eigenvalues --   -0.32976  -0.29116  -0.25464  -0.24208  -0.23464
 Alpha  occ. eigenvalues --   -0.21115
 Alpha virt. eigenvalues --   -0.06260  -0.04810  -0.01968  -0.01064  -0.00210
 Alpha virt. eigenvalues --    0.00320   0.00597   0.00898   0.01533   0.02449
 Alpha virt. eigenvalues --    0.02490   0.02979   0.03189   0.04073   0.04144
 Alpha virt. eigenvalues --    0.04542   0.05004   0.05615   0.05803   0.06086
 Alpha virt. eigenvalues --    0.06752   0.07541   0.07802   0.07978   0.08458
 Alpha virt. eigenvalues --    0.08697   0.09145   0.10147   0.10540   0.11188
 Alpha virt. eigenvalues --    0.11283   0.11522   0.12014   0.12242   0.12952
 Alpha virt. eigenvalues --    0.13336   0.14026   0.14236   0.14725   0.15117
 Alpha virt. eigenvalues --    0.15480   0.15869   0.16123   0.16563   0.17073
 Alpha virt. eigenvalues --    0.17181   0.17718   0.18251   0.18575   0.18763
 Alpha virt. eigenvalues --    0.19209   0.19445   0.19780   0.20201   0.20769
 Alpha virt. eigenvalues --    0.20853   0.21162   0.21273   0.21626   0.21988
 Alpha virt. eigenvalues --    0.22617   0.22869   0.22908   0.23554   0.23978
 Alpha virt. eigenvalues --    0.24176   0.24913   0.25463   0.25995   0.26366
 Alpha virt. eigenvalues --    0.27677   0.28274   0.28417   0.28814   0.29363
 Alpha virt. eigenvalues --    0.29726   0.31075   0.31818   0.31967   0.33026
 Alpha virt. eigenvalues --    0.33830   0.34415   0.35416   0.36502   0.37227
 Alpha virt. eigenvalues --    0.37401   0.37944   0.39104   0.40900   0.42544
 Alpha virt. eigenvalues --    0.42823   0.43672   0.44709   0.45105   0.47223
 Alpha virt. eigenvalues --    0.49742   0.50787   0.53174   0.53512   0.54346
 Alpha virt. eigenvalues --    0.55307   0.55839   0.56369   0.56909   0.58053
 Alpha virt. eigenvalues --    0.58581   0.58974   0.59945   0.61049   0.61794
 Alpha virt. eigenvalues --    0.62921   0.63803   0.64274   0.64708   0.65293
 Alpha virt. eigenvalues --    0.66006   0.66634   0.67450   0.67633   0.68389
 Alpha virt. eigenvalues --    0.70147   0.70237   0.70743   0.71242   0.72673
 Alpha virt. eigenvalues --    0.73208   0.73940   0.74787   0.75154   0.76290
 Alpha virt. eigenvalues --    0.76759   0.77636   0.78396   0.79313   0.80652
 Alpha virt. eigenvalues --    0.81770   0.82565   0.83077   0.83944   0.84270
 Alpha virt. eigenvalues --    0.85634   0.86698   0.87628   0.89498   0.89814
 Alpha virt. eigenvalues --    0.91208   0.91826   0.92473   0.94031   0.94324
 Alpha virt. eigenvalues --    0.95447   0.96733   0.97026   0.97607   0.99619
 Alpha virt. eigenvalues --    1.00514   1.00816   1.01402   1.02642   1.04847
 Alpha virt. eigenvalues --    1.05941   1.07552   1.07767   1.10551   1.14257
 Alpha virt. eigenvalues --    1.16667   1.18978   1.21471   1.24861   1.28118
 Alpha virt. eigenvalues --    1.34051   1.35191   1.36225   1.37237   1.39727
 Alpha virt. eigenvalues --    1.40221   1.44701   1.45543   1.47905   1.49329
 Alpha virt. eigenvalues --    1.50705   1.52795   1.53646   1.55215   1.56141
 Alpha virt. eigenvalues --    1.56951   1.57155   1.59349   1.60775   1.61831
 Alpha virt. eigenvalues --    1.63048   1.64111   1.65740   1.66159   1.67663
 Alpha virt. eigenvalues --    1.69334   1.69907   1.70978   1.71796   1.73807
 Alpha virt. eigenvalues --    1.76128   1.76985   1.78464   1.79273   1.80531
 Alpha virt. eigenvalues --    1.81080   1.83879   1.85758   1.87172   1.88538
 Alpha virt. eigenvalues --    1.89009   1.89785   1.93644   1.93883   1.94935
 Alpha virt. eigenvalues --    1.97047   1.97633   1.98723   2.00094   2.01607
 Alpha virt. eigenvalues --    2.03594   2.04232   2.06191   2.07572   2.08244
 Alpha virt. eigenvalues --    2.09508   2.10486   2.11806   2.13887   2.14551
 Alpha virt. eigenvalues --    2.17189   2.18193   2.24465   2.26494   2.27378
 Alpha virt. eigenvalues --    2.33114   2.35796   2.37447   2.39450   2.43158
 Alpha virt. eigenvalues --    2.44786   2.46688   2.48817   2.51341   2.54083
 Alpha virt. eigenvalues --    2.55128   2.59895   2.61065   2.64364   2.65863
 Alpha virt. eigenvalues --    2.68881   2.70124   2.71478   2.71783   2.72977
 Alpha virt. eigenvalues --    2.73841   2.74957   2.78915   2.79382   2.83620
 Alpha virt. eigenvalues --    2.84236   2.88254   2.90371   2.92947   2.95500
 Alpha virt. eigenvalues --    2.97822   2.99100   3.00965   3.01256   3.02783
 Alpha virt. eigenvalues --    3.05730   3.08517   3.17566   3.22824   3.23820
 Alpha virt. eigenvalues --    3.26737   3.32375   3.35706   3.38995   3.40983
 Alpha virt. eigenvalues --    3.47444   3.57565   3.65664   3.80338   3.81905
 Alpha virt. eigenvalues --    3.91463   3.96239   4.04948   4.10754   4.30591
 Alpha virt. eigenvalues --    4.33698   4.43755   7.94445   7.96598   7.98092
 Alpha virt. eigenvalues --   17.28728  17.30223  17.31153  17.42309  17.44871
 Alpha virt. eigenvalues --   17.46647  17.48724  17.50120  17.51965  23.49141
 Alpha virt. eigenvalues --   23.62164  23.73600  23.78075  23.82181  23.85957
 Alpha virt. eigenvalues --   23.88617  23.93860  23.95873  23.96096  23.98750
 Alpha virt. eigenvalues --  189.10565 189.13143 189.15232
          Condensed to atoms (all electrons):
               1          2          3          4          5          6
     1  C   11.141198  -6.767562   6.199211  -1.757585  -0.809021   0.330414
     2  C   -6.767562  25.084903 -18.699549   2.397729   2.211286   0.028966
     3  C    6.199211 -18.699549  29.538052  -5.450178  -2.471750  -0.057161
     4  C   -1.757585   2.397729  -5.450178   9.035266   0.398639   0.023698
     5  C   -0.809021   2.211286  -2.471750   0.398639   5.947485   0.007799
     6  H    0.330414   0.028966  -0.057161   0.023698   0.007799   0.530768
     7  S   -1.251055   0.359567  -1.326219   0.605466   0.103843   0.007948
     8  H    0.025623  -0.046422   0.024749   0.000601   0.368708  -0.004639
     9  C   -0.523727  -0.298186   0.389166  -0.189267   0.165750  -0.001409
    10  S    0.134106  -0.275293   0.482509  -0.000531   0.002959  -0.000085
    11  C   -0.131292   0.766176  -1.124524   0.163693   0.044074   0.000092
    12  C    0.010573  -0.448391   0.650536  -0.158617  -0.005646   0.000114
    13  C   -0.339739   1.026973  -1.791352   0.369806   0.009059  -0.000143
    14  H    0.006058  -0.015044   0.048450  -0.010307  -0.000094  -0.000001
    15  S   -0.018703   0.061505  -0.077495   0.009916   0.003466   0.000002
    16  C    0.001317  -0.032459   0.024877  -0.014487  -0.000597  -0.000000
    17  C   -0.005500   0.366916  -0.309094   0.062172   0.007802   0.000013
    18  H    0.000004   0.000008  -0.000104  -0.000037  -0.000001   0.000000
    19  H    0.000037  -0.000889  -0.000208  -0.000284  -0.000016   0.000000
    20  H    0.034146  -0.119255  -0.021848   0.468111   0.010052   0.002012
    21  H   -0.022031   0.030657  -0.025271   0.369525   0.001813   0.000107
    22  H   -0.031700  -0.028317   0.094357   0.298237  -0.006611   0.000124
               7          8          9         10         11         12
     1  C   -1.251055   0.025623  -0.523727   0.134106  -0.131292   0.010573
     2  C    0.359567  -0.046422  -0.298186  -0.275293   0.766176  -0.448391
     3  C   -1.326219   0.024749   0.389166   0.482509  -1.124524   0.650536
     4  C    0.605466   0.000601  -0.189267  -0.000531   0.163693  -0.158617
     5  C    0.103843   0.368708   0.165750   0.002959   0.044074  -0.005646
     6  H    0.007948  -0.004639  -0.001409  -0.000085   0.000092   0.000114
     7  S   17.624619  -0.008899  -0.080011   0.078956  -0.048261   0.115685
     8  H   -0.008899   0.484932  -0.007910  -0.000404  -0.000227  -0.000010
     9  C   -0.080011  -0.007910   8.747120   0.216135  -0.768456   0.444096
    10  S    0.078956  -0.000404   0.216135  17.206669  -1.088057   1.094173
    11  C   -0.048261  -0.000227  -0.768456  -1.088057  13.720134  -4.611664
    12  C    0.115685  -0.000010   0.444096   1.094173  -4.611664  12.599414
    13  C    0.179535   0.000039  -1.530759  -1.570893   0.865922  -2.211108
    14  H   -0.005489   0.000000   0.066823   0.014365  -0.038085   0.032286
    15  S    0.004363  -0.000003  -0.376124   0.183191   0.469404  -0.742537
    16  C   -0.000964   0.000000   0.166567  -0.017530   0.813524  -0.519805
    17  C   -0.062382  -0.000021  -0.733334  -0.191681  -3.308219  -0.450271
    18  H    0.000006  -0.000000  -0.000692   0.000645   0.003053   0.006398
    19  H    0.000137   0.000000   0.011445   0.016464   0.045311  -0.031997
    20  H    0.000497  -0.000034   0.001561   0.000254   0.000117  -0.000365
    21  H   -0.000583   0.000011   0.009417   0.003561  -0.000908  -0.003153
    22  H    0.002908   0.000014  -0.017329  -0.003312  -0.001020   0.015696
              13         14         15         16         17         18
     1  C   -0.339739   0.006058  -0.018703   0.001317  -0.005500   0.000004
     2  C    1.026973  -0.015044   0.061505  -0.032459   0.366916   0.000008
     3  C   -1.791352   0.048450  -0.077495   0.024877  -0.309094  -0.000104
     4  C    0.369806  -0.010307   0.009916  -0.014487   0.062172  -0.000037
     5  C    0.009059  -0.000094   0.003466  -0.000597   0.007802  -0.000001
     6  H   -0.000143  -0.000001   0.000002  -0.000000   0.000013   0.000000
     7  S    0.179535  -0.005489   0.004363  -0.000964  -0.062382   0.000006
     8  H    0.000039   0.000000  -0.000003   0.000000  -0.000021  -0.000000
     9  C   -1.530759   0.066823  -0.376124   0.166567  -0.733334  -0.000692
    10  S   -1.570893   0.014365   0.183191  -0.017530  -0.191681   0.000645
    11  C    0.865922  -0.038085   0.469404   0.813524  -3.308219   0.003053
    12  C   -2.211108   0.032286  -0.742537  -0.519805  -0.450271   0.006398
    13  C   10.032852   0.255827  -0.038278  -0.292106   1.188289   0.009973
    14  H    0.255827   0.516752   0.004801   0.002084  -0.015623  -0.000003
    15  S   -0.038278   0.004801  16.589711   0.401758  -0.308193  -0.021920
    16  C   -0.292106   0.002084   0.401758   5.688678  -0.280860   0.372076
    17  C    1.188289  -0.015623  -0.308193  -0.280860   9.950147  -0.015311
    18  H    0.009973  -0.000003  -0.021920   0.372076  -0.015311   0.474233
    19  H   -0.008438   0.000014   0.003217   0.013403   0.299083  -0.003620
    20  H   -0.004732   0.000001  -0.000003  -0.000010   0.000073   0.000000
    21  H   -0.003246   0.000069   0.000154  -0.000044  -0.000944  -0.000000
    22  H    0.029146  -0.000242   0.000865   0.000316  -0.001798   0.000000
              19         20         21         22
     1  C    0.000037   0.034146  -0.022031  -0.031700
     2  C   -0.000889  -0.119255   0.030657  -0.028317
     3  C   -0.000208  -0.021848  -0.025271   0.094357
     4  C   -0.000284   0.468111   0.369525   0.298237
     5  C   -0.000016   0.010052   0.001813  -0.006611
     6  H    0.000000   0.002012   0.000107   0.000124
     7  S    0.000137   0.000497  -0.000583   0.002908
     8  H    0.000000  -0.000034   0.000011   0.000014
     9  C    0.011445   0.001561   0.009417  -0.017329
    10  S    0.016464   0.000254   0.003561  -0.003312
    11  C    0.045311   0.000117  -0.000908  -0.001020
    12  C   -0.031997  -0.000365  -0.003153   0.015696
    13  C   -0.008438  -0.004732  -0.003246   0.029146
    14  H    0.000014   0.000001   0.000069  -0.000242
    15  S    0.003217  -0.000003   0.000154   0.000865
    16  C    0.013403  -0.000010  -0.000044   0.000316
    17  C    0.299083   0.000073  -0.000944  -0.001798
    18  H   -0.003620   0.000000  -0.000000   0.000000
    19  H    0.514388  -0.000000   0.000000   0.000000
    20  H   -0.000000   0.541651  -0.027221  -0.028310
    21  H    0.000000  -0.027221   0.531174  -0.026729
    22  H    0.000000  -0.028310  -0.026729   0.549056
 Mulliken charges:
               1
     1  C   -0.224772
     2  C    0.396681
     3  C   -0.097154
     4  C   -0.621566
     5  C    0.011002
     6  H    0.131381
     7  S   -0.299667
     8  H    0.163892
     9  C    0.309125
    10  S   -0.286200
    11  C    0.229214
    12  C    0.214595
    13  C   -0.176629
    14  H    0.137358
    15  S   -0.149099
    16  C   -0.325738
    17  C   -0.191264
    18  H    0.175291
    19  H    0.141955
    20  H    0.143303
    21  H    0.163644
    22  H    0.154650
 Sum of Mulliken charges =  -0.00000
 Mulliken charges with hydrogens summed into heavy atoms:
               1
     1  C   -0.093392
     2  C    0.396681
     3  C   -0.097154
     4  C   -0.159968
     5  C    0.174894
     7  S   -0.299667
     9  C    0.309125
    10  S   -0.286200
    11  C    0.229214
    12  C    0.214595
    13  C   -0.039270
    15  S   -0.149099
    16  C   -0.150448
    17  C   -0.049309
 Electronic spatial extent (au):  <R**2>=           4436.0316
 Charge=             -0.0000 electrons
 Dipole moment (field-independent basis, Debye):
    X=              0.3284    Y=              1.6522    Z=              1.2283  Tot=              2.0848
 Quadrupole moment (field-independent basis, Debye-Ang):
   XX=            -91.0989   YY=           -102.2042   ZZ=           -104.6059
   XY=              0.7553   XZ=             -3.8986   YZ=             -1.0059
 Traceless Quadrupole moment (field-independent basis, Debye-Ang):
   XX=              8.2041   YY=             -2.9012   ZZ=             -5.3029
   XY=              0.7553   XZ=             -3.8986   YZ=             -1.0059
 Octapole moment (field-independent basis, Debye-Ang**2):
  XXX=             19.0742  YYY=              9.8979  ZZZ=              6.7248  XYY=              9.5320
  XXY=             10.6791  XXZ=             24.4302  XZZ=             -8.1645  YZZ=              0.3616
  YYZ=              2.3247  XYZ=             16.5500
 Hexadecapole moment (field-independent basis, Debye-Ang**3):
 XXXX=          -4378.6052 YYYY=           -897.9301 ZZZZ=           -505.7721 XXXY=            -80.1872
 XXXZ=           -125.0183 YYYX=              0.3351 YYYZ=             -3.0795 ZZZX=            -11.9934
 ZZZY=            -11.7546 XXYY=           -948.5352 XXZZ=           -918.6043 YYZZ=           -221.1540
 XXYZ=             23.5941 YYXZ=              2.0532 ZZXY=              8.0154
 N-N= 1.104182001277D+03 E-N=-6.031750142797D+03  KE= 1.614158787600D+03
 Calling FoFJK, ICntrl=      2127 FMM=F ISym2X=0 I1Cent= 0 IOpClX= 0 NMat=1 NMatS=1 NMatT=0.
 ***** Axes restored to original set *****
 -------------------------------------------------------------------
 Center     Atomic                   Forces (Hartrees/Bohr)
 Number     Number              X              Y              Z
 -------------------------------------------------------------------
      1        6           0.022149976   -0.056837806    0.008086481
      2        6           0.012105140   -0.045312371    0.006860792
      3        6          -0.045219001    0.019159424    0.005763258
      4        6           0.008745358    0.007263341    0.001783324
      5        6           0.008750221    0.048399330   -0.013595541
      6        1          -0.000802372    0.001886266   -0.000145275
      7       16          -0.006696361    0.020686189   -0.002638523
      8        1           0.002845310   -0.004265057    0.000336352
      9        6           0.051994726    0.025802308    0.025773287
     10       16          -0.006721393   -0.003745910    0.014464937
     11        6           0.014682911    0.028433717    0.014432051
     12        6          -0.034072126   -0.004735584   -0.022424182
     13        6          -0.033872424   -0.023454861   -0.037565512
     14        1          -0.004352317   -0.004292545    0.004226579
     15       16           0.011014067   -0.009373444   -0.012674878
     16        6          -0.044851942   -0.031075525   -0.021983635
     17        6           0.031573534    0.038633289    0.025851405
     18        1           0.003715817   -0.002412661    0.005862323
     19        1           0.005870772   -0.005464492    0.004603685
     20        1          -0.000635735   -0.002168386    0.000277911
     21        1           0.004121612    0.002561959   -0.002121043
     22        1          -0.000345775    0.000312820   -0.005173793
 -------------------------------------------------------------------
 Cartesian Forces:  Max     0.056837806 RMS     0.021068912

 GradGradGradGradGradGradGradGradGradGradGradGradGradGradGradGradGradGrad
 Berny optimization.
 FormGI is forming the generalized inverse of G from B-inverse, IUseBI=4.
 Internal  Forces:  Max     0.063148667 RMS     0.012386882
 Search for a local minimum.
 Step number   1 out of a maximum of  127
 All quantities printed in internal units (Hartrees-Bohrs-Radians)
 Mixed Optimization -- RFO/linear search
 Second derivative matrix not updated -- first step.
 ITU=  0
     Eigenvalues ---    0.00935   0.00982   0.01055   0.01214   0.01241
     Eigenvalues ---    0.01277   0.01298   0.01422   0.01457   0.01495
     Eigenvalues ---    0.01498   0.01592   0.01594   0.01770   0.02197
     Eigenvalues ---    0.02649   0.07307   0.07353   0.15074   0.15683
     Eigenvalues ---    0.15735   0.15997   0.16000   0.16000   0.16000
     Eigenvalues ---    0.16000   0.17995   0.22443   0.22545   0.23320
     Eigenvalues ---    0.23979   0.24718   0.24978   0.24995   0.25000
     Eigenvalues ---    0.26147   0.26548   0.28406   0.30920   0.31308
     Eigenvalues ---    0.31545   0.33757   0.33818   0.34533   0.34792
     Eigenvalues ---    0.34935   0.35200   0.35877   0.35894   0.36006
     Eigenvalues ---    0.36060   0.36185   0.36291   0.37598   0.38255
     Eigenvalues ---    0.38438   0.39458   0.39726   0.406431000.00000
     Eigenvalues --- 1000.000001000.000001000.000001000.000001000.00000
     Eigenvalues --- 1000.000001000.000001000.000001000.000001000.00000
     Eigenvalues --- 1000.000001000.000001000.000001000.000001000.00000
     Eigenvalues --- 1000.000001000.000001000.000001000.000001000.00000
     Eigenvalues --- 1000.000001000.000001000.000001000.000001000.00000
     Eigenvalues --- 1000.000001000.000001000.000001000.000001000.00000
     Eigenvalues --- 1000.000001000.000001000.000001000.000001000.00000
     Eigenvalues --- 1000.000001000.000001000.000001000.000001000.00000
     Eigenvalues --- 1000.000001000.000001000.000001000.000001000.00000
     Eigenvalues --- 1000.000001000.000001000.000001000.000001000.00000
     Eigenvalues --- 1000.000001000.000001000.000001000.000001000.00000
     Eigenvalues --- 1000.000001000.00000
 RFO step:  Lambda=-5.02251327D-02 EMin= 9.35106172D-03
 Linear search not attempted -- first point.
 Maximum step size (   0.300) exceeded in Quadratic search.
    -- Step size scaled by   0.893
 Iteration  1 RMS(Cart)=  0.07041339 RMS(Int)=  0.00224285
 Iteration  2 RMS(Cart)=  0.00354317 RMS(Int)=  0.00074059
 Iteration  3 RMS(Cart)=  0.00000578 RMS(Int)=  0.00074058
 Iteration  4 RMS(Cart)=  0.00000001 RMS(Int)=  0.00074058
 Iteration  1 RMS(Cart)=  0.00001369 RMS(Int)=  0.00000521
 Iteration  2 RMS(Cart)=  0.00000747 RMS(Int)=  0.00000582
 Iteration  3 RMS(Cart)=  0.00000407 RMS(Int)=  0.00000657
 Iteration  4 RMS(Cart)=  0.00000222 RMS(Int)=  0.00000707
 Iteration  5 RMS(Cart)=  0.00000121 RMS(Int)=  0.00000736
 Iteration  6 RMS(Cart)=  0.00000066 RMS(Int)=  0.00000752
 Variable       Old X    -DE/DX   Delta X   Delta X   Delta X     New X
                                 (Linear)    (Quad)   (Total)
    R1        2.71917  -0.01463   0.00000  -0.03138  -0.03130   2.68787
    R2        2.71391  -0.05078   0.00000  -0.10161  -0.10164   2.61227
    R3        2.03793   0.00178   0.00000   0.00385   0.00385   2.04178
    R4        2.75906  -0.05860   0.00000  -0.12521  -0.12512   2.63394
    R5        2.81042   0.01100   0.00000   0.02533   0.02533   2.83575
    R6        3.39578  -0.01836   0.00000  -0.04962  -0.04963   3.34615
    R7        2.74954  -0.00546   0.00000  -0.01143  -0.01143   2.73810
    R8        2.06439  -0.00068   0.00000  -0.00153  -0.00153   2.06286
    R9        2.05781   0.00341   0.00000   0.00762   0.00762   2.06543
   R10        2.07638  -0.00319   0.00000  -0.00732  -0.00732   2.06905
   R11        3.28671  -0.01734   0.00000  -0.04073  -0.04083   3.24588
   R12        2.04073  -0.00026   0.00000  -0.00057  -0.00057   2.04016
   R13        3.38327  -0.01057   0.00000  -0.02492  -0.02572   3.35755
   R14        2.76755  -0.06315   0.00000  -0.13579  -0.13626   2.63129
   R15        3.26990  -0.00080   0.00000  -0.00066  -0.00048   3.26942
   R16        2.72421  -0.03162   0.00000  -0.06802  -0.06650   2.65771
   R17        2.69457  -0.00197   0.00000  -0.00661  -0.00601   2.68856
   R18        2.70678  -0.01117   0.00000  -0.02482  -0.02438   2.68239
   R19        3.27382   0.00192   0.00000   0.00654   0.00646   3.28028
   R20        2.03987   0.00116   0.00000   0.00251   0.00251   2.04239
   R21        3.33518  -0.01222   0.00000  -0.02859  -0.02937   3.30580
   R22        2.73086  -0.05806   0.00000  -0.11853  -0.11877   2.61210
   R23        2.04248  -0.00112   0.00000  -0.00245  -0.00245   2.04003
   R24        2.05352  -0.00389   0.00000  -0.00864  -0.00864   2.04488
    A1        1.97020   0.00748   0.00000   0.01870   0.01874   1.98895
    A2        2.17330  -0.00479   0.00000  -0.01380  -0.01383   2.15947
    A3        2.13967  -0.00269   0.00000  -0.00487  -0.00491   2.13477
    A4        1.97187  -0.00168   0.00000  -0.00949  -0.00933   1.96255
    A5        2.09905   0.01261   0.00000   0.03976   0.03967   2.13872
    A6        2.21227  -0.01093   0.00000  -0.03026  -0.03035   2.18192
    A7        1.90440   0.00471   0.00000   0.01533   0.01541   1.91980
    A8        2.31891  -0.01249   0.00000  -0.03789  -0.03793   2.28098
    A9        2.05972   0.00778   0.00000   0.02245   0.02240   2.08211
   A10        1.94548  -0.00369   0.00000  -0.01419  -0.01414   1.93134
   A11        1.93409   0.00323   0.00000   0.01278   0.01279   1.94688
   A12        1.93331   0.00357   0.00000   0.01461   0.01462   1.94793
   A13        1.87410   0.00066   0.00000   0.00382   0.00386   1.87796
   A14        1.86607   0.00080   0.00000   0.00517   0.00522   1.87129
   A15        1.90848  -0.00483   0.00000  -0.02325  -0.02328   1.88519
   A16        1.95339  -0.00315   0.00000  -0.01079  -0.01091   1.94248
   A17        2.17580   0.00681   0.00000   0.02766   0.02772   2.20352
   A18        2.15384  -0.00366   0.00000  -0.01680  -0.01675   2.13710
   A19        1.62490  -0.00735   0.00000  -0.01369  -0.01389   1.61100
   A20        2.12895  -0.00361   0.00000  -0.01033  -0.01032   2.11863
   A21        2.24053  -0.00236   0.00000  -0.00664  -0.00663   2.23390
   A22        1.91301   0.00603   0.00000   0.01752   0.01740   1.93042
   A23        1.61923  -0.00547   0.00000  -0.01261  -0.01204   1.60719
   A24        1.96133  -0.01117   0.00000  -0.02680  -0.02793   1.93340
   A25        2.23857   0.00898   0.00000   0.04910   0.04632   2.28489
   A26        1.96572   0.00595   0.00000   0.01817   0.01832   1.98404
   A27        1.96610   0.00762   0.00000   0.02175   0.02177   1.98788
   A28        1.96626  -0.01350   0.00000  -0.03335  -0.03427   1.93199
   A29        2.23776   0.00949   0.00000   0.04965   0.04704   2.28480
   A30        1.96437   0.00302   0.00000   0.00037   0.00099   1.96535
   A31        2.16076  -0.00564   0.00000  -0.01504  -0.01607   2.14468
   A32        2.14612   0.00324   0.00000   0.02293   0.02194   2.16805
   A33        1.59301   0.00068   0.00000   0.00398   0.00454   1.59755
   A34        1.96082   0.00125   0.00000   0.00207   0.00172   1.96254
   A35        2.13591  -0.00457   0.00000  -0.01372  -0.01493   2.12098
   A36        2.16911   0.00436   0.00000   0.02504   0.02400   2.19312
   A37        1.93864   0.00562   0.00000   0.00905   0.00962   1.94826
   A38        2.16540   0.00003   0.00000   0.01580   0.01371   2.17911
   A39        2.14236  -0.00377   0.00000  -0.00142  -0.00360   2.13876
    D1        0.00683  -0.00052   0.00000  -0.00924  -0.00929  -0.00246
    D2       -3.13456  -0.00059   0.00000  -0.01040  -0.01046   3.13816
    D3       -3.13952  -0.00006   0.00000  -0.00191  -0.00197  -3.14149
    D4        0.00227  -0.00014   0.00000  -0.00307  -0.00314  -0.00087
    D5       -0.00671   0.00054   0.00000   0.00706   0.00701   0.00030
    D6       -3.13020   0.00020   0.00000   0.00310   0.00307  -3.12713
    D7        3.13954   0.00010   0.00000  -0.00008  -0.00016   3.13937
    D8        0.01605  -0.00024   0.00000  -0.00404  -0.00410   0.01195
    D9       -0.00388   0.00033   0.00000   0.00730   0.00726   0.00338
   D10        3.11762   0.00049   0.00000   0.00069   0.00071   3.11833
   D11        3.13750   0.00042   0.00000   0.00856   0.00847  -3.13721
   D12       -0.02418   0.00057   0.00000   0.00195   0.00193  -0.02226
   D13        0.03777  -0.00019   0.00000  -0.00175  -0.00175   0.03602
   D14       -2.04840  -0.00073   0.00000  -0.00573  -0.00571  -2.05410
   D15        2.11332   0.00077   0.00000   0.00514   0.00510   2.11842
   D16       -3.10360  -0.00028   0.00000  -0.00308  -0.00308  -3.10667
   D17        1.09342  -0.00082   0.00000  -0.00707  -0.00703   1.08639
   D18       -1.02805   0.00068   0.00000   0.00380   0.00378  -1.02427
   D19        0.00006   0.00002   0.00000  -0.00271  -0.00281  -0.00275
   D20       -3.12486   0.00015   0.00000   0.00356   0.00367  -3.12118
   D21       -1.83234  -0.00143   0.00000   0.00000  -0.00000  -1.83234
   D22        1.26502   0.00060   0.00000   0.01807   0.01814   1.28316
   D23        1.28775  -0.00132   0.00000  -0.00721  -0.00720   1.28054
   D24       -1.89807   0.00071   0.00000   0.01085   0.01094  -1.88714
   D25        0.00376  -0.00031   0.00000  -0.00239  -0.00236   0.00140
   D26        3.12751   0.00016   0.00000   0.00205   0.00195   3.12946
   D27        3.13757   0.00079   0.00000   0.00809   0.00797  -3.13764
   D28        0.03279  -0.00075   0.00000  -0.00652  -0.00687   0.02591
   D29       -3.13845  -0.00141   0.00000  -0.01252  -0.01224   3.13250
   D30       -0.15835   0.00312   0.00000   0.04527   0.04504  -0.11330
   D31       -0.03668   0.00024   0.00000   0.00324   0.00380  -0.03288
   D32        2.94342   0.00477   0.00000   0.06103   0.06107   3.00450
   D33       -0.02119   0.00144   0.00000   0.00923   0.00911  -0.01207
   D34       -2.61667  -0.00737   0.00000  -0.07901  -0.07953  -2.69620
   D35        0.00339  -0.00117   0.00000  -0.00816  -0.00790  -0.00450
   D36       -2.68844  -0.01058   0.00000  -0.09237  -0.08964  -2.77808
   D37        2.68736   0.00823   0.00000   0.07868   0.07669   2.76405
   D38       -0.00447  -0.00118   0.00000  -0.00553  -0.00506  -0.00953
   D39        2.61370   0.00557   0.00000   0.08303   0.08494   2.69864
   D40       -0.24572  -0.00089   0.00000  -0.00418  -0.00330  -0.24901
   D41        0.01933   0.00106   0.00000   0.00590   0.00551   0.02484
   D42       -2.84009  -0.00540   0.00000  -0.08130  -0.08273  -2.92281
   D43        0.02209   0.00064   0.00000   0.00307   0.00268   0.02477
   D44       -2.95958  -0.00289   0.00000  -0.05013  -0.05140  -3.01098
   D45        2.62778   0.00444   0.00000   0.07518   0.07705   2.70483
   D46       -0.35389   0.00090   0.00000   0.02198   0.02297  -0.33092
   D47       -0.00891   0.00102   0.00000   0.00328   0.00311  -0.00580
   D48       -2.61456  -0.00801   0.00000  -0.08249  -0.08254  -2.69710
   D49        0.02002  -0.00031   0.00000   0.00031   0.00018   0.02020
   D50        2.97034   0.00594   0.00000   0.07634   0.07528   3.04562
   D51       -0.02596  -0.00026   0.00000  -0.00332  -0.00291  -0.02887
   D52        2.83783   0.00679   0.00000   0.08577   0.08617   2.92400
   D53       -2.97200  -0.00549   0.00000  -0.07599  -0.07655  -3.04855
   D54       -0.10822   0.00156   0.00000   0.01310   0.01253  -0.09569
         Item               Value     Threshold  Converged?
 Maximum Force            0.063146     0.000450     NO 
 RMS     Force            0.012439     0.000300     NO 
 Maximum Displacement     0.234328     0.001800     NO 
 RMS     Displacement     0.070763     0.001200     NO 
 Predicted change in Energy=-2.902063D-02
 GradGradGradGradGradGradGradGradGradGradGradGradGradGradGradGradGradGrad

                          Input orientation:                          
 ---------------------------------------------------------------------
 Center     Atomic      Atomic             Coordinates (Angstroms)
 Number     Number       Type             X           Y           Z
 ---------------------------------------------------------------------
      1          6           0       -4.202706   -1.402790   -0.185333
      2          6           0       -2.903953   -0.993842   -0.596564
      3          6           0       -1.992504   -2.048302   -0.607288
      4          6           0       -2.585108    0.423721   -0.971661
      5          6           0       -4.298725   -2.748846    0.114370
      6          1           0       -5.047350   -0.733036   -0.111811
      7         16           0       -2.792275   -3.545136   -0.102070
      8          1           0       -5.189036   -3.270173    0.432359
      9          6           0       -0.592470   -2.083063   -0.978944
     10         16           0       -0.060530   -2.798214   -2.515952
     11          6           0        1.600135   -2.453625   -2.174327
     12          6           0        1.729544   -1.801007   -0.935254
     13          6           0        0.494924   -1.576996   -0.271627
     14          1           0        0.386999   -0.990284    0.629602
     15         16           0        3.239368   -0.949233   -0.845305
     16          6           0        3.687060   -1.477801   -2.451678
     17          6           0        2.708268   -2.253608   -3.043911
     18          1           0        4.583874   -1.119679   -2.934244
     19          1           0        2.721036   -2.503071   -4.096792
     20          1           0       -3.461739    1.061899   -0.845673
     21          1           0       -2.267059    0.501199   -2.014465
     22          1           0       -1.789753    0.837888   -0.343431
 ---------------------------------------------------------------------
                    Distance matrix (angstroms):
                    1          2          3          4          5
     1  C    0.000000
     2  C    1.422360   0.000000
     3  C    2.340880   1.393822   0.000000
     4  C    2.563411   1.500614   2.568043   0.000000
     5  C    1.382356   2.351777   2.515990   3.765784   0.000000
     6  H    1.080463   2.212952   3.362663   2.853079   2.162195
     7  S    2.566300   2.601173   1.770704   4.068284   1.717648
     8  H    2.200343   3.385553   3.576541   4.732501   1.079607
     9  C    3.758509   2.583713   1.448942   3.202285   3.921088
    10  S    4.953444   3.876192   2.817427   4.374837   4.988319
    11  C    6.223609   4.990702   3.940426   5.219366   6.334180
    12  C    5.992708   4.715456   3.744645   4.854582   6.191942
    13  C    4.701651   3.463816   2.553840   3.738919   4.949879
    14  H    4.679708   3.511960   2.882938   3.660174   5.031303
    15  S    7.485034   6.148516   5.351363   5.985440   7.809125
    16  C    8.209163   6.864191   5.998725   6.719103   8.483686
    17  C    7.527079   6.250884   5.298731   6.283482   7.701815
    18  H    9.210899   7.845262   7.037458   7.591319   9.531464
    19  H    8.027972   6.794842   5.882255   6.818191   8.189710
    20  H    2.657024   2.144587   3.448018   1.091617   4.017961
    21  H    3.273779   2.156670   2.924975   1.092977   4.384336
    22  H    3.296661   2.158877   2.905309   1.094896   4.401043
                    6          7          8          9         10
     6  H    0.000000
     7  S    3.604631   0.000000
     8  H    2.598704   2.470967   0.000000
     9  C    4.735023   2.783111   4.952719   0.000000
    10  S    5.908741   3.721176   5.934379   1.776737   0.000000
    11  C    7.169620   4.977842   7.318087   2.524633   1.730104
    12  C    6.909770   4.917625   7.203858   2.339491   2.587933
    13  C    5.608441   3.835102   5.972424   1.392418   2.614746
    14  H    5.490721   4.143718   6.027351   2.177371   3.655599
    15  S    8.321926   6.608467   8.834997   3.998301   4.135108
    16  C    9.073014   7.195577   9.503439   4.566144   3.973922
    17  C    8.429648   6.370122   8.688226   3.897185   2.870816
    18  H   10.043709   8.265085  10.557860   5.616569   4.956101
    19  H    8.908475   6.887692   9.147180   4.569104   3.212986
    20  H    2.504896   4.714436   4.835677   4.259255   5.409116
    21  H    3.587958   4.506211   5.361730   3.248840   4.000798
    22  H    3.624001   4.502689   5.388241   3.220143   4.575074
                   11         12         13         14         15
    11  C    0.000000
    12  C    1.406399   0.000000
    13  C    2.368593   1.419461   0.000000
    14  H    3.387489   2.215508   1.080784   0.000000
    15  S    2.591636   1.735850   2.873180   3.211393   0.000000
    16  C    2.320434   2.497173   3.866807   4.541186   1.749356
    17  C    1.422724   2.368371   3.611406   4.525371   2.611001
    18  H    3.355531   3.550685   4.900835   5.507405   2.490063
    19  H    2.225924   3.386926   4.521623   5.484073   3.640775
    20  H    6.304507   5.929054   4.790458   4.604420   6.996391
    21  H    4.869469   4.736843   3.871037   4.032324   5.813039
    22  H    5.067305   4.438409   3.325142   3.004539   5.360759
                   16         17         18         19         20
    16  C    0.000000
    17  C    1.382262   0.000000
    18  H    1.079535   2.194475   0.000000
    19  H    2.165821   1.082106   2.595276   0.000000
    20  H    7.754655   7.341242   8.593795   7.842545   0.000000
    21  H    6.289605   5.779498   7.099896   6.184078   1.762873
    22  H    6.308931   6.089510   7.153146   6.752551   1.760104
                   21         22
    21  H    0.000000
    22  H    1.770180   0.000000
 Stoichiometry    C11H8S3
 Framework group  C1[X(C11H8S3)]
 Deg. of freedom    60
 Full point group                 C1      NOp   1
 Largest Abelian subgroup         C1      NOp   1
 Largest concise Abelian subgroup C1      NOp   1
                         Standard orientation:                         
 ---------------------------------------------------------------------
 Center     Atomic      Atomic             Coordinates (Angstroms)
 Number     Number       Type             X           Y           Z
 ---------------------------------------------------------------------
      1          6           0        3.917676    0.778582    0.277118
      2          6           0        2.529685    1.036065    0.451163
      3          6           0        1.729833    0.035495   -0.098232
      4          6           0        2.017550    2.258742    1.154458
      5          6           0        4.190400   -0.400199   -0.391466
      6          1           0        4.698805    1.435076    0.632438
      7         16           0        2.744829   -1.221298   -0.823247
      8          1           0        5.169850   -0.793360   -0.618744
      9          6           0        0.288895   -0.114378   -0.124088
     10         16           0       -0.538812   -1.284159    0.926296
     11          6           0       -2.090290   -0.845360    0.298898
     12          6           0       -1.969056    0.170672   -0.665954
     13          6           0       -0.632886    0.593776   -0.890681
     14          1           0       -0.358237    1.438547   -1.506330
     15         16           0       -3.475838    1.008776   -0.866870
     16          6           0       -4.253692   -0.006704    0.326441
     17          6           0       -3.387653   -0.933200    0.876197
     18          1           0       -5.266041    0.179071    0.652070
     19          1           0       -3.633774   -1.507407    1.759749
     20          1           0        2.844787    2.902119    1.460027
     21          1           0        1.452437    1.997921    2.052911
     22          1           0        1.366528    2.853983    0.505878
 ---------------------------------------------------------------------
 Rotational constants (GHZ):           1.2588556           0.2675024           0.2498239
 Standard basis: 6-311+G(d,p) (5D, 7F)
 There are   394 symmetry adapted cartesian basis functions of A   symmetry.
 There are   380 symmetry adapted basis functions of A   symmetry.
   380 basis functions,   610 primitive gaussians,   394 cartesian basis functions
    61 alpha electrons       61 beta electrons
       nuclear repulsion energy      1119.5597263403 Hartrees.
 NAtoms=   22 NActive=   22 NUniq=   22 SFac= 1.00D+00 NAtFMM=   60 NAOKFM=F Big=F
 Integral buffers will be    131072 words long.
 Raffenetti 2 integral format.
 Two-electron integral symmetry is turned on.
 One-electron integrals computed using PRISM.
 NBasis=   380 RedAO= T EigKep=  2.82D-06  NBF=   380
 NBsUse=   378 1.00D-06 EigRej=  9.91D-07 NBFU=   378
 Initial guess from the checkpoint file:  "/tmp/pbs.4729010[70].pbs/Gau-4070320.chk"
 B after Tr=     0.000000   -0.000000   -0.000000
         Rot=    0.999981   -0.005058    0.002374   -0.002535 Ang=  -0.70 deg.
 ExpMin= 4.05D-02 ExpMax= 9.34D+04 ExpMxC= 3.17D+03 IAcc=3 IRadAn=         5 AccDes= 0.00D+00
 Harris functional with IExCor=  402 and IRadAn=       5 diagonalized for initial guess.
 HarFok:  IExCor=  402 AccDes= 0.00D+00 IRadAn=         5 IDoV= 1 UseB2=F ITyADJ=14
 ICtDFT=  3500011 ScaDFX=  1.000000  1.000000  1.000000  1.000000
 FoFCou: FMM=F IPFlag=           0 FMFlag=      100000 FMFlg1=           0
         NFxFlg=           0 DoJE=T BraDBF=F KetDBF=T FulRan=T
         wScrn=  0.000000 ICntrl=       500 IOpCl=  0 I1Cent=   200000004 NGrid=           0
         NMat0=    1 NMatS0=      1 NMatT0=    0 NMatD0=    1 NMtDS0=    0 NMtDT0=    0
 Petite list used in FoFCou.
 Requested convergence on RMS density matrix=1.00D-08 within 128 cycles.
 Requested convergence on MAX density matrix=1.00D-06.
 Requested convergence on             energy=1.00D-06.
 No special actions if energy rises.
 SCF Done:  E(RB3LYP) =  -1618.70407577     A.U. after   14 cycles
            NFock= 14  Conv=0.56D-08     -V/T= 2.0023
 Calling FoFJK, ICntrl=      2127 FMM=F ISym2X=0 I1Cent= 0 IOpClX= 0 NMat=1 NMatS=1 NMatT=0.
 ***** Axes restored to original set *****
 -------------------------------------------------------------------
 Center     Atomic                   Forces (Hartrees/Bohr)
 Number     Number              X              Y              Z
 -------------------------------------------------------------------
      1        6          -0.001261948   -0.015987945    0.004469983
      2        6           0.008484072   -0.008078584    0.000817454
      3        6          -0.019800100   -0.001391705    0.002544275
      4        6           0.002126441    0.003240275    0.000206715
      5        6          -0.000993989    0.017108643   -0.004203340
      6        1          -0.000471000    0.001776796   -0.000227985
      7       16           0.003119676    0.002072345   -0.001265647
      8        1           0.001849563   -0.002588361    0.000372952
      9        6           0.022617095    0.008867415    0.007016514
     10       16          -0.007029696   -0.006978807    0.003585236
     11        6           0.002061750    0.014550191    0.004618913
     12        6          -0.007622472    0.002786568   -0.013965059
     13        6          -0.012603165   -0.005917050   -0.008611445
     14        1          -0.001056637   -0.003652848    0.002857506
     15       16           0.009876382   -0.002135574    0.001293209
     16        6          -0.015200950   -0.008406219   -0.008098801
     17        6           0.009925543    0.012009066    0.004669060
     18        1           0.002577205   -0.001133957    0.004257309
     19        1           0.002369903   -0.005566226    0.001816343
     20        1          -0.000483155   -0.000474816   -0.000133247
     21        1           0.001495894    0.000264995   -0.000115706
     22        1           0.000019589   -0.000364204   -0.001904240
 -------------------------------------------------------------------
 Cartesian Forces:  Max     0.022617095 RMS     0.007301542

 GradGradGradGradGradGradGradGradGradGradGradGradGradGradGradGradGradGrad
 Berny optimization.
 Using GEDIIS/GDIIS optimizer.
 FormGI is forming the generalized inverse of G from B-inverse, IUseBI=4.
 Internal  Forces:  Max     0.017121422 RMS     0.003679629
 Search for a local minimum.
 Step number   2 out of a maximum of  127
 All quantities printed in internal units (Hartrees-Bohrs-Radians)
 Mixed Optimization -- RFO/linear search
 Update second derivatives using D2CorX and points    1    2
 DE= -3.02D-02 DEPred=-2.90D-02 R= 1.04D+00
 TightC=F SS=  1.41D+00  RLast= 4.07D-01 DXNew= 5.0454D-01 1.2204D+00
 Trust test= 1.04D+00 RLast= 4.07D-01 DXMaxT set to 5.05D-01
 ITU=  1  0
 Use linear search instead of GDIIS.
     Eigenvalues ---    0.00935   0.00981   0.01047   0.01209   0.01241
     Eigenvalues ---    0.01274   0.01290   0.01372   0.01462   0.01476
     Eigenvalues ---    0.01500   0.01581   0.01592   0.01695   0.01982
     Eigenvalues ---    0.02233   0.07203   0.07353   0.15580   0.15686
     Eigenvalues ---    0.15891   0.15963   0.16000   0.16000   0.16000
     Eigenvalues ---    0.16039   0.19146   0.22475   0.22549   0.23458
     Eigenvalues ---    0.24153   0.24514   0.24779   0.24993   0.25071
     Eigenvalues ---    0.26006   0.26506   0.28359   0.30358   0.31075
     Eigenvalues ---    0.31431   0.33695   0.33814   0.34530   0.34663
     Eigenvalues ---    0.34937   0.35204   0.35826   0.35895   0.36006
     Eigenvalues ---    0.36062   0.36095   0.36220   0.37059   0.38169
     Eigenvalues ---    0.38986   0.39499   0.40475   0.420901000.00000
     Eigenvalues --- 1000.000001000.000001000.000001000.000001000.00000
     Eigenvalues --- 1000.000001000.000001000.000001000.000001000.00000
     Eigenvalues --- 1000.000001000.000001000.000001000.000001000.00000
     Eigenvalues --- 1000.000001000.000001000.000001000.000001000.00000
     Eigenvalues --- 1000.000001000.000001000.000001000.000001000.00000
     Eigenvalues --- 1000.000001000.000001000.000001000.000001000.00000
     Eigenvalues --- 1000.000001000.000001000.000001000.000001000.00000
     Eigenvalues --- 1000.000001000.000001000.000001000.000001000.00000
     Eigenvalues --- 1000.000001000.000001000.000001000.000001000.00000
     Eigenvalues --- 1000.000001000.000001000.000001000.000001000.00000
     Eigenvalues --- 1000.000001000.000001000.000001000.000001000.00000
     Eigenvalues --- 1000.000001000.00000
 RFO step:  Lambda=-6.81389837D-03 EMin= 9.35094269D-03
 Quartic linear search produced a step of  0.38536.
 Iteration  1 RMS(Cart)=  0.07712693 RMS(Int)=  0.00585969
 Iteration  2 RMS(Cart)=  0.00739175 RMS(Int)=  0.00229772
 Iteration  3 RMS(Cart)=  0.00003193 RMS(Int)=  0.00229756
 Iteration  4 RMS(Cart)=  0.00000002 RMS(Int)=  0.00229756
 Iteration  1 RMS(Cart)=  0.00002525 RMS(Int)=  0.00000960
 Iteration  2 RMS(Cart)=  0.00001382 RMS(Int)=  0.00001073
 Iteration  3 RMS(Cart)=  0.00000756 RMS(Int)=  0.00001212
 Iteration  4 RMS(Cart)=  0.00000414 RMS(Int)=  0.00001304
 Iteration  5 RMS(Cart)=  0.00000226 RMS(Int)=  0.00001359
 Iteration  6 RMS(Cart)=  0.00000124 RMS(Int)=  0.00001389
 Iteration  7 RMS(Cart)=  0.00000068 RMS(Int)=  0.00001406
 Variable       Old X    -DE/DX   Delta X   Delta X   Delta X     New X
                                 (Linear)    (Quad)   (Total)
    R1        2.68787   0.00184  -0.01206   0.02034   0.00829   2.69616
    R2        2.61227  -0.01242  -0.03917   0.00525  -0.03395   2.57832
    R3        2.04178   0.00145   0.00148   0.00356   0.00505   2.04683
    R4        2.63394  -0.01274  -0.04822   0.01242  -0.03575   2.59819
    R5        2.83575   0.00368   0.00976   0.00248   0.01224   2.84799
    R6        3.34615  -0.00589  -0.01913  -0.00427  -0.02338   3.32277
    R7        2.73810   0.00575  -0.00441   0.02582   0.02141   2.75952
    R8        2.06286   0.00010  -0.00059   0.00110   0.00050   2.06336
    R9        2.06543   0.00056   0.00294  -0.00145   0.00149   2.06691
   R10        2.06905  -0.00122  -0.00282  -0.00131  -0.00414   2.06492
   R11        3.24588   0.00100  -0.01573   0.02418   0.00841   3.25429
   R12        2.04016  -0.00017  -0.00022  -0.00035  -0.00057   2.03960
   R13        3.35755  -0.00291  -0.00991   0.00713  -0.00541   3.35214
   R14        2.63129  -0.01712  -0.05251   0.00486  -0.04937   2.58192
   R15        3.26942   0.00478  -0.00018   0.01829   0.01885   3.28827
   R16        2.65771  -0.00800  -0.02563  -0.00768  -0.02858   2.62913
   R17        2.68856   0.00165  -0.00231   0.00494   0.00424   2.69279
   R18        2.68239   0.00125  -0.00940   0.01223   0.00417   2.68656
   R19        3.28028   0.00468   0.00249   0.01541   0.01778   3.29806
   R20        2.04239   0.00051   0.00097   0.00069   0.00166   2.04404
   R21        3.30580  -0.00276  -0.01132   0.00923  -0.00426   3.30154
   R22        2.61210  -0.01434  -0.04577   0.00867  -0.03786   2.57423
   R23        2.04003  -0.00014  -0.00095   0.00064  -0.00030   2.03972
   R24        2.04488  -0.00046  -0.00333   0.00235  -0.00098   2.04391
    A1        1.98895  -0.00042   0.00722  -0.01349  -0.00630   1.98265
    A2        2.15947  -0.00096  -0.00533  -0.00025  -0.00557   2.15390
    A3        2.13477   0.00138  -0.00189   0.01373   0.01185   2.14662
    A4        1.96255  -0.00064  -0.00359   0.00052  -0.00303   1.95952
    A5        2.13872   0.00383   0.01529   0.00056   0.01581   2.15453
    A6        2.18192  -0.00319  -0.01169  -0.00109  -0.01282   2.16910
    A7        1.91980   0.00315   0.00594   0.00916   0.01515   1.93496
    A8        2.28098  -0.00703  -0.01462  -0.01815  -0.03281   2.24817
    A9        2.08211   0.00389   0.00863   0.00912   0.01772   2.09983
   A10        1.93134  -0.00068  -0.00545   0.00503  -0.00040   1.93094
   A11        1.94688   0.00030   0.00493  -0.00680  -0.00187   1.94501
   A12        1.94793   0.00081   0.00563  -0.00244   0.00318   1.95111
   A13        1.87796   0.00043   0.00149   0.00239   0.00390   1.88186
   A14        1.87129   0.00058   0.00201   0.00525   0.00726   1.87855
   A15        1.88519  -0.00145  -0.00897  -0.00298  -0.01197   1.87322
   A16        1.94248   0.00099  -0.00421   0.01161   0.00732   1.94979
   A17        2.20352   0.00276   0.01068   0.00796   0.01867   2.22220
   A18        2.13710  -0.00374  -0.00645  -0.01950  -0.02592   2.11118
   A19        1.61100  -0.00308  -0.00535  -0.00782  -0.01322   1.59778
   A20        2.11863  -0.00296  -0.00398  -0.01138  -0.01528   2.10334
   A21        2.23390  -0.00012  -0.00256   0.00180  -0.00069   2.23321
   A22        1.93042   0.00310   0.00671   0.00994   0.01621   1.94663
   A23        1.60719  -0.00264  -0.00464  -0.01262  -0.01509   1.59210
   A24        1.93340  -0.00200  -0.01076   0.01224  -0.00114   1.93226
   A25        2.28489   0.00386   0.01785   0.04204   0.04882   2.33371
   A26        1.98404   0.00039   0.00706  -0.00321   0.00291   1.98695
   A27        1.98788   0.00023   0.00839  -0.00518   0.00218   1.99006
   A28        1.93199  -0.00180  -0.01321   0.01694   0.00110   1.93309
   A29        2.28480   0.00377   0.01813   0.03936   0.04645   2.33125
   A30        1.96535   0.00133   0.00038  -0.00359  -0.00166   1.96369
   A31        2.14468  -0.00179  -0.00619   0.00590  -0.00380   2.14088
   A32        2.16805   0.00076   0.00845   0.00561   0.01056   2.17861
   A33        1.59755  -0.00213   0.00175  -0.01970  -0.01510   1.58245
   A34        1.96254   0.00257   0.00066   0.01671   0.01588   1.97842
   A35        2.12098  -0.00465  -0.00575  -0.02066  -0.03103   2.08995
   A36        2.19312   0.00256   0.00925   0.01685   0.02138   2.21450
   A37        1.94826   0.00098   0.00371  -0.00999  -0.00446   1.94380
   A38        2.17911  -0.00058   0.00528   0.00631   0.00499   2.18410
   A39        2.13876   0.00045  -0.00139   0.02353   0.01560   2.15436
    D1       -0.00246  -0.00024  -0.00358  -0.00389  -0.00747  -0.00993
    D2        3.13816  -0.00039  -0.00403  -0.01165  -0.01574   3.12242
    D3       -3.14149  -0.00005  -0.00076  -0.00216  -0.00297   3.13872
    D4       -0.00087  -0.00020  -0.00121  -0.00992  -0.01124  -0.01212
    D5        0.00030   0.00023   0.00270  -0.00119   0.00148   0.00177
    D6       -3.12713  -0.00005   0.00118  -0.00697  -0.00588  -3.13301
    D7        3.13937   0.00003  -0.00006  -0.00292  -0.00303   3.13634
    D8        0.01195  -0.00025  -0.00158  -0.00869  -0.01039   0.00156
    D9        0.00338   0.00014   0.00280   0.00700   0.00984   0.01322
   D10        3.11833   0.00051   0.00027   0.01301   0.01327   3.13160
   D11       -3.13721   0.00029   0.00327   0.01498   0.01818  -3.11903
   D12       -0.02226   0.00066   0.00074   0.02099   0.02161  -0.00065
   D13        0.03602  -0.00019  -0.00068  -0.00309  -0.00377   0.03225
   D14       -2.05410  -0.00048  -0.00220  -0.00500  -0.00718  -2.06129
   D15        2.11842   0.00061   0.00197   0.00527   0.00723   2.12565
   D16       -3.10667  -0.00036  -0.00119  -0.01184  -0.01303  -3.11970
   D17        1.08639  -0.00065  -0.00271  -0.01375  -0.01644   1.06995
   D18       -1.02427   0.00044   0.00146  -0.00348  -0.00203  -1.02630
   D19       -0.00275  -0.00001  -0.00108  -0.00654  -0.00770  -0.01045
   D20       -3.12118  -0.00014   0.00141  -0.01128  -0.00991  -3.13110
   D21       -1.83234  -0.00118  -0.00000   0.00000  -0.00000  -1.83234
   D22        1.28316   0.00037   0.00699   0.01954   0.02675   1.30991
   D23        1.28054  -0.00081  -0.00278   0.00642   0.00358   1.28412
   D24       -1.88714   0.00073   0.00421   0.02597   0.03033  -1.85680
   D25        0.00140  -0.00013  -0.00091   0.00440   0.00347   0.00487
   D26        3.12946   0.00020   0.00075   0.01016   0.01069   3.14015
   D27       -3.13764   0.00044   0.00307  -0.00425  -0.00155  -3.13919
   D28        0.02591  -0.00083  -0.00265  -0.02065  -0.02408   0.00184
   D29        3.13250  -0.00055  -0.00472   0.00688   0.00256   3.13506
   D30       -0.11330   0.00261   0.01736   0.08788   0.10491  -0.00839
   D31       -0.03288   0.00079   0.00146   0.02445   0.02696  -0.00592
   D32        3.00450   0.00395   0.02354   0.10545   0.12932   3.13381
   D33       -0.01207   0.00073   0.00351   0.01132   0.01486   0.00279
   D34       -2.69620  -0.00508  -0.03065  -0.12284  -0.15646  -2.85267
   D35       -0.00450  -0.00030  -0.00304   0.00065  -0.00223  -0.00674
   D36       -2.77808  -0.00607  -0.03455  -0.12211  -0.15034  -2.92842
   D37        2.76405   0.00556   0.02955   0.12212   0.14586   2.90991
[...]
     14          1           0       -0.304831    1.477030   -1.459527
     15         16           0       -3.518760    0.964879   -0.925454
     16          6           0       -4.304859   -0.186999    0.129683
     17          6           0       -3.427036   -0.965909    0.826564
     18          1           0       -5.383278   -0.213047    0.165924
     19          1           0       -3.731328   -1.732649    1.525326
     20          1           0        2.615816    2.243486    2.174774
     21          1           0        1.038067    2.151001    1.378057
     22          1           0        2.340679    3.109239    0.664373
 ---------------------------------------------------------------------
 Rotational constants (GHZ):           1.2764297           0.2635505           0.2489908

 **********************************************************************

            Population analysis using the SCF Density.

 **********************************************************************

 Orbital symmetries:
       Occupied  (A) (A) (A) (A) (A) (A) (A) (A) (A) (A) (A) (A)
                 (A) (A) (A) (A) (A) (A) (A) (A) (A) (A) (A) (A)
                 (A) (A) (A) (A) (A) (A) (A) (A) (A) (A) (A) (A)
                 (A) (A) (A) (A) (A) (A) (A) (A) (A) (A) (A) (A)
                 (A) (A) (A) (A) (A) (A) (A) (A) (A) (A) (A) (A)
                 (A)
       Virtual   (A) (A) (A) (A) (A) (A) (A) (A) (A) (A) (A) (A)
                 (A) (A) (A) (A) (A) (A) (A) (A) (A) (A) (A) (A)
                 (A) (A) (A) (A) (A) (A) (A) (A) (A) (A) (A) (A)
                 (A) (A) (A) (A) (A) (A) (A) (A) (A) (A) (A) (A)
                 (A) (A) (A) (A) (A) (A) (A) (A) (A) (A) (A) (A)
                 (A) (A) (A) (A) (A) (A) (A) (A) (A) (A) (A) (A)
                 (A) (A) (A) (A) (A) (A) (A) (A) (A) (A) (A) (A)
                 (A) (A) (A) (A) (A) (A) (A) (A) (A) (A) (A) (A)
                 (A) (A) (A) (A) (A) (A) (A) (A) (A) (A) (A) (A)
                 (A) (A) (A) (A) (A) (A) (A) (A) (A) (A) (A) (A)
                 (A) (A) (A) (A) (A) (A) (A) (A) (A) (A) (A) (A)
                 (A) (A) (A) (A) (A) (A) (A) (A) (A) (A) (A) (A)
                 (A) (A) (A) (A) (A) (A) (A) (A) (A) (A) (A) (A)
                 (A) (A) (A) (A) (A) (A) (A) (A) (A) (A) (A) (A)
                 (A) (A) (A) (A) (A) (A) (A) (A) (A) (A) (A) (A)
                 (A) (A) (A) (A) (A) (A) (A) (A) (A) (A) (A) (A)
                 (A) (A) (A) (A) (A) (A) (A) (A) (A) (A) (A) (A)
                 (A) (A) (A) (A) (A) (A) (A) (A) (A) (A) (A) (A)
                 (A) (A) (A) (A) (A) (A) (A) (A) (A) (A) (A) (A)
                 (A) (A) (A) (A) (A) (A) (A) (A) (A) (A) (A) (A)
                 (A) (A) (A) (A) (A) (A) (A) (A) (A) (A) (A) (A)
                 (A) (A) (A) (A) (A) (A) (A) (A) (A) (A) (A) (A)
                 (A) (A) (A) (A) (A) (A) (A) (A) (A) (A) (A) (A)
                 (A) (A) (A) (A) (A) (A) (A) (A) (A) (A) (A) (A)
                 (A) (A) (A) (A) (A) (A) (A) (A) (A) (A) (A) (A)
                 (A) (A) (A) (A) (A) (A) (A) (A) (A) (A) (A) (A)
                 (A) (A) (A) (A) (A) (A)
 The electronic state is 1-A.
 Alpha  occ. eigenvalues --  -88.88476 -88.88237 -88.87881 -10.22175 -10.21228
 Alpha  occ. eigenvalues --  -10.21168 -10.21105 -10.21093 -10.20477 -10.19382
 Alpha  occ. eigenvalues --  -10.19369 -10.19286 -10.18021 -10.17381  -7.97050
 Alpha  occ. eigenvalues --   -7.96806  -7.96494  -5.93362  -5.93121  -5.92997
 Alpha  occ. eigenvalues --   -5.92784  -5.92758  -5.92600  -5.92409  -5.92344
 Alpha  occ. eigenvalues --   -5.92089  -0.91639  -0.89116  -0.84907  -0.77659
 Alpha  occ. eigenvalues --   -0.77031  -0.75580  -0.71424  -0.70544  -0.67888
 Alpha  occ. eigenvalues --   -0.61321  -0.57478  -0.56731  -0.54271  -0.52038
 Alpha  occ. eigenvalues --   -0.49927  -0.49687  -0.44587  -0.43657  -0.43596
 Alpha  occ. eigenvalues --   -0.42102  -0.41434  -0.39931  -0.39509  -0.39017
 Alpha  occ. eigenvalues --   -0.37672  -0.37368  -0.36519  -0.34902  -0.34274
 Alpha  occ. eigenvalues --   -0.33688  -0.29083  -0.25417  -0.24678  -0.23728
 Alpha  occ. eigenvalues --   -0.22282
 Alpha virt. eigenvalues --   -0.04778  -0.02970  -0.00541  -0.00292   0.00163
 Alpha virt. eigenvalues --    0.00533   0.00729   0.01634   0.01786   0.02773
 Alpha virt. eigenvalues --    0.02879   0.03176   0.03609   0.03935   0.04440
 Alpha virt. eigenvalues --    0.04714   0.05368   0.05809   0.05969   0.06663
 Alpha virt. eigenvalues --    0.06832   0.07528   0.07888   0.08204   0.08947
 Alpha virt. eigenvalues --    0.09066   0.09773   0.10190   0.10473   0.10760
 Alpha virt. eigenvalues --    0.11412   0.12213   0.12500   0.12646   0.13213
 Alpha virt. eigenvalues --    0.13593   0.14060   0.14287   0.14729   0.15163
 Alpha virt. eigenvalues --    0.15756   0.15943   0.16240   0.16636   0.16795
 Alpha virt. eigenvalues --    0.17225   0.17973   0.18168   0.18471   0.18808
 Alpha virt. eigenvalues --    0.19271   0.19576   0.20288   0.20328   0.20807
 Alpha virt. eigenvalues --    0.21362   0.21469   0.21969   0.22182   0.22676
 Alpha virt. eigenvalues --    0.22865   0.23172   0.23792   0.24094   0.24286
 Alpha virt. eigenvalues --    0.24842   0.25327   0.25649   0.26823   0.27874
 Alpha virt. eigenvalues --    0.28027   0.28374   0.29152   0.29894   0.30219
 Alpha virt. eigenvalues --    0.31128   0.32442   0.33058   0.33180   0.34213
 Alpha virt. eigenvalues --    0.34772   0.35253   0.35732   0.37035   0.37949
 Alpha virt. eigenvalues --    0.40160   0.40430   0.41539   0.43942   0.44189
 Alpha virt. eigenvalues --    0.45837   0.46819   0.47107   0.47382   0.48667
 Alpha virt. eigenvalues --    0.49628   0.50444   0.52424   0.54156   0.55220
 Alpha virt. eigenvalues --    0.55694   0.56136   0.56996   0.57589   0.58040
 Alpha virt. eigenvalues --    0.58870   0.60576   0.61142   0.62206   0.62780
 Alpha virt. eigenvalues --    0.63189   0.64087   0.64609   0.65199   0.65970
 Alpha virt. eigenvalues --    0.66562   0.67827   0.69497   0.70360   0.70835
 Alpha virt. eigenvalues --    0.71771   0.71981   0.73132   0.73684   0.74457
 Alpha virt. eigenvalues --    0.76173   0.76718   0.77665   0.78391   0.78865
 Alpha virt. eigenvalues --    0.80147   0.80491   0.81195   0.81952   0.82701
 Alpha virt. eigenvalues --    0.82867   0.83740   0.84104   0.84349   0.85116
 Alpha virt. eigenvalues --    0.85935   0.87631   0.89160   0.90309   0.91023
 Alpha virt. eigenvalues --    0.91959   0.93748   0.94450   0.96254   0.96962
 Alpha virt. eigenvalues --    0.98272   0.99200   1.00221   1.02666   1.03049
 Alpha virt. eigenvalues --    1.03702   1.04291   1.04885   1.06714   1.06737
 Alpha virt. eigenvalues --    1.07167   1.08768   1.09792   1.12086   1.12815
 Alpha virt. eigenvalues --    1.17888   1.18764   1.19809   1.21765   1.26488
 Alpha virt. eigenvalues --    1.34071   1.34405   1.35410   1.36114   1.37591
 Alpha virt. eigenvalues --    1.38873   1.42352   1.46209   1.50098   1.51118
 Alpha virt. eigenvalues --    1.52567   1.54426   1.55272   1.56896   1.57616
 Alpha virt. eigenvalues --    1.58761   1.59147   1.60173   1.61499   1.62484
 Alpha virt. eigenvalues --    1.63268   1.64654   1.67561   1.68914   1.70771
 Alpha virt. eigenvalues --    1.72259   1.73536   1.74390   1.75353   1.77076
 Alpha virt. eigenvalues --    1.77323   1.77845   1.81015   1.82132   1.82787
 Alpha virt. eigenvalues --    1.84036   1.86582   1.88304   1.89141   1.91344
 Alpha virt. eigenvalues --    1.93155   1.93518   1.95434   1.96881   1.97177
 Alpha virt. eigenvalues --    1.98906   2.01088   2.02798   2.04834   2.05561
 Alpha virt. eigenvalues --    2.08100   2.08175   2.08935   2.09892   2.12312
 Alpha virt. eigenvalues --    2.12655   2.13807   2.14569   2.15972   2.17491
 Alpha virt. eigenvalues --    2.19146   2.19800   2.28750   2.30299   2.32215
 Alpha virt. eigenvalues --    2.38401   2.40666   2.42733   2.43975   2.44998
 Alpha virt. eigenvalues --    2.46815   2.52164   2.54447   2.55408   2.59108
 Alpha virt. eigenvalues --    2.59161   2.62479   2.64158   2.66195   2.69991
 Alpha virt. eigenvalues --    2.70340   2.71609   2.72790   2.73629   2.74217
 Alpha virt. eigenvalues --    2.74544   2.77068   2.79417   2.84184   2.84487
 Alpha virt. eigenvalues --    2.88280   2.91856   2.93490   2.94683   2.97275
 Alpha virt. eigenvalues --    3.00480   3.03292   3.05378   3.07247   3.11352
 Alpha virt. eigenvalues --    3.13427   3.16870   3.22612   3.29499   3.30535
 Alpha virt. eigenvalues --    3.31966   3.34776   3.42037   3.44450   3.47230
 Alpha virt. eigenvalues --    3.53582   3.57865   3.70379   3.79499   3.84139
 Alpha virt. eigenvalues --    3.94807   3.98727   4.06666   4.13699   4.33571
 Alpha virt. eigenvalues --    4.35764   4.50277   7.98752   7.99848   8.01500
 Alpha virt. eigenvalues --   17.28244  17.30917  17.31265  17.45462  17.47147
 Alpha virt. eigenvalues --   17.50845  17.51511  17.53882  17.56742  23.47799
 Alpha virt. eigenvalues --   23.64457  23.77238  23.81443  23.86004  23.95777
 Alpha virt. eigenvalues --   24.01950  24.08634  24.13596  24.15196  24.15646
 Alpha virt. eigenvalues --  189.15653 189.17111 189.18935
          Condensed to atoms (all electrons):
               1          2          3          4          5          6
     1  C   12.840929  -8.506609   7.180179  -2.925953  -1.733196   0.331114
     2  C   -8.506609  26.940588 -15.801160   2.779258   3.514563   0.005597
     3  C    7.180179 -15.801160  23.013690  -3.814489  -3.050562  -0.006641
     4  C   -2.925953   2.779258  -3.814489   8.884767   0.604296   0.012964
     5  C   -1.733196   3.514563  -3.050562   0.604296   6.320315  -0.008111
     6  H    0.331114   0.005597  -0.006641   0.012964  -0.008111   0.535281
     7  S   -1.818352   1.395535  -2.462146   0.758864   0.450321   0.010227
     8  H    0.028501  -0.046910   0.036891   0.001278   0.364371  -0.005697
     9  C    0.733086  -3.702836   3.092315  -0.741859  -0.325492  -0.003118
    10  S    0.118723   0.443836   0.506663   0.003027   0.042728   0.000117
    11  C   -0.114938  -0.352176  -1.030847   0.036991  -0.001464  -0.000193
    12  C   -0.036466   1.075921   0.773184   0.245042   0.068289   0.000129
    13  C   -0.039939  -1.479893  -2.466913  -0.269949  -0.186990   0.000159
    14  H    0.004005   0.034590   0.027099  -0.000156   0.002932  -0.000001
    15  S    0.000631   0.047690  -0.008572   0.000767   0.002005   0.000000
    16  C    0.000239   0.004730   0.012367   0.001749  -0.000070  -0.000000
    17  C   -0.017332  -0.136243  -0.248443  -0.017591   0.002478  -0.000010
    18  H    0.000000  -0.000036  -0.000196  -0.000012  -0.000000   0.000000
    19  H   -0.000009   0.000076  -0.000411   0.000017   0.000001   0.000000
    20  H    0.054221  -0.067762  -0.001796   0.374793   0.002602   0.000344
    21  H   -0.020768  -0.069921   0.064717   0.352101  -0.008020   0.000163
    22  H   -0.001851  -0.019396  -0.056934   0.429066   0.004135   0.000371
               7          8          9         10         11         12
     1  C   -1.818352   0.028501   0.733086   0.118723  -0.114938  -0.036466
     2  C    1.395535  -0.046910  -3.702836   0.443836  -0.352176   1.075921
     3  C   -2.462146   0.036891   3.092315   0.506663  -1.030847   0.773184
     4  C    0.758864   0.001278  -0.741859   0.003027   0.036991   0.245042
     5  C    0.450321   0.364371  -0.325492   0.042728  -0.001464   0.068289
     6  H    0.010227  -0.005697  -0.003118   0.000117  -0.000193   0.000129
     7  S   17.790061  -0.017802  -0.511465  -0.150753   0.230421  -0.120381
     8  H   -0.017802   0.487117  -0.006237  -0.000116  -0.000414  -0.000066
     9  C   -0.511465  -0.006237  12.967975   1.314038  -1.614658   2.583688
    10  S   -0.150753  -0.000116   1.314038  18.214191  -0.279468   2.200870
    11  C    0.230421  -0.000414  -1.614658  -0.279468  17.623004  -4.341396
    12  C   -0.120381  -0.000066   2.583688   2.200870  -4.341396  17.480367
    13  C    0.687331  -0.001056  -5.269769  -4.139287   1.649396 -10.522050
    14  H   -0.009683  -0.000001   0.051837   0.020012  -0.083554   0.085417
    15  S   -0.003710  -0.000001  -0.618390   0.250769   0.351093  -0.442494
    16  C    0.000128  -0.000001   0.088575   0.262276   1.294481  -0.207611
    17  C    0.031219  -0.000026  -2.216969  -2.252765  -7.543981  -2.293566
    18  H    0.000003   0.000000   0.004323  -0.002190   0.004796   0.023204
    19  H    0.000057   0.000000  -0.010790   0.021981   0.016219  -0.064722
    20  H    0.000938  -0.000011   0.003918   0.001193   0.005078  -0.013708
    21  H   -0.001826   0.000005  -0.006273  -0.001767   0.003503  -0.000842
    22  H    0.005689  -0.000007  -0.018261  -0.001202  -0.001083   0.018793
              13         14         15         16         17         18
     1  C   -0.039939   0.004005   0.000631   0.000239  -0.017332   0.000000
     2  C   -1.479893   0.034590   0.047690   0.004730  -0.136243  -0.000036
     3  C   -2.466913   0.027099  -0.008572   0.012367  -0.248443  -0.000196
     4  C   -0.269949  -0.000156   0.000767   0.001749  -0.017591  -0.000012
     5  C   -0.186990   0.002932   0.002005  -0.000070   0.002478  -0.000000
     6  H    0.000159  -0.000001   0.000000  -0.000000  -0.000010   0.000000
     7  S    0.687331  -0.009683  -0.003710   0.000128   0.031219   0.000003
     8  H   -0.001056  -0.000001  -0.000001  -0.000001  -0.000026   0.000000
     9  C   -5.269769   0.051837  -0.618390   0.088575  -2.216969   0.004323
    10  S   -4.139287   0.020012   0.250769   0.262276  -2.252765  -0.002190
    11  C    1.649396  -0.083554   0.351093   1.294481  -7.543981   0.004796
    12  C  -10.522050   0.085417  -0.442494  -0.207611  -2.293566   0.023204
    13  C   23.529606   0.208021  -0.651200  -0.838718   5.119149   0.008155
    14  H    0.208021   0.522030   0.012367   0.001056  -0.008159  -0.000006
    15  S   -0.651200   0.012367  17.273632   0.449332  -0.241624  -0.043331
    16  C   -0.838718   0.001056   0.449332   5.832857  -1.083246   0.374617
    17  C    5.119149  -0.008159  -0.241624  -1.083246  16.118720  -0.009686
    18  H    0.008155  -0.000006  -0.043331   0.374617  -0.009686   0.477770
    19  H   -0.004789   0.000007   0.013522   0.030884   0.347562  -0.004976
    20  H    0.003128  -0.000009   0.000063  -0.000072   0.000648   0.000000
    21  H    0.043573  -0.000202  -0.000198   0.000125   0.001088  -0.000000
    22  H   -0.006049   0.000006   0.000136   0.000094  -0.000347   0.000000
              19         20         21         22
     1  C   -0.000009   0.054221  -0.020768  -0.001851
     2  C    0.000076  -0.067762  -0.069921  -0.019396
     3  C   -0.000411  -0.001796   0.064717  -0.056934
     4  C    0.000017   0.374793   0.352101   0.429066
     5  C    0.000001   0.002602  -0.008020   0.004135
     6  H    0.000000   0.000344   0.000163   0.000371
     7  S    0.000057   0.000938  -0.001826   0.005689
     8  H    0.000000  -0.000011   0.000005  -0.000007
     9  C   -0.010790   0.003918  -0.006273  -0.018261
    10  S    0.021981   0.001193  -0.001767  -0.001202
    11  C    0.016219   0.005078   0.003503  -0.001083
    12  C   -0.064722  -0.013708  -0.000842   0.018793
    13  C   -0.004789   0.003128   0.043573  -0.006049
    14  H    0.000007  -0.000009  -0.000202   0.000006
    15  S    0.013522   0.000063  -0.000198   0.000136
    16  C    0.030884  -0.000072   0.000125   0.000094
    17  C    0.347562   0.000648   0.001088  -0.000347
    18  H   -0.004976   0.000000  -0.000000   0.000000
    19  H    0.519737   0.000000   0.000000   0.000000
    20  H    0.000000   0.543279  -0.025590  -0.033886
    21  H    0.000000  -0.025590   0.522525  -0.024603
    22  H    0.000000  -0.033886  -0.024603   0.546806
 Mulliken charges:
               1
     1  C   -0.076216
     2  C   -0.059444
     3  C    0.242003
     4  C   -0.714970
     5  C   -0.065129
     6  H    0.127304
     7  S   -0.264677
     8  H    0.160180
     9  C    0.206362
    10  S   -0.572878
    11  C    0.149188
    12  C   -0.511603
    13  C    0.628084
    14  H    0.132393
    15  S   -0.392487
    16  C   -0.223793
    17  C    0.449122
    18  H    0.167566
    19  H    0.135634
    20  H    0.152629
    21  H    0.172209
    22  H    0.158522
 Sum of Mulliken charges =  -0.00000
 Mulliken charges with hydrogens summed into heavy atoms:
               1
     1  C    0.051088
     2  C   -0.059444
     3  C    0.242003
     4  C   -0.231611
     5  C    0.095051
     7  S   -0.264677
     9  C    0.206362
    10  S   -0.572878
    11  C    0.149188
    12  C   -0.511603
    13  C    0.760477
    15  S   -0.392487
    16  C   -0.056228
    17  C    0.584757
 Electronic spatial extent (au):  <R**2>=           4355.9120
 Charge=             -0.0000 electrons
 Dipole moment (field-independent basis, Debye):
    X=              0.2247    Y=              0.8514    Z=              0.4916  Tot=              1.0085
 Quadrupole moment (field-independent basis, Debye-Ang):
   XX=            -88.3843   YY=           -101.8391   ZZ=           -105.0754
   XY=              4.1578   XZ=             -1.6908   YZ=             -1.2267
 Traceless Quadrupole moment (field-independent basis, Debye-Ang):
   XX=             10.0487   YY=             -3.4062   ZZ=             -6.6425
   XY=              4.1578   XZ=             -1.6908   YZ=             -1.2267
 Octapole moment (field-independent basis, Debye-Ang**2):
  XXX=             -2.9723  YYY=              3.9491  ZZZ=              1.9375  XYY=              6.5368
  XXY=            -10.4886  XXZ=              7.4760  XZZ=             -0.8309  YZZ=              0.2908
  YYZ=              2.1244  XYZ=             17.2869
 Hexadecapole moment (field-independent basis, Debye-Ang**3):
 XXXX=          -4207.3931 YYYY=           -819.2238 ZZZZ=           -518.6969 XXXY=             12.6439
 XXXZ=            -57.7718 YYYX=             13.9133 YYYZ=             -8.6433 ZZZX=              4.2215
 ZZZY=             -6.8785 XXYY=           -926.4041 XXZZ=           -917.7089 YYZZ=           -209.3681
 XXYZ=              8.7108 YYXZ=             -8.3208 ZZXY=              7.2168
 N-N= 1.119425316017D+03 E-N=-6.063287482963D+03  KE= 1.615134654346D+03
 Unable to Open any file for archive entry.
 1\1\GINC-CX3-2-24\FOpt\RB3LYP\6-311+G(d,p)\C11H8S3\NS5018\16-Oct-2021\
 0\\# opt=modredundant b3lyp/6-311+g(d,p)\\pBTTT_-105.pdb\\0,1\C,-4.203
 1073127,-1.452248544,-0.0748958386\C,-2.9268228714,-0.9976478778,-0.53
 74103051\C,-2.0107713631,-2.022840352,-0.6188821575\C,-2.6478933728,0.
 4348296501,-0.8995314849\C,-4.2490990812,-2.7923121389,0.1738167472\H,
 -5.0542359918,-0.7955609027,0.0565516889\S,-2.7287351772,-3.5522832517
 ,-0.1391894699\H,-5.085053436,-3.3791308016,0.5233219387\C,-0.61570008
 49,-1.963420108,-1.0543355532\S,-0.1494563454,-2.5833795889,-2.6482945
 256\C,1.507318485,-2.1173795723,-2.3852570236\C,1.6556634386,-1.514126
 8541,-1.1427927281\C,0.4550301569,-1.4278171277,-0.3867018885\H,0.3701
 509648,-1.0054126865,0.6050499957\S,3.3149519189,-1.0465100615,-0.8793
 107311\C,3.7652548844,-1.6754306784,-2.4476776826\C,2.7152703313,-2.21
 25232189,-3.1346858514\H,4.7947921052,-1.605552377,-2.7641418585\H,2.8
 048371696,-2.6488938174,-4.1197298729\H,-3.3865634569,0.8039710979,-1.
 61733876\H,-1.6572377924,0.5478643352,-1.3408488414\H,-2.7005931689,1.
 0818048762,-0.0177157975\\Version=ES64L-G16RevC.01\State=1-A\HF=-1618.
 7165114\RMSD=7.154e-09\RMSF=2.507e-04\Dipole=-0.1279022,0.3746282,-0.0
 267546\Quadrupole=5.8209699,-3.7684459,-2.052524,-1.1909556,-4.9925111
 ,1.6684585\PG=C01 [X(C11H8S3)]\\@
 The archive entry for this job was punched.


 THE DIFFERENCE BETWEEN A NOOSE AND A HALO IS ONLY 12 INCHES.
 Job cpu time:       0 days  5 hours  7 minutes 16.1 seconds.
 Elapsed time:       0 days  0 hours 38 minutes 48.9 seconds.
 File lengths (MBytes):  RWF=     91 Int=      0 D2E=      0 Chk=     13 Scr=      1
 Normal termination of Gaussian 16 at Sat Oct 16 23:51:20 2021.
