 Entering Gaussian System, Link 0=g16
 Input=NDI_20.gjf
 Output=NDI_20.log
 Initial command:
 /apps/gaussian/g16-c01-avx/g16/l1.exe "/tmp/pbs.2575767[20].pbs/Gau-2102776.inp" -scrdir="/tmp/pbs.2575767[20].pbs/"
 Entering Link 1 = /apps/gaussian/g16-c01-avx/g16/l1.exe PID=   2102780.
  
 Copyright (c) 1988-2019, Gaussian, Inc.  All Rights Reserved.
  
 This is part of the Gaussian(R) 16 program.  It is based on
 the Gaussian(R) 09 system (copyright 2009, Gaussian, Inc.),
 the Gaussian(R) 03 system (copyright 2003, Gaussian, Inc.),
 the Gaussian(R) 98 system (copyright 1998, Gaussian, Inc.),
 the Gaussian(R) 94 system (copyright 1995, Gaussian, Inc.),
 the Gaussian 92(TM) system (copyright 1992, Gaussian, Inc.),
 the Gaussian 90(TM) system (copyright 1990, Gaussian, Inc.),
 the Gaussian 88(TM) system (copyright 1988, Gaussian, Inc.),
 the Gaussian 86(TM) system (copyright 1986, Carnegie Mellon
 University), and the Gaussian 82(TM) system (copyright 1983,
 Carnegie Mellon University). Gaussian is a federally registered
 trademark of Gaussian, Inc.
  
 This software contains proprietary and confidential information,
 including trade secrets, belonging to Gaussian, Inc.
  
 This software is provided under written license and may be
 used, copied, transmitted, or stored only in accord with that
 written license.
  
 The following legend is applicable only to US Government
 contracts under FAR:
  
                    RESTRICTED RIGHTS LEGEND
  
 Use, reproduction and disclosure by the US Government is
 subject to restrictions as set forth in subparagraphs (a)
 and (c) of the Commercial Computer Software - Restricted
 Rights clause in FAR 52.227-19.
  
 Gaussian, Inc.
 340 Quinnipiac St., Bldg. 40, Wallingford CT 06492
  
  
 ---------------------------------------------------------------
 Warning -- This program may not be used in any manner that
 competes with the business of Gaussian, Inc. or will provide
 assistance to any competitor of Gaussian, Inc.  The licensee
 of this program is prohibited from giving any competitor of
 Gaussian, Inc. access to this program.  By using this program,
 the user acknowledges that Gaussian, Inc. is engaged in the
 business of creating and licensing software in the field of
 computational chemistry and represents and warrants to the
 licensee that it is not a competitor of Gaussian, Inc. and that
 it will not use this program in any manner prohibited above.
 ---------------------------------------------------------------
  

 Cite this work as:
 Gaussian 16, Revision C.01,
 M. J. Frisch, G. W. Trucks, H. B. Schlegel, G. E. Scuseria, 
 M. A. Robb, J. R. Cheeseman, G. Scalmani, V. Barone, 
 G. A. Petersson, H. Nakatsuji, X. Li, M. Caricato, A. V. Marenich, 
 J. Bloino, B. G. Janesko, R. Gomperts, B. Mennucci, H. P. Hratchian, 
 J. V. Ortiz, A. F. Izmaylov, J. L. Sonnenberg, D. Williams-Young, 
 F. Ding, F. Lipparini, F. Egidi, J. Goings, B. Peng, A. Petrone, 
 T. Henderson, D. Ranasinghe, V. G. Zakrzewski, J. Gao, N. Rega, 
 G. Zheng, W. Liang, M. Hada, M. Ehara, K. Toyota, R. Fukuda, 
 J. Hasegawa, M. Ishida, T. Nakajima, Y. Honda, O. Kitao, H. Nakai, 
 T. Vreven, K. Throssell, J. A. Montgomery, Jr., J. E. Peralta, 
 F. Ogliaro, M. J. Bearpark, J. J. Heyd, E. N. Brothers, K. N. Kudin, 
 V. N. Staroverov, T. A. Keith, R. Kobayashi, J. Normand, 
 K. Raghavachari, A. P. Rendell, J. C. Burant, S. S. Iyengar, 
 J. Tomasi, M. Cossi, J. M. Millam, M. Klene, C. Adamo, R. Cammi, 
 J. W. Ochterski, R. L. Martin, K. Morokuma, O. Farkas, 
 J. B. Foresman, and D. J. Fox, Gaussian, Inc., Wallingford CT, 2019.
 
 ******************************************
 Gaussian 16:  ES64L-G16RevC.01  3-Jul-2019
                17-Nov-2020 
 ******************************************
 %mem=10GB
 %nprocshared=8
 Will use up to    8 processors via shared memory.
 -------------------------------------
 # opt=modredundant b3lyp/6-311+g(d,p)
 -------------------------------------
 1/18=120,19=15,26=3,38=1/1,3;
 2/9=110,12=2,17=6,18=5,40=1/2;
 3/5=4,6=6,7=111,11=2,25=1,30=1,71=1,74=-5/1,2,3;
 4//1;
 5/5=2,38=5/2;
 6/7=2,8=2,9=2,10=2,28=1/1;
 7//1,2,3,16;
 1/18=20,19=15,26=3/3(2);
 2/9=110/2;
 99//99;
 2/9=110/2;
 3/5=4,6=6,7=111,11=2,25=1,30=1,71=1,74=-5/1,2,3;
 4/5=5,16=3,69=1/1;
 5/5=2,38=5/2;
 7//1,2,3,16;
 1/18=20,19=15,26=3/3(-5);
 2/9=110/2;
 6/7=2,8=2,9=2,10=2,19=2,28=1/1;
 99/9=1/99;
 ----------
 NDI_20.pdb
 ----------
 Symbolic Z-matrix:
 Charge =  0 Multiplicity = 1
 C                    -2.56     -2.99     -0.41 
 C                    -2.26     -1.55     -0.22 
 C                    -3.3      -0.61     -0.08 
 C                    -4.65     -1.02     -0.12 
 C                    -4.99     -2.46     -0.3 
 C                    -0.95     -1.14     -0.22 
 C                    -2.96      0.76      0.1 
 C                    -1.6       1.19      0.12 
 C                    -0.56      0.23     -0.07 
 C                    -1.33      2.62      0.45 
 C                    -3.78      3.12      0.51 
 C                    -4.03      1.68      0.27 
 C                    -5.36      1.25      0.23 
 C                    -5.67     -0.1       0.04 
 H                    -6.7      -0.44      0.01 
 H                    -6.13      2.        0.36 
 H                    -0.19     -1.9      -0.37 
 N                    -2.43      3.48      0.61 
 N                    -3.92     -3.35     -0.44 
 O                    -1.69     -3.85     -0.53 
 O                    -6.15     -2.85     -0.34 
 O                    -4.68      3.94      0.63 
 O                    -0.21      3.1       0.6 
 C                     0.88      0.48     -0.18 
 C                     1.638     1.559     0.214 
 S                     1.874    -0.669    -1.066 
 C                     2.989     1.475    -0.188 
 H                     1.24      2.395     0.777 
 C                     3.307     0.306    -0.885 
 O                     3.966     2.396     0.058 
 C                     4.593    -0.09     -1.389 
 C                     4.906    -1.241    -2.111 
 S                     6.057     0.858    -1.145 
 C                     6.278    -1.357    -2.457 
 O                     3.92     -2.125    -2.407 
 C                     7.016    -0.288    -2.003 
 H                     6.707    -2.172    -3.015 
 H                     8.079    -0.121    -2.126 
 H                     4.067    -2.876    -3.173 
 H                     3.701     3.043     0.782 
 H                    -4.23     -4.36     -0.17 
 H                    -2.15      4.41      0.36 
 
 The following ModRedundant input section has been read:
 D       8       9      24      25 F                                           
 

 GradGradGradGradGradGradGradGradGradGradGradGradGradGradGradGradGradGrad
 Berny optimization.
 Initialization pass.
                           ----------------------------
                           !    Initial Parameters    !
                           ! (Angstroms and Degrees)  !
 --------------------------                            --------------------------
 ! Name  Definition              Value          Derivative Info.                !
 --------------------------------------------------------------------------------
 ! R1    R(1,2)                  1.4831         estimate D2E/DX2                !
 ! R2    R(1,19)                 1.4072         estimate D2E/DX2                !
 ! R3    R(1,20)                 1.2292         estimate D2E/DX2                !
 ! R4    R(2,3)                  1.4088         estimate D2E/DX2                !
 ! R5    R(2,6)                  1.3727         estimate D2E/DX2                !
 ! R6    R(3,4)                  1.4115         estimate D2E/DX2                !
 ! R7    R(3,7)                  1.423          estimate D2E/DX2                !
 ! R8    R(4,5)                  1.4905         estimate D2E/DX2                !
 ! R9    R(4,14)                 1.3829         estimate D2E/DX2                !
 ! R10   R(5,19)                 1.3988         estimate D2E/DX2                !
 ! R11   R(5,21)                 1.2245         estimate D2E/DX2                !
 ! R12   R(6,9)                  1.4323         estimate D2E/DX2                !
 ! R13   R(6,17)                 1.0852         estimate D2E/DX2                !
 ! R14   R(7,8)                  1.4265         estimate D2E/DX2                !
 ! R15   R(7,12)                 1.4213         estimate D2E/DX2                !
 ! R16   R(8,9)                  1.428          estimate D2E/DX2                !
 ! R17   R(8,10)                 1.4922         estimate D2E/DX2                !
 ! R18   R(9,24)                 1.4657         estimate D2E/DX2                !
 ! R19   R(10,18)                1.4054         estimate D2E/DX2                !
 ! R20   R(10,23)                1.2277         estimate D2E/DX2                !
 ! R21   R(11,12)                1.4811         estimate D2E/DX2                !
 ! R22   R(11,18)                1.4007         estimate D2E/DX2                !
 ! R23   R(11,22)                1.2234         estimate D2E/DX2                !
 ! R24   R(12,13)                1.3984         estimate D2E/DX2                !
 ! R25   R(13,14)                1.3981         estimate D2E/DX2                !
 ! R26   R(13,16)                1.0827         estimate D2E/DX2                !
 ! R27   R(14,15)                1.0851         estimate D2E/DX2                !
 ! R28   R(18,42)                1.0029         estimate D2E/DX2                !
 ! R29   R(19,41)                1.0905         estimate D2E/DX2                !
 ! R30   R(24,25)                1.3762         estimate D2E/DX2                !
 ! R31   R(24,26)                1.7588         estimate D2E/DX2                !
 ! R32   R(25,27)                1.412          estimate D2E/DX2                !
 ! R33   R(25,28)                1.0836         estimate D2E/DX2                !
 ! R34   R(26,29)                1.7427         estimate D2E/DX2                !
 ! R35   R(27,29)                1.3977         estimate D2E/DX2                !
 ! R36   R(27,30)                1.365          estimate D2E/DX2                !
 ! R37   R(29,31)                1.4369         estimate D2E/DX2                !
 ! R38   R(30,40)                1.0065         estimate D2E/DX2                !
 ! R39   R(31,32)                1.3943         estimate D2E/DX2                !
 ! R40   R(31,33)                1.7611         estimate D2E/DX2                !
 ! R41   R(32,34)                1.4197         estimate D2E/DX2                !
 ! R42   R(32,35)                1.3569         estimate D2E/DX2                !
 ! R43   R(33,36)                1.7231         estimate D2E/DX2                !
 ! R44   R(34,36)                1.3761         estimate D2E/DX2                !
 ! R45   R(34,37)                1.0769         estimate D2E/DX2                !
 ! R46   R(35,39)                1.0828         estimate D2E/DX2                !
 ! R47   R(36,38)                1.083          estimate D2E/DX2                !
 ! A1    A(2,1,19)             116.527          estimate D2E/DX2                !
 ! A2    A(2,1,20)             123.2737         estimate D2E/DX2                !
 ! A3    A(19,1,20)            120.1979         estimate D2E/DX2                !
 ! A4    A(1,2,3)              120.7455         estimate D2E/DX2                !
 ! A5    A(1,2,6)              118.8843         estimate D2E/DX2                !
 ! A6    A(3,2,6)              120.3454         estimate D2E/DX2                !
 ! A7    A(2,3,4)              120.6259         estimate D2E/DX2                !
 ! A8    A(2,3,7)              118.5916         estimate D2E/DX2                !
 ! A9    A(4,3,7)              120.7824         estimate D2E/DX2                !
 ! A10   A(3,4,5)              120.1483         estimate D2E/DX2                !
 ! A11   A(3,4,14)             120.5934         estimate D2E/DX2                !
 ! A12   A(5,4,14)             119.2388         estimate D2E/DX2                !
 ! A13   A(4,5,19)             116.8914         estimate D2E/DX2                !
 ! A14   A(4,5,21)             121.8545         estimate D2E/DX2                !
 ! A15   A(19,5,21)            121.2488         estimate D2E/DX2                !
 ! A16   A(2,6,9)              123.0626         estimate D2E/DX2                !
 ! A17   A(2,6,17)             117.3337         estimate D2E/DX2                !
 ! A18   A(9,6,17)             119.5802         estimate D2E/DX2                !
 ! A19   A(3,7,8)              121.3176         estimate D2E/DX2                !
 ! A20   A(3,7,12)             117.2859         estimate D2E/DX2                !
 ! A21   A(8,7,12)             121.3945         estimate D2E/DX2                !
 ! A22   A(7,8,9)              119.3284         estimate D2E/DX2                !
 ! A23   A(7,8,10)             117.6762         estimate D2E/DX2                !
 ! A24   A(9,8,10)             122.8113         estimate D2E/DX2                !
 ! A25   A(6,9,8)              117.2994         estimate D2E/DX2                !
 ! A26   A(6,9,24)             115.0121         estimate D2E/DX2                !
 ! A27   A(8,9,24)             127.6498         estimate D2E/DX2                !
 ! A28   A(8,10,18)            118.0319         estimate D2E/DX2                !
 ! A29   A(8,10,23)            124.524          estimate D2E/DX2                !
 ! A30   A(18,10,23)           117.4428         estimate D2E/DX2                !
 ! A31   A(12,11,18)           115.0947         estimate D2E/DX2                !
 ! A32   A(12,11,22)           122.9128         estimate D2E/DX2                !
 ! A33   A(18,11,22)           121.9866         estimate D2E/DX2                !
 ! A34   A(7,12,11)            121.4411         estimate D2E/DX2                !
 ! A35   A(7,12,13)            120.9006         estimate D2E/DX2                !
 ! A36   A(11,12,13)           117.6548         estimate D2E/DX2                !
 ! A37   A(12,13,14)           120.7772         estimate D2E/DX2                !
 ! A38   A(12,13,16)           117.3846         estimate D2E/DX2                !
 ! A39   A(14,13,16)           121.8361         estimate D2E/DX2                !
 ! A40   A(4,14,13)            119.6408         estimate D2E/DX2                !
 ! A41   A(4,14,15)            119.2412         estimate D2E/DX2                !
 ! A42   A(13,14,15)           121.1172         estimate D2E/DX2                !
 ! A43   A(10,18,11)           126.0815         estimate D2E/DX2                !
 ! A44   A(10,18,42)           108.6957         estimate D2E/DX2                !
 ! A45   A(11,18,42)           119.3146         estimate D2E/DX2                !
 ! A46   A(1,19,5)             125.0576         estimate D2E/DX2                !
 ! A47   A(1,19,41)            120.4267         estimate D2E/DX2                !
 ! A48   A(5,19,41)            110.3085         estimate D2E/DX2                !
 ! A49   A(9,24,25)            130.7963         estimate D2E/DX2                !
 ! A50   A(9,24,26)            118.7929         estimate D2E/DX2                !
 ! A51   A(25,24,26)           110.1903         estimate D2E/DX2                !
 ! A52   A(24,25,27)           113.5045         estimate D2E/DX2                !
 ! A53   A(24,25,28)           123.4564         estimate D2E/DX2                !
 ! A54   A(27,25,28)           123.039          estimate D2E/DX2                !
 ! A55   A(24,26,29)            92.6885         estimate D2E/DX2                !
 ! A56   A(25,27,29)           114.168          estimate D2E/DX2                !
 ! A57   A(25,27,30)           126.3954         estimate D2E/DX2                !
 ! A58   A(29,27,30)           119.4293         estimate D2E/DX2                !
 ! A59   A(26,29,27)           109.43           estimate D2E/DX2                !
 ! A60   A(26,29,31)           123.0474         estimate D2E/DX2                !
 ! A61   A(27,29,31)           127.5212         estimate D2E/DX2                !
 ! A62   A(27,30,40)           112.0191         estimate D2E/DX2                !
 ! A63   A(29,31,32)           127.5934         estimate D2E/DX2                !
 ! A64   A(29,31,33)           123.1649         estimate D2E/DX2                !
 ! A65   A(32,31,33)           109.2382         estimate D2E/DX2                !
 ! A66   A(31,32,34)           114.2422         estimate D2E/DX2                !
 ! A67   A(31,32,35)           119.1849         estimate D2E/DX2                !
 ! A68   A(34,32,35)           126.5718         estimate D2E/DX2                !
 ! A69   A(31,33,36)            92.0436         estimate D2E/DX2                !
 ! A70   A(32,34,36)           111.988          estimate D2E/DX2                !
 ! A71   A(32,34,37)           124.9679         estimate D2E/DX2                !
 ! A72   A(36,34,37)           123.0419         estimate D2E/DX2                !
 ! A73   A(32,35,39)           120.4994         estimate D2E/DX2                !
 ! A74   A(33,36,34)           112.4864         estimate D2E/DX2                !
 ! A75   A(33,36,38)           120.0162         estimate D2E/DX2                !
 ! A76   A(34,36,38)           127.4962         estimate D2E/DX2                !
 ! D1    D(19,1,2,3)            -0.0402         estimate D2E/DX2                !
 ! D2    D(19,1,2,6)          -178.232          estimate D2E/DX2                !
 ! D3    D(20,1,2,3)          -179.6115         estimate D2E/DX2                !
 ! D4    D(20,1,2,6)             2.1967         estimate D2E/DX2                !
 ! D5    D(2,1,19,5)            -0.2714         estimate D2E/DX2                !
 ! D6    D(2,1,19,41)         -154.9401         estimate D2E/DX2                !
 ! D7    D(20,1,19,5)          179.3139         estimate D2E/DX2                !
 ! D8    D(20,1,19,41)          24.6452         estimate D2E/DX2                !
 ! D9    D(1,2,3,4)             -0.105          estimate D2E/DX2                !
 ! D10   D(1,2,3,7)           -179.9973         estimate D2E/DX2                !
 ! D11   D(6,2,3,4)            178.0603         estimate D2E/DX2                !
 ! D12   D(6,2,3,7)             -1.832          estimate D2E/DX2                !
 ! D13   D(1,2,6,9)            178.7655         estimate D2E/DX2                !
 ! D14   D(1,2,6,17)             0.5382         estimate D2E/DX2                !
 ! D15   D(3,2,6,9)              0.5662         estimate D2E/DX2                !
 ! D16   D(3,2,6,17)          -177.661          estimate D2E/DX2                !
 ! D17   D(2,3,4,5)              0.5238         estimate D2E/DX2                !
 ! D18   D(2,3,4,14)           178.9053         estimate D2E/DX2                !
 ! D19   D(7,3,4,5)           -179.5863         estimate D2E/DX2                !
 ! D20   D(7,3,4,14)            -1.2048         estimate D2E/DX2                !
 ! D21   D(2,3,7,8)              0.9439         estimate D2E/DX2                !
 ! D22   D(2,3,7,12)          -178.5478         estimate D2E/DX2                !
 ! D23   D(4,3,7,8)           -178.9482         estimate D2E/DX2                !
 ! D24   D(4,3,7,12)             1.56           estimate D2E/DX2                !
 ! D25   D(3,4,5,19)            -0.7863         estimate D2E/DX2                !
 ! D26   D(3,4,5,21)          -179.9543         estimate D2E/DX2                !
 ! D27   D(14,4,5,19)         -179.1897         estimate D2E/DX2                !
 ! D28   D(14,4,5,21)            1.6423         estimate D2E/DX2                !
 ! D29   D(3,4,14,13)            0.6262         estimate D2E/DX2                !
 ! D30   D(3,4,14,15)         -179.7176         estimate D2E/DX2                !
 ! D31   D(5,4,14,13)          179.0223         estimate D2E/DX2                !
 ! D32   D(5,4,14,15)           -1.3214         estimate D2E/DX2                !
 ! D33   D(4,5,19,1)             0.6724         estimate D2E/DX2                !
 ! D34   D(4,5,19,41)          157.5074         estimate D2E/DX2                !
 ! D35   D(21,5,19,1)          179.8457         estimate D2E/DX2                !
 ! D36   D(21,5,19,41)         -23.3193         estimate D2E/DX2                !
 ! D37   D(2,6,9,8)              1.5899         estimate D2E/DX2                !
 ! D38   D(2,6,9,24)          -176.322          estimate D2E/DX2                !
 ! D39   D(17,6,9,8)           179.779          estimate D2E/DX2                !
 ! D40   D(17,6,9,24)            1.8672         estimate D2E/DX2                !
 ! D41   D(3,7,8,9)              1.2142         estimate D2E/DX2                !
 ! D42   D(3,7,8,10)          -173.9942         estimate D2E/DX2                !
 ! D43   D(12,7,8,9)          -179.3149         estimate D2E/DX2                !
 ! D44   D(12,7,8,10)            5.4766         estimate D2E/DX2                !
 ! D45   D(3,7,12,11)          177.9024         estimate D2E/DX2                !
 ! D46   D(3,7,12,13)           -1.4077         estimate D2E/DX2                !
 ! D47   D(8,7,12,11)           -1.5889         estimate D2E/DX2                !
 ! D48   D(8,7,12,13)          179.1009         estimate D2E/DX2                !
 ! D49   D(7,8,9,6)             -2.414          estimate D2E/DX2                !
 ! D50   D(7,8,9,24)           175.1958         estimate D2E/DX2                !
 ! D51   D(10,8,9,6)           172.5365         estimate D2E/DX2                !
 ! D52   D(10,8,9,24)           -9.8537         estimate D2E/DX2                !
 ! D53   D(7,8,10,18)           -5.2348         estimate D2E/DX2                !
 ! D54   D(7,8,10,23)          174.3306         estimate D2E/DX2                !
 ! D55   D(9,8,10,18)          179.736          estimate D2E/DX2                !
 ! D56   D(9,8,10,23)           -0.6986         estimate D2E/DX2                !
 ! D57   D(6,9,24,25)         -162.3134         estimate D2E/DX2                !
 ! D58   D(6,9,24,26)           23.6651         estimate D2E/DX2                !
 ! D59   D(8,9,24,25)           20.0303         Frozen                          !
 ! D60   D(8,9,24,26)         -153.9911         estimate D2E/DX2                !
 ! D61   D(8,10,18,11)           1.0927         estimate D2E/DX2                !
 ! D62   D(8,10,18,42)        -151.3012         estimate D2E/DX2                !
 ! D63   D(23,10,18,11)       -178.5038         estimate D2E/DX2                !
 ! D64   D(23,10,18,42)         29.1023         estimate D2E/DX2                !
 ! D65   D(18,11,12,7)          -2.5592         estimate D2E/DX2                !
 ! D66   D(18,11,12,13)        176.7725         estimate D2E/DX2                !
 ! D67   D(22,11,12,7)         178.3061         estimate D2E/DX2                !
 ! D68   D(22,11,12,13)         -2.3622         estimate D2E/DX2                !
 ! D69   D(12,11,18,10)          2.7627         estimate D2E/DX2                !
 ! D70   D(12,11,18,42)        152.5373         estimate D2E/DX2                !
 ! D71   D(22,11,18,10)       -178.0937         estimate D2E/DX2                !
 ! D72   D(22,11,18,42)        -28.3191         estimate D2E/DX2                !
 ! D73   D(7,12,13,14)           0.8911         estimate D2E/DX2                !
 ! D74   D(7,12,13,16)        -179.6245         estimate D2E/DX2                !
 ! D75   D(11,12,13,14)       -178.4444         estimate D2E/DX2                !
 ! D76   D(11,12,13,16)          1.04           estimate D2E/DX2                !
 ! D77   D(12,13,14,4)          -0.4717         estimate D2E/DX2                !
 ! D78   D(12,13,14,15)        179.8786         estimate D2E/DX2                !
 ! D79   D(16,13,14,4)        -179.9328         estimate D2E/DX2                !
 ! D80   D(16,13,14,15)          0.4175         estimate D2E/DX2                !
 ! D81   D(9,24,25,27)        -174.1847         estimate D2E/DX2                !
 ! D82   D(9,24,25,28)           5.7209         estimate D2E/DX2                !
 ! D83   D(26,24,25,27)          0.2341         estimate D2E/DX2                !
 ! D84   D(26,24,25,28)       -179.8603         estimate D2E/DX2                !
 ! D85   D(9,24,26,29)         175.7072         estimate D2E/DX2                !
 ! D86   D(25,24,26,29)          0.5265         estimate D2E/DX2                !
 ! D87   D(24,25,27,29)         -1.1462         estimate D2E/DX2                !
 ! D88   D(24,25,27,30)        179.8486         estimate D2E/DX2                !
 ! D89   D(28,25,27,29)        178.9477         estimate D2E/DX2                !
 ! D90   D(28,25,27,30)         -0.0575         estimate D2E/DX2                !
 ! D91   D(24,26,29,27)         -1.1356         estimate D2E/DX2                !
 ! D92   D(24,26,29,31)        178.4586         estimate D2E/DX2                !
 ! D93   D(25,27,29,26)          1.4926         estimate D2E/DX2                !
 ! D94   D(25,27,29,31)       -178.0785         estimate D2E/DX2                !
 ! D95   D(30,27,29,26)       -179.4268         estimate D2E/DX2                !
 ! D96   D(30,27,29,31)          1.0021         estimate D2E/DX2                !
 ! D97   D(25,27,30,40)         15.9779         estimate D2E/DX2                !
 ! D98   D(29,27,30,40)       -162.98           estimate D2E/DX2                !
 ! D99   D(26,29,31,32)          2.0863         estimate D2E/DX2                !
 ! D100  D(26,29,31,33)       -177.1558         estimate D2E/DX2                !
 ! D101  D(27,29,31,32)       -178.3962         estimate D2E/DX2                !
 ! D102  D(27,29,31,33)          2.3617         estimate D2E/DX2                !
 ! D103  D(29,31,32,34)       -179.337          estimate D2E/DX2                !
 ! D104  D(29,31,32,35)          0.3103         estimate D2E/DX2                !
 ! D105  D(33,31,32,34)         -0.009          estimate D2E/DX2                !
 ! D106  D(33,31,32,35)        179.6383         estimate D2E/DX2                !
 ! D107  D(29,31,33,36)        179.5714         estimate D2E/DX2                !
 ! D108  D(32,31,33,36)          0.2075         estimate D2E/DX2                !
 ! D109  D(31,32,34,36)         -0.2639         estimate D2E/DX2                !
 ! D110  D(31,32,34,37)       -179.7505         estimate D2E/DX2                !
 ! D111  D(35,32,34,36)       -179.8805         estimate D2E/DX2                !
 ! D112  D(35,32,34,37)          0.6329         estimate D2E/DX2                !
 ! D113  D(31,32,35,39)        163.6687         estimate D2E/DX2                !
 ! D114  D(34,32,35,39)        -16.7317         estimate D2E/DX2                !
 ! D115  D(31,33,36,34)         -0.3651         estimate D2E/DX2                !
 ! D116  D(31,33,36,38)       -179.9929         estimate D2E/DX2                !
 ! D117  D(32,34,36,33)          0.421          estimate D2E/DX2                !
 ! D118  D(32,34,36,38)       -179.9852         estimate D2E/DX2                !
 ! D119  D(37,34,36,33)        179.9191         estimate D2E/DX2                !
 ! D120  D(37,34,36,38)         -0.4872         estimate D2E/DX2                !
 --------------------------------------------------------------------------------
 Trust Radius=3.00D-01 FncErr=1.00D-07 GrdErr=1.00D-06 EigMax=2.50D+02 EigMin=1.00D-04
 Number of steps in this run=    252 maximum allowed number of steps=    252.
 GradGradGradGradGradGradGradGradGradGradGradGradGradGradGradGradGradGrad

                          Input orientation:                          
 ---------------------------------------------------------------------
 Center     Atomic      Atomic             Coordinates (Angstroms)
 Number     Number       Type             X           Y           Z
 ---------------------------------------------------------------------
      1          6           0       -2.560000   -2.990000   -0.410000
      2          6           0       -2.260000   -1.550000   -0.220000
      3          6           0       -3.300000   -0.610000   -0.080000
      4          6           0       -4.650000   -1.020000   -0.120000
      5          6           0       -4.990000   -2.460000   -0.300000
      6          6           0       -0.950000   -1.140000   -0.220000
      7          6           0       -2.960000    0.760000    0.100000
      8          6           0       -1.600000    1.190000    0.120000
      9          6           0       -0.560000    0.230000   -0.070000
     10          6           0       -1.330000    2.620000    0.450000
     11          6           0       -3.780000    3.120000    0.510000
     12          6           0       -4.030000    1.680000    0.270000
     13          6           0       -5.360000    1.250000    0.230000
     14          6           0       -5.670000   -0.100000    0.040000
     15          1           0       -6.700000   -0.440000    0.010000
     16          1           0       -6.130000    2.000000    0.360000
     17          1           0       -0.190000   -1.900000   -0.370000
     18          7           0       -2.430000    3.480000    0.610000
     19          7           0       -3.920000   -3.350000   -0.440000
     20          8           0       -1.690000   -3.850000   -0.530000
     21          8           0       -6.150000   -2.850000   -0.340000
     22          8           0       -4.680000    3.940000    0.630000
     23          8           0       -0.210000    3.100000    0.600000
     24          6           0        0.880000    0.480000   -0.180000
     25          6           0        1.638000    1.559000    0.214000
     26         16           0        1.874000   -0.669000   -1.066000
     27          6           0        2.989000    1.475000   -0.188000
     28          1           0        1.240000    2.395000    0.777000
     29          6           0        3.307000    0.306000   -0.885000
     30          8           0        3.966000    2.396000    0.058000
     31          6           0        4.593000   -0.090000   -1.389000
     32          6           0        4.906000   -1.241000   -2.111000
     33         16           0        6.057000    0.858000   -1.145000
     34          6           0        6.278000   -1.357000   -2.457000
     35          8           0        3.920000   -2.125000   -2.407000
     36          6           0        7.016000   -0.288000   -2.003000
     37          1           0        6.707000   -2.172000   -3.015000
     38          1           0        8.079000   -0.121000   -2.126000
     39          1           0        4.067000   -2.876000   -3.173000
     40          1           0        3.701000    3.043000    0.782000
     41          1           0       -4.230000   -4.360000   -0.170000
     42          1           0       -2.150000    4.410000    0.360000
 ---------------------------------------------------------------------
                    Distance matrix (angstroms):
                    1          2          3          4          5
     1  C    0.000000
     2  C    1.483139   0.000000
     3  C    2.514140   1.408829   0.000000
     4  C    2.886711   2.450102   1.411453   0.000000
     5  C    2.489558   2.878784   2.515353   1.490503   0.000000
     6  C    2.459817   1.372662   2.413089   3.703296   4.250929
     7  C    3.805601   2.434851   1.422990   2.464325   3.827440
     8  C    4.321447   2.838803   2.483948   3.774149   4.999100
     9  C    3.805785   2.465948   2.865886   4.277043   5.187861
    10  C    5.807289   4.324662   3.820301   4.959526   6.305910
    11  C    6.298166   4.965098   3.806757   4.277078   5.766854
    12  C    4.942894   3.715629   2.428889   2.797588   4.287902
    13  C    5.121250   4.201488   2.792723   2.404059   3.765886
    14  C    4.269274   3.714593   2.427221   1.382896   2.479435
    15  H    4.880420   4.582423   3.405437   2.134432   2.664695
    16  H    6.183680   5.283540   3.874868   3.397234   4.650462
    17  H    2.608946   2.104733   3.379393   4.552856   4.833063
    18  N    6.551198   5.100853   4.238054   5.070631   6.531868
    19  N    1.407160   2.458455   2.832243   2.462560   1.398785
    20  O    1.229187   2.389770   3.645847   4.115653   3.588175
    21  O    3.593411   4.103230   3.634240   2.376405   1.224459
    22  O    7.321264   6.059620   4.807390   5.016473   6.474643
    23  O    6.605354   5.147563   4.875920   6.099705   7.387286
    24  C    4.891564   3.739265   4.320937   5.730140   6.566194
    25  C    6.221413   5.004862   5.401374   6.804538   7.768329
    26  S    5.047547   4.310665   5.267443   6.601567   7.135050
    27  C    7.125792   6.058354   6.626493   8.036415   8.897259
    28  H    6.696805   5.367218   5.511449   6.867236   7.971440
    29  C    6.746179   5.905798   6.718596   8.102922   8.765454
    30  O    8.474473   7.376400   7.864467   9.270178  10.194059
    31  C    7.780350   7.103645   8.017689   9.375943   9.931602
    32  C    7.854525   7.417743   8.477120   9.763711  10.133928
    33  S    9.465729   8.707846   9.531144  10.918670  11.565438
    34  C    9.217762   8.828299   9.896778  11.180175  11.525497
    35  O    6.835688   6.580729   7.735538   8.938473   9.161865
    36  C   10.076618   9.529738  10.498641  11.839640  12.319165
    37  H    9.660871   9.413076  10.544862  11.776654  12.011410
    38  H   11.151867  10.609892  11.571814  12.917418  13.401640
    39  H    7.180828   7.106998   8.305064   9.420809   9.510859
    40  H    8.775994   7.591652   7.943642   9.330636  10.343462
    41  H    2.173338   3.432128   3.864647   3.366675   2.050488
    42  H    7.451242   5.989165   5.168801   5.997108   7.463116
                    6          7          8          9         10
     6  C    0.000000
     7  C    2.784331   0.000000
     8  C    2.442744   1.426499   0.000000
     9  C    1.432306   2.463696   1.428041   0.000000
    10  C    3.838085   2.497799   1.492213   2.564254   0.000000
    11  C    5.166178   2.531818   2.937584   4.365421   2.501220
    12  C    4.204628   1.421337   2.483445   3.776109   2.864612
    13  C    5.036139   2.452957   3.762087   4.916340   4.262183
    14  C    4.840207   2.843818   4.270293   5.121826   5.138297
    15  H    5.797016   3.928829   5.355278   6.176965   6.196297
    16  H    6.085097   3.413810   4.608102   5.860264   4.840713
    17  H    1.085219   3.869031   3.431661   2.182613   4.733117
    18  N    4.921758   2.817694   2.484572   3.810748   1.405418
    19  N    3.708558   4.255032   5.129093   4.923708   6.568188
    20  O    2.826270   4.823059   5.082539   4.258509   6.553694
    21  O    5.475263   4.837541   6.102106   6.388067   7.333308
    22  O    6.359387   3.653998   4.160409   5.588247   3.605177
    23  O    4.381507   3.645285   2.410519   2.967878   1.227721
    24  C    2.444361   3.860363   2.597018   1.465674   3.140159
    25  C    3.764399   4.668297   3.260313   2.584202   3.160766
    26  S    2.985387   5.173891   4.114748   2.779312   4.835431
    27  C    4.728104   5.998731   4.608146   3.762891   4.513516
    28  H    4.276252   4.557582   3.154247   2.940176   2.600472
    29  C    4.544798   6.360160   5.086269   3.952681   5.351504
    30  O    6.061983   7.116722   5.695493   5.019225   5.315210
    31  C    5.761416   7.745155   6.501441   5.328749   6.768157
    32  C    6.154577   8.412281   7.294872   6.017199   7.768767
    33  S    7.344772   9.103072   7.767889   6.733105   7.759925
    34  C    7.569362   9.816343   8.671276   7.414485   9.063600
    35  O    5.428636   7.870367   6.917034   5.574764   7.631512
    36  C    8.207445  10.248975   8.995947   7.835853   9.172207
    37  H    8.216246  10.571222   9.494078   8.200727   9.978119
    38  H    9.284074  11.295608  10.022289   8.887219  10.133022
    39  H    6.074882   8.562228   7.713047   6.378477   8.512330
    40  H    6.335084   7.074329   5.654419   5.176388   5.059656
    41  H    4.596662   5.282064   6.148455   5.877670   7.583851
    42  H    5.707793   3.747826   3.275439   4.492816   1.970939
                   11         12         13         14         15
    11  C    0.000000
    12  C    1.481114   0.000000
    13  C    2.464082   1.398356   0.000000
    14  C    3.763164   2.431234   1.398106   0.000000
    15  H    4.631414   3.419196   2.167971   1.085081   0.000000
    16  H    2.607566   2.126147   1.082728   2.173476   2.530020
    17  H    6.234012   5.288818   6.083700   5.782603   6.682522
    18  N    1.400750   2.432201   3.701648   4.861985   5.827461
    19  N    6.540872   5.081053   4.866467   3.722284   4.049568
    20  O    7.350551   6.057764   6.329020   5.497981   6.084390
    21  O    6.479221   5.038591   4.214143   2.817321   2.496618
    22  O    1.223438   2.379012   2.803302   4.201167   4.863044
    23  O    3.571190   4.088728   5.484697   6.353361   7.416185
    24  C    5.400120   5.074505   6.300683   6.579308   7.637991
    25  C    5.646155   5.669568   7.004837   7.495960   8.576705
    26  S    6.986273   6.493067   7.595586   7.645844   8.644287
    27  C    7.000899   7.036913   8.362485   8.804027   9.878418
    28  H    5.079106   5.342394   6.720880   7.383515   8.465761
    29  C    7.751786   7.553375   8.789269   9.033659  10.074601
    30  O    7.792881   8.030792   9.397722   9.954036  11.036700
    31  C    9.166102   8.957751  10.172461  10.362013  11.384707
    32  C   10.066507   9.698118  10.820172  10.852671  11.825374
    33  S   10.228501  10.218879  11.506180  11.825587  12.874777
    34  C   11.402192  11.086693  12.225361  12.270687  13.242185
    35  O    9.762628   9.211235  10.220704  10.102303  11.021139
    36  C   11.596691  11.447867  12.669535  12.850828  13.863763
    37  H   12.264096  11.870649  12.955794  12.915740  13.852729
    38  H   12.573323  12.474466  13.712662  13.918585  14.935967
    39  H   10.540015   9.908219  10.838478  10.622557  11.488859
    40  H    7.486339   7.866910   9.253176   9.911844  10.995821
    41  H    7.524314   6.059307   5.736637   4.501700   4.636777
    42  H    2.084107   3.315931   4.506285   5.730000   6.659392
                   16         17         18         19         20
    16  H    0.000000
    17  H    7.143284   0.000000
    18  N    3.992856   5.909518   0.000000
    19  N    5.843509   4.002537   7.069052   0.000000
    20  O    7.397851   2.465380   7.454938   2.287138   0.000000
    21  O    4.900296   6.035313   7.403364   2.287553   4.574680
    22  O    2.437006   7.434090   2.296628   7.407199   8.424358
    23  O    6.026110   5.093260   2.252310   7.513202   7.195123
    24  C    7.193198   2.616372   4.536541   6.146259   5.047405
    25  C    7.781878   3.955669   4.516158   7.444284   6.394247
    26  S    8.556930   2.501974   6.208671   6.414832   4.807094
    27  C    9.150524   4.640020   5.832872   8.430801   7.096875
    28  H    7.392348   4.669854   3.830668   7.817398   7.020910
    29  C    9.668331   4.166614   6.724765   8.111343   6.509099
    30  O   10.108276   5.992590   6.510651   9.770032   8.446810
    31  C   11.063898   5.214552   8.127941   9.165117   7.372352
    32  C   11.764490   5.425364   9.138303   9.227047   7.267301
    33  S   12.332565   6.872569   9.054506  10.851028   9.086226
    34  C   13.159157   6.818023  10.422683  10.584873   8.568396
    35  O   11.210460   4.592613   8.991152   8.175287   6.162049
    36  C   13.551237   7.562517  10.500119  11.463634   9.521135
    37  H   13.913475   7.391794  11.338893  10.997792   8.916306
    38  H   14.579935   8.638561  11.440803  12.539738  10.577619
    39  H   11.842140   5.189550   9.844838   8.454947   6.409148
    40  H    9.895175   6.395329   6.148960  10.022144   8.848597
    41  H    6.658866   4.734258   8.081708   1.090459   2.615588
    42  H    4.652795   6.647601   1.002896   7.999406   8.320535
                   21         22         23         24         25
    21  O    0.000000
    22  O    7.014692   0.000000
    23  O    8.459888   4.548340   0.000000
    24  C    7.780450   6.598583   2.942941   0.000000
    25  C    8.966557   6.764565   2.436961   1.376242   0.000000
    26  S    8.346761   8.189885   4.617789   1.758759   2.580326
    27  C   10.111877   8.096846   3.673577   2.331946   1.412041
    28  H    9.130707   6.120052   1.621991   2.170869   1.083637
    29  C    9.984599   8.904681   4.730851   2.533304   2.358680
    30  O   11.402297   8.801388   4.269468   3.640205   2.478808
    31  C   11.141367  10.310470   6.099265   3.946258   3.744441
    32  C   11.311961  11.235980   7.236523   4.785319   4.891365
    33  S   12.783119  11.310726   6.880907   5.279720   4.676093
    34  C   12.695114  12.556494   8.444184   6.139845   6.096466
    35  O   10.305485  10.952972   7.307501   4.581174   5.064486
    36  C   13.515656  12.712399   8.394595   6.446988   6.103227
    37  H   13.149820  13.427820   9.418445   7.001732   7.074006
    38  H   14.598003  13.670382   9.301260   7.481559   7.055812
    39  H   10.602531  11.723083   8.260801   5.511602   6.086135
    40  H   11.533800   8.430236   3.915647   3.930961   2.604006
    41  H    2.448551   8.350599   8.509107   7.038309   8.343587
    42  H    8.318509   2.587412   2.353147   4.991733   4.743254
                   26         27         28         29         30
    26  S    0.000000
    27  C    2.571156   0.000000
    28  H    3.631350   2.199233   0.000000
    29  C    1.742663   1.397674   3.376189   0.000000
    30  O    3.877379   1.365022   2.819226   2.385714   0.000000
    31  C    2.798666   2.542527   4.702062   1.436881   2.944000
    32  C    3.257642   3.840504   5.916130   2.540293   4.337733
    33  S    4.453702   3.272486   5.409246   2.816878   2.860932
    34  C    4.669415   4.897561   7.065246   3.750146   5.074995
    35  O    2.846811   4.330210   6.144156   2.932919   5.149542
    36  C    5.240543   4.755957   6.949033   3.919112   4.555664
    37  H    5.423606   5.925881   8.069996   4.715653   6.150043
    38  H    6.318697   5.675488   7.844080   4.949181   5.293573
    39  H    3.757599   5.385491   7.167836   3.992201   6.184137
    40  H    4.531222   1.976479   2.544887   3.228822   1.006484
    41  H    7.189236   9.282322   8.743439   8.893208  10.624026
    42  H    6.634930   5.943387   3.965629   6.940583   6.446150
                   31         32         33         34         35
    31  C    0.000000
    32  C    1.394293   0.000000
    33  S    1.761118   2.581426   0.000000
    34  C    2.363290   1.419703   2.583875   0.000000
    35  O    2.372863   1.356933   3.880425   2.480421   0.000000
    36  C    2.507415   2.317752   1.723125   1.376053   3.622568
    37  H    3.383430   2.219815   3.619434   1.076861   2.852936
    38  H    3.563190   3.364900   2.451385   2.209266   4.625177
    39  H    3.349795   2.122496   4.692083   2.776425   1.082759
    40  H    3.914664   5.307931   3.746771   6.040865   6.076669
    41  H    9.877459   9.846935  11.575859  11.165413   8.741962
    42  H    8.293193   9.371594   9.068439  10.593628   9.338491
                   36         37         38         39         40
    36  C    0.000000
    37  H    2.160806   0.000000
    38  H    1.083045   2.622843   0.000000
    39  H    4.094294   2.736819   4.978190   0.000000
    40  H    5.462693   7.116844   6.134676   7.128151   0.000000
    41  H   12.100148  11.510836  13.164594   8.947652  10.890889
    42  H   10.567428  11.539489  11.460480  10.208769   6.023369
                   41         42
    41  H    0.000000
    42  H    9.028854   0.000000
 Stoichiometry    C22H10N2O6S2
 Framework group  C1[X(C22H10N2O6S2)]
 Deg. of freedom   120
 Full point group                 C1      NOp   1
 Largest Abelian subgroup         C1      NOp   1
 Largest concise Abelian subgroup C1      NOp   1
                         Standard orientation:                         
 ---------------------------------------------------------------------
 Center     Atomic      Atomic             Coordinates (Angstroms)
 Number     Number       Type             X           Y           Z
 ---------------------------------------------------------------------
      1          6           0        2.468005   -3.033276   -0.392812
      2          6           0        2.181823   -1.582100   -0.283775
      3          6           0        3.218243   -0.660110   -0.037666
      4          6           0        4.551066   -1.099712    0.112446
      5          6           0        4.878311   -2.549491   -0.000031
      6          6           0        0.882306   -1.152785   -0.389334
      7          6           0        2.891937    0.721626    0.058401
      8          6           0        1.545864    1.176230   -0.069365
      9          6           0        0.501955    0.223117   -0.272169
     10          6           0        1.311173    2.649691   -0.092434
     11          6           0        3.733880    3.092163    0.344385
     12          6           0        3.962914    1.630480    0.275643
     13          6           0        5.276249    1.171908    0.417988
     14          6           0        5.571101   -0.192020    0.331590
     15          1           0        6.588441   -0.553723    0.439249
     16          1           0        6.046961    1.913218    0.587583
     17          1           0        0.118503   -1.908723   -0.540537
     18          7           0        2.411037    3.497181    0.124959
     19          7           0        3.811586   -3.422174   -0.239037
     20          8           0        1.601541   -3.876824   -0.613190
     21          8           0        6.023184   -2.965187    0.125518
     22          8           0        4.630515    3.896125    0.560005
     23          8           0        0.221672    3.177632   -0.296310
     24          6           0       -0.940896    0.474260   -0.329669
     25          6           0       -1.642993    1.632956   -0.571589
     26         16           0       -2.044821   -0.826268    0.098362
     27          6           0       -3.038756    1.489121   -0.413411
     28          1           0       -1.173713    2.567771   -0.854723
     29          6           0       -3.445335    0.197429   -0.067408
     30          8           0       -3.978024    2.464801   -0.584029
     31          6           0       -4.788530   -0.275040    0.125536
     32          6           0       -5.194292   -1.555195    0.500525
     33         16           0       -6.209529    0.737860   -0.111808
     34          6           0       -6.601679   -1.716556    0.594216
     35          8           0       -4.254388   -2.506803    0.729196
     36          6           0       -7.274577   -0.554032    0.295439
     37          1           0       -7.101088   -2.629062    0.872701
     38          1           0       -8.345932   -0.395464    0.289000
     39          1           0       -4.508368   -3.412323    1.265753
     40          1           0       -3.612604    3.256644   -1.086486
     41          1           0        4.173249   -4.348130   -0.687260
     42          1           0        2.083185    4.349343    0.539849
 ---------------------------------------------------------------------
 Rotational constants (GHZ):           0.2342559           0.0669773           0.0527575
 Standard basis: 6-311+G(d,p) (5D, 7F)
 There are   812 symmetry adapted cartesian basis functions of A   symmetry.
 There are   780 symmetry adapted basis functions of A   symmetry.
   780 basis functions,  1260 primitive gaussians,   812 cartesian basis functions
   118 alpha electrons      118 beta electrons
       nuclear repulsion energy      3322.9158086354 Hartrees.
 NAtoms=   42 NActive=   42 NUniq=   42 SFac= 1.00D+00 NAtFMM=   60 NAOKFM=F Big=F
 Integral buffers will be    131072 words long.
 Raffenetti 2 integral format.
 Two-electron integral symmetry is turned on.
 One-electron integrals computed using PRISM.
 NBasis=   780 RedAO= T EigKep=  1.73D-06  NBF=   780
 NBsUse=   768 1.00D-06 EigRej=  8.47D-07 NBFU=   768
 ExpMin= 4.05D-02 ExpMax= 9.34D+04 ExpMxC= 3.17D+03 IAcc=3 IRadAn=         5 AccDes= 0.00D+00
 Harris functional with IExCor=  402 and IRadAn=       5 diagonalized for initial guess.
 HarFok:  IExCor=  402 AccDes= 0.00D+00 IRadAn=         5 IDoV= 1 UseB2=F ITyADJ=14
 ICtDFT=  3500011 ScaDFX=  1.000000  1.000000  1.000000  1.000000
 FoFCou: FMM=F IPFlag=           0 FMFlag=      100000 FMFlg1=           0
         NFxFlg=           0 DoJE=T BraDBF=F KetDBF=T FulRan=T
         wScrn=  0.000000 ICntrl=       500 IOpCl=  0 I1Cent=   200000004 NGrid=           0
         NMat0=    1 NMatS0=      1 NMatT0=    0 NMatD0=    1 NMtDS0=    0 NMtDT0=    0
 Petite list used in FoFCou.
 Requested convergence on RMS density matrix=1.00D-08 within 128 cycles.
 Requested convergence on MAX density matrix=1.00D-06.
 Requested convergence on             energy=1.00D-06.
 No special actions if energy rises.
 SCF Done:  E(RB3LYP) =  -2202.03614870     A.U. after   17 cycles
            NFock= 17  Conv=0.57D-08     -V/T= 2.0031

 **********************************************************************

            Population analysis using the SCF Density.

 **********************************************************************

 Orbital symmetries:
       Occupied  (A) (A) (A) (A) (A) (A) (A) (A) (A) (A) (A) (A)
                 (A) (A) (A) (A) (A) (A) (A) (A) (A) (A) (A) (A)
                 (A) (A) (A) (A) (A) (A) (A) (A) (A) (A) (A) (A)
                 (A) (A) (A) (A) (A) (A) (A) (A) (A) (A) (A) (A)
                 (A) (A) (A) (A) (A) (A) (A) (A) (A) (A) (A) (A)
                 (A) (A) (A) (A) (A) (A) (A) (A) (A) (A) (A) (A)
                 (A) (A) (A) (A) (A) (A) (A) (A) (A) (A) (A) (A)
                 (A) (A) (A) (A) (A) (A) (A) (A) (A) (A) (A) (A)
                 (A) (A) (A) (A) (A) (A) (A) (A) (A) (A) (A) (A)
                 (A) (A) (A) (A) (A) (A) (A) (A) (A) (A)
       Virtual   (A) (A) (A) (A) (A) (A) (A) (A) (A) (A) (A) (A)
                 (A) (A) (A) (A) (A) (A) (A) (A) (A) (A) (A) (A)
                 (A) (A) (A) (A) (A) (A) (A) (A) (A) (A) (A) (A)
                 (A) (A) (A) (A) (A) (A) (A) (A) (A) (A) (A) (A)
                 (A) (A) (A) (A) (A) (A) (A) (A) (A) (A) (A) (A)
                 (A) (A) (A) (A) (A) (A) (A) (A) (A) (A) (A) (A)
                 (A) (A) (A) (A) (A) (A) (A) (A) (A) (A) (A) (A)
                 (A) (A) (A) (A) (A) (A) (A) (A) (A) (A) (A) (A)
                 (A) (A) (A) (A) (A) (A) (A) (A) (A) (A) (A) (A)
                 (A) (A) (A) (A) (A) (A) (A) (A) (A) (A) (A) (A)
                 (A) (A) (A) (A) (A) (A) (A) (A) (A) (A) (A) (A)
                 (A) (A) (A) (A) (A) (A) (A) (A) (A) (A) (A) (A)
                 (A) (A) (A) (A) (A) (A) (A) (A) (A) (A) (A) (A)
                 (A) (A) (A) (A) (A) (A) (A) (A) (A) (A) (A) (A)
                 (A) (A) (A) (A) (A) (A) (A) (A) (A) (A) (A) (A)
                 (A) (A) (A) (A) (A) (A) (A) (A) (A) (A) (A) (A)
                 (A) (A) (A) (A) (A) (A) (A) (A) (A) (A) (A) (A)
                 (A) (A) (A) (A) (A) (A) (A) (A) (A) (A) (A) (A)
                 (A) (A) (A) (A) (A) (A) (A) (A) (A) (A) (A) (A)
                 (A) (A) (A) (A) (A) (A) (A) (A) (A) (A) (A) (A)
                 (A) (A) (A) (A) (A) (A) (A) (A) (A) (A) (A) (A)
                 (A) (A) (A) (A) (A) (A) (A) (A) (A) (A) (A) (A)
                 (A) (A) (A) (A) (A) (A) (A) (A) (A) (A) (A) (A)
                 (A) (A) (A) (A) (A) (A) (A) (A) (A) (A) (A) (A)
                 (A) (A) (A) (A) (A) (A) (A) (A) (A) (A) (A) (A)
                 (A) (A) (A) (A) (A) (A) (A) (A) (A) (A) (A) (A)
                 (A) (A) (A) (A) (A) (A) (A) (A) (A) (A) (A) (A)
                 (A) (A) (A) (A) (A) (A) (A) (A) (A) (A) (A) (A)
                 (A) (A) (A) (A) (A) (A) (A) (A) (A) (A) (A) (A)
                 (A) (A) (A) (A) (A) (A) (A) (A) (A) (A) (A) (A)
                 (A) (A) (A) (A) (A) (A) (A) (A) (A) (A) (A) (A)
                 (A) (A) (A) (A) (A) (A) (A) (A) (A) (A) (A) (A)
                 (A) (A) (A) (A) (A) (A) (A) (A) (A) (A) (A) (A)
                 (A) (A) (A) (A) (A) (A) (A) (A) (A) (A) (A) (A)
                 (A) (A) (A) (A) (A) (A) (A) (A) (A) (A) (A) (A)
                 (A) (A) (A) (A) (A) (A) (A) (A) (A) (A) (A) (A)
                 (A) (A) (A) (A) (A) (A) (A) (A) (A) (A) (A) (A)
                 (A) (A) (A) (A) (A) (A) (A) (A) (A) (A) (A) (A)
                 (A) (A) (A) (A) (A) (A) (A) (A) (A) (A) (A) (A)
                 (A) (A) (A) (A) (A) (A) (A) (A) (A) (A) (A) (A)
                 (A) (A) (A) (A) (A) (A) (A) (A) (A) (A) (A) (A)
                 (A) (A) (A) (A) (A) (A) (A) (A) (A) (A) (A) (A)
                 (A) (A) (A) (A) (A) (A) (A) (A) (A) (A) (A) (A)
                 (A) (A) (A) (A) (A) (A) (A) (A) (A) (A) (A) (A)
                 (A) (A) (A) (A) (A) (A) (A) (A) (A) (A) (A) (A)
                 (A) (A) (A) (A) (A) (A) (A) (A) (A) (A) (A) (A)
                 (A) (A) (A) (A) (A) (A) (A) (A) (A) (A) (A) (A)
                 (A) (A) (A) (A) (A) (A) (A) (A) (A) (A) (A) (A)
                 (A) (A) (A) (A) (A) (A) (A) (A) (A) (A) (A) (A)
                 (A) (A) (A) (A) (A) (A) (A) (A) (A) (A) (A) (A)
                 (A) (A) (A) (A) (A) (A) (A) (A) (A) (A) (A) (A)
                 (A) (A) (A) (A) (A) (A) (A) (A) (A) (A) (A) (A)
                 (A) (A) (A) (A) (A) (A) (A) (A) (A) (A) (A) (A)
                 (A) (A) (A) (A) (A) (A) (A) (A) (A) (A) (A) (A)
                 (A) (A)
 The electronic state is 1-A.
 Alpha  occ. eigenvalues --  -88.89068 -88.88831 -19.18554 -19.17726 -19.13101
 Alpha  occ. eigenvalues --  -19.12958 -19.12938 -19.12495 -14.39068 -14.38105
 Alpha  occ. eigenvalues --  -10.32135 -10.32080 -10.31605 -10.31281 -10.26023
 Alpha  occ. eigenvalues --  -10.25040 -10.24787 -10.23673 -10.23336 -10.23206
 Alpha  occ. eigenvalues --  -10.23134 -10.23010 -10.22729 -10.22700 -10.22536
 Alpha  occ. eigenvalues --  -10.22535 -10.22221 -10.21899 -10.21580 -10.21358
 Alpha  occ. eigenvalues --  -10.19666 -10.18141  -7.97616  -7.97424  -5.93929
 Alpha  occ. eigenvalues --   -5.93750  -5.93536  -5.93353  -5.93181  -5.92952
 Alpha  occ. eigenvalues --   -1.08963  -1.08405  -1.07694  -1.07185  -1.06812
 Alpha  occ. eigenvalues --   -1.06716  -0.96067  -0.95628  -0.92594  -0.90716
 Alpha  occ. eigenvalues --   -0.89224  -0.87040  -0.84063  -0.80781  -0.78894
 Alpha  occ. eigenvalues --   -0.77900  -0.75028  -0.74302  -0.72975  -0.71199
 Alpha  occ. eigenvalues --   -0.71042  -0.67571  -0.66906  -0.65344  -0.62652
 Alpha  occ. eigenvalues --   -0.61906  -0.61572  -0.60377  -0.58664  -0.57499
 Alpha  occ. eigenvalues --   -0.56675  -0.55636  -0.54575  -0.52677  -0.52025
 Alpha  occ. eigenvalues --   -0.51839  -0.50986  -0.50245  -0.48888  -0.48504
 Alpha  occ. eigenvalues --   -0.48235  -0.47500  -0.46897  -0.46325  -0.45657
 Alpha  occ. eigenvalues --   -0.45372  -0.45174  -0.44900  -0.44716  -0.43300
 Alpha  occ. eigenvalues --   -0.43210  -0.42587  -0.42468  -0.42170  -0.41867
 Alpha  occ. eigenvalues --   -0.40385  -0.39801  -0.39072  -0.38438  -0.38166
 Alpha  occ. eigenvalues --   -0.37694  -0.36472  -0.35506  -0.35251  -0.34083
 Alpha  occ. eigenvalues --   -0.32943  -0.31736  -0.31396  -0.31095  -0.30573
 Alpha  occ. eigenvalues --   -0.30342  -0.29148  -0.28527  -0.27744  -0.26689
 Alpha  occ. eigenvalues --   -0.25426  -0.25176  -0.20409
 Alpha virt. eigenvalues --   -0.13647  -0.08453  -0.07747  -0.05320  -0.04185
 Alpha virt. eigenvalues --   -0.03876  -0.01743  -0.01246  -0.01154  -0.00536
 Alpha virt. eigenvalues --   -0.00092   0.00265   0.00774   0.01350   0.01667
 Alpha virt. eigenvalues --    0.01866   0.02436   0.02787   0.03031   0.03529
 Alpha virt. eigenvalues --    0.03798   0.04132   0.04262   0.04488   0.04764
 Alpha virt. eigenvalues --    0.04952   0.05637   0.05966   0.06152   0.06318
 Alpha virt. eigenvalues --    0.06869   0.06973   0.07398   0.07817   0.07996
 Alpha virt. eigenvalues --    0.08310   0.08534   0.08818   0.08850   0.09433
 Alpha virt. eigenvalues --    0.09882   0.10220   0.10380   0.10677   0.10833
 Alpha virt. eigenvalues --    0.10951   0.11271   0.11557   0.12301   0.12403
 Alpha virt. eigenvalues --    0.12928   0.13127   0.13243   0.13740   0.13829
 Alpha virt. eigenvalues --    0.14088   0.14291   0.14441   0.14794   0.15284
 Alpha virt. eigenvalues --    0.15530   0.15584   0.15637   0.15790   0.16035
 Alpha virt. eigenvalues --    0.16423   0.16474   0.16757   0.16888   0.17230
 Alpha virt. eigenvalues --    0.17408   0.17579   0.17875   0.18127   0.18221
 Alpha virt. eigenvalues --    0.18621   0.18957   0.19422   0.19462   0.19689
 Alpha virt. eigenvalues --    0.19787   0.19932   0.20239   0.20401   0.20685
 Alpha virt. eigenvalues --    0.21078   0.21203   0.21352   0.21579   0.21911
 Alpha virt. eigenvalues --    0.22042   0.22332   0.22581   0.22787   0.23139
 Alpha virt. eigenvalues --    0.23336   0.23466   0.23756   0.23985   0.24173
 Alpha virt. eigenvalues --    0.24249   0.24350   0.24657   0.24941   0.25075
 Alpha virt. eigenvalues --    0.25280   0.25485   0.25673   0.26031   0.26299
 Alpha virt. eigenvalues --    0.26440   0.26648   0.27254   0.27408   0.27601
 Alpha virt. eigenvalues --    0.27809   0.28402   0.28677   0.28802   0.29014
 Alpha virt. eigenvalues --    0.29155   0.29359   0.29815   0.30121   0.30236
 Alpha virt. eigenvalues --    0.30457   0.30739   0.31183   0.31289   0.31391
 Alpha virt. eigenvalues --    0.31451   0.31926   0.32097   0.32560   0.32664
 Alpha virt. eigenvalues --    0.32819   0.33106   0.33413   0.33712   0.34503
 Alpha virt. eigenvalues --    0.34601   0.34820   0.35150   0.35667   0.36181
 Alpha virt. eigenvalues --    0.36406   0.36715   0.36929   0.37597   0.37802
 Alpha virt. eigenvalues --    0.38312   0.38499   0.38728   0.39170   0.39986
 Alpha virt. eigenvalues --    0.40401   0.40749   0.41294   0.41746   0.42429
 Alpha virt. eigenvalues --    0.42982   0.43647   0.44064   0.44328   0.44656
 Alpha virt. eigenvalues --    0.44890   0.45779   0.46240   0.46915   0.47076
 Alpha virt. eigenvalues --    0.47541   0.48436   0.48690   0.48769   0.49525
 Alpha virt. eigenvalues --    0.50372   0.50723   0.51359   0.52283   0.52540
 Alpha virt. eigenvalues --    0.52842   0.53777   0.54676   0.54945   0.55116
 Alpha virt. eigenvalues --    0.55587   0.56587   0.56711   0.57117   0.57429
 Alpha virt. eigenvalues --    0.57762   0.58375   0.58541   0.59173   0.59580
 Alpha virt. eigenvalues --    0.59948   0.60254   0.60903   0.61126   0.61398
 Alpha virt. eigenvalues --    0.61754   0.62164   0.63121   0.63239   0.63629
 Alpha virt. eigenvalues --    0.63784   0.64148   0.64983   0.65741   0.65847
 Alpha virt. eigenvalues --    0.66381   0.66679   0.67354   0.67694   0.68376
 Alpha virt. eigenvalues --    0.68729   0.69507   0.70027   0.70429   0.70827
 Alpha virt. eigenvalues --    0.71070   0.71597   0.72066   0.72396   0.72892
 Alpha virt. eigenvalues --    0.73012   0.74153   0.74414   0.74629   0.75166
 Alpha virt. eigenvalues --    0.76178   0.76555   0.76883   0.77404   0.77542
 Alpha virt. eigenvalues --    0.78260   0.79574   0.80698   0.80888   0.81115
 Alpha virt. eigenvalues --    0.81926   0.82716   0.83023   0.83614   0.83701
 Alpha virt. eigenvalues --    0.84115   0.84957   0.85735   0.86510   0.86777
 Alpha virt. eigenvalues --    0.87283   0.87761   0.88212   0.89081   0.89333
 Alpha virt. eigenvalues --    0.89397   0.90072   0.90286   0.90911   0.91199
 Alpha virt. eigenvalues --    0.91414   0.91959   0.92368   0.92994   0.93335
 Alpha virt. eigenvalues --    0.94036   0.94363   0.94590   0.95280   0.95629
 Alpha virt. eigenvalues --    0.96055   0.96227   0.96590   0.97391   0.98297
 Alpha virt. eigenvalues --    0.98678   0.99707   1.00328   1.01219   1.01465
 Alpha virt. eigenvalues --    1.02351   1.02550   1.02946   1.03668   1.04240
 Alpha virt. eigenvalues --    1.04431   1.04921   1.05358   1.05923   1.06496
 Alpha virt. eigenvalues --    1.07486   1.07871   1.07918   1.08797   1.09219
 Alpha virt. eigenvalues --    1.10178   1.10740   1.12188   1.12234   1.12747
 Alpha virt. eigenvalues --    1.13318   1.14574   1.14988   1.15946   1.16346
 Alpha virt. eigenvalues --    1.16635   1.17342   1.17556   1.18629   1.19351
 Alpha virt. eigenvalues --    1.20503   1.21245   1.22097   1.22522   1.22974
 Alpha virt. eigenvalues --    1.23657   1.23881   1.25089   1.25672   1.26379
 Alpha virt. eigenvalues --    1.26711   1.27583   1.28256   1.28948   1.30053
 Alpha virt. eigenvalues --    1.30275   1.31663   1.32805   1.34311   1.34443
 Alpha virt. eigenvalues --    1.35128   1.37149   1.37974   1.39018   1.40215
 Alpha virt. eigenvalues --    1.41502   1.41835   1.43384   1.43746   1.44668
 Alpha virt. eigenvalues --    1.45097   1.45601   1.45986   1.46667   1.47084
 Alpha virt. eigenvalues --    1.47558   1.47924   1.48313   1.48410   1.50040
 Alpha virt. eigenvalues --    1.50991   1.51722   1.52942   1.53373   1.54435
 Alpha virt. eigenvalues --    1.55139   1.55871   1.56026   1.57286   1.57705
 Alpha virt. eigenvalues --    1.58178   1.59597   1.59843   1.61955   1.62046
 Alpha virt. eigenvalues --    1.62962   1.63478   1.64723   1.65347   1.67006
 Alpha virt. eigenvalues --    1.67577   1.67742   1.68476   1.69686   1.70053
 Alpha virt. eigenvalues --    1.70611   1.71416   1.71805   1.73018   1.73483
 Alpha virt. eigenvalues --    1.74090   1.74997   1.75375   1.76510   1.77716
 Alpha virt. eigenvalues --    1.77944   1.78413   1.79672   1.80249   1.81750
 Alpha virt. eigenvalues --    1.82974   1.83306   1.84119   1.85103   1.85749
 Alpha virt. eigenvalues --    1.86166   1.86597   1.87339   1.87754   1.88083
 Alpha virt. eigenvalues --    1.88789   1.89849   1.90452   1.90566   1.91606
 Alpha virt. eigenvalues --    1.92652   1.93490   1.94908   1.95161   1.95348
 Alpha virt. eigenvalues --    1.95618   1.96280   1.97207   1.97944   1.98226
 Alpha virt. eigenvalues --    1.99468   1.99828   2.01464   2.02594   2.03768
 Alpha virt. eigenvalues --    2.04970   2.05283   2.06049   2.06634   2.07645
 Alpha virt. eigenvalues --    2.08247   2.09244   2.09898   2.10165   2.10916
 Alpha virt. eigenvalues --    2.11650   2.13095   2.14371   2.14793   2.15853
 Alpha virt. eigenvalues --    2.15877   2.17154   2.18888   2.19871   2.21081
 Alpha virt. eigenvalues --    2.22420   2.24342   2.26275   2.28216   2.28811
 Alpha virt. eigenvalues --    2.29583   2.32213   2.33780   2.37389   2.37750
 Alpha virt. eigenvalues --    2.39511   2.40215   2.40770   2.41893   2.45090
 Alpha virt. eigenvalues --    2.46422   2.47143   2.48132   2.49888   2.52999
 Alpha virt. eigenvalues --    2.54925   2.56854   2.57043   2.58901   2.59925
 Alpha virt. eigenvalues --    2.60214   2.60822   2.62231   2.63026   2.63505
 Alpha virt. eigenvalues --    2.64430   2.65533   2.67258   2.67338   2.68372
 Alpha virt. eigenvalues --    2.69141   2.69338   2.71041   2.71686   2.71960
 Alpha virt. eigenvalues --    2.72951   2.73998   2.74701   2.74930   2.76069
 Alpha virt. eigenvalues --    2.76811   2.78077   2.79604   2.80742   2.80951
 Alpha virt. eigenvalues --    2.82410   2.82818   2.83414   2.84726   2.85423
 Alpha virt. eigenvalues --    2.85716   2.87805   2.88476   2.89268   2.89340
 Alpha virt. eigenvalues --    2.91015   2.91705   2.92544   2.92973   2.93244
 Alpha virt. eigenvalues --    2.94002   2.94341   2.95414   2.95735   2.96405
 Alpha virt. eigenvalues --    2.97014   2.98789   3.00976   3.03325   3.04041
 Alpha virt. eigenvalues --    3.05280   3.08165   3.09423   3.10343   3.11162
 Alpha virt. eigenvalues --    3.12057   3.13565   3.14158   3.15727   3.16962
 Alpha virt. eigenvalues --    3.18121   3.18346   3.20262   3.21351   3.22486
 Alpha virt. eigenvalues --    3.23868   3.26587   3.27683   3.28411   3.29349
 Alpha virt. eigenvalues --    3.31139   3.32557   3.32945   3.33848   3.34205
 Alpha virt. eigenvalues --    3.34874   3.35930   3.36707   3.37762   3.38859
 Alpha virt. eigenvalues --    3.40769   3.41802   3.41942   3.42489   3.44109
 Alpha virt. eigenvalues --    3.46133   3.46819   3.48985   3.51706   3.54189
 Alpha virt. eigenvalues --    3.56933   3.58382   3.59248   3.61869   3.63768
 Alpha virt. eigenvalues --    3.65118   3.67637   3.74337   3.78740   3.80526
 Alpha virt. eigenvalues --    3.84346   3.85194   3.85849   3.87436   3.88609
 Alpha virt. eigenvalues --    3.91047   3.92907   3.98039   4.00484   4.01498
 Alpha virt. eigenvalues --    4.07446   4.11226   4.16763   4.20036   4.22906
 Alpha virt. eigenvalues --    4.25077   4.32900   4.34702   4.38575   4.49338
 Alpha virt. eigenvalues --    4.62871   4.69518   4.78145   4.83188   4.84530
 Alpha virt. eigenvalues --    4.99740   5.01020   5.03129   5.04747   5.05002
 Alpha virt. eigenvalues --    5.06231   5.09482   5.11099   5.20043   5.23157
 Alpha virt. eigenvalues --    5.25301   5.28889   5.30435   5.40651   5.67423
 Alpha virt. eigenvalues --    5.70956   5.73989   5.78036   5.79122   5.81873
 Alpha virt. eigenvalues --    7.99858   8.02259  17.27994  17.30240  17.48004
 Alpha virt. eigenvalues --   17.51705  17.56622  17.62030  23.45143  23.53779
 Alpha virt. eigenvalues --   23.68100  23.77412  23.80051  23.81131  23.81706
 Alpha virt. eigenvalues --   23.84641  23.85376  23.85983  23.87120  23.92083
 Alpha virt. eigenvalues --   23.94038  23.97130  23.99567  24.00176  24.00270
 Alpha virt. eigenvalues --   24.03220  24.11480  24.12160  24.13202  24.13497
 Alpha virt. eigenvalues --   35.55567  35.61617  49.90723  49.93127  49.98953
 Alpha virt. eigenvalues --   50.00853  50.03976  50.05839 189.16835 189.19697
          Condensed to atoms (all electrons):
               1          2          3          4          5          6
     1  C   13.422742  -4.710990  -0.776060   1.793395  -2.416523  -0.805125
     2  C   -4.710990  12.222584   0.093067   0.107517   1.676387  -0.753185
     3  C   -0.776060   0.093067   6.889539   0.313141  -0.675244   0.643304
     4  C    1.793395   0.107517   0.313141  13.952827  -2.982134  -0.609208
     5  C   -2.416523   1.676387  -0.675244  -2.982134  10.393591   0.135051
     6  C   -0.805125  -0.753185   0.643304  -0.609208   0.135051   9.974339
     7  C   -1.358224   0.766675   1.244612  -0.521402  -0.271195   0.940499
     8  C   -0.001034  -0.266476   0.144280   0.250173   0.245391   1.367109
     9  C   -0.199989  -0.560238  -0.192905  -0.214961   0.294976  -1.140472
    10  C    0.181313  -0.187061  -0.243905   0.006327  -0.052132  -2.099996
    11  C    0.112632   0.453016  -1.296031   0.532487  -0.040887  -0.088939
    12  C    0.430735   0.203235   0.480741   0.142670  -0.149352   0.192694
    13  C   -0.075149  -1.218568  -0.243631  -6.258028   0.093137   0.604214
    14  C   -0.624206  -1.306756  -0.272355  -0.647069  -0.665209   0.458568
    15  H    0.001092  -0.005458   0.010561  -0.067269  -0.002394   0.000358
    16  H   -0.001099  -0.001730  -0.002840   0.008796   0.006482  -0.000122
    17  H   -0.013086  -0.024548   0.008850  -0.007180   0.004589   0.387119
    18  N   -0.006042   0.000683  -0.006726  -0.009091   0.000512   0.054552
    19  N    0.094899  -0.238641  -0.067044  -0.106189   0.056495   0.082006
    20  O    0.261919  -0.099289   0.012958  -0.034412   0.080019   0.029959
    21  O    0.105684  -0.066037   0.016279  -0.193759   0.265700   0.001510
    22  O    0.000474  -0.001779  -0.002556   0.009292   0.000216  -0.001039
    23  O   -0.000833   0.001530   0.042377  -0.005261  -0.000459   0.044245
    24  C    0.681697  -0.252687  -0.566955   0.158277   0.003807  -1.725088
    25  C   -0.062954  -0.021296   0.159860  -0.032361  -0.004709  -0.210011
    26  S   -0.196935   0.018578   0.002384   0.031266   0.003252   0.207038
    27  C    0.022626   0.100354  -0.016645  -0.001909  -0.002740  -0.822276
    28  H    0.000451   0.004733  -0.001519   0.000246  -0.000010  -0.016939
    29  C   -0.021006  -0.073442  -0.025720  -0.007798   0.001260  -0.464853
    30  O   -0.000052  -0.001316  -0.000020  -0.000012   0.000003   0.005510
    31  C   -0.008979   0.011614   0.000251   0.000230   0.000107  -0.063920
    32  C   -0.001749  -0.009603  -0.001829   0.000402  -0.000397  -0.082921
    33  S   -0.000241   0.002156   0.000103   0.000058   0.000011  -0.009255
    34  C    0.000425  -0.000706   0.000298  -0.000007   0.000005  -0.003066
    35  O   -0.000014  -0.001433  -0.000038  -0.000007  -0.000005  -0.003235
    36  C   -0.000070   0.000186  -0.000039   0.000012  -0.000004   0.000625
    37  H   -0.000000   0.000002  -0.000000   0.000000  -0.000000  -0.000015
    38  H    0.000000  -0.000000   0.000000  -0.000000   0.000000   0.000003
    39  H   -0.000210   0.000515  -0.000028   0.000010  -0.000003  -0.001554
    40  H    0.000007   0.000012  -0.000000  -0.000009  -0.000000  -0.000177
    41  H    0.004143  -0.029400  -0.006635   0.008147  -0.014777   0.017607
    42  H   -0.000184  -0.002039   0.002562  -0.000983  -0.000105   0.003764
               7          8          9         10         11         12
     1  C   -1.358224  -0.001034  -0.199989   0.181313   0.112632   0.430735
     2  C    0.766675  -0.266476  -0.560238  -0.187061   0.453016   0.203235
     3  C    1.244612   0.144280  -0.192905  -0.243905  -1.296031   0.480741
     4  C   -0.521402   0.250173  -0.214961   0.006327   0.532487   0.142670
     5  C   -0.271195   0.245391   0.294976  -0.052132  -0.040887  -0.149352
     6  C    0.940499   1.367109  -1.140472  -2.099996  -0.088939   0.192694
     7  C    7.758831  -0.501591  -0.611872  -0.564751  -1.155862   0.744448
     8  C   -0.501591   9.102561   0.077351  -2.092972   0.447658   0.810228
     9  C   -0.611872   0.077351   7.944446   0.775616  -0.339311  -0.175253
    10  C   -0.564751  -2.092972   0.775616  11.861349  -2.311209   1.184037
    11  C   -1.155862   0.447658  -0.339311  -2.311209  12.481805  -3.836960
    12  C    0.744448   0.810228  -0.175253   1.184037  -3.836960  14.558365
    13  C   -0.097919  -0.887924  -0.014403  -0.904046   0.193998  -0.628946
    14  C    0.365459  -1.819178  -0.192779  -0.627659   0.582412  -7.415089
    15  H   -0.005105  -0.001082   0.000195  -0.000795   0.004821   0.013509
    16  H    0.019395  -0.012604   0.001534   0.003206  -0.019657  -0.067985
    17  H   -0.012572   0.034472  -0.016454   0.005082  -0.001024  -0.000502
    18  N    0.014047  -0.029014   0.037757  -0.157173   0.113324  -0.037657
    19  N   -0.056250   0.029456   0.009941   0.009099  -0.004930   0.002532
    20  O   -0.023445   0.025280   0.051941   0.002904   0.000421  -0.000150
    21  O   -0.021266   0.002034   0.000153   0.000132   0.002680   0.026508
    22  O    0.017567  -0.055968   0.006610   0.102612   0.172949  -0.151048
    23  O    0.005662  -0.012319   0.022567   0.223364  -0.067237   0.016678
    24  C   -0.706294  -0.630288   0.860295   2.131563   0.245888  -0.467024
    25  C   -0.184866   0.272943  -0.269629  -0.705355  -0.264528  -0.003441
    26  S    0.036373  -0.074877   0.496644   0.069508  -0.017375  -0.025028
    27  C   -0.099318  -0.354492  -0.394013  -0.353351   0.018192  -0.065216
    28  H    0.000824  -0.013414   0.030773   0.047237   0.003702   0.001261
    29  C   -0.063962  -0.234128  -0.023500  -0.057571   0.000922  -0.033711
    30  O   -0.000550   0.001060  -0.006880   0.002208  -0.000199   0.000238
    31  C   -0.013165  -0.006069  -0.265436  -0.008892  -0.000498   0.000402
    32  C   -0.011534  -0.019321  -0.133984   0.005722  -0.000095   0.001255
    33  S    0.000758   0.001222  -0.005396  -0.005935   0.000049  -0.000284
    34  C    0.000064   0.000007  -0.006082  -0.001848  -0.000016   0.000004
    35  O   -0.000217   0.000478   0.006852   0.000071  -0.000010   0.000026
    36  C   -0.000232   0.000806  -0.008894   0.000215   0.000002   0.000049
    37  H    0.000000   0.000001   0.000018  -0.000000  -0.000000   0.000000
    38  H    0.000000  -0.000000   0.000015  -0.000000   0.000000  -0.000000
    39  H   -0.000017   0.000076  -0.001509  -0.000012  -0.000000   0.000001
    40  H    0.000018  -0.000926  -0.004899  -0.000738   0.000084  -0.000094
    41  H   -0.005114   0.001874   0.000940   0.000107   0.000053   0.001319
    42  H   -0.005721   0.013567  -0.002737   0.000065  -0.051061   0.025704
              13         14         15         16         17         18
     1  C   -0.075149  -0.624206   0.001092  -0.001099  -0.013086  -0.006042
     2  C   -1.218568  -1.306756  -0.005458  -0.001730  -0.024548   0.000683
     3  C   -0.243631  -0.272355   0.010561  -0.002840   0.008850  -0.006726
     4  C   -6.258028  -0.647069  -0.067269   0.008796  -0.007180  -0.009091
     5  C    0.093137  -0.665209  -0.002394   0.006482   0.004589   0.000512
     6  C    0.604214   0.458568   0.000358  -0.000122   0.387119   0.054552
     7  C   -0.097919   0.365459  -0.005105   0.019395  -0.012572   0.014047
     8  C   -0.887924  -1.819178  -0.001082  -0.012604   0.034472  -0.029014
     9  C   -0.014403  -0.192779   0.000195   0.001534  -0.016454   0.037757
    10  C   -0.904046  -0.627659  -0.000795   0.003206   0.005082  -0.157173
    11  C    0.193998   0.582412   0.004821  -0.019657  -0.001024   0.113324
    12  C   -0.628946  -7.415089   0.013509  -0.067985  -0.000502  -0.037657
    13  C   16.069760  -0.582418  -0.028945   0.434686  -0.000648   0.050559
    14  C   -0.582418  19.058346   0.430678  -0.018361  -0.001263  -0.008779
    15  H   -0.028945   0.430678   0.484772  -0.005361  -0.000000   0.000147
    16  H    0.434686  -0.018361  -0.005361   0.482145   0.000000  -0.002465
    17  H   -0.000648  -0.001263  -0.000000   0.000000   0.472668   0.000052
    18  N    0.050559  -0.008779   0.000147  -0.002465   0.000052   7.177055
    19  N    0.036317   0.034457  -0.002629   0.000114  -0.002941  -0.000123
    20  O   -0.002420   0.000388  -0.000007   0.000001   0.014496  -0.000004
    21  O    0.147055  -0.000294   0.007255   0.000072  -0.000015  -0.000049
    22  O    0.014365   0.167020   0.000059   0.008078  -0.000000  -0.038511
    23  O   -0.016098  -0.009493   0.000001  -0.000011   0.000068  -0.091778
    24  C   -0.242351  -0.307534   0.000019  -0.000393  -0.055116  -0.123841
    25  C    0.008342  -0.006193   0.000020   0.000045  -0.013756   0.008572
    26  S    0.019148   0.024185  -0.000005  -0.000014   0.051953  -0.008098
    27  C    0.000362  -0.004795   0.000001  -0.000001  -0.007268   0.048825
    28  H    0.000038   0.000009   0.000000  -0.000000  -0.000004  -0.004667
    29  C   -0.002958  -0.003058  -0.000000  -0.000002   0.004411   0.007654
    30  O    0.000003   0.000002   0.000000  -0.000000  -0.000014   0.000054
    31  C    0.000433   0.000414   0.000000  -0.000000   0.000781   0.000844
    32  C    0.000241   0.000333  -0.000000  -0.000000  -0.003130   0.000083
    33  S   -0.000011  -0.000014   0.000000  -0.000000   0.000036   0.000179
    34  C    0.000001  -0.000004  -0.000000   0.000000  -0.000063   0.000013
    35  O    0.000004   0.000005  -0.000000  -0.000000  -0.000062  -0.000001
    36  C    0.000004   0.000004   0.000000  -0.000000  -0.000037   0.000008
    37  H    0.000000   0.000000   0.000000  -0.000000  -0.000000  -0.000000
    38  H   -0.000000  -0.000000  -0.000000   0.000000   0.000000  -0.000000
    39  H    0.000000   0.000001  -0.000000  -0.000000   0.000009  -0.000000
    40  H    0.000001  -0.000001   0.000000   0.000000  -0.000001  -0.000038
    41  H    0.004917   0.013747  -0.000028  -0.000000  -0.000054   0.000000
    42  H    0.011203   0.004396  -0.000000  -0.000048  -0.000001   0.294092
              19         20         21         22         23         24
     1  C    0.094899   0.261919   0.105684   0.000474  -0.000833   0.681697
     2  C   -0.238641  -0.099289  -0.066037  -0.001779   0.001530  -0.252687
     3  C   -0.067044   0.012958   0.016279  -0.002556   0.042377  -0.566955
     4  C   -0.106189  -0.034412  -0.193759   0.009292  -0.005261   0.158277
     5  C    0.056495   0.080019   0.265700   0.000216  -0.000459   0.003807
     6  C    0.082006   0.029959   0.001510  -0.001039   0.044245  -1.725088
     7  C   -0.056250  -0.023445  -0.021266   0.017567   0.005662  -0.706294
     8  C    0.029456   0.025280   0.002034  -0.055968  -0.012319  -0.630288
     9  C    0.009941   0.051941   0.000153   0.006610   0.022567   0.860295
    10  C    0.009099   0.002904   0.000132   0.102612   0.223364   2.131563
    11  C   -0.004930   0.000421   0.002680   0.172949  -0.067237   0.245888
    12  C    0.002532  -0.000150   0.026508  -0.151048   0.016678  -0.467024
    13  C    0.036317  -0.002420   0.147055   0.014365  -0.016098  -0.242351
    14  C    0.034457   0.000388  -0.000294   0.167020  -0.009493  -0.307534
    15  H   -0.002629  -0.000007   0.007255   0.000059   0.000001   0.000019
    16  H    0.000114   0.000001   0.000072   0.008078  -0.000011  -0.000393
    17  H   -0.002941   0.014496  -0.000015  -0.000000   0.000068  -0.055116
    18  N   -0.000123  -0.000004  -0.000049  -0.038511  -0.091778  -0.123841
    19  N    7.202401  -0.069904  -0.058657  -0.000024   0.000071   0.027000
    20  O   -0.069904   8.025203   0.001284  -0.000000  -0.000003   0.003204
    21  O   -0.058657   0.001284   8.036875   0.000014  -0.000000   0.000065
    22  O   -0.000024  -0.000000   0.000014   8.023441   0.001885  -0.001908
    23  O    0.000071  -0.000003  -0.000000   0.001885   8.245130  -0.088952
    24  C    0.027000   0.003204   0.000065  -0.001908  -0.088952  13.963950
    25  C    0.000988  -0.003191  -0.000026  -0.000403  -0.014112   0.096734
    26  S    0.006003   0.004932   0.000004  -0.000077   0.021787   0.096573
    27  C    0.000863  -0.000732  -0.000002  -0.000336  -0.007180  -3.565251
    28  H   -0.000001  -0.000000  -0.000000  -0.000014  -0.064666   0.113277
    29  C    0.000373   0.000374  -0.000005  -0.000062  -0.014330  -2.470294
    30  O   -0.000000   0.000001   0.000000   0.000000   0.002915   0.085559
    31  C    0.000077  -0.000110   0.000000  -0.000002  -0.001977  -0.339412
    32  C    0.000082   0.000286  -0.000000  -0.000000  -0.000485  -0.827938
    33  S    0.000004  -0.000001  -0.000000  -0.000000   0.000596   0.073411
    34  C    0.000003   0.000010  -0.000000  -0.000000   0.000007  -0.031729
    35  O    0.000004  -0.000010   0.000000   0.000000  -0.000013  -0.028874
    36  C    0.000000   0.000002   0.000000   0.000000   0.000068  -0.024987
    37  H    0.000000   0.000000   0.000000   0.000000  -0.000000   0.000208
    38  H    0.000000  -0.000000  -0.000000   0.000000  -0.000000   0.000014
    39  H    0.000000   0.000000   0.000000  -0.000000  -0.000000   0.000711
    40  H   -0.000000   0.000000  -0.000000  -0.000000  -0.002512  -0.072815
    41  H    0.282354   0.006197   0.010910   0.000000   0.000000   0.001314
    42  H    0.000002  -0.000000  -0.000000   0.008511   0.009652   0.002526
              25         26         27         28         29         30
     1  C   -0.062954  -0.196935   0.022626   0.000451  -0.021006  -0.000052
     2  C   -0.021296   0.018578   0.100354   0.004733  -0.073442  -0.001316
     3  C    0.159860   0.002384  -0.016645  -0.001519  -0.025720  -0.000020
     4  C   -0.032361   0.031266  -0.001909   0.000246  -0.007798  -0.000012
     5  C   -0.004709   0.003252  -0.002740  -0.000010   0.001260   0.000003
     6  C   -0.210011   0.207038  -0.822276  -0.016939  -0.464853   0.005510
     7  C   -0.184866   0.036373  -0.099318   0.000824  -0.063962  -0.000550
     8  C    0.272943  -0.074877  -0.354492  -0.013414  -0.234128   0.001060
     9  C   -0.269629   0.496644  -0.394013   0.030773  -0.023500  -0.006880
    10  C   -0.705355   0.069508  -0.353351   0.047237  -0.057571   0.002208
    11  C   -0.264528  -0.017375   0.018192   0.003702   0.000922  -0.000199
    12  C   -0.003441  -0.025028  -0.065216   0.001261  -0.033711   0.000238
    13  C    0.008342   0.019148   0.000362   0.000038  -0.002958   0.000003
[...]
    36  C    0.000001   0.000001   0.000000   0.000000   0.000034  -0.000003
    37  H    0.000000   0.000000  -0.000000  -0.000000  -0.000000   0.000000
    38  H   -0.000000  -0.000000  -0.000000   0.000000   0.000000   0.000000
    39  H    0.000000   0.000000  -0.000000   0.000000   0.000034  -0.000000
    40  H    0.000002   0.000000   0.000000  -0.000000  -0.000002  -0.000133
    41  H    0.001715   0.003353  -0.000028   0.000000  -0.000039   0.000000
    42  H   -0.005954  -0.000911   0.000000  -0.000029  -0.000000   0.326519
              19         20         21         22         23         24
     1  C    0.130168   0.270453   0.094681   0.000740  -0.000879   0.518141
     2  C   -0.237884  -0.112452  -0.065417  -0.001169  -0.007621  -0.554966
     3  C   -0.123601   0.018790   0.025507  -0.015077  -0.011032  -0.399914
     4  C   -0.117473  -0.029223  -0.206891   0.004034   0.001704   0.124424
     5  C    0.128855   0.067748   0.261348  -0.000646   0.000093   0.049518
     6  C    0.097371   0.026995   0.004157  -0.001210  -0.047183  -0.268977
     7  C   -0.100158  -0.024343  -0.029716   0.017332   0.009957  -0.729554
     8  C    0.032868   0.016351   0.003177  -0.057193  -0.290719   0.527937
     9  C    0.025069   0.050045   0.000182   0.005393  -0.043904   1.074939
    10  C    0.009071   0.001723   0.000211   0.071211   0.400378   1.158123
    11  C   -0.005188   0.000189   0.002270   0.252168   0.035589  -0.137581
    12  C    0.000153  -0.001508   0.025542  -0.253736  -0.000466  -0.514795
    13  C    0.044790  -0.002084   0.146709   0.069771   0.006331  -0.211094
    14  C    0.023814   0.001104  -0.001032   0.174557  -0.000747  -0.229737
    15  H   -0.002155  -0.000015   0.006509   0.000070   0.000001  -0.000037
    16  H    0.000177   0.000001   0.000073   0.006052  -0.000017  -0.000362
    17  H   -0.002250   0.013038  -0.000017   0.000001   0.000154  -0.054817
    18  N   -0.000170  -0.000019  -0.000059  -0.045515  -0.077272  -0.120090
    19  N    7.227642  -0.058845  -0.040880  -0.000036   0.000015   0.029770
    20  O   -0.058845   8.046493   0.001703  -0.000000  -0.000001   0.002630
    21  O   -0.040880   0.001703   8.042538   0.000015   0.000000   0.000708
    22  O   -0.000036  -0.000000   0.000015   8.055222   0.002528  -0.002414
    23  O    0.000015  -0.000001   0.000000   0.002528   8.175969  -0.296826
    24  C    0.029770   0.002630   0.000708  -0.002414  -0.296826  16.361940
    25  C    0.001403  -0.004541   0.000082   0.001988   0.150054   0.620603
    26  S    0.009373  -0.000662   0.000022   0.000084   0.012855  -0.216625
    27  C    0.000869  -0.001165   0.000007   0.000517   0.217085  -5.239689
    28  H   -0.000003   0.000002   0.000000   0.000005  -0.027726   0.097727
    29  C    0.000915   0.001658   0.000005   0.000052   0.035009  -4.072857
    30  O   -0.000000   0.000000   0.000000  -0.000000   0.001178   0.130268
    31  C    0.000033  -0.000232   0.000000   0.000001   0.009560  -0.577018
    32  C   -0.000011   0.000610   0.000000   0.000000   0.002333  -0.962886
    33  S    0.000006  -0.000008   0.000000   0.000000   0.000927   0.026078
    34  C    0.000006   0.000016  -0.000000   0.000000   0.000256  -0.085258
    35  O   -0.000001  -0.000002   0.000000   0.000000  -0.000013   0.009614
    36  C   -0.000001   0.000003  -0.000000  -0.000000   0.000011   0.010935
    37  H    0.000000   0.000000   0.000000   0.000000  -0.000000   0.000289
    38  H   -0.000000  -0.000000  -0.000000  -0.000000   0.000000  -0.000051
    39  H   -0.000000  -0.000001   0.000000   0.000000  -0.000000  -0.011518
    40  H    0.000000  -0.000000   0.000000   0.000000  -0.000997  -0.110250
    41  H    0.328983   0.006210   0.004278  -0.000000  -0.000000   0.000047
    42  H    0.000001  -0.000000  -0.000000   0.006034   0.006291   0.004836
              25         26         27         28         29         30
     1  C   -0.026966  -0.204101   0.025049   0.000039  -0.066655  -0.000050
     2  C   -0.258662   0.052577  -0.033071   0.001298  -0.237212  -0.001076
     3  C   -0.250763  -0.044061  -0.132732  -0.001348  -0.056022   0.000205
     4  C    0.081284   0.066088   0.028488  -0.000017  -0.000078  -0.000044
     5  C   -0.000737   0.008850  -0.002308   0.000039   0.004928   0.000000
     6  C   -1.552242  -0.030066  -1.830067   0.012576  -0.971077   0.012111
     7  C   -0.186678  -0.018277  -0.051739   0.001620  -0.045743   0.000283
     8  C   -0.441087  -0.301773  -0.932284   0.017800  -0.529428   0.007999
     9  C   -0.272293   0.302115  -0.715494   0.016946  -0.148636  -0.001789
    10  C    0.167381   0.008813   0.275480   0.011675   0.057762  -0.008599
    11  C    0.043856  -0.030273   0.015646   0.002685  -0.001172   0.000177
    12  C    0.093499  -0.054408   0.021614   0.000551  -0.036737  -0.000092
    13  C    0.078222   0.025853   0.014558  -0.000004  -0.000992  -0.000001
    14  C    0.049833   0.022903   0.006140  -0.000007  -0.000493   0.000003
    15  H    0.000018   0.000006   0.000001   0.000000  -0.000000  -0.000000
    16  H    0.000025  -0.000003   0.000001   0.000000  -0.000001   0.000000
    17  H   -0.012474   0.061982  -0.006514  -0.000038  -0.002263  -0.000002
    18  N    0.012826  -0.009713  -0.003921  -0.000577  -0.002251   0.000214
    19  N    0.001403   0.009373   0.000869  -0.000003   0.000915  -0.000000
    20  O   -0.004541  -0.000662  -0.001165   0.000002   0.001658   0.000000
    21  O    0.000082   0.000022   0.000007   0.000000   0.000005   0.000000
    22  O    0.001988   0.000084   0.000517   0.000005   0.000052  -0.000000
    23  O    0.150054   0.012855   0.217085  -0.027726   0.035009   0.001178
    24  C    0.620603  -0.216625  -5.239689   0.097727  -4.072857   0.130268
    25  C   12.750378  -1.825962   2.098303   0.391772  -3.685352  -0.088257
    26  S   -1.825962  19.147066  -1.439058   0.026832   1.031805   0.039061
    27  C    2.098303  -1.439058  15.400215  -0.192683   1.084810   0.145268
    28  H    0.391772   0.026832  -0.192683   0.539085  -0.015918  -0.007619
    29  C   -3.685352   1.031805   1.084810  -0.015918  12.910850  -0.196118
    30  O   -0.088257   0.039061   0.145268  -0.007619  -0.196118   8.080200
    31  C   -0.968475   0.404271  -0.435421  -0.008206   0.760501  -0.024528
    32  C   -0.200173  -0.226593  -1.702528   0.000212  -0.914098   0.011888
    33  S   -0.246510   0.009321   0.302031  -0.000682   0.835146  -0.062400
    34  C   -0.262673  -0.221540  -0.072838  -0.000014  -0.106768  -0.002815
    35  O    0.005571  -0.033488   0.069213   0.000032   0.033516  -0.000842
    36  C   -0.062932   0.120438  -0.451541   0.000004  -0.109553   0.008615
    37  H    0.000029   0.001106   0.000698   0.000000  -0.004110   0.000020
    38  H    0.000484  -0.000756   0.006260   0.000000  -0.004783  -0.000059
    39  H    0.002108  -0.007487  -0.009871   0.000000   0.032931  -0.000029
    40  H   -0.109745  -0.009494   0.162961   0.004180   0.073711   0.183861
    41  H   -0.000024  -0.000030  -0.000001   0.000000  -0.000007  -0.000000
    42  H   -0.003830  -0.000103  -0.001353  -0.000003  -0.000403  -0.000005
              31         32         33         34         35         36
     1  C   -0.007354  -0.003094  -0.000087   0.000641  -0.000198   0.000039
     2  C   -0.008117  -0.032912   0.002247  -0.004634  -0.002201   0.000226
     3  C   -0.005556  -0.000589  -0.000777  -0.000257   0.000036   0.000069
     4  C    0.002295  -0.000890   0.000223  -0.000030  -0.000057  -0.000012
     5  C   -0.000294  -0.000005  -0.000001   0.000017   0.000006  -0.000003
     6  C   -0.213860   0.010810  -0.041500  -0.033652   0.007213   0.011330
     7  C   -0.008128  -0.007802   0.000994   0.000348  -0.000186  -0.000040
     8  C   -0.006423  -0.035911   0.000682  -0.001300   0.000163   0.000775
     9  C   -0.340823  -0.193953  -0.006270   0.003378   0.008841  -0.011569
    10  C   -0.002469  -0.005127  -0.001092  -0.000427   0.000166  -0.000860
    11  C   -0.001502  -0.000179   0.000041   0.000014  -0.000004   0.000005
    12  C    0.003142  -0.000593   0.000181   0.000018   0.000008   0.000018
    13  C    0.000491  -0.000071   0.000026  -0.000005   0.000000   0.000001
    14  C    0.000589  -0.000007   0.000013  -0.000008  -0.000000   0.000001
    15  H    0.000000  -0.000000   0.000000   0.000000  -0.000000   0.000000
    16  H    0.000000   0.000000   0.000000   0.000000   0.000000   0.000000
    17  H    0.001783  -0.001589   0.000040  -0.000475  -0.000040   0.000034
    18  N   -0.000962  -0.000342   0.000118   0.000010   0.000000  -0.000003
    19  N    0.000033  -0.000011   0.000006   0.000006  -0.000001  -0.000001
    20  O   -0.000232   0.000610  -0.000008   0.000016  -0.000002   0.000003
    21  O    0.000000   0.000000   0.000000  -0.000000   0.000000  -0.000000
    22  O    0.000001   0.000000   0.000000   0.000000   0.000000  -0.000000
    23  O    0.009560   0.002333   0.000927   0.000256  -0.000013   0.000011
    24  C   -0.577018  -0.962886   0.026078  -0.085258   0.009614   0.010935
    25  C   -0.968475  -0.200173  -0.246510  -0.262673   0.005571  -0.062932
    26  S    0.404271  -0.226593   0.009321  -0.221540  -0.033488   0.120438
    27  C   -0.435421  -1.702528   0.302031  -0.072838   0.069213  -0.451541
    28  H   -0.008206   0.000212  -0.000682  -0.000014   0.000032   0.000004
    29  C    0.760501  -0.914098   0.835146  -0.106768   0.033516  -0.109553
    30  O   -0.024528   0.011888  -0.062400  -0.002815  -0.000842   0.008615
    31  C   11.374330  -6.157837   0.707769   1.850054   0.131087  -1.267501
    32  C   -6.157837  25.043406  -3.111467  -8.727520  -0.385533   2.847972
    33  S    0.707769  -3.111467  17.443173   0.587153   0.048516  -0.224296
    34  C    1.850054  -8.727520   0.587153  14.577673   0.119357  -1.463278
    35  O    0.131087  -0.385533   0.048516   0.119357   8.090986  -0.008514
    36  C   -1.267501   2.847972  -0.224296  -1.463278  -0.008514   6.448946
    37  H    0.009778  -0.113402   0.014603   0.403074  -0.004278   0.037340
    38  H    0.058153  -0.088517  -0.022130   0.091622  -0.000316   0.317915
    39  H   -0.097249   0.482272  -0.012937  -0.349620   0.135684   0.014229
    40  H    0.021222  -0.010669   0.015329   0.005173  -0.000028  -0.005090
    41  H   -0.000000  -0.000000   0.000000   0.000000  -0.000000  -0.000000
    42  H   -0.000016  -0.000003  -0.000001  -0.000000   0.000000  -0.000000
              37         38         39         40         41         42
     1  C   -0.000000   0.000000  -0.000111  -0.000010  -0.020814  -0.000065
     2  C    0.000003  -0.000000   0.000127  -0.000046   0.001453   0.000103
     3  C    0.000000   0.000000  -0.000012  -0.000063   0.004673   0.000463
     4  C    0.000000  -0.000000   0.000002   0.000013   0.007469   0.001128
     5  C   -0.000000   0.000000  -0.000001   0.000000  -0.030397   0.000031
     6  C    0.000011   0.000007  -0.001170  -0.008875   0.001841  -0.000721
     7  C    0.000000   0.000000  -0.000023  -0.000488  -0.001024   0.005722
     8  C    0.000001  -0.000001  -0.000057  -0.008126   0.000304   0.008293
     9  C    0.000021   0.000018  -0.002340  -0.004011  -0.000145  -0.000941
    10  C   -0.000000  -0.000000  -0.000005   0.009518   0.000026  -0.011573
    11  C   -0.000000   0.000000  -0.000000  -0.000215  -0.000075  -0.034920
    12  C    0.000000  -0.000000   0.000001   0.000146   0.000350   0.010640
    13  C    0.000000  -0.000000   0.000000   0.000002   0.001715  -0.005954
    14  C    0.000000  -0.000000   0.000000   0.000000   0.003353  -0.000911
    15  H   -0.000000  -0.000000  -0.000000   0.000000  -0.000028   0.000000
    16  H   -0.000000   0.000000   0.000000  -0.000000   0.000000  -0.000029
    17  H   -0.000000   0.000000   0.000034  -0.000002  -0.000039  -0.000000
    18  N    0.000000   0.000000  -0.000000  -0.000133   0.000000   0.326519
    19  N    0.000000  -0.000000  -0.000000   0.000000   0.328983   0.000001
    20  O    0.000000  -0.000000  -0.000001  -0.000000   0.006210  -0.000000
    21  O    0.000000  -0.000000   0.000000   0.000000   0.004278  -0.000000
    22  O    0.000000  -0.000000   0.000000   0.000000  -0.000000   0.006034
    23  O   -0.000000   0.000000  -0.000000  -0.000997  -0.000000   0.006291
    24  C    0.000289  -0.000051  -0.011518  -0.110250   0.000047   0.004836
    25  C    0.000029   0.000484   0.002108  -0.109745  -0.000024  -0.003830
    26  S    0.001106  -0.000756  -0.007487  -0.009494  -0.000030  -0.000103
    27  C    0.000698   0.006260  -0.009871   0.162961  -0.000001  -0.001353
    28  H    0.000000   0.000000   0.000000   0.004180   0.000000  -0.000003
    29  C   -0.004110  -0.004783   0.032931   0.073711  -0.000007  -0.000403
    30  O    0.000020  -0.000059  -0.000029   0.183861  -0.000000  -0.000005
    31  C    0.009778   0.058153  -0.097249   0.021222  -0.000000  -0.000016
    32  C   -0.113402  -0.088517   0.482272  -0.010669  -0.000000  -0.000003
    33  S    0.014603  -0.022130  -0.012937   0.015329   0.000000  -0.000001
    34  C    0.403074   0.091622  -0.349620   0.005173   0.000000  -0.000000
    35  O   -0.004278  -0.000316   0.135684  -0.000028  -0.000000   0.000000
    36  C    0.037340   0.317915   0.014229  -0.005090  -0.000000  -0.000000
    37  H    0.534951  -0.004852   0.003273   0.000000  -0.000000  -0.000000
    38  H   -0.004852   0.480311  -0.000014  -0.000003   0.000000   0.000000
    39  H    0.003273  -0.000014   0.551315  -0.000000  -0.000000  -0.000000
    40  H    0.000000  -0.000003  -0.000000   0.515786   0.000000   0.000002
    41  H   -0.000000   0.000000  -0.000000   0.000000   0.335301   0.000000
    42  H   -0.000000   0.000000  -0.000000   0.000002   0.000000   0.342606
 Mulliken charges:
               1
     1  C    0.397900
     2  C   -0.159018
     3  C    0.226307
     4  C    0.145992
     5  C    0.242022
     6  C   -0.071868
     7  C    0.244788
     8  C    0.134544
     9  C    0.136162
    10  C   -0.175487
    11  C    0.393765
    12  C    0.025328
    13  C   -0.397381
    14  C   -0.476650
    15  H    0.163625
    16  H    0.166178
    17  H    0.172288
    18  N   -0.368445
    19  N   -0.402694
    20  O   -0.290661
    21  O   -0.275713
    22  O   -0.290779
    23  O   -0.262875
    24  C    0.048789
    25  C   -0.089344
    26  S   -0.676951
    27  C   -0.620935
    28  H    0.129764
    29  C    0.345131
    30  O   -0.227024
    31  C    0.796915
    32  C    0.484796
    33  S   -0.264457
    34  C   -0.305697
    35  O   -0.224311
    36  C   -0.213713
    37  H    0.121445
    38  H    0.166712
    39  H    0.270468
    40  H    0.276341
    41  H    0.356580
    42  H    0.348162
 Sum of Mulliken charges =  -0.00000
 Mulliken charges with hydrogens summed into heavy atoms:
               1
     1  C    0.397900
     2  C   -0.159018
     3  C    0.226307
     4  C    0.145992
     5  C    0.242022
     6  C    0.100420
     7  C    0.244788
     8  C    0.134544
     9  C    0.136162
    10  C   -0.175487
    11  C    0.393765
    12  C    0.025328
    13  C   -0.231203
    14  C   -0.313025
    18  N   -0.020283
    19  N   -0.046113
    20  O   -0.290661
    21  O   -0.275713
    22  O   -0.290779
    23  O   -0.262875
    24  C    0.048789
    25  C    0.040420
    26  S   -0.676951
    27  C   -0.620935
    29  C    0.345131
    30  O    0.049317
    31  C    0.796915
    32  C    0.484796
    33  S   -0.264457
    34  C   -0.184252
    35  O    0.046157
    36  C   -0.047001
 Electronic spatial extent (au):  <R**2>=          18335.9086
 Charge=             -0.0000 electrons
 Dipole moment (field-independent basis, Debye):
    X=             -5.4899    Y=             -0.6085    Z=             -0.2664  Tot=              5.5300
 Quadrupole moment (field-independent basis, Debye-Ang):
   XX=           -184.4964   YY=           -199.2334   ZZ=           -197.5053
   XY=              8.8357   XZ=             -2.5260   YZ=             -9.2279
 Traceless Quadrupole moment (field-independent basis, Debye-Ang):
   XX=              9.2487   YY=             -5.4884   ZZ=             -3.7603
   XY=              8.8357   XZ=             -2.5260   YZ=             -9.2279
 Octapole moment (field-independent basis, Debye-Ang**2):
  XXX=           -425.0541  YYY=            -12.2269  ZZZ=              2.6318  XYY=           -158.3984
  XXY=            -87.4944  XXZ=             35.6975  XZZ=             10.5985  YZZ=             -2.9030
  YYZ=             -1.5452  XYZ=             26.4867
 Hexadecapole moment (field-independent basis, Debye-Ang**3):
 XXXX=         -18099.6230 YYYY=          -5071.1773 ZZZZ=           -386.2989 XXXY=            793.6498
 XXXZ=           -125.5569 YYYX=           -164.2926 YYYZ=           -119.5401 ZZZX=             -2.7338
 ZZZY=             -5.5128 XXYY=          -4286.0262 XXZZ=          -3389.2302 YYZZ=           -890.8328
 XXYZ=           -194.3533 YYXZ=            -35.0752 ZZXY=              2.0269
 N-N= 3.321425072928D+03 E-N=-1.181845580327D+04  KE= 2.195637678927D+03
 Unable to Open any file for archive entry.
 1\1\GINC-CX1-106-19-3\FOpt\RB3LYP\6-311+G(d,p)\C22H10N2O6S2\NS5018\17-
 Nov-2020\0\\# opt=modredundant b3lyp/6-311+g(d,p)\\NDI_20.pdb\\0,1\C,-
 2.5903986077,-2.9262762843,-0.6830594349\C,-2.2907724286,-1.4838892957
 ,-0.467258485\C,-3.3198515601,-0.5848079643,-0.0857522757\C,-4.6461154
 707,-1.035132962,0.1070116567\C,-4.9810227202,-2.4708181969,-0.0885174
 961\C,-1.0033661624,-1.0453798803,-0.602011158\C,-2.985759128,0.789285
 8833,0.0860109698\C,-1.6351289188,1.2443724338,-0.096739344\C,-0.60559
 14072,0.3112479153,-0.3942457288\C,-1.4181894819,2.7153882917,-0.08892
 17452\C,-3.7988051577,3.1156729892,0.6063261773\C,-4.0467271588,1.6667
 608804,0.448140538\C,-5.3378766565,1.2006090746,0.643924235\C,-5.64610
 55628,-0.1510149086,0.4758274757\H,-6.6521838234,-0.523171304,0.620913
 9755\H,-6.1000714293,1.9169822938,0.9244086611\H,-0.2588211902,-1.7938
 037585,-0.8411461017\N,-2.5022494078,3.4993887589,0.3117041679\N,-3.91
 7565168,-3.2863698747,-0.4730585548\O,-1.764193936,-3.752047733,-1.015
 7409412\O,-6.0925508722,-2.9356545645,0.0641227936\O,-4.6378656978,3.9
 309490231,0.9410294793\O,-0.3961250232,3.2913470276,-0.4195692126\C,0.
 8343804443,0.542073375,-0.4116860288\C,1.6164327712,1.5231816152,0.165
 8481556\S,1.8666289154,-0.5979908714,-1.2817296419\C,2.9898996059,1.36
 05578204,-0.0639635688\H,1.2201113029,2.340484512,0.7457497955\C,3.323
 9778247,0.2604739928,-0.8490613796\O,3.9660631201,2.1837126069,0.41972
 33783\C,4.6299558095,-0.1489030398,-1.2845260535\C,4.9630096326,-1.255
 1328278,-2.0520983785\S,6.0970282898,0.7470394568,-0.8913132919\C,6.35
 03021929,-1.3860951539,-2.3199083626\O,3.9969147739,-2.1119741997,-2.4
 889006039\C,7.0785028382,-0.3773912841,-1.7555302134\H,6.7788488351,-2
 .1914687545,-2.9034392287\H,8.1468385501,-0.230481725,-1.7980312086\H,
 4.390677325,-2.8388068726,-2.9819375697\H,3.5737798012,2.9898030566,0.
 7712222629\H,-4.1395827656,-4.2661931252,-0.6117956844\H,-2.3184322977
 ,4.4964735736,0.3239779701\\Version=ES64L-G16RevC.01\State=1-A\HF=-220
 2.0831034\RMSD=4.425e-09\RMSF=8.198e-04\Dipole=2.1410544,-0.2548029,-0
 .2906137\Quadrupole=5.6951308,-7.1015154,1.4063847,-4.9611664,-4.21295
 37,6.6962503\PG=C01 [X(C22H10N2O6S2)]\\@
 The archive entry for this job was punched.


 ALL OUR THINKING ABOUT NATURE MUST NECESSARILY MOVE IN CIRCLES OR SPIRALS;
 FOR WE CAN ONLY UNDERSTAND NATURE IF WE THINK ABOUT HER, AND WE CAN ONLY
 THINK BECAUSE OUR BRAIN IS BUILT IN ACCORDANCE WITH NATURE'S LAWS.

                                             -- TIMOTHY FERRIS, "GALAXIES"
 Job cpu time:       1 days 21 hours 16 minutes 27.1 seconds.
 Elapsed time:       0 days  5 hours 40 minutes 54.1 seconds.
 File lengths (MBytes):  RWF=    361 Int=      0 D2E=      0 Chk=     44 Scr=      1
 Normal termination of Gaussian 16 at Tue Nov 17 14:37:16 2020.
