 Entering Gaussian System, Link 0=g16
 Input=NDI_50.gjf
 Output=NDI_50.log
 Initial command:
 /apps/gaussian/g16-c01-avx/g16/l1.exe "/tmp/pbs.2575767[23].pbs/Gau-2613378.inp" -scrdir="/tmp/pbs.2575767[23].pbs/"
 Entering Link 1 = /apps/gaussian/g16-c01-avx/g16/l1.exe PID=   2613381.
  
 Copyright (c) 1988-2019, Gaussian, Inc.  All Rights Reserved.
  
 This is part of the Gaussian(R) 16 program.  It is based on
 the Gaussian(R) 09 system (copyright 2009, Gaussian, Inc.),
 the Gaussian(R) 03 system (copyright 2003, Gaussian, Inc.),
 the Gaussian(R) 98 system (copyright 1998, Gaussian, Inc.),
 the Gaussian(R) 94 system (copyright 1995, Gaussian, Inc.),
 the Gaussian 92(TM) system (copyright 1992, Gaussian, Inc.),
 the Gaussian 90(TM) system (copyright 1990, Gaussian, Inc.),
 the Gaussian 88(TM) system (copyright 1988, Gaussian, Inc.),
 the Gaussian 86(TM) system (copyright 1986, Carnegie Mellon
 University), and the Gaussian 82(TM) system (copyright 1983,
 Carnegie Mellon University). Gaussian is a federally registered
 trademark of Gaussian, Inc.
  
 This software contains proprietary and confidential information,
 including trade secrets, belonging to Gaussian, Inc.
  
 This software is provided under written license and may be
 used, copied, transmitted, or stored only in accord with that
 written license.
  
 The following legend is applicable only to US Government
 contracts under FAR:
  
                    RESTRICTED RIGHTS LEGEND
  
 Use, reproduction and disclosure by the US Government is
 subject to restrictions as set forth in subparagraphs (a)
 and (c) of the Commercial Computer Software - Restricted
 Rights clause in FAR 52.227-19.
  
 Gaussian, Inc.
 340 Quinnipiac St., Bldg. 40, Wallingford CT 06492
  
  
 ---------------------------------------------------------------
 Warning -- This program may not be used in any manner that
 competes with the business of Gaussian, Inc. or will provide
 assistance to any competitor of Gaussian, Inc.  The licensee
 of this program is prohibited from giving any competitor of
 Gaussian, Inc. access to this program.  By using this program,
 the user acknowledges that Gaussian, Inc. is engaged in the
 business of creating and licensing software in the field of
 computational chemistry and represents and warrants to the
 licensee that it is not a competitor of Gaussian, Inc. and that
 it will not use this program in any manner prohibited above.
 ---------------------------------------------------------------
  

 Cite this work as:
 Gaussian 16, Revision C.01,
 M. J. Frisch, G. W. Trucks, H. B. Schlegel, G. E. Scuseria, 
 M. A. Robb, J. R. Cheeseman, G. Scalmani, V. Barone, 
 G. A. Petersson, H. Nakatsuji, X. Li, M. Caricato, A. V. Marenich, 
 J. Bloino, B. G. Janesko, R. Gomperts, B. Mennucci, H. P. Hratchian, 
 J. V. Ortiz, A. F. Izmaylov, J. L. Sonnenberg, D. Williams-Young, 
 F. Ding, F. Lipparini, F. Egidi, J. Goings, B. Peng, A. Petrone, 
 T. Henderson, D. Ranasinghe, V. G. Zakrzewski, J. Gao, N. Rega, 
 G. Zheng, W. Liang, M. Hada, M. Ehara, K. Toyota, R. Fukuda, 
 J. Hasegawa, M. Ishida, T. Nakajima, Y. Honda, O. Kitao, H. Nakai, 
 T. Vreven, K. Throssell, J. A. Montgomery, Jr., J. E. Peralta, 
 F. Ogliaro, M. J. Bearpark, J. J. Heyd, E. N. Brothers, K. N. Kudin, 
 V. N. Staroverov, T. A. Keith, R. Kobayashi, J. Normand, 
 K. Raghavachari, A. P. Rendell, J. C. Burant, S. S. Iyengar, 
 J. Tomasi, M. Cossi, J. M. Millam, M. Klene, C. Adamo, R. Cammi, 
 J. W. Ochterski, R. L. Martin, K. Morokuma, O. Farkas, 
 J. B. Foresman, and D. J. Fox, Gaussian, Inc., Wallingford CT, 2019.
 
 ******************************************
 Gaussian 16:  ES64L-G16RevC.01  3-Jul-2019
                17-Nov-2020 
 ******************************************
 %mem=10GB
 %nprocshared=8
 Will use up to    8 processors via shared memory.
 -------------------------------------
 # opt=modredundant b3lyp/6-311+g(d,p)
 -------------------------------------
 1/18=120,19=15,26=3,38=1/1,3;
 2/9=110,12=2,17=6,18=5,40=1/2;
 3/5=4,6=6,7=111,11=2,25=1,30=1,71=1,74=-5/1,2,3;
 4//1;
 5/5=2,38=5/2;
 6/7=2,8=2,9=2,10=2,28=1/1;
 7//1,2,3,16;
 1/18=20,19=15,26=3/3(2);
 2/9=110/2;
 99//99;
 2/9=110/2;
 3/5=4,6=6,7=111,11=2,25=1,30=1,71=1,74=-5/1,2,3;
 4/5=5,16=3,69=1/1;
 5/5=2,38=5/2;
 7//1,2,3,16;
 1/18=20,19=15,26=3/3(-5);
 2/9=110/2;
 6/7=2,8=2,9=2,10=2,19=2,28=1/1;
 99/9=1/99;
 ----------
 NDI_50.pdb
 ----------
 Symbolic Z-matrix:
 Charge =  0 Multiplicity = 1
 C                    -2.56     -2.99     -0.41 
 C                    -2.26     -1.55     -0.22 
 C                    -3.3      -0.61     -0.08 
 C                    -4.65     -1.02     -0.12 
 C                    -4.99     -2.46     -0.3 
 C                    -0.95     -1.14     -0.22 
 C                    -2.96      0.76      0.1 
 C                    -1.6       1.19      0.12 
 C                    -0.56      0.23     -0.07 
 C                    -1.33      2.62      0.45 
 C                    -3.78      3.12      0.51 
 C                    -4.03      1.68      0.27 
 C                    -5.36      1.25      0.23 
 C                    -5.67     -0.1       0.04 
 H                    -6.7      -0.44      0.01 
 H                    -6.13      2.        0.36 
 H                    -0.19     -1.9      -0.37 
 N                    -2.43      3.48      0.61 
 N                    -3.92     -3.35     -0.44 
 O                    -1.69     -3.85     -0.53 
 O                    -6.15     -2.85     -0.34 
 O                    -4.68      3.94      0.63 
 O                    -0.21      3.1       0.6 
 C                     0.88      0.48     -0.18 
 C                     1.728     1.214     0.618 
 S                     1.734    -0.097    -1.605 
 C                     3.038     1.318     0.099 
 H                     1.425     1.668     1.552 
 C                     3.232     0.639    -1.107 
 O                     4.085     1.984     0.67 
 C                     4.451     0.524    -1.861 
 C                     4.638    -0.126    -3.079 
 S                     5.983     1.207    -1.324 
 C                     5.971    -0.077    -3.566 
 O                     3.581    -0.734    -3.674 
 C                     6.804     0.618    -2.72 
 H                     6.307    -0.518    -4.49 
 H                     7.862     0.808    -2.846 
 H                     3.626    -1.012    -4.72 
 H                     3.914     2.192     1.64 
 H                    -4.23     -4.36     -0.17 
 H                    -2.15      4.41      0.36 
 
 The following ModRedundant input section has been read:
 D       8       9      24      25 F                                           
 

 GradGradGradGradGradGradGradGradGradGradGradGradGradGradGradGradGradGrad
 Berny optimization.
 Initialization pass.
                           ----------------------------
                           !    Initial Parameters    !
                           ! (Angstroms and Degrees)  !
 --------------------------                            --------------------------
 ! Name  Definition              Value          Derivative Info.                !
 --------------------------------------------------------------------------------
 ! R1    R(1,2)                  1.4831         estimate D2E/DX2                !
 ! R2    R(1,19)                 1.4072         estimate D2E/DX2                !
 ! R3    R(1,20)                 1.2292         estimate D2E/DX2                !
 ! R4    R(2,3)                  1.4088         estimate D2E/DX2                !
 ! R5    R(2,6)                  1.3727         estimate D2E/DX2                !
 ! R6    R(3,4)                  1.4115         estimate D2E/DX2                !
 ! R7    R(3,7)                  1.423          estimate D2E/DX2                !
 ! R8    R(4,5)                  1.4905         estimate D2E/DX2                !
 ! R9    R(4,14)                 1.3829         estimate D2E/DX2                !
 ! R10   R(5,19)                 1.3988         estimate D2E/DX2                !
 ! R11   R(5,21)                 1.2245         estimate D2E/DX2                !
 ! R12   R(6,9)                  1.4323         estimate D2E/DX2                !
 ! R13   R(6,17)                 1.0852         estimate D2E/DX2                !
 ! R14   R(7,8)                  1.4265         estimate D2E/DX2                !
 ! R15   R(7,12)                 1.4213         estimate D2E/DX2                !
 ! R16   R(8,9)                  1.428          estimate D2E/DX2                !
 ! R17   R(8,10)                 1.4922         estimate D2E/DX2                !
 ! R18   R(9,24)                 1.4657         estimate D2E/DX2                !
 ! R19   R(10,18)                1.4054         estimate D2E/DX2                !
 ! R20   R(10,23)                1.2277         estimate D2E/DX2                !
 ! R21   R(11,12)                1.4811         estimate D2E/DX2                !
 ! R22   R(11,18)                1.4007         estimate D2E/DX2                !
 ! R23   R(11,22)                1.2234         estimate D2E/DX2                !
 ! R24   R(12,13)                1.3984         estimate D2E/DX2                !
 ! R25   R(13,14)                1.3981         estimate D2E/DX2                !
 ! R26   R(13,16)                1.0827         estimate D2E/DX2                !
 ! R27   R(14,15)                1.0851         estimate D2E/DX2                !
 ! R28   R(18,42)                1.0029         estimate D2E/DX2                !
 ! R29   R(19,41)                1.0905         estimate D2E/DX2                !
 ! R30   R(24,25)                1.3765         estimate D2E/DX2                !
 ! R31   R(24,26)                1.7587         estimate D2E/DX2                !
 ! R32   R(25,27)                1.4129         estimate D2E/DX2                !
 ! R33   R(25,28)                1.0818         estimate D2E/DX2                !
 ! R34   R(26,29)                1.7418         estimate D2E/DX2                !
 ! R35   R(27,29)                1.3975         estimate D2E/DX2                !
 ! R36   R(27,30)                1.3659         estimate D2E/DX2                !
 ! R37   R(29,31)                1.438          estimate D2E/DX2                !
 ! R38   R(30,40)                1.0067         estimate D2E/DX2                !
 ! R39   R(31,32)                1.3932         estimate D2E/DX2                !
 ! R40   R(31,33)                1.7612         estimate D2E/DX2                !
 ! R41   R(32,34)                1.42           estimate D2E/DX2                !
 ! R42   R(32,35)                1.3568         estimate D2E/DX2                !
 ! R43   R(33,36)                1.7233         estimate D2E/DX2                !
 ! R44   R(34,36)                1.3757         estimate D2E/DX2                !
 ! R45   R(34,37)                1.0776         estimate D2E/DX2                !
 ! R46   R(35,39)                1.0832         estimate D2E/DX2                !
 ! R47   R(36,38)                1.0823         estimate D2E/DX2                !
 ! A1    A(2,1,19)             116.527          estimate D2E/DX2                !
 ! A2    A(2,1,20)             123.2737         estimate D2E/DX2                !
 ! A3    A(19,1,20)            120.1979         estimate D2E/DX2                !
 ! A4    A(1,2,3)              120.7455         estimate D2E/DX2                !
 ! A5    A(1,2,6)              118.8843         estimate D2E/DX2                !
 ! A6    A(3,2,6)              120.3454         estimate D2E/DX2                !
 ! A7    A(2,3,4)              120.6259         estimate D2E/DX2                !
 ! A8    A(2,3,7)              118.5916         estimate D2E/DX2                !
 ! A9    A(4,3,7)              120.7824         estimate D2E/DX2                !
 ! A10   A(3,4,5)              120.1483         estimate D2E/DX2                !
 ! A11   A(3,4,14)             120.5934         estimate D2E/DX2                !
 ! A12   A(5,4,14)             119.2388         estimate D2E/DX2                !
 ! A13   A(4,5,19)             116.8914         estimate D2E/DX2                !
 ! A14   A(4,5,21)             121.8545         estimate D2E/DX2                !
 ! A15   A(19,5,21)            121.2488         estimate D2E/DX2                !
 ! A16   A(2,6,9)              123.0626         estimate D2E/DX2                !
 ! A17   A(2,6,17)             117.3337         estimate D2E/DX2                !
 ! A18   A(9,6,17)             119.5802         estimate D2E/DX2                !
 ! A19   A(3,7,8)              121.3176         estimate D2E/DX2                !
 ! A20   A(3,7,12)             117.2859         estimate D2E/DX2                !
 ! A21   A(8,7,12)             121.3945         estimate D2E/DX2                !
 ! A22   A(7,8,9)              119.3284         estimate D2E/DX2                !
 ! A23   A(7,8,10)             117.6762         estimate D2E/DX2                !
 ! A24   A(9,8,10)             122.8113         estimate D2E/DX2                !
 ! A25   A(6,9,8)              117.2994         estimate D2E/DX2                !
 ! A26   A(6,9,24)             115.0121         estimate D2E/DX2                !
 ! A27   A(8,9,24)             127.6498         estimate D2E/DX2                !
 ! A28   A(8,10,18)            118.0319         estimate D2E/DX2                !
 ! A29   A(8,10,23)            124.524          estimate D2E/DX2                !
 ! A30   A(18,10,23)           117.4428         estimate D2E/DX2                !
 ! A31   A(12,11,18)           115.0947         estimate D2E/DX2                !
 ! A32   A(12,11,22)           122.9128         estimate D2E/DX2                !
 ! A33   A(18,11,22)           121.9866         estimate D2E/DX2                !
 ! A34   A(7,12,11)            121.4411         estimate D2E/DX2                !
 ! A35   A(7,12,13)            120.9006         estimate D2E/DX2                !
 ! A36   A(11,12,13)           117.6548         estimate D2E/DX2                !
 ! A37   A(12,13,14)           120.7772         estimate D2E/DX2                !
 ! A38   A(12,13,16)           117.3846         estimate D2E/DX2                !
 ! A39   A(14,13,16)           121.8361         estimate D2E/DX2                !
 ! A40   A(4,14,13)            119.6408         estimate D2E/DX2                !
 ! A41   A(4,14,15)            119.2412         estimate D2E/DX2                !
 ! A42   A(13,14,15)           121.1172         estimate D2E/DX2                !
 ! A43   A(10,18,11)           126.0815         estimate D2E/DX2                !
 ! A44   A(10,18,42)           108.6957         estimate D2E/DX2                !
 ! A45   A(11,18,42)           119.3146         estimate D2E/DX2                !
 ! A46   A(1,19,5)             125.0576         estimate D2E/DX2                !
 ! A47   A(1,19,41)            120.4267         estimate D2E/DX2                !
 ! A48   A(5,19,41)            110.3085         estimate D2E/DX2                !
 ! A49   A(9,24,25)            130.7473         estimate D2E/DX2                !
 ! A50   A(9,24,26)            118.8123         estimate D2E/DX2                !
 ! A51   A(25,24,26)           110.2152         estimate D2E/DX2                !
 ! A52   A(24,25,27)           113.4218         estimate D2E/DX2                !
 ! A53   A(24,25,28)           123.4889         estimate D2E/DX2                !
 ! A54   A(27,25,28)           123.0894         estimate D2E/DX2                !
 ! A55   A(24,26,29)            92.7127         estimate D2E/DX2                !
 ! A56   A(25,27,29)           114.2004         estimate D2E/DX2                !
 ! A57   A(25,27,30)           126.3713         estimate D2E/DX2                !
 ! A58   A(29,27,30)           119.4209         estimate D2E/DX2                !
 ! A59   A(26,29,27)           109.4296         estimate D2E/DX2                !
 ! A60   A(26,29,31)           123.0505         estimate D2E/DX2                !
 ! A61   A(27,29,31)           127.5192         estimate D2E/DX2                !
 ! A62   A(27,30,40)           111.9214         estimate D2E/DX2                !
 ! A63   A(29,31,32)           127.5546         estimate D2E/DX2                !
 ! A64   A(29,31,33)           123.1281         estimate D2E/DX2                !
 ! A65   A(32,31,33)           109.3134         estimate D2E/DX2                !
 ! A66   A(31,32,34)           114.1876         estimate D2E/DX2                !
 ! A67   A(31,32,35)           119.2017         estimate D2E/DX2                !
 ! A68   A(34,32,35)           126.6097         estimate D2E/DX2                !
 ! A69   A(31,33,36)            91.9983         estimate D2E/DX2                !
 ! A70   A(32,34,36)           112.0197         estimate D2E/DX2                !
 ! A71   A(32,34,37)           124.9359         estimate D2E/DX2                !
 ! A72   A(36,34,37)           123.0422         estimate D2E/DX2                !
 ! A73   A(32,35,39)           120.4036         estimate D2E/DX2                !
 ! A74   A(33,36,34)           112.4794         estimate D2E/DX2                !
 ! A75   A(33,36,38)           120.0018         estimate D2E/DX2                !
 ! A76   A(34,36,38)           127.5177         estimate D2E/DX2                !
 ! D1    D(19,1,2,3)            -0.0402         estimate D2E/DX2                !
 ! D2    D(19,1,2,6)          -178.232          estimate D2E/DX2                !
 ! D3    D(20,1,2,3)          -179.6115         estimate D2E/DX2                !
 ! D4    D(20,1,2,6)             2.1967         estimate D2E/DX2                !
 ! D5    D(2,1,19,5)            -0.2714         estimate D2E/DX2                !
 ! D6    D(2,1,19,41)         -154.9401         estimate D2E/DX2                !
 ! D7    D(20,1,19,5)          179.3139         estimate D2E/DX2                !
 ! D8    D(20,1,19,41)          24.6452         estimate D2E/DX2                !
 ! D9    D(1,2,3,4)             -0.105          estimate D2E/DX2                !
 ! D10   D(1,2,3,7)           -179.9973         estimate D2E/DX2                !
 ! D11   D(6,2,3,4)            178.0603         estimate D2E/DX2                !
 ! D12   D(6,2,3,7)             -1.832          estimate D2E/DX2                !
 ! D13   D(1,2,6,9)            178.7655         estimate D2E/DX2                !
 ! D14   D(1,2,6,17)             0.5382         estimate D2E/DX2                !
 ! D15   D(3,2,6,9)              0.5662         estimate D2E/DX2                !
 ! D16   D(3,2,6,17)          -177.661          estimate D2E/DX2                !
 ! D17   D(2,3,4,5)              0.5238         estimate D2E/DX2                !
 ! D18   D(2,3,4,14)           178.9053         estimate D2E/DX2                !
 ! D19   D(7,3,4,5)           -179.5863         estimate D2E/DX2                !
 ! D20   D(7,3,4,14)            -1.2048         estimate D2E/DX2                !
 ! D21   D(2,3,7,8)              0.9439         estimate D2E/DX2                !
 ! D22   D(2,3,7,12)          -178.5478         estimate D2E/DX2                !
 ! D23   D(4,3,7,8)           -178.9482         estimate D2E/DX2                !
 ! D24   D(4,3,7,12)             1.56           estimate D2E/DX2                !
 ! D25   D(3,4,5,19)            -0.7863         estimate D2E/DX2                !
 ! D26   D(3,4,5,21)          -179.9543         estimate D2E/DX2                !
 ! D27   D(14,4,5,19)         -179.1897         estimate D2E/DX2                !
 ! D28   D(14,4,5,21)            1.6423         estimate D2E/DX2                !
 ! D29   D(3,4,14,13)            0.6262         estimate D2E/DX2                !
 ! D30   D(3,4,14,15)         -179.7176         estimate D2E/DX2                !
 ! D31   D(5,4,14,13)          179.0223         estimate D2E/DX2                !
 ! D32   D(5,4,14,15)           -1.3214         estimate D2E/DX2                !
 ! D33   D(4,5,19,1)             0.6724         estimate D2E/DX2                !
 ! D34   D(4,5,19,41)          157.5074         estimate D2E/DX2                !
 ! D35   D(21,5,19,1)          179.8457         estimate D2E/DX2                !
 ! D36   D(21,5,19,41)         -23.3193         estimate D2E/DX2                !
 ! D37   D(2,6,9,8)              1.5899         estimate D2E/DX2                !
 ! D38   D(2,6,9,24)          -176.322          estimate D2E/DX2                !
 ! D39   D(17,6,9,8)           179.779          estimate D2E/DX2                !
 ! D40   D(17,6,9,24)            1.8672         estimate D2E/DX2                !
 ! D41   D(3,7,8,9)              1.2142         estimate D2E/DX2                !
 ! D42   D(3,7,8,10)          -173.9942         estimate D2E/DX2                !
 ! D43   D(12,7,8,9)          -179.3149         estimate D2E/DX2                !
 ! D44   D(12,7,8,10)            5.4766         estimate D2E/DX2                !
 ! D45   D(3,7,12,11)          177.9024         estimate D2E/DX2                !
 ! D46   D(3,7,12,13)           -1.4077         estimate D2E/DX2                !
 ! D47   D(8,7,12,11)           -1.5889         estimate D2E/DX2                !
 ! D48   D(8,7,12,13)          179.1009         estimate D2E/DX2                !
 ! D49   D(7,8,9,6)             -2.414          estimate D2E/DX2                !
 ! D50   D(7,8,9,24)           175.1958         estimate D2E/DX2                !
 ! D51   D(10,8,9,6)           172.5365         estimate D2E/DX2                !
 ! D52   D(10,8,9,24)           -9.8537         estimate D2E/DX2                !
 ! D53   D(7,8,10,18)           -5.2348         estimate D2E/DX2                !
 ! D54   D(7,8,10,23)          174.3306         estimate D2E/DX2                !
 ! D55   D(9,8,10,18)          179.736          estimate D2E/DX2                !
 ! D56   D(9,8,10,23)           -0.6986         estimate D2E/DX2                !
 ! D57   D(6,9,24,25)         -132.3545         estimate D2E/DX2                !
 ! D58   D(6,9,24,26)           53.6869         estimate D2E/DX2                !
 ! D59   D(8,9,24,25)           49.9893         Frozen                          !
 ! D60   D(8,9,24,26)         -123.9693         estimate D2E/DX2                !
 ! D61   D(8,10,18,11)           1.0927         estimate D2E/DX2                !
 ! D62   D(8,10,18,42)        -151.3012         estimate D2E/DX2                !
 ! D63   D(23,10,18,11)       -178.5038         estimate D2E/DX2                !
 ! D64   D(23,10,18,42)         29.1023         estimate D2E/DX2                !
 ! D65   D(18,11,12,7)          -2.5592         estimate D2E/DX2                !
 ! D66   D(18,11,12,13)        176.7725         estimate D2E/DX2                !
 ! D67   D(22,11,12,7)         178.3061         estimate D2E/DX2                !
 ! D68   D(22,11,12,13)         -2.3622         estimate D2E/DX2                !
 ! D69   D(12,11,18,10)          2.7627         estimate D2E/DX2                !
 ! D70   D(12,11,18,42)        152.5373         estimate D2E/DX2                !
 ! D71   D(22,11,18,10)       -178.0937         estimate D2E/DX2                !
 ! D72   D(22,11,18,42)        -28.3191         estimate D2E/DX2                !
 ! D73   D(7,12,13,14)           0.8911         estimate D2E/DX2                !
 ! D74   D(7,12,13,16)        -179.6245         estimate D2E/DX2                !
 ! D75   D(11,12,13,14)       -178.4444         estimate D2E/DX2                !
 ! D76   D(11,12,13,16)          1.04           estimate D2E/DX2                !
 ! D77   D(12,13,14,4)          -0.4717         estimate D2E/DX2                !
 ! D78   D(12,13,14,15)        179.8786         estimate D2E/DX2                !
 ! D79   D(16,13,14,4)        -179.9328         estimate D2E/DX2                !
 ! D80   D(16,13,14,15)          0.4175         estimate D2E/DX2                !
 ! D81   D(9,24,25,27)        -174.1889         estimate D2E/DX2                !
 ! D82   D(9,24,25,28)           5.8367         estimate D2E/DX2                !
 ! D83   D(26,24,25,27)          0.1714         estimate D2E/DX2                !
 ! D84   D(26,24,25,28)       -179.8029         estimate D2E/DX2                !
 ! D85   D(9,24,26,29)         175.7341         estimate D2E/DX2                !
 ! D86   D(25,24,26,29)          0.6083         estimate D2E/DX2                !
 ! D87   D(24,25,27,29)         -1.1434         estimate D2E/DX2                !
 ! D88   D(24,25,27,30)        179.8566         estimate D2E/DX2                !
 ! D89   D(28,25,27,29)        178.831          estimate D2E/DX2                !
 ! D90   D(28,25,27,30)         -0.1689         estimate D2E/DX2                !
 ! D91   D(24,26,29,27)         -1.2149         estimate D2E/DX2                !
 ! D92   D(24,26,29,31)        178.4933         estimate D2E/DX2                !
 ! D93   D(25,27,29,26)          1.552          estimate D2E/DX2                !
 ! D94   D(25,27,29,31)       -178.1396         estimate D2E/DX2                !
 ! D95   D(30,27,29,26)       -179.3724         estimate D2E/DX2                !
 ! D96   D(30,27,29,31)          0.936          estimate D2E/DX2                !
 ! D97   D(25,27,30,40)         16.114          estimate D2E/DX2                !
 ! D98   D(29,27,30,40)       -162.8388         estimate D2E/DX2                !
 ! D99   D(26,29,31,32)          1.9963         estimate D2E/DX2                !
 ! D100  D(26,29,31,33)       -177.2109         estimate D2E/DX2                !
 ! D101  D(27,29,31,32)       -178.3507         estimate D2E/DX2                !
 ! D102  D(27,29,31,33)          2.4421         estimate D2E/DX2                !
 ! D103  D(29,31,32,34)       -179.2941         estimate D2E/DX2                !
 ! D104  D(29,31,32,35)          0.3545         estimate D2E/DX2                !
 ! D105  D(33,31,32,34)          0.0023         estimate D2E/DX2                !
 ! D106  D(33,31,32,35)        179.651          estimate D2E/DX2                !
 ! D107  D(29,31,33,36)        179.5325         estimate D2E/DX2                !
 ! D108  D(32,31,33,36)          0.1985         estimate D2E/DX2                !
 ! D109  D(31,32,34,36)         -0.2722         estimate D2E/DX2                !
 ! D110  D(31,32,34,37)       -179.7553         estimate D2E/DX2                !
 ! D111  D(35,32,34,36)       -179.8901         estimate D2E/DX2                !
 ! D112  D(35,32,34,37)          0.6268         estimate D2E/DX2                !
 ! D113  D(31,32,35,39)        163.6945         estimate D2E/DX2                !
 ! D114  D(34,32,35,39)        -16.7048         estimate D2E/DX2                !
 ! D115  D(31,33,36,34)         -0.3603         estimate D2E/DX2                !
 ! D116  D(31,33,36,38)        179.9933         estimate D2E/DX2                !
 ! D117  D(32,34,36,33)          0.4221         estimate D2E/DX2                !
 ! D118  D(32,34,36,38)       -179.964          estimate D2E/DX2                !
 ! D119  D(37,34,36,33)        179.9165         estimate D2E/DX2                !
 ! D120  D(37,34,36,38)         -0.4695         estimate D2E/DX2                !
 --------------------------------------------------------------------------------
 Trust Radius=3.00D-01 FncErr=1.00D-07 GrdErr=1.00D-06 EigMax=2.50D+02 EigMin=1.00D-04
 Number of steps in this run=    252 maximum allowed number of steps=    252.
 GradGradGradGradGradGradGradGradGradGradGradGradGradGradGradGradGradGrad

                          Input orientation:                          
 ---------------------------------------------------------------------
 Center     Atomic      Atomic             Coordinates (Angstroms)
 Number     Number       Type             X           Y           Z
 ---------------------------------------------------------------------
      1          6           0       -2.560000   -2.990000   -0.410000
      2          6           0       -2.260000   -1.550000   -0.220000
      3          6           0       -3.300000   -0.610000   -0.080000
      4          6           0       -4.650000   -1.020000   -0.120000
      5          6           0       -4.990000   -2.460000   -0.300000
      6          6           0       -0.950000   -1.140000   -0.220000
      7          6           0       -2.960000    0.760000    0.100000
      8          6           0       -1.600000    1.190000    0.120000
      9          6           0       -0.560000    0.230000   -0.070000
     10          6           0       -1.330000    2.620000    0.450000
     11          6           0       -3.780000    3.120000    0.510000
     12          6           0       -4.030000    1.680000    0.270000
     13          6           0       -5.360000    1.250000    0.230000
     14          6           0       -5.670000   -0.100000    0.040000
     15          1           0       -6.700000   -0.440000    0.010000
     16          1           0       -6.130000    2.000000    0.360000
     17          1           0       -0.190000   -1.900000   -0.370000
     18          7           0       -2.430000    3.480000    0.610000
     19          7           0       -3.920000   -3.350000   -0.440000
     20          8           0       -1.690000   -3.850000   -0.530000
     21          8           0       -6.150000   -2.850000   -0.340000
     22          8           0       -4.680000    3.940000    0.630000
     23          8           0       -0.210000    3.100000    0.600000
     24          6           0        0.880000    0.480000   -0.180000
     25          6           0        1.728000    1.214000    0.618000
     26         16           0        1.734000   -0.097000   -1.605000
     27          6           0        3.038000    1.318000    0.099000
     28          1           0        1.425000    1.668000    1.552000
     29          6           0        3.232000    0.639000   -1.107000
     30          8           0        4.085000    1.984000    0.670000
     31          6           0        4.451000    0.524000   -1.861000
     32          6           0        4.638000   -0.126000   -3.079000
     33         16           0        5.983000    1.207000   -1.324000
     34          6           0        5.971000   -0.077000   -3.566000
     35          8           0        3.581000   -0.734000   -3.674000
     36          6           0        6.804000    0.618000   -2.720000
     37          1           0        6.307000   -0.518000   -4.490000
     38          1           0        7.862000    0.808000   -2.846000
     39          1           0        3.626000   -1.012000   -4.720000
     40          1           0        3.914000    2.192000    1.640000
     41          1           0       -4.230000   -4.360000   -0.170000
     42          1           0       -2.150000    4.410000    0.360000
 ---------------------------------------------------------------------
                    Distance matrix (angstroms):
                    1          2          3          4          5
     1  C    0.000000
     2  C    1.483139   0.000000
     3  C    2.514140   1.408829   0.000000
     4  C    2.886711   2.450102   1.411453   0.000000
     5  C    2.489558   2.878784   2.515353   1.490503   0.000000
     6  C    2.459817   1.372662   2.413089   3.703296   4.250929
     7  C    3.805601   2.434851   1.422990   2.464325   3.827440
     8  C    4.321447   2.838803   2.483948   3.774149   4.999100
     9  C    3.805785   2.465948   2.865886   4.277043   5.187861
    10  C    5.807289   4.324662   3.820301   4.959526   6.305910
    11  C    6.298166   4.965098   3.806757   4.277078   5.766854
    12  C    4.942894   3.715629   2.428889   2.797588   4.287902
    13  C    5.121250   4.201488   2.792723   2.404059   3.765886
    14  C    4.269274   3.714593   2.427221   1.382896   2.479435
    15  H    4.880420   4.582423   3.405437   2.134432   2.664695
    16  H    6.183680   5.283540   3.874868   3.397234   4.650462
    17  H    2.608946   2.104733   3.379393   4.552856   4.833063
    18  N    6.551198   5.100853   4.238054   5.070631   6.531868
    19  N    1.407160   2.458455   2.832243   2.462560   1.398785
    20  O    1.229187   2.389770   3.645847   4.115653   3.588175
    21  O    3.593411   4.103230   3.634240   2.376405   1.224459
    22  O    7.321264   6.059620   4.807390   5.016473   6.474643
    23  O    6.605354   5.147563   4.875920   6.099705   7.387286
    24  C    4.891564   3.739265   4.320937   5.730140   6.566194
    25  C    6.092401   4.924031   5.393975   6.798109   7.711843
    26  S    5.313747   4.470064   5.284879   6.619109   7.245617
    27  C    7.082058   6.032909   6.627177   8.038629   8.881513
    28  H    6.436352   5.203339   5.493481   6.850296   7.850001
    29  C    6.870423   5.978340   6.729172   8.114948   8.823624
    30  O    8.370370   7.317122   7.863178   9.270833  10.151141
    31  C    7.975445   7.213313   8.033425   9.393786  10.023645
    32  C    8.193733   7.601583   8.499418   9.788864  10.289256
    33  S    9.562063   8.761673   9.540603  10.930226  11.614740
    34  C    9.551119   9.006376   9.919059  11.205793  11.682849
    35  O    7.311300   6.834709   7.764044   8.970065   9.371499
    36  C   10.297488   9.649162  10.515151  11.859054  12.426943
    37  H   10.068807   9.627638  10.571235  11.806979  12.204494
    38  H   11.356803  10.719651  11.586705  12.935332  13.503179
    39  H    7.794561   7.428623   8.346297   9.468487   9.791249
    40  H    8.542148   7.455229   7.927887   9.314324  10.231614
    41  H    2.173338   3.432128   3.864647   3.366675   2.050488
    42  H    7.451242   5.989165   5.168801   5.997108   7.463116
                    6          7          8          9         10
     6  C    0.000000
     7  C    2.784331   0.000000
     8  C    2.442744   1.426499   0.000000
     9  C    1.432306   2.463696   1.428041   0.000000
    10  C    3.838085   2.497799   1.492213   2.564254   0.000000
    11  C    5.166178   2.531818   2.937584   4.365421   2.501220
    12  C    4.204628   1.421337   2.483445   3.776109   2.864612
    13  C    5.036139   2.452957   3.762087   4.916340   4.262183
    14  C    4.840207   2.843818   4.270293   5.121826   5.138297
    15  H    5.797016   3.928829   5.355278   6.176965   6.196297
    16  H    6.085097   3.413810   4.608102   5.860264   4.840713
    17  H    1.085219   3.869031   3.431661   2.182613   4.733117
    18  N    4.921758   2.817694   2.484572   3.810748   1.405418
    19  N    3.708558   4.255032   5.129093   4.923708   6.568188
    20  O    2.826270   4.823059   5.082539   4.258509   6.553694
    21  O    5.475263   4.837541   6.102106   6.388067   7.333308
    22  O    6.359387   3.653998   4.160409   5.588247   3.605177
    23  O    4.381507   3.645285   2.410519   2.967878   1.227721
    24  C    2.444361   3.860363   2.597018   1.465674   3.140159
    25  C    3.662683   4.738331   3.365140   2.583901   3.369929
    26  S    3.195298   5.067061   3.968318   2.779495   4.581835
    27  C    4.695495   6.023900   4.639813   3.762700   4.571414
    28  H    4.082337   4.707546   3.380789   2.939210   3.116205
    29  C    4.630414   6.309703   5.015711   3.952457   5.211569
    30  O    5.991886   7.173221   5.766469   5.019974   5.456658
    31  C    5.884945   7.669690   6.401759   5.329563   6.569163
    32  C    6.358288   8.283758   7.132889   6.016645   7.457304
    33  S    7.402278   9.066688   7.719282   6.733342   7.656606
    34  C    7.760536   9.690350   8.515393   7.414191   8.758234
    35  O    5.711822   7.698038   6.703654   5.573688   7.237031
    36  C    8.334571  10.164067   8.889319   7.835913   8.956498
    37  H    8.442975  10.420109   9.310747   8.200707   9.621560
    38  H    9.399038  11.215922   9.923332   8.886526   9.931758
    39  H    6.419202   8.351514   7.455567   6.378688   8.030085
    40  H    6.182258   7.188470   5.806772   5.175927   5.394332
    41  H    4.596662   5.282064   6.148455   5.877670   7.583851
    42  H    5.707793   3.747826   3.275439   4.492816   1.970939
                   11         12         13         14         15
    11  C    0.000000
    12  C    1.481114   0.000000
    13  C    2.464082   1.398356   0.000000
    14  C    3.763164   2.431234   1.398106   0.000000
    15  H    4.631414   3.419196   2.167971   1.085081   0.000000
    16  H    2.607566   2.126147   1.082728   2.173476   2.530020
    17  H    6.234012   5.288818   6.083700   5.782603   6.682522
    18  N    1.400750   2.432201   3.701648   4.861985   5.827461
    19  N    6.540872   5.081053   4.866467   3.722284   4.049568
    20  O    7.350551   6.057764   6.329020   5.497981   6.084390
    21  O    6.479221   5.038591   4.214143   2.817321   2.496618
    22  O    1.223438   2.379012   2.803302   4.201167   4.863044
    23  O    3.571190   4.088728   5.484697   6.353361   7.416185
    24  C    5.400120   5.074505   6.300683   6.579308   7.637991
    25  C    5.829457   5.787299   7.098703   7.535986   8.610259
    26  S    6.725066   6.316411   7.450266   7.584540   8.594081
    27  C    7.064082   7.079330   8.399297   8.822895   9.895814
    28  H    5.503280   5.603632   6.925217   7.466659   8.534463
    29  C    7.611714   7.464346   8.716843   9.005961  10.052689
    30  O    7.948228   8.130538   9.483690   9.994998  11.073735
    31  C    8.950431   8.820706  10.057588  10.316871  11.347896
    32  C    9.709797   9.466344  10.620869  10.769573  11.755457
    33  S   10.116289  10.150110  11.449036  11.805133  12.858875
    34  C   11.041584  10.854582  12.023398  12.186741  13.170945
    35  O    9.302876   8.905608   9.955850   9.988831  10.925075
    36  C   11.345217  11.289088  12.532550  12.795851  13.817752
    37  H   11.831425  11.590616  12.709174  12.811875  13.763653
    38  H   12.334676  12.324346  13.582283  13.866091  14.891813
    39  H    9.963692   9.526873  10.505586  10.483557  11.372175
    40  H    7.831712   8.077511   9.427754   9.983302  11.056280
    41  H    7.524314   6.059307   5.736637   4.501700   4.636777
    42  H    2.084107   3.315931   4.506285   5.730000   6.659392
                   16         17         18         19         20
    16  H    0.000000
    17  H    7.143284   0.000000
    18  N    3.992856   5.909518   0.000000
    19  N    5.843509   4.002537   7.069052   0.000000
    20  O    7.397851   2.465380   7.454938   2.287138   0.000000
    21  O    4.900296   6.035313   7.403364   2.287553   4.574680
    22  O    2.437006   7.434090   2.296628   7.407199   8.424358
    23  O    6.026110   5.093260   2.252310   7.513202   7.195123
    24  C    7.193198   2.616372   4.536541   6.146259   5.047405
    25  C    7.901425   3.788385   4.735376   7.338213   6.216488
    26  S    8.372642   2.911668   5.919464   6.626232   5.192727
    27  C    9.197036   4.582081   5.902067   8.396101   7.032627
    28  H    7.655659   4.362675   4.362537   7.597198   6.669803
    29  C    9.573477   4.324324   6.563354   8.216332   6.686564
    30  O   10.219715   5.868789   6.684822   9.683165   8.296155
    31  C   10.911873   5.444055   7.886187   9.332779   7.656064
    32  C   11.502018   5.813376   8.750347   9.518291   7.772333
    33  S   12.255182   6.976352   8.926671  10.936961   9.223807
    34  C   12.890369   7.176048  10.033346  10.877329   9.063319
    35  O   10.865148   5.147467   8.499563   8.577133   6.883141
    36  C   13.367299   7.796080  10.224808  11.659657   9.844143
    37  H   13.584616   7.816350  10.877921  11.358444   9.525536
    38  H   14.404005   8.848646  11.180733  12.723731  10.876650
    39  H   11.404301   5.854306   9.233748   8.984807   7.339632
    40  H   10.127053   6.134116   6.554859   9.818947   8.521706
    41  H    6.658866   4.734258   8.081708   1.090459   2.615588
    42  H    4.652795   6.647601   1.002896   7.999406   8.320535
                   21         22         23         24         25
    21  O    0.000000
    22  O    7.014692   0.000000
    23  O    8.459888   4.548340   0.000000
    24  C    7.780450   6.598583   2.942941   0.000000
    25  C    8.916095   6.963741   2.704286   1.376468   0.000000
    26  S    8.446105   7.901392   4.343037   1.758656   2.580792
    27  C   10.098727   8.168499   3.738453   2.331748   1.412897
    28  H    9.020677   6.578989   2.372794   2.169837   1.081795
    29  C   10.039090   8.747200   4.562646   2.533084   2.359717
    30  O   11.364105   8.980688   4.438173   3.640953   2.480132
    31  C   11.228469  10.062271   5.866619   3.947118   3.746501
    32  C   11.458763  10.821930   6.888049   4.784768   4.891984
    33  S   12.831103  11.179757   6.755625   5.279950   4.677225
    34  C   12.845826  12.132045   8.102694   6.139505   6.097179
    35  O   10.501684  10.421843   6.880284   4.580091   5.064541
    36  C   13.619748  12.415331   8.147326   6.447047   6.104362
    37  H   13.335575  12.915198   9.026035   7.001745   7.075219
    38  H   14.696841  13.386328   9.071128   7.480873   7.056209
    39  H   10.868892  11.051445   7.741178   5.511640   6.087013
    40  H   11.429185   8.827935   4.348958   3.930458   2.603760
    41  H    2.448551   8.350599   8.509107   7.038309   8.196840
    42  H    8.318509   2.587412   2.353147   4.991733   5.031885
                   26         27         28         29         30
    26  S    0.000000
    27  C    2.570264   0.000000
    28  H    3.630063   2.198972   0.000000
    29  C    1.741753   1.397538   3.375555   0.000000
    30  O    3.877291   1.365945   2.820174   2.386286   0.000000
    31  C    2.798797   2.543345   4.702550   1.437951   2.944744
    32  C    3.256798   3.839898   5.915063   2.539851   4.337385
    33  S    4.453468   3.272656   5.409183   2.817395   2.860449
    34  C    4.668842   4.897013   7.064352   3.749861   5.074289
    35  O    2.845688   4.329097   6.142395   2.931965   5.148968
    36  C    5.240167   4.755998   6.948822   3.919361   4.555328
    37  H    5.423356   5.925890   8.069590   4.715821   6.150032
    38  H    6.317554   5.674866   7.843276   4.948695   5.292538
    39  H    3.757674   5.384924   7.166923   3.991842   6.183753
    40  H    4.530115   1.976343   2.545082   3.228458   1.006680
    41  H    7.470053   9.226910   8.442813   9.030471  10.492434
    42  H    6.265759   6.045157   4.660478   6.733384   6.697522
                   31         32         33         34         35
    31  C    0.000000
    32  C    1.393195   0.000000
    33  S    1.761216   2.581848   0.000000
    34  C    2.361912   1.420021   2.583673   0.000000
    35  O    2.372010   1.356812   3.880668   2.481010   0.000000
    36  C    2.506656   2.318183   1.723304   1.375729   3.622948
    37  H    3.382623   2.220393   3.619966   1.077568   2.853697
    38  H    3.561713   3.364643   2.450781   2.208508   4.624966
    39  H    3.348702   2.121797   4.691719   2.775782   1.083247
    40  H    3.915047   5.307190   3.746503   6.040037   6.075439
    41  H   10.103103  10.248437  11.688823  11.573129   9.297183
    42  H    7.975402   8.858835   8.901728  10.074586   8.693575
                   36         37         38         39         40
    36  C    0.000000
    37  H    2.161112   0.000000
    38  H    1.082285   2.622792   0.000000
    39  H    4.093481   2.735817   4.976743   0.000000
    40  H    5.462525   7.116702   6.134033   7.127283   0.000000
    41  H   12.370616  12.018807  13.419600   9.676174  10.607994
    42  H   10.199989  10.923760  11.112740   9.410986   6.582554
                   41         42
    41  H    0.000000
    42  H    9.028854   0.000000
 Stoichiometry    C22H10N2O6S2
 Framework group  C1[X(C22H10N2O6S2)]
 Deg. of freedom   120
 Full point group                 C1      NOp   1
 Largest Abelian subgroup         C1      NOp   1
 Largest concise Abelian subgroup C1      NOp   1
                         Standard orientation:                         
 ---------------------------------------------------------------------
 Center     Atomic      Atomic             Coordinates (Angstroms)
 Number     Number       Type             X           Y           Z
 ---------------------------------------------------------------------
      1          6           0        2.699957   -2.974476   -0.639964
      2          6           0        2.305997   -1.557275   -0.450132
      3          6           0        3.256644   -0.590538   -0.067392
      4          6           0        4.604275   -0.952165    0.145485
      5          6           0        5.039236   -2.365039   -0.044768
      6          6           0        0.989307   -1.207034   -0.617042
      7          6           0        2.828477    0.755915    0.101835
      8          6           0        1.465133    1.129937   -0.088694
      9          6           0        0.506367    0.128509   -0.431053
     10          6           0        1.129554    2.582536   -0.025110
     11          6           0        3.481180    3.148386    0.611893
     12          6           0        3.816343    1.713991    0.457377
     13          6           0        5.146421    1.332794    0.659819
     14          6           0        5.541393    0.001287    0.499234
     15          1           0        6.572328   -0.300253    0.653005
     16          1           0        5.850321    2.108107    0.934982
     17          1           0        0.292100   -1.997825   -0.874439
     18          7           0        2.150474    3.481426    0.328331
     19          7           0        4.054494   -3.285221   -0.419132
     20          8           0        1.911273   -3.853983   -0.979588
     21          8           0        6.199728   -2.713315    0.132047
     22          8           0        4.302988    3.990827    0.946144
     23          8           0        0.021449    3.051966   -0.268088
     24          6           0       -0.943640    0.288511   -0.572753
     25          6           0       -1.680892    1.210657   -1.280403
     26         16           0       -2.006769   -0.732117    0.386906
     27          6           0       -3.072306    1.107436   -1.057716
     28          1           0       -1.241691    1.943948   -1.943477
     29          6           0       -3.438151    0.078395   -0.185738
     30          8           0       -4.042603    1.887826   -1.619251
     31          6           0       -4.766891   -0.303787    0.209342
     32          6           0       -5.131141   -1.308875    1.102714
     33         16           0       -6.218422    0.467684   -0.422932
     34          6           0       -6.533197   -1.454908    1.274100
     35          8           0       -4.161556   -2.041477    1.706152
     36          6           0       -7.242385   -0.554239    0.513524
     37          1           0       -7.003814   -2.173699    1.924494
     38          1           0       -8.317442   -0.444885    0.453229
     39          1           0       -4.388896   -2.635324    2.583128
     40          1           0       -3.700945    2.395099   -2.418844
     41          1           0        4.509019   -4.149546   -0.904363
     42          1           0        1.736981    4.277015    0.777619
 ---------------------------------------------------------------------
 Rotational constants (GHZ):           0.2346617           0.0655279           0.0541087
 Standard basis: 6-311+G(d,p) (5D, 7F)
 There are   812 symmetry adapted cartesian basis functions of A   symmetry.
 There are   780 symmetry adapted basis functions of A   symmetry.
   780 basis functions,  1260 primitive gaussians,   812 cartesian basis functions
   118 alpha electrons      118 beta electrons
       nuclear repulsion energy      3319.1114198328 Hartrees.
 NAtoms=   42 NActive=   42 NUniq=   42 SFac= 1.00D+00 NAtFMM=   60 NAOKFM=F Big=F
 Integral buffers will be    131072 words long.
 Raffenetti 2 integral format.
 Two-electron integral symmetry is turned on.
 One-electron integrals computed using PRISM.
 NBasis=   780 RedAO= T EigKep=  1.85D-06  NBF=   780
 NBsUse=   768 1.00D-06 EigRej=  9.31D-07 NBFU=   768
 ExpMin= 4.05D-02 ExpMax= 9.34D+04 ExpMxC= 3.17D+03 IAcc=3 IRadAn=         5 AccDes= 0.00D+00
 Harris functional with IExCor=  402 and IRadAn=       5 diagonalized for initial guess.
 HarFok:  IExCor=  402 AccDes= 0.00D+00 IRadAn=         5 IDoV= 1 UseB2=F ITyADJ=14
 ICtDFT=  3500011 ScaDFX=  1.000000  1.000000  1.000000  1.000000
 FoFCou: FMM=F IPFlag=           0 FMFlag=      100000 FMFlg1=           0
         NFxFlg=           0 DoJE=T BraDBF=F KetDBF=T FulRan=T
         wScrn=  0.000000 ICntrl=       500 IOpCl=  0 I1Cent=   200000004 NGrid=           0
         NMat0=    1 NMatS0=      1 NMatT0=    0 NMatD0=    1 NMtDS0=    0 NMtDT0=    0
 Petite list used in FoFCou.
 Requested convergence on RMS density matrix=1.00D-08 within 128 cycles.
 Requested convergence on MAX density matrix=1.00D-06.
 Requested convergence on             energy=1.00D-06.
 No special actions if energy rises.
 SCF Done:  E(RB3LYP) =  -2202.04508969     A.U. after   17 cycles
            NFock= 17  Conv=0.49D-08     -V/T= 2.0032

 **********************************************************************

            Population analysis using the SCF Density.

 **********************************************************************

 Orbital symmetries:
       Occupied  (A) (A) (A) (A) (A) (A) (A) (A) (A) (A) (A) (A)
                 (A) (A) (A) (A) (A) (A) (A) (A) (A) (A) (A) (A)
                 (A) (A) (A) (A) (A) (A) (A) (A) (A) (A) (A) (A)
                 (A) (A) (A) (A) (A) (A) (A) (A) (A) (A) (A) (A)
                 (A) (A) (A) (A) (A) (A) (A) (A) (A) (A) (A) (A)
                 (A) (A) (A) (A) (A) (A) (A) (A) (A) (A) (A) (A)
                 (A) (A) (A) (A) (A) (A) (A) (A) (A) (A) (A) (A)
                 (A) (A) (A) (A) (A) (A) (A) (A) (A) (A) (A) (A)
                 (A) (A) (A) (A) (A) (A) (A) (A) (A) (A) (A) (A)
                 (A) (A) (A) (A) (A) (A) (A) (A) (A) (A)
       Virtual   (A) (A) (A) (A) (A) (A) (A) (A) (A) (A) (A) (A)
                 (A) (A) (A) (A) (A) (A) (A) (A) (A) (A) (A) (A)
                 (A) (A) (A) (A) (A) (A) (A) (A) (A) (A) (A) (A)
                 (A) (A) (A) (A) (A) (A) (A) (A) (A) (A) (A) (A)
                 (A) (A) (A) (A) (A) (A) (A) (A) (A) (A) (A) (A)
                 (A) (A) (A) (A) (A) (A) (A) (A) (A) (A) (A) (A)
                 (A) (A) (A) (A) (A) (A) (A) (A) (A) (A) (A) (A)
                 (A) (A) (A) (A) (A) (A) (A) (A) (A) (A) (A) (A)
                 (A) (A) (A) (A) (A) (A) (A) (A) (A) (A) (A) (A)
                 (A) (A) (A) (A) (A) (A) (A) (A) (A) (A) (A) (A)
                 (A) (A) (A) (A) (A) (A) (A) (A) (A) (A) (A) (A)
                 (A) (A) (A) (A) (A) (A) (A) (A) (A) (A) (A) (A)
                 (A) (A) (A) (A) (A) (A) (A) (A) (A) (A) (A) (A)
                 (A) (A) (A) (A) (A) (A) (A) (A) (A) (A) (A) (A)
                 (A) (A) (A) (A) (A) (A) (A) (A) (A) (A) (A) (A)
                 (A) (A) (A) (A) (A) (A) (A) (A) (A) (A) (A) (A)
                 (A) (A) (A) (A) (A) (A) (A) (A) (A) (A) (A) (A)
                 (A) (A) (A) (A) (A) (A) (A) (A) (A) (A) (A) (A)
                 (A) (A) (A) (A) (A) (A) (A) (A) (A) (A) (A) (A)
                 (A) (A) (A) (A) (A) (A) (A) (A) (A) (A) (A) (A)
                 (A) (A) (A) (A) (A) (A) (A) (A) (A) (A) (A) (A)
                 (A) (A) (A) (A) (A) (A) (A) (A) (A) (A) (A) (A)
                 (A) (A) (A) (A) (A) (A) (A) (A) (A) (A) (A) (A)
                 (A) (A) (A) (A) (A) (A) (A) (A) (A) (A) (A) (A)
                 (A) (A) (A) (A) (A) (A) (A) (A) (A) (A) (A) (A)
                 (A) (A) (A) (A) (A) (A) (A) (A) (A) (A) (A) (A)
                 (A) (A) (A) (A) (A) (A) (A) (A) (A) (A) (A) (A)
                 (A) (A) (A) (A) (A) (A) (A) (A) (A) (A) (A) (A)
                 (A) (A) (A) (A) (A) (A) (A) (A) (A) (A) (A) (A)
                 (A) (A) (A) (A) (A) (A) (A) (A) (A) (A) (A) (A)
                 (A) (A) (A) (A) (A) (A) (A) (A) (A) (A) (A) (A)
                 (A) (A) (A) (A) (A) (A) (A) (A) (A) (A) (A) (A)
                 (A) (A) (A) (A) (A) (A) (A) (A) (A) (A) (A) (A)
                 (A) (A) (A) (A) (A) (A) (A) (A) (A) (A) (A) (A)
                 (A) (A) (A) (A) (A) (A) (A) (A) (A) (A) (A) (A)
                 (A) (A) (A) (A) (A) (A) (A) (A) (A) (A) (A) (A)
                 (A) (A) (A) (A) (A) (A) (A) (A) (A) (A) (A) (A)
                 (A) (A) (A) (A) (A) (A) (A) (A) (A) (A) (A) (A)
                 (A) (A) (A) (A) (A) (A) (A) (A) (A) (A) (A) (A)
                 (A) (A) (A) (A) (A) (A) (A) (A) (A) (A) (A) (A)
                 (A) (A) (A) (A) (A) (A) (A) (A) (A) (A) (A) (A)
                 (A) (A) (A) (A) (A) (A) (A) (A) (A) (A) (A) (A)
                 (A) (A) (A) (A) (A) (A) (A) (A) (A) (A) (A) (A)
                 (A) (A) (A) (A) (A) (A) (A) (A) (A) (A) (A) (A)
                 (A) (A) (A) (A) (A) (A) (A) (A) (A) (A) (A) (A)
                 (A) (A) (A) (A) (A) (A) (A) (A) (A) (A) (A) (A)
                 (A) (A) (A) (A) (A) (A) (A) (A) (A) (A) (A) (A)
                 (A) (A) (A) (A) (A) (A) (A) (A) (A) (A) (A) (A)
                 (A) (A) (A) (A) (A) (A) (A) (A) (A) (A) (A) (A)
                 (A) (A) (A) (A) (A) (A) (A) (A) (A) (A) (A) (A)
                 (A) (A) (A) (A) (A) (A) (A) (A) (A) (A) (A) (A)
                 (A) (A) (A) (A) (A) (A) (A) (A) (A) (A) (A) (A)
                 (A) (A) (A) (A) (A) (A) (A) (A) (A) (A) (A) (A)
                 (A) (A) (A) (A) (A) (A) (A) (A) (A) (A) (A) (A)
                 (A) (A)
 The electronic state is 1-A.
 Alpha  occ. eigenvalues --  -88.88794 -88.88605 -19.18158 -19.17584 -19.13285
 Alpha  occ. eigenvalues --  -19.13189 -19.12811 -19.12792 -14.39269 -14.38106
 Alpha  occ. eigenvalues --  -10.32260 -10.31893 -10.31855 -10.31563 -10.25412
 Alpha  occ. eigenvalues --  -10.25006 -10.24849 -10.24014 -10.23913 -10.23558
 Alpha  occ. eigenvalues --  -10.23226 -10.23098 -10.23005 -10.22576 -10.22346
 Alpha  occ. eigenvalues --  -10.22297 -10.22074 -10.22000 -10.21867 -10.21324
 Alpha  occ. eigenvalues --  -10.19356 -10.19210  -7.97349  -7.97155  -5.93674
 Alpha  occ. eigenvalues --   -5.93468  -5.93280  -5.93076  -5.92888  -5.92719
 Alpha  occ. eigenvalues --   -1.08621  -1.08572  -1.07537  -1.06917  -1.06784
 Alpha  occ. eigenvalues --   -1.06745  -0.96110  -0.95750  -0.92829  -0.90464
 Alpha  occ. eigenvalues --   -0.88902  -0.87210  -0.84360  -0.80840  -0.79168
 Alpha  occ. eigenvalues --   -0.77707  -0.74741  -0.74076  -0.72815  -0.71419
 Alpha  occ. eigenvalues --   -0.71112  -0.67679  -0.66950  -0.65360  -0.62786
 Alpha  occ. eigenvalues --   -0.61626  -0.61466  -0.60253  -0.58823  -0.57223
 Alpha  occ. eigenvalues --   -0.56682  -0.55184  -0.54377  -0.52820  -0.52208
 Alpha  occ. eigenvalues --   -0.51410  -0.50682  -0.50370  -0.48925  -0.48275
 Alpha  occ. eigenvalues --   -0.47715  -0.47618  -0.47271  -0.45980  -0.45772
 Alpha  occ. eigenvalues --   -0.45743  -0.45171  -0.44775  -0.44466  -0.43583
 Alpha  occ. eigenvalues --   -0.43097  -0.42965  -0.42547  -0.42183  -0.42019
 Alpha  occ. eigenvalues --   -0.40478  -0.40003  -0.39074  -0.38548  -0.38208
 Alpha  occ. eigenvalues --   -0.36882  -0.36123  -0.35539  -0.35220  -0.34099
 Alpha  occ. eigenvalues --   -0.33150  -0.31861  -0.31319  -0.31277  -0.30818
 Alpha  occ. eigenvalues --   -0.30107  -0.29377  -0.28934  -0.27856  -0.26791
 Alpha  occ. eigenvalues --   -0.25063  -0.24953  -0.20013
 Alpha virt. eigenvalues --   -0.14022  -0.08517  -0.07334  -0.05512  -0.04706
 Alpha virt. eigenvalues --   -0.03790  -0.01889  -0.01444  -0.00892  -0.00727
 Alpha virt. eigenvalues --    0.00101   0.00173   0.00307   0.01140   0.01759
 Alpha virt. eigenvalues --    0.01990   0.02211   0.02706   0.03186   0.03490
 Alpha virt. eigenvalues --    0.03781   0.03941   0.04218   0.04418   0.04837
 Alpha virt. eigenvalues --    0.05085   0.05462   0.05728   0.06059   0.06222
 Alpha virt. eigenvalues --    0.06384   0.07064   0.07280   0.07626   0.07969
 Alpha virt. eigenvalues --    0.08178   0.08566   0.08913   0.09078   0.09397
 Alpha virt. eigenvalues --    0.09709   0.09884   0.10250   0.10482   0.10541
 Alpha virt. eigenvalues --    0.10895   0.11170   0.11684   0.12159   0.12383
 Alpha virt. eigenvalues --    0.12699   0.13004   0.13242   0.13544   0.13957
 Alpha virt. eigenvalues --    0.14198   0.14309   0.14513   0.14709   0.15049
 Alpha virt. eigenvalues --    0.15202   0.15286   0.15554   0.15689   0.15879
 Alpha virt. eigenvalues --    0.16050   0.16434   0.16806   0.16916   0.16983
 Alpha virt. eigenvalues --    0.17248   0.17578   0.17739   0.18006   0.18175
 Alpha virt. eigenvalues --    0.18223   0.18927   0.19036   0.19164   0.19437
 Alpha virt. eigenvalues --    0.19591   0.19833   0.19904   0.20284   0.20389
 Alpha virt. eigenvalues --    0.20781   0.20981   0.21268   0.21353   0.21604
 Alpha virt. eigenvalues --    0.21918   0.22373   0.22484   0.22659   0.22855
 Alpha virt. eigenvalues --    0.22962   0.23389   0.23425   0.23767   0.23926
 Alpha virt. eigenvalues --    0.24095   0.24418   0.24623   0.24846   0.24969
 Alpha virt. eigenvalues --    0.25120   0.25441   0.25697   0.26052   0.26186
 Alpha virt. eigenvalues --    0.26315   0.26487   0.26898   0.27348   0.27457
 Alpha virt. eigenvalues --    0.27611   0.27900   0.28228   0.28491   0.28669
 Alpha virt. eigenvalues --    0.28891   0.29110   0.29260   0.29558   0.29859
 Alpha virt. eigenvalues --    0.30173   0.30362   0.30709   0.30758   0.31018
 Alpha virt. eigenvalues --    0.31438   0.31512   0.31596   0.32121   0.32345
 Alpha virt. eigenvalues --    0.32707   0.32945   0.33217   0.33408   0.33739
 Alpha virt. eigenvalues --    0.34250   0.34481   0.34820   0.35141   0.35292
 Alpha virt. eigenvalues --    0.35838   0.36381   0.36888   0.37234   0.37777
 Alpha virt. eigenvalues --    0.38024   0.38050   0.38545   0.39057   0.39671
 Alpha virt. eigenvalues --    0.40108   0.40280   0.40894   0.41800   0.41974
 Alpha virt. eigenvalues --    0.42402   0.42650   0.43842   0.43988   0.44472
 Alpha virt. eigenvalues --    0.45069   0.45384   0.46284   0.46492   0.47230
 Alpha virt. eigenvalues --    0.47700   0.48058   0.48695   0.48944   0.49656
 Alpha virt. eigenvalues --    0.49762   0.50791   0.50905   0.51942   0.52664
 Alpha virt. eigenvalues --    0.52789   0.54011   0.54089   0.54849   0.55424
 Alpha virt. eigenvalues --    0.55638   0.56181   0.56548   0.57299   0.57596
 Alpha virt. eigenvalues --    0.58101   0.58263   0.58940   0.59515   0.60008
 Alpha virt. eigenvalues --    0.60298   0.60771   0.60861   0.61218   0.61442
 Alpha virt. eigenvalues --    0.61699   0.62679   0.63093   0.63325   0.63540
 Alpha virt. eigenvalues --    0.64074   0.64540   0.65087   0.65154   0.66028
 Alpha virt. eigenvalues --    0.66787   0.67007   0.67509   0.67946   0.68183
 Alpha virt. eigenvalues --    0.69017   0.69372   0.69850   0.70448   0.70767
 Alpha virt. eigenvalues --    0.71007   0.71302   0.72013   0.72332   0.72665
 Alpha virt. eigenvalues --    0.72781   0.73222   0.73990   0.74329   0.74816
 Alpha virt. eigenvalues --    0.75140   0.75866   0.76697   0.77088   0.77420
 Alpha virt. eigenvalues --    0.77903   0.78257   0.79152   0.80581   0.81308
 Alpha virt. eigenvalues --    0.81681   0.82501   0.82979   0.83274   0.83394
 Alpha virt. eigenvalues --    0.83986   0.84291   0.85235   0.86136   0.86579
 Alpha virt. eigenvalues --    0.87382   0.87726   0.87839   0.88390   0.88733
 Alpha virt. eigenvalues --    0.89150   0.89604   0.89902   0.90619   0.90703
 Alpha virt. eigenvalues --    0.91184   0.91429   0.91856   0.92117   0.93073
 Alpha virt. eigenvalues --    0.93330   0.94097   0.94352   0.94657   0.95789
 Alpha virt. eigenvalues --    0.96102   0.96224   0.96696   0.97148   0.97732
 Alpha virt. eigenvalues --    0.98689   0.99244   0.99999   1.00549   1.01176
 Alpha virt. eigenvalues --    1.01930   1.02206   1.02549   1.02907   1.03815
 Alpha virt. eigenvalues --    1.04716   1.04858   1.05335   1.05851   1.06651
 Alpha virt. eigenvalues --    1.07073   1.07535   1.08189   1.08268   1.08869
 Alpha virt. eigenvalues --    1.09774   1.10525   1.11907   1.12052   1.12836
 Alpha virt. eigenvalues --    1.13921   1.14362   1.14910   1.15414   1.16419
 Alpha virt. eigenvalues --    1.16811   1.17157   1.17531   1.18637   1.19294
 Alpha virt. eigenvalues --    1.20882   1.21430   1.21607   1.22628   1.22985
 Alpha virt. eigenvalues --    1.23117   1.23847   1.25425   1.25652   1.26475
 Alpha virt. eigenvalues --    1.26620   1.27219   1.27931   1.28245   1.29103
 Alpha virt. eigenvalues --    1.30670   1.32455   1.33479   1.34057   1.34922
 Alpha virt. eigenvalues --    1.35835   1.37185   1.38110   1.39918   1.40079
 Alpha virt. eigenvalues --    1.41108   1.41639   1.42673   1.43364   1.43808
 Alpha virt. eigenvalues --    1.44897   1.45601   1.45896   1.46361   1.46736
 Alpha virt. eigenvalues --    1.47205   1.47654   1.48190   1.48424   1.50399
 Alpha virt. eigenvalues --    1.51294   1.52009   1.52893   1.53381   1.54074
 Alpha virt. eigenvalues --    1.54645   1.55227   1.55894   1.57307   1.57537
 Alpha virt. eigenvalues --    1.57947   1.59396   1.60209   1.61060   1.62428
 Alpha virt. eigenvalues --    1.63180   1.64352   1.64454   1.65856   1.66522
 Alpha virt. eigenvalues --    1.67140   1.67643   1.68220   1.69068   1.69778
 Alpha virt. eigenvalues --    1.70385   1.70961   1.71730   1.72239   1.73455
 Alpha virt. eigenvalues --    1.73929   1.74822   1.75726   1.76046   1.76700
 Alpha virt. eigenvalues --    1.77338   1.78143   1.78541   1.80139   1.81786
 Alpha virt. eigenvalues --    1.82313   1.83158   1.84339   1.85057   1.85545
 Alpha virt. eigenvalues --    1.86194   1.86847   1.87113   1.87642   1.87883
 Alpha virt. eigenvalues --    1.88814   1.89807   1.90127   1.90322   1.91626
 Alpha virt. eigenvalues --    1.92298   1.92840   1.93821   1.94541   1.94813
 Alpha virt. eigenvalues --    1.95772   1.96098   1.97128   1.97842   1.97908
 Alpha virt. eigenvalues --    1.98901   2.00090   2.00893   2.01370   2.03581
 Alpha virt. eigenvalues --    2.04487   2.04722   2.05138   2.05964   2.07027
 Alpha virt. eigenvalues --    2.07468   2.07781   2.09432   2.10103   2.10686
 Alpha virt. eigenvalues --    2.12257   2.12358   2.13779   2.14850   2.15402
 Alpha virt. eigenvalues --    2.15490   2.17140   2.18260   2.19031   2.20696
 Alpha virt. eigenvalues --    2.21459   2.24245   2.25690   2.27109   2.28704
 Alpha virt. eigenvalues --    2.29741   2.31162   2.33347   2.36724   2.37130
 Alpha virt. eigenvalues --    2.39405   2.40254   2.40625   2.41807   2.44331
 Alpha virt. eigenvalues --    2.46243   2.47406   2.48781   2.49215   2.52584
 Alpha virt. eigenvalues --    2.53975   2.56666   2.56969   2.57824   2.59406
 Alpha virt. eigenvalues --    2.60476   2.61415   2.61872   2.62679   2.63375
 Alpha virt. eigenvalues --    2.64037   2.66166   2.66728   2.67374   2.67622
 Alpha virt. eigenvalues --    2.69128   2.69681   2.70196   2.70838   2.72161
 Alpha virt. eigenvalues --    2.73258   2.73567   2.74126   2.75278   2.75483
 Alpha virt. eigenvalues --    2.76112   2.77861   2.79170   2.80622   2.81893
 Alpha virt. eigenvalues --    2.82483   2.82808   2.83888   2.84425   2.86222
 Alpha virt. eigenvalues --    2.87372   2.87926   2.88454   2.89274   2.91001
 Alpha virt. eigenvalues --    2.91361   2.91576   2.92152   2.92576   2.93662
 Alpha virt. eigenvalues --    2.94165   2.94710   2.95461   2.96180   2.96314
 Alpha virt. eigenvalues --    2.97471   2.98637   2.99238   3.00957   3.04110
 Alpha virt. eigenvalues --    3.04802   3.07218   3.08199   3.10065   3.10947
 Alpha virt. eigenvalues --    3.11931   3.13406   3.14211   3.16082   3.17238
 Alpha virt. eigenvalues --    3.17511   3.18422   3.20025   3.20751   3.22398
 Alpha virt. eigenvalues --    3.22786   3.26415   3.27357   3.28681   3.29609
 Alpha virt. eigenvalues --    3.31445   3.32718   3.33210   3.33573   3.33973
 Alpha virt. eigenvalues --    3.34541   3.36117   3.36725   3.37281   3.38771
 Alpha virt. eigenvalues --    3.40310   3.41557   3.41976   3.42384   3.43432
 Alpha virt. eigenvalues --    3.45905   3.46463   3.48512   3.52067   3.54270
 Alpha virt. eigenvalues --    3.56655   3.58073   3.58431   3.60414   3.63109
 Alpha virt. eigenvalues --    3.65100   3.66892   3.74001   3.78156   3.80744
 Alpha virt. eigenvalues --    3.84445   3.84917   3.85786   3.86994   3.88440
 Alpha virt. eigenvalues --    3.91051   3.92648   3.97722   4.00345   4.01573
 Alpha virt. eigenvalues --    4.07719   4.10984   4.15776   4.19730   4.22542
 Alpha virt. eigenvalues --    4.23947   4.32587   4.34222   4.36048   4.48136
 Alpha virt. eigenvalues --    4.62387   4.65970   4.77825   4.82748   4.84547
 Alpha virt. eigenvalues --    5.00099   5.01567   5.02975   5.04541   5.04719
 Alpha virt. eigenvalues --    5.06872   5.09200   5.10797   5.19722   5.22728
 Alpha virt. eigenvalues --    5.24425   5.26398   5.29378   5.40633   5.67760
 Alpha virt. eigenvalues --    5.71043   5.73674   5.77719   5.78778   5.82321
 Alpha virt. eigenvalues --    7.99816   8.02421  17.28477  17.31507  17.48133
 Alpha virt. eigenvalues --   17.51777  17.56131  17.61532  23.45496  23.53278
 Alpha virt. eigenvalues --   23.68470  23.77712  23.79937  23.81354  23.81621
 Alpha virt. eigenvalues --   23.84301  23.85125  23.85746  23.87100  23.92143
 Alpha virt. eigenvalues --   23.93795  23.96709  23.99607  24.00071  24.00860
 Alpha virt. eigenvalues --   24.02750  24.11603  24.11920  24.12520  24.13037
 Alpha virt. eigenvalues --   35.55319  35.61228  49.90966  49.93129  49.98564
 Alpha virt. eigenvalues --   50.00338  50.03655  50.05323 189.16619 189.19913
          Condensed to atoms (all electrons):
               1          2          3          4          5          6
     1  C   12.886070  -4.402501  -0.801023   1.857107  -2.518806  -0.625178
     2  C   -4.402501  12.314762   0.543188  -0.341023   1.554243  -0.119425
     3  C   -0.801023   0.543188   6.591516   0.726422  -0.681116   0.333192
     4  C    1.857107  -0.341023   0.726422  12.477611  -3.111924  -0.510015
     5  C   -2.518806   1.554243  -0.681116  -3.111924  10.438236   0.171940
     6  C   -0.625178  -0.119425   0.333192  -0.510015   0.171940  10.212804
     7  C   -1.112055   1.070344   1.172326  -0.216424  -0.226897   0.512714
     8  C   -0.251597  -0.542540   0.278602   0.043626   0.220940   1.288069
     9  C   -0.393790  -0.940751  -0.305751  -0.246844   0.253960  -1.614433
    10  C    0.059801  -0.609804  -0.165608   0.038574  -0.031198  -2.188150
    11  C    0.094550   0.414610  -1.039806   0.233260  -0.084255   0.077079
    12  C    0.304214   0.243239   0.520981  -0.340320  -0.147423   0.193596
    13  C    0.129663  -0.699603  -0.619954  -4.738778   0.194352   0.450944
    14  C   -0.266844  -0.926459  -0.418475   0.121302  -0.439524   0.239225
    15  H    0.001204  -0.004743   0.008833  -0.061635  -0.000790  -0.000100
    16  H   -0.001242  -0.002251  -0.002478   0.005815   0.006285   0.000066
    17  H    0.007276  -0.027400   0.007957  -0.003195   0.001188   0.416035
    18  N   -0.007125   0.007312   0.018316  -0.007763   0.001179   0.065398
    19  N    0.157166  -0.327379  -0.066689  -0.129338   0.045659   0.131936
    20  O    0.260095  -0.100494   0.008239  -0.030653   0.079213   0.015920
    21  O    0.113305  -0.063831   0.015555  -0.172189   0.269531   0.002024
    22  O    0.000582  -0.001068  -0.005696   0.013886   0.000554  -0.000024
    23  O   -0.001023  -0.005866   0.021173  -0.007815  -0.000703   0.055885
    24  C    0.379501  -0.706814  -0.497179   0.070482   0.001861  -1.588937
    25  C   -0.138544  -0.360491   0.019306  -0.075875  -0.000576   0.101010
    26  S    0.056921   0.234802   0.064399   0.055183   0.000749   0.240176
    27  C   -0.038306  -0.124508  -0.003191  -0.018137  -0.001300  -0.052835
    28  H   -0.000692  -0.004037   0.001639   0.000305   0.000075   0.004817
    29  C    0.044721  -0.068034  -0.046016  -0.001521  -0.001031  -0.793535
    30  O    0.000086   0.000580  -0.000045   0.000031   0.000002   0.001456
    31  C   -0.010105  -0.026140  -0.001262  -0.000466   0.000367  -0.139429
    32  C    0.000990  -0.025025  -0.005738   0.000597  -0.000195  -0.257831
    33  S   -0.000400  -0.000259   0.000126   0.000009   0.000029  -0.001291
    34  C    0.000064   0.002196   0.000517   0.000063   0.000036   0.007506
    35  O   -0.000014   0.000257  -0.000083   0.000011  -0.000002  -0.003995
    36  C   -0.000067  -0.000669  -0.000144   0.000007  -0.000004  -0.011376
    37  H    0.000000   0.000001  -0.000000   0.000000   0.000000  -0.000004
    38  H    0.000000   0.000000   0.000000   0.000000   0.000000   0.000003
    39  H   -0.000032  -0.000139  -0.000043   0.000003  -0.000002  -0.002141
    40  H   -0.000024  -0.000465   0.000059  -0.000015   0.000000   0.007085
    41  H   -0.007232  -0.012727  -0.005412   0.003944  -0.013477   0.015380
    42  H   -0.000143  -0.001530   0.001029  -0.000493  -0.000095   0.003295
               7          8          9         10         11         12
     1  C   -1.112055  -0.251597  -0.393790   0.059801   0.094550   0.304214
     2  C    1.070344  -0.542540  -0.940751  -0.609804   0.414610   0.243239
     3  C    1.172326   0.278602  -0.305751  -0.165608  -1.039806   0.520981
     4  C   -0.216424   0.043626  -0.246844   0.038574   0.233260  -0.340320
     5  C   -0.226897   0.220940   0.253960  -0.031198  -0.084255  -0.147423
     6  C    0.512714   1.288069  -1.614433  -2.188150   0.077079   0.193596
     7  C    7.117306  -0.254808  -0.502022  -0.510150  -1.027847   0.963517
     8  C   -0.254808   8.759721   0.344264  -2.142308   0.318071   0.435381
     9  C   -0.502022   0.344264   8.186261   0.408643  -0.070571  -0.299614
    10  C   -0.510150  -2.142308   0.408643  12.279818  -2.373088   1.256815
    11  C   -1.027847   0.318071  -0.070571  -2.373088  11.749723  -3.749440
    12  C    0.963517   0.435381  -0.299614   1.256815  -3.749440  14.040276
    13  C   -0.485713  -0.693911   0.006225  -0.705993   0.561593  -0.471052
    14  C   -0.023954  -1.398303  -0.086886  -0.464147   0.628294  -6.499039
    15  H   -0.005073  -0.001298   0.000116  -0.000806   0.005163   0.011668
    16  H    0.017654  -0.010612   0.001288   0.000670  -0.013962  -0.067571
    17  H   -0.007736   0.029342  -0.042428   0.002284  -0.000455   0.001716
    18  N    0.023188  -0.021243   0.041034  -0.168242   0.025296  -0.055492
    19  N   -0.058372   0.040231   0.007317   0.010286  -0.004638  -0.000337
    20  O   -0.023519   0.020448   0.053910   0.001661   0.000620   0.000428
    21  O   -0.026219   0.002751   0.000129   0.000143   0.003308   0.030736
    22  O    0.007270  -0.043811   0.003107   0.078398   0.229942  -0.198633
    23  O   -0.017194  -0.007762  -0.017320   0.138768   0.010733   0.009089
    24  C   -0.509153  -0.459445   1.311363   1.575880  -0.022103  -0.293063
    25  C   -0.103561   0.479512  -0.472839  -0.484555  -0.012351  -0.115623
    26  S    0.019675  -0.030894   0.169052  -0.034825  -0.027665   0.008143
    27  C   -0.039562  -0.105682  -0.519685  -0.152130   0.002372  -0.034839
    28  H    0.000047   0.013954   0.001736   0.022036  -0.001004  -0.000141
    29  C   -0.052286  -0.427016   0.371196   0.322494  -0.003670  -0.026564
    30  O   -0.000245  -0.000003   0.005674   0.004615  -0.000180   0.000476
    31  C   -0.012781  -0.012314  -0.095872   0.029643  -0.002049  -0.000406
    32  C   -0.010871  -0.022636  -0.046694   0.024704  -0.001259   0.000327
    33  S    0.000793  -0.010882   0.021442   0.004952   0.000003  -0.000485
    34  C    0.000862  -0.007008   0.045472   0.002346  -0.000049  -0.000087
    35  O   -0.000184  -0.000114   0.006469   0.000092  -0.000004   0.000008
    36  C   -0.000333   0.000487  -0.005474   0.000962  -0.000024   0.000048
    37  H    0.000000   0.000000   0.000016  -0.000000  -0.000000  -0.000000
    38  H    0.000000  -0.000001   0.000016   0.000000   0.000000  -0.000000
    39  H   -0.000041   0.000045  -0.000602   0.000019  -0.000001  -0.000001
    40  H   -0.000092   0.004405  -0.016747  -0.006248   0.000045  -0.000057
    41  H   -0.003144   0.001729   0.001697   0.000102   0.000035   0.001016
    42  H   -0.007352  -0.004177   0.001063   0.011583  -0.046400   0.026573
              13         14         15         16         17         18
     1  C    0.129663  -0.266844   0.001204  -0.001242   0.007276  -0.007125
     2  C   -0.699603  -0.926459  -0.004743  -0.002251  -0.027400   0.007312
     3  C   -0.619954  -0.418475   0.008833  -0.002478   0.007957   0.018316
     4  C   -4.738778   0.121302  -0.061635   0.005815  -0.003195  -0.007763
     5  C    0.194352  -0.439524  -0.000790   0.006285   0.001188   0.001179
     6  C    0.450944   0.239225  -0.000100   0.000066   0.416035   0.065398
     7  C   -0.485713  -0.023954  -0.005073   0.017654  -0.007736   0.023188
     8  C   -0.693911  -1.398303  -0.001298  -0.010612   0.029342  -0.021243
     9  C    0.006225  -0.086886   0.000116   0.001288  -0.042428   0.041034
    10  C   -0.705993  -0.464147  -0.000806   0.000670   0.002284  -0.168242
    11  C    0.561593   0.628294   0.005163  -0.013962  -0.000455   0.025296
    12  C   -0.471052  -6.499039   0.011668  -0.067571   0.001716  -0.055492
    13  C   13.902042  -0.804168  -0.035900   0.435685  -0.000402   0.024201
    14  C   -0.804168  16.519730   0.433705  -0.018761  -0.000911   0.003167
    15  H   -0.035900   0.433705   0.482604  -0.005290  -0.000000   0.000126
    16  H    0.435685  -0.018761  -0.005290   0.480011   0.000000  -0.002253
    17  H   -0.000402  -0.000911  -0.000000   0.000000   0.461773   0.000074
    18  N    0.024201   0.003167   0.000126  -0.002253   0.000074   7.211563
    19  N    0.040782   0.048178  -0.002637   0.000103  -0.001466   0.000009
    20  O   -0.001287   0.002562  -0.000004   0.000001   0.011921  -0.000006
    21  O    0.130794  -0.020497   0.007392   0.000079  -0.000010  -0.000049
    22  O    0.041668   0.173411   0.000063   0.007634   0.000000  -0.053164
    23  O    0.002351  -0.000127   0.000000  -0.000010   0.000203  -0.074942
    24  C   -0.172223  -0.217676  -0.000056  -0.000345  -0.029740  -0.056469
    25  C   -0.035112  -0.002902   0.000003   0.000023  -0.012550  -0.006615
    26  S    0.020639   0.009792  -0.000004  -0.000018   0.024368   0.001658
    27  C   -0.000843   0.000223  -0.000000  -0.000003  -0.013158   0.003421
    28  H   -0.000265  -0.000064   0.000000  -0.000000  -0.000096  -0.000834
    29  C   -0.005631  -0.003685  -0.000000  -0.000002  -0.004637   0.002378
    30  O    0.000022   0.000004   0.000000  -0.000000   0.000022   0.000143
    31  C   -0.000017   0.000143   0.000000   0.000000  -0.002242  -0.000639
    32  C    0.000142   0.000210  -0.000000  -0.000000   0.000492  -0.000320
    33  S   -0.000037  -0.000029  -0.000000  -0.000000  -0.000250   0.000111
    34  C    0.000005  -0.000011  -0.000000  -0.000000   0.000120   0.000007
    35  O    0.000002   0.000004  -0.000000  -0.000000   0.000017   0.000001
    36  C    0.000003   0.000004   0.000000   0.000000  -0.000003  -0.000003
    37  H   -0.000000   0.000000   0.000000   0.000000   0.000000  -0.000000
    38  H    0.000000  -0.000000   0.000000   0.000000   0.000000   0.000000
    39  H    0.000000   0.000001  -0.000000  -0.000000  -0.000000  -0.000000
    40  H   -0.000000  -0.000000   0.000000   0.000000  -0.000008  -0.000063
    41  H    0.003601   0.013061  -0.000033  -0.000000  -0.000033   0.000000
    42  H    0.016533   0.005816  -0.000000  -0.000044  -0.000000   0.288363
              19         20         21         22         23         24
     1  C    0.157166   0.260095   0.113305   0.000582  -0.001023   0.379501
     2  C   -0.327379  -0.100494  -0.063831  -0.001068  -0.005866  -0.706814
     3  C   -0.066689   0.008239   0.015555  -0.005696   0.021173  -0.497179
     4  C   -0.129338  -0.030653  -0.172189   0.013886  -0.007815   0.070482
     5  C    0.045659   0.079213   0.269531   0.000554  -0.000703   0.001861
     6  C    0.131936   0.015920   0.002024  -0.000024   0.055885  -1.588937
     7  C   -0.058372  -0.023519  -0.026219   0.007270  -0.017194  -0.509153
     8  C    0.040231   0.020448   0.002751  -0.043811  -0.007762  -0.459445
     9  C    0.007317   0.053910   0.000129   0.003107  -0.017320   1.311363
    10  C    0.010286   0.001661   0.000143   0.078398   0.138768   1.575880
    11  C   -0.004638   0.000620   0.003308   0.229942   0.010733  -0.022103
    12  C   -0.000337   0.000428   0.030736  -0.198633   0.009089  -0.293063
    13  C    0.040782  -0.001287   0.130794   0.041668   0.002351  -0.172223
    14  C    0.048178   0.002562  -0.020497   0.173411  -0.000127  -0.217676
    15  H   -0.002637  -0.000004   0.007392   0.000063   0.000000  -0.000056
    16  H    0.000103   0.000001   0.000079   0.007634  -0.000010  -0.000345
    17  H   -0.001466   0.011921  -0.000010   0.000000   0.000203  -0.029740
    18  N    0.000009  -0.000006  -0.000049  -0.053164  -0.074942  -0.056469
    19  N    7.195488  -0.067246  -0.057895  -0.000028   0.000005   0.021380
    20  O   -0.067246   8.025540   0.001290  -0.000000   0.000006   0.012291
    21  O   -0.057895   0.001290   8.037717   0.000015  -0.000000   0.000123
    22  O   -0.000028  -0.000000   0.000015   8.022593   0.001292  -0.001050
    23  O    0.000005   0.000006  -0.000000   0.001292   8.128518  -0.213415
    24  C    0.021380   0.012291   0.000123  -0.001050  -0.213415  12.000073
    25  C   -0.005042   0.000066  -0.000026  -0.001197   0.153931  -0.051949
    26  S    0.009678   0.003675  -0.000013  -0.000062   0.011872   0.160773
    27  C   -0.000236   0.000002  -0.000004  -0.000317   0.086372  -2.558435
    28  H    0.000002  -0.000000   0.000000  -0.000004  -0.024976   0.039494
    29  C    0.000656   0.001994  -0.000002  -0.000046  -0.035065  -1.190409
    30  O   -0.000000   0.000000   0.000000   0.000000  -0.001156   0.091653
    31  C    0.000013  -0.000117  -0.000000  -0.000004   0.000894  -0.233389
    32  C    0.000112   0.000063  -0.000000  -0.000001   0.000613  -0.863203
    33  S    0.000001   0.000008  -0.000000  -0.000000   0.000392   0.083684
    34  C    0.000008   0.000016  -0.000000  -0.000000   0.000064  -0.066532
    35  O    0.000002  -0.000003  -0.000000   0.000000   0.000016  -0.027017
    36  C    0.000000  -0.000003   0.000000   0.000000  -0.000006  -0.050529
    37  H    0.000000   0.000000   0.000000   0.000000   0.000000   0.000098
    38  H    0.000000  -0.000000  -0.000000   0.000000   0.000000  -0.000052
    39  H    0.000000  -0.000000  -0.000000   0.000000   0.000000   0.000922
    40  H   -0.000000   0.000000   0.000000  -0.000000  -0.000940  -0.051594
    41  H    0.281570   0.006975   0.010106   0.000000  -0.000000   0.000588
    42  H    0.000001  -0.000000  -0.000000   0.009740   0.010774  -0.002217
              25         26         27         28         29         30
     1  C   -0.138544   0.056921  -0.038306  -0.000692   0.044721   0.000086
     2  C   -0.360491   0.234802  -0.124508  -0.004037  -0.068034   0.000580
     3  C    0.019306   0.064399  -0.003191   0.001639  -0.046016  -0.000045
     4  C   -0.075875   0.055183  -0.018137   0.000305  -0.001521   0.000031
     5  C   -0.000576   0.000749  -0.001300   0.000075  -0.001031   0.000002
     6  C    0.101010   0.240176  -0.052835   0.004817  -0.793535   0.001456
     7  C   -0.103561   0.019675  -0.039562   0.000047  -0.052286  -0.000245
     8  C    0.479512  -0.030894  -0.105682   0.013954  -0.427016  -0.000003
     9  C   -0.472839   0.169052  -0.519685   0.001736   0.371196   0.005674
    10  C   -0.484555  -0.034825  -0.152130   0.022036   0.322494   0.004615
    11  C   -0.012351  -0.027665   0.002372  -0.001004  -0.003670  -0.000180
    12  C   -0.115623   0.008143  -0.034839  -0.000141  -0.026564   0.000476
    13  C   -0.035112   0.020639  -0.000843  -0.000265  -0.005631   0.000022
[...]
    36  C   -0.000002  -0.000000   0.000000   0.000000  -0.000023  -0.000006
    37  H    0.000000   0.000000  -0.000000  -0.000000   0.000000   0.000000
    38  H   -0.000000  -0.000000  -0.000000   0.000000   0.000000   0.000000
    39  H   -0.000000  -0.000000  -0.000000  -0.000000  -0.000001  -0.000000
    40  H    0.000006   0.000002   0.000000  -0.000000  -0.000004  -0.000049
    41  H    0.001731   0.004578  -0.000027   0.000000  -0.000024   0.000000
    42  H   -0.004018  -0.000247   0.000000  -0.000035   0.000000   0.328682
              19         20         21         22         23         24
     1  C    0.077681   0.278085   0.104109   0.001024  -0.000924   0.457665
     2  C   -0.172480  -0.160560  -0.066157   0.001191  -0.000669  -0.189236
     3  C   -0.128965   0.013342   0.025493  -0.013537  -0.002250  -0.426711
     4  C   -0.147952  -0.022802  -0.193728   0.006708  -0.004075   0.065089
     5  C    0.140209   0.065162   0.267238  -0.000207  -0.000129   0.019835
     6  C    0.118769   0.036923   0.004777  -0.000426   0.025202  -1.163031
     7  C   -0.090537  -0.028088  -0.031773   0.015987   0.010225  -0.392958
     8  C    0.034913   0.014818   0.002972  -0.042888  -0.091342  -0.461309
     9  C    0.039476   0.060255  -0.000276   0.001206  -0.025593   1.046960
    10  C    0.008136   0.001301   0.000267   0.063184   0.135814   1.178059
    11  C   -0.004773   0.000474   0.002494   0.249511   0.032218  -0.035587
    12  C   -0.000685  -0.000598   0.028178  -0.208518  -0.005368  -0.420237
    13  C    0.042592  -0.001455   0.135449   0.043803   0.004005  -0.200214
    14  C    0.006810   0.003140  -0.016682   0.156475  -0.000852  -0.254721
    15  H   -0.002079  -0.000012   0.006459   0.000070   0.000001  -0.000083
    16  H    0.000159   0.000001   0.000087   0.006273  -0.000022  -0.000457
    17  H   -0.001869   0.010669  -0.000012   0.000000   0.000047  -0.032661
    18  N   -0.000070  -0.000030  -0.000071  -0.042394  -0.045681  -0.068600
    19  N    7.225277  -0.057670  -0.043112  -0.000045   0.000004   0.023515
    20  O   -0.057670   8.039677   0.001652   0.000000   0.000009   0.017514
    21  O   -0.043112   0.001652   8.044368   0.000015  -0.000000   0.000334
    22  O   -0.000045   0.000000   0.000015   8.047055   0.000994  -0.000150
    23  O    0.000004   0.000009  -0.000000   0.000994   8.142172  -0.244769
    24  C    0.023515   0.017514   0.000334  -0.000150  -0.244769  12.791796
    25  C   -0.001244   0.000075  -0.000022  -0.002252   0.135977   0.096895
    26  S    0.009931   0.000504   0.000023   0.000174   0.013820  -0.183702
    27  C   -0.000021  -0.000139  -0.000004  -0.000294   0.135632  -2.616080
    28  H   -0.000002   0.000001   0.000000   0.000003  -0.019267   0.027550
    29  C   -0.000266   0.003848  -0.000001  -0.000047   0.013759  -2.005761
    30  O   -0.000000   0.000000   0.000000   0.000000   0.001009   0.085818
    31  C   -0.000020  -0.000140  -0.000000  -0.000007   0.010623  -0.291399
    32  C   -0.000073   0.000685  -0.000000  -0.000001   0.002979  -0.905031
    33  S    0.000004  -0.000006  -0.000000   0.000000   0.000327   0.119922
    34  C    0.000005   0.000024  -0.000000   0.000000   0.000234  -0.064199
    35  O    0.000000   0.000003  -0.000000  -0.000000  -0.000000   0.012203
    36  C   -0.000001   0.000002  -0.000000  -0.000000  -0.000013  -0.020855
    37  H    0.000000   0.000000   0.000000   0.000000   0.000000   0.000172
    38  H    0.000000  -0.000000  -0.000000   0.000000   0.000000  -0.000159
    39  H   -0.000000  -0.000000  -0.000000  -0.000000  -0.000000  -0.006994
    40  H    0.000000  -0.000000   0.000000   0.000000  -0.000904  -0.074362
    41  H    0.329275   0.005570   0.004850  -0.000000  -0.000000   0.000022
    42  H    0.000001  -0.000000  -0.000000   0.005598   0.006201  -0.001326
              25         26         27         28         29         30
     1  C   -0.196439   0.034115  -0.036924  -0.001165   0.045706   0.000060
     2  C   -0.507519   0.310226  -0.165669  -0.005461  -0.211416   0.000092
     3  C   -0.014791   0.011817  -0.031297   0.001658  -0.035014   0.000126
     4  C   -0.073315   0.079926  -0.020524  -0.000061  -0.023943  -0.000024
     5  C    0.005223  -0.001604  -0.001619   0.000055   0.000725   0.000000
     6  C   -0.349115  -0.001844  -0.448435   0.021450  -0.415790   0.010913
     7  C   -0.116411   0.011899  -0.026808   0.000113  -0.036763  -0.000029
     8  C    0.279882  -0.124051  -0.176883   0.031064  -0.465115   0.008390
     9  C   -0.041918  -0.060494  -0.347654  -0.001306   0.220984  -0.005132
    10  C    0.090535  -0.124942   0.002452   0.005934   0.022373  -0.009608
    11  C   -0.070942  -0.017729  -0.002053  -0.000824   0.002159   0.000152
    12  C   -0.090405  -0.001276  -0.034542   0.000792  -0.068376   0.000060
    13  C   -0.028792   0.027768   0.000263  -0.000141  -0.010532   0.000005
    14  C   -0.001021   0.017033   0.000399  -0.000014  -0.008047   0.000002
    15  H    0.000001   0.000003  -0.000000   0.000000  -0.000001  -0.000000
    16  H   -0.000032  -0.000007  -0.000005   0.000000  -0.000002   0.000000
    17  H   -0.013299   0.019625  -0.012328  -0.000105  -0.006406   0.000033
    18  N   -0.004033  -0.009107  -0.004065  -0.001014  -0.004208   0.000131
    19  N   -0.001244   0.009931  -0.000021  -0.000002  -0.000266  -0.000000
    20  O    0.000075   0.000504  -0.000139   0.000001   0.003848   0.000000
    21  O   -0.000022   0.000023  -0.000004   0.000000  -0.000001   0.000000
    22  O   -0.002252   0.000174  -0.000294   0.000003  -0.000047   0.000000
    23  O    0.135977   0.013820   0.135632  -0.019267   0.013759   0.001009
    24  C    0.096895  -0.183702  -2.616080   0.027550  -2.005761   0.085818
    25  C   12.451198  -2.534803   2.070723   0.407446  -3.435058  -0.032165
    26  S   -2.534803  19.876320  -1.394184   0.023211   0.665118   0.025878
    27  C    2.070723  -1.394184  12.387310  -0.141757  -0.278580   0.288088
    28  H    0.407446   0.023211  -0.141757   0.537415  -0.002310  -0.007068
    29  C   -3.435058   0.665118  -0.278580  -0.002310  11.448886  -0.280545
    30  O   -0.032165   0.025878   0.288088  -0.007068  -0.280545   8.060765
    31  C   -0.775118   0.381620  -0.455448  -0.004351   0.773799  -0.030989
    32  C   -0.198898  -0.618805  -2.091132  -0.000248  -1.206211  -0.012356
    33  S   -0.187038   0.132925   0.230226   0.000305   0.777303  -0.059648
    34  C   -0.244507  -0.066588  -0.013043   0.000026  -0.024145  -0.003040
    35  O    0.002548  -0.028556   0.054707   0.000030   0.011126  -0.000852
    36  C   -0.046652   0.049750  -0.416966   0.000045  -0.173269   0.003456
    37  H   -0.000002   0.000801   0.000478   0.000000  -0.005422   0.000019
    38  H    0.000411  -0.001151   0.006119   0.000000  -0.005246  -0.000038
    39  H    0.002893   0.000277  -0.012181   0.000000   0.027498  -0.000048
    40  H   -0.130189   0.000205   0.116444   0.004078   0.107569   0.200822
    41  H   -0.000045   0.000028  -0.000006  -0.000000   0.000003   0.000000
    42  H    0.002619  -0.000395   0.000989   0.000031   0.000093  -0.000002
              31         32         33         34         35         36
     1  C   -0.014228  -0.002556  -0.000199   0.000456  -0.000384  -0.000136
     2  C   -0.025630  -0.050501   0.001523   0.001849  -0.000681  -0.001218
     3  C   -0.000586  -0.000730  -0.000281   0.000038   0.000072   0.000010
     4  C   -0.001996  -0.002996   0.000121   0.000032  -0.000056  -0.000035
     5  C   -0.000012   0.000016   0.000010   0.000010   0.000004  -0.000000
     6  C   -0.028949   0.142408  -0.024416  -0.016242   0.005254   0.009617
     7  C   -0.009624  -0.006306   0.000764   0.001150  -0.000106  -0.000258
     8  C    0.044207  -0.027589  -0.002554  -0.003209   0.000455   0.000774
     9  C   -0.254194  -0.227642   0.018732   0.041627   0.004321  -0.017192
    10  C   -0.045846  -0.039630   0.006131   0.001197  -0.000412  -0.001347
    11  C   -0.000568   0.000073  -0.000019   0.000013  -0.000009   0.000005
    12  C   -0.001497  -0.003332   0.000142   0.000091  -0.000060  -0.000028
    13  C   -0.000125  -0.000296   0.000021   0.000012  -0.000004  -0.000002
    14  C    0.000093  -0.000240  -0.000000  -0.000005  -0.000002  -0.000000
    15  H    0.000000  -0.000000   0.000000   0.000000  -0.000000   0.000000
    16  H    0.000000  -0.000000  -0.000000  -0.000000   0.000000   0.000000
    17  H   -0.002667  -0.002017  -0.000150  -0.000140  -0.000087  -0.000023
    18  N   -0.000794  -0.000444   0.000089   0.000025  -0.000005  -0.000006
    19  N   -0.000020  -0.000073   0.000004   0.000005   0.000000  -0.000001
    20  O   -0.000140   0.000685  -0.000006   0.000024   0.000003   0.000002
    21  O   -0.000000  -0.000000  -0.000000  -0.000000  -0.000000  -0.000000
    22  O   -0.000007  -0.000001   0.000000   0.000000  -0.000000  -0.000000
    23  O    0.010623   0.002979   0.000327   0.000234  -0.000000  -0.000013
    24  C   -0.291399  -0.905031   0.119922  -0.064199   0.012203  -0.020855
    25  C   -0.775118  -0.198898  -0.187038  -0.244507   0.002548  -0.046652
    26  S    0.381620  -0.618805   0.132925  -0.066588  -0.028556   0.049750
    27  C   -0.455448  -2.091132   0.230226  -0.013043   0.054707  -0.416966
    28  H   -0.004351  -0.000248   0.000305   0.000026   0.000030   0.000045
    29  C    0.773799  -1.206211   0.777303  -0.024145   0.011126  -0.173269
    30  O   -0.030989  -0.012356  -0.059648  -0.003040  -0.000852   0.003456
    31  C   11.964683  -7.408410   0.746442   2.128050   0.147830  -1.482592
    32  C   -7.408410  27.292819  -3.208177  -9.050539  -0.385222   3.286270
    33  S    0.746442  -3.208177  17.399321   0.520475   0.051314  -0.239090
    34  C    2.128050  -9.050539   0.520475  14.326494   0.151128  -1.551403
    35  O    0.147830  -0.385222   0.051314   0.151128   8.091199  -0.016505
    36  C   -1.482592   3.286270  -0.239090  -1.551403  -0.016505   6.445792
    37  H    0.005333  -0.111009   0.014417   0.404713  -0.004717   0.039664
    38  H    0.059910  -0.093687  -0.021561   0.097242  -0.000329   0.316422
    39  H   -0.123708   0.505378  -0.015933  -0.358551   0.140327   0.021931
    40  H    0.001628  -0.017601   0.018233   0.004297  -0.000025  -0.004021
    41  H   -0.000001  -0.000001  -0.000000  -0.000000  -0.000000  -0.000000
    42  H    0.000014  -0.000000   0.000001  -0.000000   0.000000   0.000000
              37         38         39         40         41         42
     1  C   -0.000000   0.000000  -0.000088  -0.000021  -0.021105  -0.000166
     2  C    0.000002   0.000000  -0.000267  -0.000164  -0.001579  -0.001230
     3  C    0.000000   0.000000  -0.000010  -0.000007   0.003674   0.001181
     4  C    0.000000  -0.000000  -0.000005   0.000009   0.006099   0.000457
     5  C   -0.000000   0.000000  -0.000000  -0.000000  -0.027603  -0.000015
     6  C    0.000000   0.000001   0.000881  -0.005450   0.003513  -0.000575
     7  C    0.000000   0.000000  -0.000034  -0.000349  -0.001692   0.004734
     8  C    0.000002  -0.000001  -0.000144  -0.002326   0.000592   0.004985
     9  C    0.000021   0.000022  -0.002395  -0.002933  -0.000046  -0.001658
    10  C   -0.000000   0.000000  -0.000084   0.004965   0.000043  -0.009883
    11  C   -0.000000   0.000000  -0.000000  -0.000138  -0.000072  -0.043070
    12  C    0.000000  -0.000000  -0.000005   0.000159   0.000327   0.012156
    13  C    0.000000  -0.000000  -0.000000   0.000006   0.001731  -0.004018
    14  C    0.000000  -0.000000  -0.000000   0.000002   0.004578  -0.000247
    15  H   -0.000000  -0.000000  -0.000000   0.000000  -0.000027   0.000000
    16  H   -0.000000   0.000000  -0.000000  -0.000000   0.000000  -0.000035
    17  H    0.000000   0.000000  -0.000001  -0.000004  -0.000024   0.000000
    18  N    0.000000   0.000000  -0.000000  -0.000049   0.000000   0.328682
    19  N    0.000000   0.000000  -0.000000   0.000000   0.329275   0.000001
    20  O    0.000000  -0.000000  -0.000000  -0.000000   0.005570  -0.000000
    21  O    0.000000  -0.000000  -0.000000   0.000000   0.004850  -0.000000
    22  O    0.000000   0.000000  -0.000000   0.000000  -0.000000   0.005598
    23  O    0.000000   0.000000  -0.000000  -0.000904  -0.000000   0.006201
    24  C    0.000172  -0.000159  -0.006994  -0.074362   0.000022  -0.001326
    25  C   -0.000002   0.000411   0.002893  -0.130189  -0.000045   0.002619
    26  S    0.000801  -0.001151   0.000277   0.000205   0.000028  -0.000395
    27  C    0.000478   0.006119  -0.012181   0.116444  -0.000006   0.000989
    28  H    0.000000   0.000000   0.000000   0.004078  -0.000000   0.000031
    29  C   -0.005422  -0.005246   0.027498   0.107569   0.000003   0.000093
    30  O    0.000019  -0.000038  -0.000048   0.200822   0.000000  -0.000002
    31  C    0.005333   0.059910  -0.123708   0.001628  -0.000001   0.000014
    32  C   -0.111009  -0.093687   0.505378  -0.017601  -0.000001  -0.000000
    33  S    0.014417  -0.021561  -0.015933   0.018233  -0.000000   0.000001
    34  C    0.404713   0.097242  -0.358551   0.004297  -0.000000  -0.000000
    35  O   -0.004717  -0.000329   0.140327  -0.000025  -0.000000   0.000000
    36  C    0.039664   0.316422   0.021931  -0.004021  -0.000000   0.000000
    37  H    0.537232  -0.004930   0.003420   0.000000  -0.000000  -0.000000
    38  H   -0.004930   0.482219  -0.000018  -0.000002   0.000000  -0.000000
    39  H    0.003420  -0.000018   0.549195  -0.000001  -0.000000   0.000000
    40  H    0.000000  -0.000002  -0.000001   0.506823   0.000000   0.000000
    41  H   -0.000000   0.000000  -0.000000   0.000000   0.334799   0.000000
    42  H   -0.000000  -0.000000   0.000000   0.000000   0.000000   0.339551
 Mulliken charges:
               1
     1  C    0.428124
     2  C   -0.165449
     3  C    0.261181
     4  C    0.151536
     5  C    0.262543
     6  C   -0.337266
     7  C    0.228907
     8  C    0.018947
     9  C    0.297010
    10  C    0.107430
    11  C    0.361643
    12  C    0.056733
    13  C   -0.413395
    14  C   -0.591330
    15  H    0.165150
    16  H    0.166767
    17  H    0.187376
    18  N   -0.417793
    19  N   -0.404893
    20  O   -0.282234
    21  O   -0.276925
    22  O   -0.288504
    23  O   -0.229393
    24  C    0.117240
    25  C   -0.450404
    26  S   -0.523757
    27  C   -0.565187
    28  H    0.123887
    29  C    0.581528
    30  O   -0.244276
    31  C    0.694667
    32  C    0.441049
    33  S   -0.279678
    34  C   -0.283576
    35  O   -0.234510
    36  C   -0.202128
    37  H    0.119806
    38  H    0.164777
    39  H    0.268668
    40  H    0.273306
    41  H    0.357096
    42  H    0.355326
 Sum of Mulliken charges =  -0.00000
 Mulliken charges with hydrogens summed into heavy atoms:
               1
     1  C    0.428124
     2  C   -0.165449
     3  C    0.261181
     4  C    0.151536
     5  C    0.262543
     6  C   -0.149889
     7  C    0.228907
     8  C    0.018947
     9  C    0.297010
    10  C    0.107430
    11  C    0.361643
    12  C    0.056733
    13  C   -0.246629
    14  C   -0.426180
    18  N   -0.062467
    19  N   -0.047797
    20  O   -0.282234
    21  O   -0.276925
    22  O   -0.288504
    23  O   -0.229393
    24  C    0.117240
    25  C   -0.326516
    26  S   -0.523757
    27  C   -0.565187
    29  C    0.581528
    30  O    0.029030
    31  C    0.694667
    32  C    0.441049
    33  S   -0.279678
    34  C   -0.163770
    35  O    0.034158
    36  C   -0.037351
 Electronic spatial extent (au):  <R**2>=          18264.8606
 Charge=              0.0000 electrons
 Dipole moment (field-independent basis, Debye):
    X=             -4.2445    Y=             -0.4079    Z=              0.0576  Tot=              4.2645
 Quadrupole moment (field-independent basis, Debye-Ang):
   XX=           -187.3923   YY=           -203.4751   ZZ=           -192.0193
   XY=              7.6864   XZ=             -8.0478   YZ=            -14.6242
 Traceless Quadrupole moment (field-independent basis, Debye-Ang):
   XX=              6.9033   YY=             -9.1795   ZZ=              2.2763
   XY=              7.6864   XZ=             -8.0478   YZ=            -14.6242
 Octapole moment (field-independent basis, Debye-Ang**2):
  XXX=           -384.3963  YYY=            -13.9529  ZZZ=              2.0172  XYY=           -129.3755
  XXY=            -66.6537  XXZ=             51.9935  XZZ=            -11.4800  YZZ=             -1.9986
  YYZ=             -1.4874  XYZ=             38.9431
 Hexadecapole moment (field-independent basis, Debye-Ang**3):
 XXXX=         -18235.5154 YYYY=          -4903.6734 ZZZZ=           -663.1595 XXXY=            727.6575
 XXXZ=           -342.7635 YYYX=           -226.7271 YYYZ=           -189.1222 ZZZX=            -24.3351
 ZZZY=            -56.6054 XXYY=          -4284.8421 XXZZ=          -3323.4410 YYZZ=           -830.2031
 XXYZ=           -315.0563 YYXZ=           -114.8696 ZZXY=             16.8978
 N-N= 3.322104661985D+03 E-N=-1.181991796922D+04  KE= 2.195635731753D+03
 Unable to Open any file for archive entry.
 1\1\GINC-CX1-106-3-2\FOpt\RB3LYP\6-311+G(d,p)\C22H10N2O6S2\NS5018\17-N
 ov-2020\0\\# opt=modredundant b3lyp/6-311+g(d,p)\\NDI_50.pdb\\0,1\C,-2
 .5308595255,-2.8913522489,-0.7176477612\C,-2.2563825927,-1.451315897,-
 0.4558313658\C,-3.3083296275,-0.5774265057,-0.0797153556\C,-4.63788035
 71,-1.0466463444,0.0456089781\C,-4.9478428729,-2.4806962701,-0.1992694
 309\C,-0.9734141805,-0.9839885363,-0.5681906995\C,-3.0027029938,0.7942
 326583,0.1556059107\C,-1.6535753751,1.2665941753,0.0460918003\C,-0.617
 6410283,0.3685521662,-0.2949825728\C,-1.4141442393,2.7237144495,0.2406
 69533\C,-3.8588988879,3.1033222425,0.6859277016\C,-4.087800429,1.65493
 30197,0.4826417379\C,-5.3811632582,1.1720388356,0.5976878668\C,-5.6623
 590858,-0.1812758212,0.3868749592\H,-6.6698589026,-0.5674375131,0.4753
 166713\H,-6.1673836966,1.8731811903,0.8488292709\H,-0.1997080886,-1.69
 21999735,-0.835076667\N,-2.5438436879,3.4998789881,0.5115384445\N,-3.8
 603067118,-3.2730596476,-0.5624445603\O,-1.683906322,-3.6980984073,-1.
 0429905828\O,-6.0588168858,-2.9610445358,-0.1008143262\O,-4.7271370107
 ,3.905729623,0.9723228908\O,-0.336220367,3.2838903227,0.1739107929\C,0
 .8074966727,0.6833900842,-0.4148432847\C,1.6500460016,1.3414858707,0.4
 5075181\S,1.7243375297,-0.0317680603,-1.7318536132\C,2.9998358828,1.29
 87254379,0.0568130567\H,1.3111313577,1.8471172111,1.3431236059\C,3.238
 509013,0.6049046742,-1.1228526117\O,4.0334019222,1.8695829595,0.746536
 6783\C,4.4890661545,0.4347595881,-1.8127965672\C,4.7318927935,-0.29007
 9691,-2.9682552358\S,5.9934003572,1.172768525,-1.2648016198\C,6.081630
 9057,-0.2599740811,-3.4071936862\O,3.719413721,-0.955733231,-3.5973073
 251\C,6.8719645483,0.4902116319,-2.5838642519\H,6.4399194897,-0.772477
 4815,-4.2914777693\H,7.9304235428,0.679609391,-2.6754183754\H,4.063522
 0061,-1.4598966096,-4.3413120156\H,3.6932073945,2.517158175,1.37240732
 02\H,-4.0638990718,-4.2517889914,-0.7337506862\H,-2.3561240947,4.48847
 86268,0.6370313353\\Version=ES64L-G16RevC.01\State=1-A\HF=-2202.083758
 7\RMSD=8.517e-09\RMSF=4.884e-04\Dipole=1.6231792,-0.0178581,-0.424151\
 Quadrupole=2.3742214,-12.9831648,10.6089434,-0.9199722,-6.8493767,5.78
 18787\PG=C01 [X(C22H10N2O6S2)]\\@
 The archive entry for this job was punched.


 IT WAS AN ACT OF DESPARATION. FOR SIX YEARS I HAD STRUGGLED WITH THE
 BLACKBODY THEORY. I KNEW THE PROBLEM WAS FUNDAMENTAL, AND I KNEW
 THE ANSWER. I HAD TO FIND A THEORETICAL EXPLANATION AT ANY COST,
 EXCEPT FOR THE INVIOLABLITY OF THE TWO LAWS OF THERMODYNAMICS.
   -- MAX PLANCK, 1931
 Job cpu time:       2 days  2 hours  2 minutes 45.1 seconds.
 Elapsed time:       0 days  6 hours 16 minutes 45.4 seconds.
 File lengths (MBytes):  RWF=    361 Int=      0 D2E=      0 Chk=     44 Scr=      1
 Normal termination of Gaussian 16 at Tue Nov 17 15:13:14 2020.
