 Entering Gaussian System, Link 0=g16
 Input=NDI_170.gjf
 Output=NDI_170.log
 Initial command:
 /apps/gaussian/g16-c01-avx/g16/l1.exe "/tmp/pbs.2575767[35].pbs/Gau-2191608.inp" -scrdir="/tmp/pbs.2575767[35].pbs/"
 Entering Link 1 = /apps/gaussian/g16-c01-avx/g16/l1.exe PID=   2191609.
  
 Copyright (c) 1988-2019, Gaussian, Inc.  All Rights Reserved.
  
 This is part of the Gaussian(R) 16 program.  It is based on
 the Gaussian(R) 09 system (copyright 2009, Gaussian, Inc.),
 the Gaussian(R) 03 system (copyright 2003, Gaussian, Inc.),
 the Gaussian(R) 98 system (copyright 1998, Gaussian, Inc.),
 the Gaussian(R) 94 system (copyright 1995, Gaussian, Inc.),
 the Gaussian 92(TM) system (copyright 1992, Gaussian, Inc.),
 the Gaussian 90(TM) system (copyright 1990, Gaussian, Inc.),
 the Gaussian 88(TM) system (copyright 1988, Gaussian, Inc.),
 the Gaussian 86(TM) system (copyright 1986, Carnegie Mellon
 University), and the Gaussian 82(TM) system (copyright 1983,
 Carnegie Mellon University). Gaussian is a federally registered
 trademark of Gaussian, Inc.
  
 This software contains proprietary and confidential information,
 including trade secrets, belonging to Gaussian, Inc.
  
 This software is provided under written license and may be
 used, copied, transmitted, or stored only in accord with that
 written license.
  
 The following legend is applicable only to US Government
 contracts under FAR:
  
                    RESTRICTED RIGHTS LEGEND
  
 Use, reproduction and disclosure by the US Government is
 subject to restrictions as set forth in subparagraphs (a)
 and (c) of the Commercial Computer Software - Restricted
 Rights clause in FAR 52.227-19.
  
 Gaussian, Inc.
 340 Quinnipiac St., Bldg. 40, Wallingford CT 06492
  
  
 ---------------------------------------------------------------
 Warning -- This program may not be used in any manner that
 competes with the business of Gaussian, Inc. or will provide
 assistance to any competitor of Gaussian, Inc.  The licensee
 of this program is prohibited from giving any competitor of
 Gaussian, Inc. access to this program.  By using this program,
 the user acknowledges that Gaussian, Inc. is engaged in the
 business of creating and licensing software in the field of
 computational chemistry and represents and warrants to the
 licensee that it is not a competitor of Gaussian, Inc. and that
 it will not use this program in any manner prohibited above.
 ---------------------------------------------------------------
  

 Cite this work as:
 Gaussian 16, Revision C.01,
 M. J. Frisch, G. W. Trucks, H. B. Schlegel, G. E. Scuseria, 
 M. A. Robb, J. R. Cheeseman, G. Scalmani, V. Barone, 
 G. A. Petersson, H. Nakatsuji, X. Li, M. Caricato, A. V. Marenich, 
 J. Bloino, B. G. Janesko, R. Gomperts, B. Mennucci, H. P. Hratchian, 
 J. V. Ortiz, A. F. Izmaylov, J. L. Sonnenberg, D. Williams-Young, 
 F. Ding, F. Lipparini, F. Egidi, J. Goings, B. Peng, A. Petrone, 
 T. Henderson, D. Ranasinghe, V. G. Zakrzewski, J. Gao, N. Rega, 
 G. Zheng, W. Liang, M. Hada, M. Ehara, K. Toyota, R. Fukuda, 
 J. Hasegawa, M. Ishida, T. Nakajima, Y. Honda, O. Kitao, H. Nakai, 
 T. Vreven, K. Throssell, J. A. Montgomery, Jr., J. E. Peralta, 
 F. Ogliaro, M. J. Bearpark, J. J. Heyd, E. N. Brothers, K. N. Kudin, 
 V. N. Staroverov, T. A. Keith, R. Kobayashi, J. Normand, 
 K. Raghavachari, A. P. Rendell, J. C. Burant, S. S. Iyengar, 
 J. Tomasi, M. Cossi, J. M. Millam, M. Klene, C. Adamo, R. Cammi, 
 J. W. Ochterski, R. L. Martin, K. Morokuma, O. Farkas, 
 J. B. Foresman, and D. J. Fox, Gaussian, Inc., Wallingford CT, 2019.
 
 ******************************************
 Gaussian 16:  ES64L-G16RevC.01  3-Jul-2019
                17-Nov-2020 
 ******************************************
 %mem=10GB
 %nprocshared=8
 Will use up to    8 processors via shared memory.
 -------------------------------------
 # opt=modredundant b3lyp/6-311+g(d,p)
 -------------------------------------
 1/18=120,19=15,26=3,38=1/1,3;
 2/9=110,12=2,17=6,18=5,40=1/2;
 3/5=4,6=6,7=111,11=2,25=1,30=1,71=1,74=-5/1,2,3;
 4//1;
 5/5=2,38=5/2;
 6/7=2,8=2,9=2,10=2,28=1/1;
 7//1,2,3,16;
 1/18=20,19=15,26=3/3(2);
 2/9=110/2;
 99//99;
 2/9=110/2;
 3/5=4,6=6,7=111,11=2,25=1,30=1,71=1,74=-5/1,2,3;
 4/5=5,16=3,69=1/1;
 5/5=2,38=5/2;
 7//1,2,3,16;
 1/18=20,19=15,26=3/3(-5);
 2/9=110/2;
 6/7=2,8=2,9=2,10=2,19=2,28=1/1;
 99/9=1/99;
 -----------
 NDI_170.pdb
 -----------
 Symbolic Z-matrix:
 Charge =  0 Multiplicity = 1
 C                    -2.56     -2.99     -0.41 
 C                    -2.26     -1.55     -0.22 
 C                    -3.3      -0.61     -0.08 
 C                    -4.65     -1.02     -0.12 
 C                    -4.99     -2.46     -0.3 
 C                    -0.95     -1.14     -0.22 
 C                    -2.96      0.76      0.1 
 C                    -1.6       1.19      0.12 
 C                    -0.56      0.23     -0.07 
 C                    -1.33      2.62      0.45 
 C                    -3.78      3.12      0.51 
 C                    -4.03      1.68      0.27 
 C                    -5.36      1.25      0.23 
 C                    -5.67     -0.1       0.04 
 H                    -6.7      -0.44      0.01 
 H                    -6.13      2.        0.36 
 H                    -0.19     -1.9      -0.37 
 N                    -2.43      3.48      0.61 
 N                    -3.92     -3.35     -0.44 
 O                    -1.69     -3.85     -0.53 
 O                    -6.15     -2.85     -0.34 
 O                    -4.68      3.94      0.63 
 O                    -0.21      3.1       0.6 
 C                     0.88      0.48     -0.18 
 C                     1.946    -0.391    -0.181 
 S                     1.454     2.143    -0.18 
 C                     3.201     0.257    -0.178 
 H                     1.837    -1.468    -0.184 
 C                     3.125     1.652    -0.199 
 O                     4.425    -0.349    -0.175 
 C                     4.216     2.588    -0.239 
 C                     4.143     3.979    -0.23 
 S                     5.905     2.095    -0.331 
 C                     5.404     4.629    -0.294 
 O                     2.927     4.578    -0.17 
 C                     6.445     3.731    -0.347 
 H                     5.549     5.697    -0.293 
 H                     7.503     3.952    -0.401 
 H                     2.842     5.623     0.102 
 H                     4.365    -1.32     -0.434 
 H                    -4.23     -4.36     -0.17 
 H                    -2.15      4.41      0.36 
 
 The following ModRedundant input section has been read:
 D       8       9      24      25 F                                           
 

 GradGradGradGradGradGradGradGradGradGradGradGradGradGradGradGradGradGrad
 Berny optimization.
 Initialization pass.
                           ----------------------------
                           !    Initial Parameters    !
                           ! (Angstroms and Degrees)  !
 --------------------------                            --------------------------
 ! Name  Definition              Value          Derivative Info.                !
 --------------------------------------------------------------------------------
 ! R1    R(1,2)                  1.4831         estimate D2E/DX2                !
 ! R2    R(1,19)                 1.4072         estimate D2E/DX2                !
 ! R3    R(1,20)                 1.2292         estimate D2E/DX2                !
 ! R4    R(2,3)                  1.4088         estimate D2E/DX2                !
 ! R5    R(2,6)                  1.3727         estimate D2E/DX2                !
 ! R6    R(3,4)                  1.4115         estimate D2E/DX2                !
 ! R7    R(3,7)                  1.423          estimate D2E/DX2                !
 ! R8    R(4,5)                  1.4905         estimate D2E/DX2                !
 ! R9    R(4,14)                 1.3829         estimate D2E/DX2                !
 ! R10   R(5,19)                 1.3988         estimate D2E/DX2                !
 ! R11   R(5,21)                 1.2245         estimate D2E/DX2                !
 ! R12   R(6,9)                  1.4323         estimate D2E/DX2                !
 ! R13   R(6,17)                 1.0852         estimate D2E/DX2                !
 ! R14   R(7,8)                  1.4265         estimate D2E/DX2                !
 ! R15   R(7,12)                 1.4213         estimate D2E/DX2                !
 ! R16   R(8,9)                  1.428          estimate D2E/DX2                !
 ! R17   R(8,10)                 1.4922         estimate D2E/DX2                !
 ! R18   R(9,24)                 1.4657         estimate D2E/DX2                !
 ! R19   R(10,18)                1.4054         estimate D2E/DX2                !
 ! R20   R(10,23)                1.2277         estimate D2E/DX2                !
 ! R21   R(11,12)                1.4811         estimate D2E/DX2                !
 ! R22   R(11,18)                1.4007         estimate D2E/DX2                !
 ! R23   R(11,22)                1.2234         estimate D2E/DX2                !
 ! R24   R(12,13)                1.3984         estimate D2E/DX2                !
 ! R25   R(13,14)                1.3981         estimate D2E/DX2                !
 ! R26   R(13,16)                1.0827         estimate D2E/DX2                !
 ! R27   R(14,15)                1.0851         estimate D2E/DX2                !
 ! R28   R(18,42)                1.0029         estimate D2E/DX2                !
 ! R29   R(19,41)                1.0905         estimate D2E/DX2                !
 ! R30   R(24,25)                1.3766         estimate D2E/DX2                !
 ! R31   R(24,26)                1.7593         estimate D2E/DX2                !
 ! R32   R(25,27)                1.4124         estimate D2E/DX2                !
 ! R33   R(25,28)                1.0825         estimate D2E/DX2                !
 ! R34   R(26,29)                1.7417         estimate D2E/DX2                !
 ! R35   R(27,29)                1.3972         estimate D2E/DX2                !
 ! R36   R(27,30)                1.3658         estimate D2E/DX2                !
 ! R37   R(29,31)                1.438          estimate D2E/DX2                !
 ! R38   R(30,40)                1.0067         estimate D2E/DX2                !
 ! R39   R(31,32)                1.3929         estimate D2E/DX2                !
 ! R40   R(31,33)                1.7619         estimate D2E/DX2                !
 ! R41   R(32,34)                1.4201         estimate D2E/DX2                !
 ! R42   R(32,35)                1.3569         estimate D2E/DX2                !
 ! R43   R(33,36)                1.7229         estimate D2E/DX2                !
 ! R44   R(34,36)                1.3758         estimate D2E/DX2                !
 ! R45   R(34,37)                1.0778         estimate D2E/DX2                !
 ! R46   R(35,39)                1.0832         estimate D2E/DX2                !
 ! R47   R(36,38)                1.0822         estimate D2E/DX2                !
 ! A1    A(2,1,19)             116.527          estimate D2E/DX2                !
 ! A2    A(2,1,20)             123.2737         estimate D2E/DX2                !
 ! A3    A(19,1,20)            120.1979         estimate D2E/DX2                !
 ! A4    A(1,2,3)              120.7455         estimate D2E/DX2                !
 ! A5    A(1,2,6)              118.8843         estimate D2E/DX2                !
 ! A6    A(3,2,6)              120.3454         estimate D2E/DX2                !
 ! A7    A(2,3,4)              120.6259         estimate D2E/DX2                !
 ! A8    A(2,3,7)              118.5916         estimate D2E/DX2                !
 ! A9    A(4,3,7)              120.7824         estimate D2E/DX2                !
 ! A10   A(3,4,5)              120.1483         estimate D2E/DX2                !
 ! A11   A(3,4,14)             120.5934         estimate D2E/DX2                !
 ! A12   A(5,4,14)             119.2388         estimate D2E/DX2                !
 ! A13   A(4,5,19)             116.8914         estimate D2E/DX2                !
 ! A14   A(4,5,21)             121.8545         estimate D2E/DX2                !
 ! A15   A(19,5,21)            121.2488         estimate D2E/DX2                !
 ! A16   A(2,6,9)              123.0626         estimate D2E/DX2                !
 ! A17   A(2,6,17)             117.3337         estimate D2E/DX2                !
 ! A18   A(9,6,17)             119.5802         estimate D2E/DX2                !
 ! A19   A(3,7,8)              121.3176         estimate D2E/DX2                !
 ! A20   A(3,7,12)             117.2859         estimate D2E/DX2                !
 ! A21   A(8,7,12)             121.3945         estimate D2E/DX2                !
 ! A22   A(7,8,9)              119.3284         estimate D2E/DX2                !
 ! A23   A(7,8,10)             117.6762         estimate D2E/DX2                !
 ! A24   A(9,8,10)             122.8113         estimate D2E/DX2                !
 ! A25   A(6,9,8)              117.2994         estimate D2E/DX2                !
 ! A26   A(6,9,24)             115.0121         estimate D2E/DX2                !
 ! A27   A(8,9,24)             127.6498         estimate D2E/DX2                !
 ! A28   A(8,10,18)            118.0319         estimate D2E/DX2                !
 ! A29   A(8,10,23)            124.524          estimate D2E/DX2                !
 ! A30   A(18,10,23)           117.4428         estimate D2E/DX2                !
 ! A31   A(12,11,18)           115.0947         estimate D2E/DX2                !
 ! A32   A(12,11,22)           122.9128         estimate D2E/DX2                !
 ! A33   A(18,11,22)           121.9866         estimate D2E/DX2                !
 ! A34   A(7,12,11)            121.4411         estimate D2E/DX2                !
 ! A35   A(7,12,13)            120.9006         estimate D2E/DX2                !
 ! A36   A(11,12,13)           117.6548         estimate D2E/DX2                !
 ! A37   A(12,13,14)           120.7772         estimate D2E/DX2                !
 ! A38   A(12,13,16)           117.3846         estimate D2E/DX2                !
 ! A39   A(14,13,16)           121.8361         estimate D2E/DX2                !
 ! A40   A(4,14,13)            119.6408         estimate D2E/DX2                !
 ! A41   A(4,14,15)            119.2412         estimate D2E/DX2                !
 ! A42   A(13,14,15)           121.1172         estimate D2E/DX2                !
 ! A43   A(10,18,11)           126.0815         estimate D2E/DX2                !
 ! A44   A(10,18,42)           108.6957         estimate D2E/DX2                !
 ! A45   A(11,18,42)           119.3146         estimate D2E/DX2                !
 ! A46   A(1,19,5)             125.0576         estimate D2E/DX2                !
 ! A47   A(1,19,41)            120.4267         estimate D2E/DX2                !
 ! A48   A(5,19,41)            110.3085         estimate D2E/DX2                !
 ! A49   A(9,24,25)            130.7639         estimate D2E/DX2                !
 ! A50   A(9,24,26)            118.8025         estimate D2E/DX2                !
 ! A51   A(25,24,26)           110.2087         estimate D2E/DX2                !
 ! A52   A(24,25,27)           113.4396         estimate D2E/DX2                !
 ! A53   A(24,25,28)           123.4723         estimate D2E/DX2                !
 ! A54   A(27,25,28)           123.0881         estimate D2E/DX2                !
 ! A55   A(24,26,29)            92.6677         estimate D2E/DX2                !
 ! A56   A(25,27,29)           114.1855         estimate D2E/DX2                !
 ! A57   A(25,27,30)           126.3513         estimate D2E/DX2                !
 ! A58   A(29,27,30)           119.4568         estimate D2E/DX2                !
 ! A59   A(26,29,27)           109.4796         estimate D2E/DX2                !
 ! A60   A(26,29,31)           123.0022         estimate D2E/DX2                !
 ! A61   A(27,29,31)           127.517          estimate D2E/DX2                !
 ! A62   A(27,30,40)           111.9606         estimate D2E/DX2                !
 ! A63   A(29,31,32)           127.5921         estimate D2E/DX2                !
 ! A64   A(29,31,33)           123.1348         estimate D2E/DX2                !
 ! A65   A(32,31,33)           109.2688         estimate D2E/DX2                !
 ! A66   A(31,32,34)           114.2203         estimate D2E/DX2                !
 ! A67   A(31,32,35)           119.2157         estimate D2E/DX2                !
 ! A68   A(34,32,35)           126.5633         estimate D2E/DX2                !
 ! A69   A(31,33,36)            92.0197         estimate D2E/DX2                !
 ! A70   A(32,34,36)           112.0151         estimate D2E/DX2                !
 ! A71   A(32,34,37)           124.9574         estimate D2E/DX2                !
 ! A72   A(36,34,37)           123.0252         estimate D2E/DX2                !
 ! A73   A(32,35,39)           120.4869         estimate D2E/DX2                !
 ! A74   A(33,36,34)           112.4746         estimate D2E/DX2                !
 ! A75   A(33,36,38)           120.0532         estimate D2E/DX2                !
 ! A76   A(34,36,38)           127.4709         estimate D2E/DX2                !
 ! D1    D(19,1,2,3)            -0.0402         estimate D2E/DX2                !
 ! D2    D(19,1,2,6)          -178.232          estimate D2E/DX2                !
 ! D3    D(20,1,2,3)          -179.6115         estimate D2E/DX2                !
 ! D4    D(20,1,2,6)             2.1967         estimate D2E/DX2                !
 ! D5    D(2,1,19,5)            -0.2714         estimate D2E/DX2                !
 ! D6    D(2,1,19,41)         -154.9401         estimate D2E/DX2                !
 ! D7    D(20,1,19,5)          179.3139         estimate D2E/DX2                !
 ! D8    D(20,1,19,41)          24.6452         estimate D2E/DX2                !
 ! D9    D(1,2,3,4)             -0.105          estimate D2E/DX2                !
 ! D10   D(1,2,3,7)           -179.9973         estimate D2E/DX2                !
 ! D11   D(6,2,3,4)            178.0603         estimate D2E/DX2                !
 ! D12   D(6,2,3,7)             -1.832          estimate D2E/DX2                !
 ! D13   D(1,2,6,9)            178.7655         estimate D2E/DX2                !
 ! D14   D(1,2,6,17)             0.5382         estimate D2E/DX2                !
 ! D15   D(3,2,6,9)              0.5662         estimate D2E/DX2                !
 ! D16   D(3,2,6,17)          -177.661          estimate D2E/DX2                !
 ! D17   D(2,3,4,5)              0.5238         estimate D2E/DX2                !
 ! D18   D(2,3,4,14)           178.9053         estimate D2E/DX2                !
 ! D19   D(7,3,4,5)           -179.5863         estimate D2E/DX2                !
 ! D20   D(7,3,4,14)            -1.2048         estimate D2E/DX2                !
 ! D21   D(2,3,7,8)              0.9439         estimate D2E/DX2                !
 ! D22   D(2,3,7,12)          -178.5478         estimate D2E/DX2                !
 ! D23   D(4,3,7,8)           -178.9482         estimate D2E/DX2                !
 ! D24   D(4,3,7,12)             1.56           estimate D2E/DX2                !
 ! D25   D(3,4,5,19)            -0.7863         estimate D2E/DX2                !
 ! D26   D(3,4,5,21)          -179.9543         estimate D2E/DX2                !
 ! D27   D(14,4,5,19)         -179.1897         estimate D2E/DX2                !
 ! D28   D(14,4,5,21)            1.6423         estimate D2E/DX2                !
 ! D29   D(3,4,14,13)            0.6262         estimate D2E/DX2                !
 ! D30   D(3,4,14,15)         -179.7176         estimate D2E/DX2                !
 ! D31   D(5,4,14,13)          179.0223         estimate D2E/DX2                !
 ! D32   D(5,4,14,15)           -1.3214         estimate D2E/DX2                !
 ! D33   D(4,5,19,1)             0.6724         estimate D2E/DX2                !
 ! D34   D(4,5,19,41)          157.5074         estimate D2E/DX2                !
 ! D35   D(21,5,19,1)          179.8457         estimate D2E/DX2                !
 ! D36   D(21,5,19,41)         -23.3193         estimate D2E/DX2                !
 ! D37   D(2,6,9,8)              1.5899         estimate D2E/DX2                !
 ! D38   D(2,6,9,24)          -176.322          estimate D2E/DX2                !
 ! D39   D(17,6,9,8)           179.779          estimate D2E/DX2                !
 ! D40   D(17,6,9,24)            1.8672         estimate D2E/DX2                !
 ! D41   D(3,7,8,9)              1.2142         estimate D2E/DX2                !
 ! D42   D(3,7,8,10)          -173.9942         estimate D2E/DX2                !
 ! D43   D(12,7,8,9)          -179.3149         estimate D2E/DX2                !
 ! D44   D(12,7,8,10)            5.4766         estimate D2E/DX2                !
 ! D45   D(3,7,12,11)          177.9024         estimate D2E/DX2                !
 ! D46   D(3,7,12,13)           -1.4077         estimate D2E/DX2                !
 ! D47   D(8,7,12,11)           -1.5889         estimate D2E/DX2                !
 ! D48   D(8,7,12,13)          179.1009         estimate D2E/DX2                !
 ! D49   D(7,8,9,6)             -2.414          estimate D2E/DX2                !
 ! D50   D(7,8,9,24)           175.1958         estimate D2E/DX2                !
 ! D51   D(10,8,9,6)           172.5365         estimate D2E/DX2                !
 ! D52   D(10,8,9,24)           -9.8537         estimate D2E/DX2                !
 ! D53   D(7,8,10,18)           -5.2348         estimate D2E/DX2                !
 ! D54   D(7,8,10,23)          174.3306         estimate D2E/DX2                !
 ! D55   D(9,8,10,18)          179.736          estimate D2E/DX2                !
 ! D56   D(9,8,10,23)           -0.6986         estimate D2E/DX2                !
 ! D57   D(6,9,24,25)          -12.3501         estimate D2E/DX2                !
 ! D58   D(6,9,24,26)          173.6864         estimate D2E/DX2                !
 ! D59   D(8,9,24,25)          169.9936         Frozen                          !
 ! D60   D(8,9,24,26)           -3.9699         estimate D2E/DX2                !
 ! D61   D(8,10,18,11)           1.0927         estimate D2E/DX2                !
 ! D62   D(8,10,18,42)        -151.3012         estimate D2E/DX2                !
 ! D63   D(23,10,18,11)       -178.5038         estimate D2E/DX2                !
 ! D64   D(23,10,18,42)         29.1023         estimate D2E/DX2                !
 ! D65   D(18,11,12,7)          -2.5592         estimate D2E/DX2                !
 ! D66   D(18,11,12,13)        176.7725         estimate D2E/DX2                !
 ! D67   D(22,11,12,7)         178.3061         estimate D2E/DX2                !
 ! D68   D(22,11,12,13)         -2.3622         estimate D2E/DX2                !
 ! D69   D(12,11,18,10)          2.7627         estimate D2E/DX2                !
 ! D70   D(12,11,18,42)        152.5373         estimate D2E/DX2                !
 ! D71   D(22,11,18,10)       -178.0937         estimate D2E/DX2                !
 ! D72   D(22,11,18,42)        -28.3191         estimate D2E/DX2                !
 ! D73   D(7,12,13,14)           0.8911         estimate D2E/DX2                !
 ! D74   D(7,12,13,16)        -179.6245         estimate D2E/DX2                !
 ! D75   D(11,12,13,14)       -178.4444         estimate D2E/DX2                !
 ! D76   D(11,12,13,16)          1.04           estimate D2E/DX2                !
 ! D77   D(12,13,14,4)          -0.4717         estimate D2E/DX2                !
 ! D78   D(12,13,14,15)        179.8786         estimate D2E/DX2                !
 ! D79   D(16,13,14,4)        -179.9328         estimate D2E/DX2                !
 ! D80   D(16,13,14,15)          0.4175         estimate D2E/DX2                !
 ! D81   D(9,24,25,27)        -174.1986         estimate D2E/DX2                !
 ! D82   D(9,24,25,28)           5.8135         estimate D2E/DX2                !
 ! D83   D(26,24,25,27)          0.166          estimate D2E/DX2                !
 ! D84   D(26,24,25,28)       -179.8218         estimate D2E/DX2                !
 ! D85   D(9,24,26,29)         175.7125         estimate D2E/DX2                !
 ! D86   D(25,24,26,29)          0.5814         estimate D2E/DX2                !
 ! D87   D(24,25,27,29)         -1.0968         estimate D2E/DX2                !
 ! D88   D(24,25,27,30)        179.8352         estimate D2E/DX2                !
 ! D89   D(28,25,27,29)        178.8911         estimate D2E/DX2                !
 ! D90   D(28,25,27,30)         -0.1769         estimate D2E/DX2                !
 ! D91   D(24,26,29,27)         -1.1638         estimate D2E/DX2                !
 ! D92   D(24,26,29,31)        178.4762         estimate D2E/DX2                !
 ! D93   D(25,27,29,26)          1.4879         estimate D2E/DX2                !
 ! D94   D(25,27,29,31)       -178.1314         estimate D2E/DX2                !
 ! D95   D(30,27,29,26)       -179.3741         estimate D2E/DX2                !
 ! D96   D(30,27,29,31)          1.0065         estimate D2E/DX2                !
 ! D97   D(25,27,30,40)         16.0991         estimate D2E/DX2                !
 ! D98   D(29,27,30,40)       -162.9245         estimate D2E/DX2                !
 ! D99   D(26,29,31,32)          1.985          estimate D2E/DX2                !
 ! D100  D(26,29,31,33)       -177.1758         estimate D2E/DX2                !
 ! D101  D(27,29,31,32)       -178.4429         estimate D2E/DX2                !
 ! D102  D(27,29,31,33)          2.3963         estimate D2E/DX2                !
 ! D103  D(29,31,32,34)       -179.2976         estimate D2E/DX2                !
 ! D104  D(29,31,32,35)          0.3999         estimate D2E/DX2                !
 ! D105  D(33,31,32,34)         -0.0421         estimate D2E/DX2                !
 ! D106  D(33,31,32,35)        179.6555         estimate D2E/DX2                !
 ! D107  D(29,31,33,36)        179.5227         estimate D2E/DX2                !
 ! D108  D(32,31,33,36)          0.2271         estimate D2E/DX2                !
 ! D109  D(31,32,34,36)         -0.2311         estimate D2E/DX2                !
 ! D110  D(31,32,34,37)       -179.697          estimate D2E/DX2                !
 ! D111  D(35,32,34,36)       -179.9025         estimate D2E/DX2                !
 ! D112  D(35,32,34,37)          0.6316         estimate D2E/DX2                !
 ! D113  D(31,32,35,39)        163.6018         estimate D2E/DX2                !
 ! D114  D(34,32,35,39)        -16.7416         estimate D2E/DX2                !
 ! D115  D(31,33,36,34)         -0.3666         estimate D2E/DX2                !
 ! D116  D(31,33,36,38)       -179.9797         estimate D2E/DX2                !
 ! D117  D(32,34,36,33)          0.4044         estimate D2E/DX2                !
 ! D118  D(32,34,36,38)        179.9823         estimate D2E/DX2                !
 ! D119  D(37,34,36,33)        179.8823         estimate D2E/DX2                !
 ! D120  D(37,34,36,38)         -0.5398         estimate D2E/DX2                !
 --------------------------------------------------------------------------------
 Trust Radius=3.00D-01 FncErr=1.00D-07 GrdErr=1.00D-06 EigMax=2.50D+02 EigMin=1.00D-04
 Number of steps in this run=    252 maximum allowed number of steps=    252.
 GradGradGradGradGradGradGradGradGradGradGradGradGradGradGradGradGradGrad

                          Input orientation:                          
 ---------------------------------------------------------------------
 Center     Atomic      Atomic             Coordinates (Angstroms)
 Number     Number       Type             X           Y           Z
 ---------------------------------------------------------------------
      1          6           0       -2.560000   -2.990000   -0.410000
      2          6           0       -2.260000   -1.550000   -0.220000
      3          6           0       -3.300000   -0.610000   -0.080000
      4          6           0       -4.650000   -1.020000   -0.120000
      5          6           0       -4.990000   -2.460000   -0.300000
      6          6           0       -0.950000   -1.140000   -0.220000
      7          6           0       -2.960000    0.760000    0.100000
      8          6           0       -1.600000    1.190000    0.120000
      9          6           0       -0.560000    0.230000   -0.070000
     10          6           0       -1.330000    2.620000    0.450000
     11          6           0       -3.780000    3.120000    0.510000
     12          6           0       -4.030000    1.680000    0.270000
     13          6           0       -5.360000    1.250000    0.230000
     14          6           0       -5.670000   -0.100000    0.040000
     15          1           0       -6.700000   -0.440000    0.010000
     16          1           0       -6.130000    2.000000    0.360000
     17          1           0       -0.190000   -1.900000   -0.370000
     18          7           0       -2.430000    3.480000    0.610000
     19          7           0       -3.920000   -3.350000   -0.440000
     20          8           0       -1.690000   -3.850000   -0.530000
     21          8           0       -6.150000   -2.850000   -0.340000
     22          8           0       -4.680000    3.940000    0.630000
     23          8           0       -0.210000    3.100000    0.600000
     24          6           0        0.880000    0.480000   -0.180000
     25          6           0        1.946000   -0.391000   -0.181000
     26         16           0        1.454000    2.143000   -0.180000
     27          6           0        3.201000    0.257000   -0.178000
     28          1           0        1.837000   -1.468000   -0.184000
     29          6           0        3.125000    1.652000   -0.199000
     30          8           0        4.425000   -0.349000   -0.175000
     31          6           0        4.216000    2.588000   -0.239000
     32          6           0        4.143000    3.979000   -0.230000
     33         16           0        5.905000    2.095000   -0.331000
     34          6           0        5.404000    4.629000   -0.294000
     35          8           0        2.927000    4.578000   -0.170000
     36          6           0        6.445000    3.731000   -0.347000
     37          1           0        5.549000    5.697000   -0.293000
     38          1           0        7.503000    3.952000   -0.401000
     39          1           0        2.842000    5.623000    0.102000
     40          1           0        4.365000   -1.320000   -0.434000
     41          1           0       -4.230000   -4.360000   -0.170000
     42          1           0       -2.150000    4.410000    0.360000
 ---------------------------------------------------------------------
                    Distance matrix (angstroms):
                    1          2          3          4          5
     1  C    0.000000
     2  C    1.483139   0.000000
     3  C    2.514140   1.408829   0.000000
     4  C    2.886711   2.450102   1.411453   0.000000
     5  C    2.489558   2.878784   2.515353   1.490503   0.000000
     6  C    2.459817   1.372662   2.413089   3.703296   4.250929
     7  C    3.805601   2.434851   1.422990   2.464325   3.827440
     8  C    4.321447   2.838803   2.483948   3.774149   4.999100
     9  C    3.805785   2.465948   2.865886   4.277043   5.187861
    10  C    5.807289   4.324662   3.820301   4.959526   6.305910
    11  C    6.298166   4.965098   3.806757   4.277078   5.766854
    12  C    4.942894   3.715629   2.428889   2.797588   4.287902
    13  C    5.121250   4.201488   2.792723   2.404059   3.765886
    14  C    4.269274   3.714593   2.427221   1.382896   2.479435
    15  H    4.880420   4.582423   3.405437   2.134432   2.664695
    16  H    6.183680   5.283540   3.874868   3.397234   4.650462
    17  H    2.608946   2.104733   3.379393   4.552856   4.833063
    18  N    6.551198   5.100853   4.238054   5.070631   6.531868
    19  N    1.407160   2.458455   2.832243   2.462560   1.398785
    20  O    1.229187   2.389770   3.645847   4.115653   3.588175
    21  O    3.593411   4.103230   3.634240   2.376405   1.224459
    22  O    7.321264   6.059620   4.807390   5.016473   6.474643
    23  O    6.605354   5.147563   4.875920   6.099705   7.387286
    24  C    4.891564   3.739265   4.320937   5.730140   6.566194
    25  C    5.206849   4.362939   5.251541   6.626204   7.238993
    26  S    6.520183   5.237714   5.494500   6.875099   7.920047
    27  C    6.617096   5.752350   6.559291   7.954388   8.630727
    28  H    4.658451   4.097979   5.209198   6.502766   6.899670
    29  C    7.342473   6.265099   6.812593   8.221706   9.097910
    30  O    7.471300   6.792176   7.729992   9.099939   9.649568
    31  C    8.778240   7.685179   8.169623   9.572762  10.499355
    32  C    9.671069   8.459808   8.745266  10.115283  11.174852
    33  S    9.875206   8.942347   9.597502  11.007078  11.808895
    34  C   11.022156   9.844918  10.161325  11.533620  12.581303
    35  O    9.350903   8.028689   8.105490   9.420777  10.593830
    36  C   11.236807  10.182442  10.671485  12.071560  13.003458
    37  H   11.884172  10.653864  10.868690  12.213420  13.326936
    38  H   12.225196  11.208075  11.731142  13.133741  14.042756
    39  H   10.179760   8.808293   8.752575  10.015428  11.262181
    40  H    7.123560   6.632445   7.705948   9.025454   9.425157
    41  H    2.173338   3.432128   3.864647   3.366675   2.050488
    42  H    7.451242   5.989165   5.168801   5.997108   7.463116
                    6          7          8          9         10
     6  C    0.000000
     7  C    2.784331   0.000000
     8  C    2.442744   1.426499   0.000000
     9  C    1.432306   2.463696   1.428041   0.000000
    10  C    3.838085   2.497799   1.492213   2.564254   0.000000
    11  C    5.166178   2.531818   2.937584   4.365421   2.501220
    12  C    4.204628   1.421337   2.483445   3.776109   2.864612
    13  C    5.036139   2.452957   3.762087   4.916340   4.262183
    14  C    4.840207   2.843818   4.270293   5.121826   5.138297
    15  H    5.797016   3.928829   5.355278   6.176965   6.196297
    16  H    6.085097   3.413810   4.608102   5.860264   4.840713
    17  H    1.085219   3.869031   3.431661   2.182613   4.733117
    18  N    4.921758   2.817694   2.484572   3.810748   1.405418
    19  N    3.708558   4.255032   5.129093   4.923708   6.568188
    20  O    2.826270   4.823059   5.082539   4.258509   6.553694
    21  O    5.475263   4.837541   6.102106   6.388067   7.333308
    22  O    6.359387   3.653998   4.160409   5.588247   3.605177
    23  O    4.381507   3.645285   2.410519   2.967878   1.227721
    24  C    2.444361   3.860363   2.597018   1.465674   3.140159
    25  C    2.991544   5.047039   3.894134   2.584182   4.494047
    26  S    4.069263   4.634057   3.213273   2.779904   2.893974
    27  C    4.379974   6.187747   4.899887   3.762647   5.148603
    28  H    2.806466   5.296777   4.355496   2.939695   5.209951
    29  C    4.939770   6.157296   4.758238   3.951955   4.604916
    30  O    5.433077   7.472866   6.225445   5.019611   6.505814
    31  C    6.370706   7.412927   5.992424   5.329062   5.588726
    32  C    7.221005   7.805349   6.393987   6.016545   5.680054
    33  S    7.580803   8.975311   7.572810   6.733689   7.295945
    34  C    8.582549   9.223930   7.813714   7.414221   7.066567
    35  O    6.908629   7.021880   5.661835   5.574430   4.726543
    36  C    8.856003   9.873230   8.449662   7.836055   7.894312
    37  H    9.433287   9.845380   8.461195   8.201079   7.572359
    38  H    9.869875  10.950536   9.527051   8.886777   8.973311
    39  H    7.760227   7.570467   6.275602   6.378686   5.152155
    40  H    5.322351   7.633294   6.495248   5.175966   6.981266
    41  H    4.596662   5.282064   6.148455   5.877670   7.583851
    42  H    5.707793   3.747826   3.275439   4.492816   1.970939
                   11         12         13         14         15
    11  C    0.000000
    12  C    1.481114   0.000000
    13  C    2.464082   1.398356   0.000000
    14  C    3.763164   2.431234   1.398106   0.000000
    15  H    4.631414   3.419196   2.167971   1.085081   0.000000
    16  H    2.607566   2.126147   1.082728   2.173476   2.530020
    17  H    6.234012   5.288818   6.083700   5.782603   6.682522
    18  N    1.400750   2.432201   3.701648   4.861985   5.827461
    19  N    6.540872   5.081053   4.866467   3.722284   4.049568
    20  O    7.350551   6.057764   6.329020   5.497981   6.084390
    21  O    6.479221   5.038591   4.214143   2.817321   2.496618
    22  O    1.223438   2.379012   2.803302   4.201167   4.863044
    23  O    3.571190   4.088728   5.484697   6.353361   7.416185
    24  C    5.400120   5.074505   6.300683   6.579308   7.637991
    25  C    6.752161   6.340743   7.499296   7.624761   8.648248
    26  S    5.368928   5.521877   6.884486   7.472003   8.555449
    27  C    7.576574   7.383292   8.628049   8.880857   9.927283
    28  H    7.285744   6.673658   7.704267   7.633914   8.600860
    29  C    7.094838   7.170409   8.505344   8.970989  10.047426
    30  O    8.934496   8.706428   9.923057  10.100359  11.126910
    31  C    8.048605   8.311442   9.680392  10.248716  11.330924
    32  C    8.003712   8.504900   9.897780  10.630433  11.711354
    33  S    9.775333   9.961810  11.310569  11.787124  12.861902
    34  C    9.341807   9.900255  11.294065  12.046098  13.126081
    35  O    6.897247   7.549295   8.939237   9.789596  10.857801
    36  C   10.279027  10.691722  12.076685  12.712181  13.795496
    37  H    9.711641  10.402428  11.792185  12.632579  13.703743
    38  H   11.350253  11.773798  13.158865  13.789167  14.872249
    39  H    7.091005   7.924636   9.295823  10.257228  11.305671
    40  H    9.324471   8.942686  10.080745  10.119995  11.108815
    41  H    7.524314   6.059307   5.736637   4.501700   4.636777
    42  H    2.084107   3.315931   4.506285   5.730000   6.659392
                   16         17         18         19         20
    16  H    0.000000
    17  H    7.143284   0.000000
    18  N    3.992856   5.909518   0.000000
    19  N    5.843509   4.002537   7.069052   0.000000
    20  O    7.397851   2.465380   7.454938   2.287138   0.000000
    21  O    4.900296   6.035313   7.403364   2.287553   4.574680
    22  O    2.437006   7.434090   2.296628   7.407199   8.424358
    23  O    6.026110   5.093260   2.252310   7.513202   7.195123
    24  C    7.193198   2.616372   4.536541   6.146259   5.047405
    25  C    8.439866   2.622079   5.895736   6.575159   5.030604
    26  S    7.604545   4.368602   4.182956   7.688987   6.776672
    27  C    9.507631   4.023480   6.535812   7.986722   6.396345
    28  H    8.706093   2.080853   6.581826   6.062220   4.270055
    29  C    9.278395   4.861602   5.903735   8.643501   7.318865
    30  O   10.826451   4.872561   7.891039   8.872162   7.055229
    31  C   10.379993   6.290639   6.759126  10.074460   8.741474
    32  C   10.478505   7.304596   6.645219  10.898179   9.767657
    33  S   12.055195   7.287700   8.501525  11.233456   9.647106
    34  C   11.847891   8.598049   7.969252  12.272845  11.057756
    35  O    9.431661   7.191674   5.523717  10.478907   9.616521
    36  C   12.713254   8.702409   8.929976  12.553184  11.121298
    37  H   12.267569   9.521369   8.330362  13.097014  11.983509
    38  H   13.793046   9.665874   9.995469  13.557494  12.058155
    39  H    9.679332   8.124736   5.713536  11.248695  10.520275
    40  H   11.036207   4.592224   8.384626   8.530074   6.563013
    41  H    6.658866   4.734258   8.081708   1.090459   2.615588
    42  H    4.652795   6.647601   1.002896   7.999406   8.320535
                   21         22         23         24         25
    21  O    0.000000
    22  O    7.014692   0.000000
    23  O    8.459888   4.548340   0.000000
    24  C    7.780450   6.598583   2.942941   0.000000
    25  C    8.462693   7.957334   4.176766   1.376589   0.000000
    26  S    9.098157   6.442924   2.071991   1.759274   2.581322
    27  C    9.854993   8.736562   4.508088   2.331689   1.412423
    28  H    8.107184   8.507664   5.066704   2.170385   1.082506
    29  C   10.310844   8.175586   3.722543   2.532582   2.358859
    30  O   10.867974  10.096760   5.829190   3.640644   2.479363
    31  C   11.706238   9.040016   4.533822   3.946649   3.745758
    32  C   12.352862   8.864900   4.517759   4.784629   4.891432
    33  S   13.029817  10.787482   6.266579   5.280308   4.677219
    34  C   13.763447  10.149658   5.886771   6.139525   6.096797
    35  O   11.730133   7.675513   3.552204   4.580820   5.064923
    36  C   14.210687  11.169773   6.751592   6.447179   6.104051
    37  H   14.488617  10.419761   6.380277   7.002101   7.075161
    38  H   15.253699  12.226553   7.824211   7.481160   7.056224
    39  H   12.362975   7.726044   3.991020   5.511753   6.086962
    40  H   10.626145  10.517211   6.444857   3.930616   2.603577
    41  H    2.448551   8.350599   8.509107   7.038309   7.341393
    42  H    8.318509   2.587412   2.353147   4.991733   6.333995
                   26         27         28         29         30
    26  S    0.000000
    27  C    2.570799   0.000000
    28  H    3.631257   2.199126   0.000000
    29  C    1.741747   1.397227   3.375436   0.000000
    30  O    3.877748   1.365804   2.819572   2.386331   0.000000
    31  C    2.798241   2.543129   4.702531   1.438046   2.945122
    32  C    3.256396   3.839707   5.915197   2.540121   4.337526
    33  S    4.453819   3.273113   5.409732   2.818168   2.861446
    34  C    4.668586   4.897045   7.064630   3.750386   5.074750
    35  O    2.845884   4.329686   6.143485   2.932835   5.149695
    36  C    5.240202   4.756130   6.949089   3.920018   4.555917
    37  H    5.423349   5.926207   8.070195   4.716634   6.150725
    38  H    6.317573   5.675382   7.843918   4.949514   5.293747
    39  H    3.757189   5.385280   7.167573   3.992434   6.184448
    40  H    4.531093   1.976705   2.544639   3.228871   1.006738
    41  H    8.636953   8.748515   6.721038   9.499527   9.539244
    42  H    4.291818   6.794855   7.123411   5.978685   8.134183
                   31         32         33         34         35
    31  C    0.000000
    32  C    1.392943   0.000000
    33  S    1.761884   2.581531   0.000000
    34  C    2.362213   1.420112   2.583317   0.000000
    35  O    2.372000   1.356856   3.880682   2.480626   0.000000
    36  C    2.507300   2.318275   1.722891   1.375825   3.622853
    37  H    3.383147   2.220885   3.619749   1.077799   2.853449
    38  H    3.562458   3.364457   2.450909   2.208071   4.624393
    39  H    3.348937   2.122631   4.692147   2.776454   1.083159
    40  H    3.915698   5.307570   3.747590   6.040672   6.076508
    41  H   10.936836  11.817345  12.017120  13.176929  11.450349
    42  H    6.648642   6.335275   8.409502   7.585420   5.107353
                   36         37         38         39         40
    36  C    0.000000
    37  H    2.161224   0.000000
    38  H    1.082183   2.621985   0.000000
    39  H    4.094249   2.736668   4.976964   0.000000
    40  H    5.463201   7.117586   6.135317   7.128259   0.000000
    41  H   13.395941  14.028087  14.380751  12.237134   9.120599
    42  H    8.650718   7.833095   9.693776   5.143734   8.712552
                   41         42
    41  H    0.000000
    42  H    9.028854   0.000000
 Stoichiometry    C22H10N2O6S2
 Framework group  C1[X(C22H10N2O6S2)]
 Deg. of freedom   120
 Full point group                 C1      NOp   1
 Largest Abelian subgroup         C1      NOp   1
 Largest concise Abelian subgroup C1      NOp   1
                         Standard orientation:                         
 ---------------------------------------------------------------------
 Center     Atomic      Atomic             Coordinates (Angstroms)
 Number     Number       Type             X           Y           Z
 ---------------------------------------------------------------------
      1          6           0       -3.629590   -2.811003   -0.044955
      2          6           0       -2.815022   -1.572489    0.002597
      3          6           0       -3.429058   -0.304921   -0.029513
      4          6           0       -4.833367   -0.188065   -0.109899
      5          6           0       -5.685188   -1.410516   -0.150090
      6          6           0       -1.447080   -1.679630    0.040756
      7          6           0       -2.603481    0.853104    0.018458
      8          6           0       -1.182051    0.748418    0.077426
      9          6           0       -0.574627   -0.543907    0.062171
     10          6           0       -0.401519    2.006602    0.263016
     11          6           0       -2.486016    3.380525    0.110350
     12          6           0       -3.253354    2.117169    0.016407
     13          6           0       -4.646623    2.208220   -0.060478
     14          6           0       -5.436718    1.056238   -0.118672
     15          1           0       -6.518354    1.120440   -0.176468
     16          1           0       -5.081453    3.199789   -0.064129
     17          1           0       -1.024913   -2.679244    0.025045
     18          7           0       -1.101516    3.225270    0.255798
     19          7           0       -5.024599   -2.643160   -0.121620
     20          8           0       -3.143487   -3.939528   -0.012768
     21          8           0       -6.905889   -1.345523   -0.220555
     22          8           0       -3.014922    4.483330    0.080692
     23          8           0        0.813898    2.053205    0.430013
     24          6           0        0.855775   -0.860357    0.017332
     25          6           0        1.517316   -2.056383    0.181287
     26         16           0        2.011283    0.457937   -0.130821
     27          6           0        2.923454   -1.923753    0.192453
     28          1           0        1.012563   -3.007695    0.291053
     29          6           0        3.376378   -0.614389    0.011715
     30          8           0        3.830723   -2.933808    0.341019
     31          6           0        4.739240   -0.161496   -0.062258
     32          6           0        5.192914    1.146887   -0.212607
     33         16           0        6.121563   -1.251590    0.009254
     34          6           0        6.606550    1.270631   -0.267727
     35          8           0        4.289318    2.155540   -0.297404
     36          6           0        7.235717    0.052396   -0.153940
     37          1           0        7.141333    2.200091   -0.376175
     38          1           0        8.300181   -0.142352   -0.164434
     39          1           0        4.597491    3.183309   -0.149233
     40          1           0        3.415664   -3.838191    0.188248
     41          1           0       -5.695377   -3.423801    0.238598
     42          1           0       -0.488892    3.945916   -0.077611
 ---------------------------------------------------------------------
 Rotational constants (GHZ):           0.2611332           0.0664749           0.0531375
 Standard basis: 6-311+G(d,p) (5D, 7F)
 There are   812 symmetry adapted cartesian basis functions of A   symmetry.
 There are   780 symmetry adapted basis functions of A   symmetry.
   780 basis functions,  1260 primitive gaussians,   812 cartesian basis functions
   118 alpha electrons      118 beta electrons
       nuclear repulsion energy      3353.1657455018 Hartrees.
 NAtoms=   42 NActive=   42 NUniq=   42 SFac= 1.00D+00 NAtFMM=   60 NAOKFM=F Big=F
 Integral buffers will be    131072 words long.
 Raffenetti 2 integral format.
 Two-electron integral symmetry is turned on.
 One-electron integrals computed using PRISM.
 NBasis=   780 RedAO= T EigKep=  1.55D-06  NBF=   780
 NBsUse=   768 1.00D-06 EigRej=  6.50D-07 NBFU=   768
 ExpMin= 4.05D-02 ExpMax= 9.34D+04 ExpMxC= 3.17D+03 IAcc=3 IRadAn=         5 AccDes= 0.00D+00
 Harris functional with IExCor=  402 and IRadAn=       5 diagonalized for initial guess.
 HarFok:  IExCor=  402 AccDes= 0.00D+00 IRadAn=         5 IDoV= 1 UseB2=F ITyADJ=14
 ICtDFT=  3500011 ScaDFX=  1.000000  1.000000  1.000000  1.000000
 FoFCou: FMM=F IPFlag=           0 FMFlag=      100000 FMFlg1=           0
         NFxFlg=           0 DoJE=T BraDBF=F KetDBF=T FulRan=T
         wScrn=  0.000000 ICntrl=       500 IOpCl=  0 I1Cent=   200000004 NGrid=           0
         NMat0=    1 NMatS0=      1 NMatT0=    0 NMatD0=    1 NMtDS0=    0 NMtDT0=    0
 Petite list used in FoFCou.
 Requested convergence on RMS density matrix=1.00D-08 within 128 cycles.
 Requested convergence on MAX density matrix=1.00D-06.
 Requested convergence on             energy=1.00D-06.
 No special actions if energy rises.
 SCF Done:  E(RB3LYP) =  -2202.00704420     A.U. after   18 cycles
            NFock= 18  Conv=0.55D-08     -V/T= 2.0031

 **********************************************************************

            Population analysis using the SCF Density.

 **********************************************************************

 Orbital symmetries:
       Occupied  (A) (A) (A) (A) (A) (A) (A) (A) (A) (A) (A) (A)
                 (A) (A) (A) (A) (A) (A) (A) (A) (A) (A) (A) (A)
                 (A) (A) (A) (A) (A) (A) (A) (A) (A) (A) (A) (A)
                 (A) (A) (A) (A) (A) (A) (A) (A) (A) (A) (A) (A)
                 (A) (A) (A) (A) (A) (A) (A) (A) (A) (A) (A) (A)
                 (A) (A) (A) (A) (A) (A) (A) (A) (A) (A) (A) (A)
                 (A) (A) (A) (A) (A) (A) (A) (A) (A) (A) (A) (A)
                 (A) (A) (A) (A) (A) (A) (A) (A) (A) (A) (A) (A)
                 (A) (A) (A) (A) (A) (A) (A) (A) (A) (A) (A) (A)
                 (A) (A) (A) (A) (A) (A) (A) (A) (A) (A)
       Virtual   (A) (A) (A) (A) (A) (A) (A) (A) (A) (A) (A) (A)
                 (A) (A) (A) (A) (A) (A) (A) (A) (A) (A) (A) (A)
                 (A) (A) (A) (A) (A) (A) (A) (A) (A) (A) (A) (A)
                 (A) (A) (A) (A) (A) (A) (A) (A) (A) (A) (A) (A)
                 (A) (A) (A) (A) (A) (A) (A) (A) (A) (A) (A) (A)
                 (A) (A) (A) (A) (A) (A) (A) (A) (A) (A) (A) (A)
                 (A) (A) (A) (A) (A) (A) (A) (A) (A) (A) (A) (A)
                 (A) (A) (A) (A) (A) (A) (A) (A) (A) (A) (A) (A)
                 (A) (A) (A) (A) (A) (A) (A) (A) (A) (A) (A) (A)
                 (A) (A) (A) (A) (A) (A) (A) (A) (A) (A) (A) (A)
                 (A) (A) (A) (A) (A) (A) (A) (A) (A) (A) (A) (A)
                 (A) (A) (A) (A) (A) (A) (A) (A) (A) (A) (A) (A)
                 (A) (A) (A) (A) (A) (A) (A) (A) (A) (A) (A) (A)
                 (A) (A) (A) (A) (A) (A) (A) (A) (A) (A) (A) (A)
                 (A) (A) (A) (A) (A) (A) (A) (A) (A) (A) (A) (A)
                 (A) (A) (A) (A) (A) (A) (A) (A) (A) (A) (A) (A)
                 (A) (A) (A) (A) (A) (A) (A) (A) (A) (A) (A) (A)
                 (A) (A) (A) (A) (A) (A) (A) (A) (A) (A) (A) (A)
                 (A) (A) (A) (A) (A) (A) (A) (A) (A) (A) (A) (A)
                 (A) (A) (A) (A) (A) (A) (A) (A) (A) (A) (A) (A)
                 (A) (A) (A) (A) (A) (A) (A) (A) (A) (A) (A) (A)
                 (A) (A) (A) (A) (A) (A) (A) (A) (A) (A) (A) (A)
                 (A) (A) (A) (A) (A) (A) (A) (A) (A) (A) (A) (A)
                 (A) (A) (A) (A) (A) (A) (A) (A) (A) (A) (A) (A)
                 (A) (A) (A) (A) (A) (A) (A) (A) (A) (A) (A) (A)
                 (A) (A) (A) (A) (A) (A) (A) (A) (A) (A) (A) (A)
                 (A) (A) (A) (A) (A) (A) (A) (A) (A) (A) (A) (A)
                 (A) (A) (A) (A) (A) (A) (A) (A) (A) (A) (A) (A)
                 (A) (A) (A) (A) (A) (A) (A) (A) (A) (A) (A) (A)
                 (A) (A) (A) (A) (A) (A) (A) (A) (A) (A) (A) (A)
                 (A) (A) (A) (A) (A) (A) (A) (A) (A) (A) (A) (A)
                 (A) (A) (A) (A) (A) (A) (A) (A) (A) (A) (A) (A)
                 (A) (A) (A) (A) (A) (A) (A) (A) (A) (A) (A) (A)
                 (A) (A) (A) (A) (A) (A) (A) (A) (A) (A) (A) (A)
                 (A) (A) (A) (A) (A) (A) (A) (A) (A) (A) (A) (A)
                 (A) (A) (A) (A) (A) (A) (A) (A) (A) (A) (A) (A)
                 (A) (A) (A) (A) (A) (A) (A) (A) (A) (A) (A) (A)
                 (A) (A) (A) (A) (A) (A) (A) (A) (A) (A) (A) (A)
                 (A) (A) (A) (A) (A) (A) (A) (A) (A) (A) (A) (A)
                 (A) (A) (A) (A) (A) (A) (A) (A) (A) (A) (A) (A)
                 (A) (A) (A) (A) (A) (A) (A) (A) (A) (A) (A) (A)
                 (A) (A) (A) (A) (A) (A) (A) (A) (A) (A) (A) (A)
                 (A) (A) (A) (A) (A) (A) (A) (A) (A) (A) (A) (A)
                 (A) (A) (A) (A) (A) (A) (A) (A) (A) (A) (A) (A)
                 (A) (A) (A) (A) (A) (A) (A) (A) (A) (A) (A) (A)
                 (A) (A) (A) (A) (A) (A) (A) (A) (A) (A) (A) (A)
                 (A) (A) (A) (A) (A) (A) (A) (A) (A) (A) (A) (A)
                 (A) (A) (A) (A) (A) (A) (A) (A) (A) (A) (A) (A)
                 (A) (A) (A) (A) (A) (A) (A) (A) (A) (A) (A) (A)
                 (A) (A) (A) (A) (A) (A) (A) (A) (A) (A) (A) (A)
                 (A) (A) (A) (A) (A) (A) (A) (A) (A) (A) (A) (A)
                 (A) (A) (A) (A) (A) (A) (A) (A) (A) (A) (A) (A)
                 (A) (A) (A) (A) (A) (A) (A) (A) (A) (A) (A) (A)
                 (A) (A) (A) (A) (A) (A) (A) (A) (A) (A) (A) (A)
                 (A) (A)
 The electronic state is 1-A.
 Alpha  occ. eigenvalues --  -88.88692 -88.87752 -19.18019 -19.17642 -19.13833
 Alpha  occ. eigenvalues --  -19.13169 -19.12936 -19.12464 -14.39089 -14.38316
 Alpha  occ. eigenvalues --  -10.32301 -10.32143 -10.31574 -10.31267 -10.25675
 Alpha  occ. eigenvalues --  -10.25138 -10.24821 -10.23625 -10.23156 -10.23041
 Alpha  occ. eigenvalues --  -10.22991 -10.22788 -10.22624 -10.22379 -10.22374
 Alpha  occ. eigenvalues --  -10.22058 -10.21641 -10.21452 -10.21448 -10.21163
 Alpha  occ. eigenvalues --  -10.19775 -10.19375  -7.97249  -7.96260  -5.93558
 Alpha  occ. eigenvalues --   -5.93168  -5.92817  -5.92580  -5.92150  -5.91783
 Alpha  occ. eigenvalues --   -1.09989  -1.08425  -1.07635  -1.07015  -1.06749
 Alpha  occ. eigenvalues --   -1.06651  -0.96338  -0.95674  -0.92550  -0.90247
 Alpha  occ. eigenvalues --   -0.88944  -0.86923  -0.84017  -0.80625  -0.78856
 Alpha  occ. eigenvalues --   -0.77580  -0.74935  -0.74249  -0.72845  -0.71141
 Alpha  occ. eigenvalues --   -0.70933  -0.67580  -0.66952  -0.65359  -0.62691
 Alpha  occ. eigenvalues --   -0.61750  -0.61175  -0.60243  -0.58770  -0.57210
 Alpha  occ. eigenvalues --   -0.57017  -0.55411  -0.54560  -0.52722  -0.52041
 Alpha  occ. eigenvalues --   -0.51587  -0.50823  -0.50401  -0.49455  -0.48366
 Alpha  occ. eigenvalues --   -0.48163  -0.47703  -0.47065  -0.46721  -0.45966
 Alpha  occ. eigenvalues --   -0.45517  -0.45192  -0.44801  -0.44122  -0.43566
 Alpha  occ. eigenvalues --   -0.43286  -0.43057  -0.42602  -0.42383  -0.41858
 Alpha  occ. eigenvalues --   -0.40667  -0.39452  -0.39228  -0.38181  -0.37835
 Alpha  occ. eigenvalues --   -0.37649  -0.35995  -0.35528  -0.34842  -0.34538
 Alpha  occ. eigenvalues --   -0.33075  -0.31611  -0.31395  -0.30948  -0.30611
 Alpha  occ. eigenvalues --   -0.29927  -0.29063  -0.27872  -0.27461  -0.26530
 Alpha  occ. eigenvalues --   -0.25131  -0.22987  -0.20117
 Alpha virt. eigenvalues --   -0.13590  -0.08401  -0.07574  -0.05349  -0.04088
 Alpha virt. eigenvalues --   -0.03721  -0.02035  -0.01271  -0.00947  -0.00578
 Alpha virt. eigenvalues --    0.00082   0.00147   0.01196   0.01697   0.01794
 Alpha virt. eigenvalues --    0.02120   0.02305   0.02620   0.02931   0.03548
 Alpha virt. eigenvalues --    0.04134   0.04472   0.04545   0.04687   0.04935
 Alpha virt. eigenvalues --    0.05144   0.05788   0.06101   0.06306   0.06605
 Alpha virt. eigenvalues --    0.06819   0.07205   0.07499   0.07905   0.08149
 Alpha virt. eigenvalues --    0.08444   0.08728   0.08953   0.09293   0.09440
 Alpha virt. eigenvalues --    0.09730   0.10258   0.10309   0.10845   0.10931
 Alpha virt. eigenvalues --    0.11262   0.11692   0.11937   0.12168   0.12227
 Alpha virt. eigenvalues --    0.12836   0.13172   0.13474   0.13554   0.13890
 Alpha virt. eigenvalues --    0.14084   0.14276   0.14526   0.14994   0.15220
 Alpha virt. eigenvalues --    0.15343   0.15458   0.15701   0.15914   0.15968
 Alpha virt. eigenvalues --    0.16273   0.16339   0.16771   0.17002   0.17187
 Alpha virt. eigenvalues --    0.17475   0.17752   0.17946   0.18323   0.18624
 Alpha virt. eigenvalues --    0.18687   0.18760   0.19211   0.19370   0.19574
 Alpha virt. eigenvalues --    0.19711   0.19928   0.20263   0.20348   0.20536
 Alpha virt. eigenvalues --    0.20823   0.21018   0.21409   0.21767   0.21874
 Alpha virt. eigenvalues --    0.22218   0.22424   0.22623   0.22900   0.22968
 Alpha virt. eigenvalues --    0.23366   0.23542   0.23708   0.23872   0.24124
 Alpha virt. eigenvalues --    0.24279   0.24405   0.24568   0.24678   0.25235
 Alpha virt. eigenvalues --    0.25281   0.25444   0.25999   0.26336   0.26610
 Alpha virt. eigenvalues --    0.26793   0.26829   0.27139   0.27690   0.28152
 Alpha virt. eigenvalues --    0.28230   0.28515   0.28772   0.29042   0.29200
 Alpha virt. eigenvalues --    0.29264   0.29537   0.29854   0.29980   0.30142
 Alpha virt. eigenvalues --    0.30364   0.30885   0.30957   0.31384   0.31652
 Alpha virt. eigenvalues --    0.31703   0.32102   0.32309   0.32470   0.32747
 Alpha virt. eigenvalues --    0.32961   0.33273   0.33801   0.34148   0.34269
 Alpha virt. eigenvalues --    0.34959   0.35411   0.35630   0.36076   0.36602
 Alpha virt. eigenvalues --    0.36862   0.37395   0.37781   0.37919   0.38292
 Alpha virt. eigenvalues --    0.38325   0.39094   0.39196   0.40289   0.40874
 Alpha virt. eigenvalues --    0.41209   0.41506   0.41939   0.42307   0.43107
 Alpha virt. eigenvalues --    0.43359   0.43818   0.44490   0.44951   0.45470
 Alpha virt. eigenvalues --    0.45793   0.46525   0.47206   0.47401   0.47918
 Alpha virt. eigenvalues --    0.48282   0.48555   0.48947   0.50072   0.50534
 Alpha virt. eigenvalues --    0.51122   0.51333   0.52249   0.52371   0.52656
 Alpha virt. eigenvalues --    0.53348   0.53479   0.54290   0.54457   0.55237
 Alpha virt. eigenvalues --    0.55752   0.56178   0.56352   0.57050   0.57283
 Alpha virt. eigenvalues --    0.57787   0.58311   0.58942   0.59489   0.59609
 Alpha virt. eigenvalues --    0.59913   0.60308   0.60601   0.61051   0.61593
 Alpha virt. eigenvalues --    0.61910   0.62267   0.62921   0.63400   0.63900
 Alpha virt. eigenvalues --    0.63981   0.64574   0.65222   0.65539   0.66045
 Alpha virt. eigenvalues --    0.66343   0.67259   0.67505   0.67907   0.68095
 Alpha virt. eigenvalues --    0.69018   0.69214   0.69895   0.70115   0.70335
 Alpha virt. eigenvalues --    0.71331   0.71498   0.71661   0.72134   0.72888
 Alpha virt. eigenvalues --    0.73069   0.73272   0.74129   0.74851   0.75463
 Alpha virt. eigenvalues --    0.76097   0.76482   0.76743   0.77714   0.78153
 Alpha virt. eigenvalues --    0.78459   0.79144   0.80294   0.81205   0.81910
 Alpha virt. eigenvalues --    0.82228   0.82750   0.83172   0.83587   0.83704
 Alpha virt. eigenvalues --    0.84587   0.85545   0.86200   0.86971   0.87477
 Alpha virt. eigenvalues --    0.87701   0.87943   0.88991   0.89246   0.89389
 Alpha virt. eigenvalues --    0.90476   0.90765   0.91073   0.91330   0.91517
 Alpha virt. eigenvalues --    0.92154   0.92441   0.92936   0.93341   0.93886
 Alpha virt. eigenvalues --    0.94157   0.94667   0.95116   0.95470   0.95927
 Alpha virt. eigenvalues --    0.96875   0.97115   0.98084   0.98353   0.98876
 Alpha virt. eigenvalues --    1.00090   1.00224   1.00507   1.00876   1.02164
 Alpha virt. eigenvalues --    1.02492   1.02759   1.03236   1.03586   1.04232
 Alpha virt. eigenvalues --    1.04628   1.05227   1.06598   1.06828   1.07640
 Alpha virt. eigenvalues --    1.07657   1.07901   1.08733   1.08827   1.09652
 Alpha virt. eigenvalues --    1.10511   1.10791   1.12466   1.12986   1.13409
 Alpha virt. eigenvalues --    1.14092   1.14698   1.14868   1.16250   1.16436
 Alpha virt. eigenvalues --    1.17179   1.17891   1.18213   1.19228   1.19657
 Alpha virt. eigenvalues --    1.21010   1.21842   1.22522   1.23202   1.23379
 Alpha virt. eigenvalues --    1.24033   1.25108   1.25592   1.26106   1.26617
 Alpha virt. eigenvalues --    1.27887   1.28004   1.28282   1.29210   1.30699
 Alpha virt. eigenvalues --    1.31633   1.32473   1.32991   1.34612   1.34763
 Alpha virt. eigenvalues --    1.36194   1.37113   1.39411   1.39984   1.40570
 Alpha virt. eigenvalues --    1.41695   1.42326   1.43507   1.43889   1.44577
 Alpha virt. eigenvalues --    1.45369   1.45468   1.46493   1.46678   1.46829
 Alpha virt. eigenvalues --    1.47676   1.48173   1.48549   1.48748   1.50585
 Alpha virt. eigenvalues --    1.51086   1.51305   1.53054   1.53700   1.54369
 Alpha virt. eigenvalues --    1.55130   1.55513   1.55865   1.56744   1.58139
 Alpha virt. eigenvalues --    1.58713   1.59771   1.61380   1.61836   1.62714
 Alpha virt. eigenvalues --    1.63227   1.63678   1.64670   1.65809   1.66303
 Alpha virt. eigenvalues --    1.66830   1.67617   1.68342   1.69351   1.69735
 Alpha virt. eigenvalues --    1.70698   1.71234   1.72202   1.72514   1.73248
 Alpha virt. eigenvalues --    1.74275   1.75122   1.75720   1.76178   1.77294
 Alpha virt. eigenvalues --    1.77634   1.78688   1.79485   1.80578   1.82044
 Alpha virt. eigenvalues --    1.83223   1.83363   1.84255   1.85531   1.85783
 Alpha virt. eigenvalues --    1.86188   1.86693   1.87176   1.88000   1.88308
 Alpha virt. eigenvalues --    1.88600   1.88928   1.90579   1.90834   1.91107
 Alpha virt. eigenvalues --    1.92276   1.92653   1.93807   1.94742   1.95838
 Alpha virt. eigenvalues --    1.96289   1.96726   1.97505   1.98023   1.99081
 Alpha virt. eigenvalues --    1.99571   2.00709   2.01294   2.01980   2.03872
 Alpha virt. eigenvalues --    2.04209   2.04861   2.06037   2.07021   2.07682
 Alpha virt. eigenvalues --    2.08008   2.09436   2.10202   2.10981   2.11361
 Alpha virt. eigenvalues --    2.12042   2.13369   2.14768   2.14858   2.15738
 Alpha virt. eigenvalues --    2.15992   2.17941   2.18829   2.20672   2.21365
 Alpha virt. eigenvalues --    2.22619   2.23790   2.25069   2.27041   2.30377
 Alpha virt. eigenvalues --    2.30903   2.32277   2.35120   2.36642   2.37944
 Alpha virt. eigenvalues --    2.38268   2.40540   2.40955   2.42224   2.43930
 Alpha virt. eigenvalues --    2.46320   2.47996   2.48793   2.50282   2.53806
 Alpha virt. eigenvalues --    2.54048   2.56771   2.57457   2.58487   2.60119
 Alpha virt. eigenvalues --    2.60423   2.60935   2.62007   2.63208   2.63967
 Alpha virt. eigenvalues --    2.64680   2.65142   2.66645   2.67319   2.68210
 Alpha virt. eigenvalues --    2.68693   2.69797   2.71161   2.71827   2.72321
 Alpha virt. eigenvalues --    2.72844   2.73538   2.74175   2.74644   2.75146
 Alpha virt. eigenvalues --    2.75727   2.77605   2.77704   2.79149   2.80848
 Alpha virt. eigenvalues --    2.82092   2.82965   2.83241   2.84171   2.84809
 Alpha virt. eigenvalues --    2.85700   2.87411   2.88536   2.88853   2.90586
 Alpha virt. eigenvalues --    2.90820   2.91469   2.92117   2.93056   2.93584
 Alpha virt. eigenvalues --    2.93736   2.94950   2.95795   2.95983   2.96443
 Alpha virt. eigenvalues --    2.96671   2.98839   2.99483   3.01201   3.01816
 Alpha virt. eigenvalues --    3.04270   3.04998   3.08471   3.10275   3.11528
 Alpha virt. eigenvalues --    3.11972   3.13226   3.15254   3.15875   3.17105
 Alpha virt. eigenvalues --    3.17586   3.18531   3.19978   3.21520   3.22394
 Alpha virt. eigenvalues --    3.24287   3.26816   3.27694   3.28928   3.30666
 Alpha virt. eigenvalues --    3.32332   3.32713   3.32892   3.33025   3.34290
 Alpha virt. eigenvalues --    3.34884   3.36297   3.36641   3.38582   3.39620
 Alpha virt. eigenvalues --    3.40810   3.41784   3.42382   3.42543   3.43285
 Alpha virt. eigenvalues --    3.46365   3.47289   3.49852   3.52909   3.54108
 Alpha virt. eigenvalues --    3.57002   3.58540   3.58754   3.59986   3.63487
 Alpha virt. eigenvalues --    3.65068   3.66675   3.74602   3.77701   3.81074
 Alpha virt. eigenvalues --    3.84561   3.84839   3.85409   3.87072   3.88527
 Alpha virt. eigenvalues --    3.91374   3.92858   3.98274   4.00889   4.01801
 Alpha virt. eigenvalues --    4.08011   4.11720   4.17257   4.21879   4.23036
 Alpha virt. eigenvalues --    4.24328   4.32957   4.34956   4.38455   4.49404
 Alpha virt. eigenvalues --    4.62760   4.70326   4.77921   4.83323   4.85841
 Alpha virt. eigenvalues --    5.00738   5.00874   5.03119   5.04681   5.05417
 Alpha virt. eigenvalues --    5.05781   5.09430   5.10982   5.19941   5.23100
 Alpha virt. eigenvalues --    5.25660   5.28452   5.30008   5.40431   5.68199
 Alpha virt. eigenvalues --    5.71133   5.74110   5.78381   5.79103   5.82455
 Alpha virt. eigenvalues --    8.00773   8.07299  17.28481  17.32897  17.48831
 Alpha virt. eigenvalues --   17.52856  17.60791  17.70296  23.45450  23.54433
 Alpha virt. eigenvalues --   23.68306  23.77413  23.80080  23.81851  23.82321
 Alpha virt. eigenvalues --   23.84659  23.85288  23.86177  23.87857  23.92108
 Alpha virt. eigenvalues --   23.94201  23.97400  24.00260  24.00549  24.01239
 Alpha virt. eigenvalues --   24.03400  24.11406  24.12046  24.12337  24.13674
 Alpha virt. eigenvalues --   35.55604  35.61467  49.91310  49.93293  49.99084
 Alpha virt. eigenvalues --   50.00690  50.03844  50.05464 189.17861 189.25143
          Condensed to atoms (all electrons):
               1          2          3          4          5          6
     1  C   13.662614  -4.888808  -0.357358   2.142110  -2.719759  -0.894456
     2  C   -4.888808  12.299201   0.303935  -0.381423   1.589735  -0.857235
     3  C   -0.357358   0.303935   6.858530   0.542843  -0.793540   0.509266
     4  C    2.142110  -0.381423   0.542843  13.986384  -3.444583  -0.666002
     5  C   -2.719759   1.589735  -0.793540  -3.444583  10.541452   0.202542
     6  C   -0.894456  -0.857235   0.509266  -0.666002   0.202542  10.259822
     7  C   -1.055470   1.084744   1.301817  -0.771727  -0.254551   0.905370
     8  C   -0.097498  -0.567050   0.223611   0.060051   0.192244   1.311987
     9  C   -0.908247   0.180101   0.105889  -0.366007   0.350028  -0.820817
    10  C    0.007544  -0.367996  -0.077645   0.021456  -0.061132  -1.914761
    11  C    0.152609   0.376677  -1.289650   0.454039  -0.119404  -0.028557
    12  C    0.640212   0.162866   0.699545   0.419927  -0.514104  -0.135518
    13  C   -0.140652  -1.469938  -1.203308  -6.393861   0.602673   0.365221
    14  C   -0.489907  -1.111446  -0.521267  -0.151149  -0.101700   0.269388
    15  H    0.000100  -0.007589   0.011627  -0.084017  -0.001346   0.000685
    16  H   -0.001234  -0.002445   0.000752  -0.000091   0.005011   0.000292
    17  H    0.002863  -0.057027  -0.007514   0.001329   0.004575   0.343971
    18  N    0.004977   0.048913  -0.030965   0.005554  -0.000894   0.011380
    19  N    0.182661  -0.304019  -0.063679  -0.075766   0.061305   0.076916
    20  O    0.220030  -0.046329   0.000407  -0.030261   0.082667   0.029437
    21  O    0.100786  -0.065237   0.011102  -0.217950   0.287234  -0.000443
    22  O    0.000350  -0.002902  -0.004549   0.007502   0.000427  -0.001172
    23  O    0.004372   0.038092   0.058503  -0.013065  -0.001016  -0.024185
    24  C    0.744365  -0.732250  -0.354650   0.317779   0.011237  -0.974598
    25  C   -0.470183   0.390780  -0.200406   0.199442   0.053413   0.933635
    26  S    0.013088  -0.009494   0.155390  -0.047624  -0.001827  -0.848257
    27  C   -0.023212   0.209200  -0.078694   0.035513   0.006983  -0.331705
    28  H   -0.004009  -0.023106   0.001303  -0.001114   0.000024   0.025994
    29  C   -0.029397   0.244378  -0.032939   0.044188   0.004024  -1.689439
    30  O   -0.000153   0.002312   0.000089   0.000091  -0.000003  -0.016723
    31  C   -0.003212  -0.019605   0.002668  -0.000142   0.000388   0.163844
    32  C   -0.000825   0.001315  -0.005364   0.001686   0.000141  -0.097178
    33  S   -0.000123  -0.000998  -0.000492  -0.000015   0.000006   0.021105
    34  C   -0.000197  -0.001516  -0.000526   0.000048   0.000002  -0.024812
    35  O   -0.000002   0.000128   0.000159  -0.000009   0.000000  -0.003300
    36  C    0.000026   0.000085   0.000015   0.000007   0.000001   0.007088
    37  H    0.000000   0.000000   0.000000  -0.000000  -0.000000   0.000000
    38  H   -0.000000   0.000000   0.000000  -0.000000  -0.000000  -0.000004
    39  H   -0.000000  -0.000015   0.000003   0.000001   0.000000   0.000392
    40  H    0.000011  -0.001405  -0.000019  -0.000031   0.000002   0.005661
    41  H    0.032236  -0.040557  -0.001993   0.016476  -0.024555   0.010654
    42  H   -0.000203  -0.002126   0.001051  -0.000374  -0.000054   0.000645
               7          8          9         10         11         12
     1  C   -1.055470  -0.097498  -0.908247   0.007544   0.152609   0.640212
     2  C    1.084744  -0.567050   0.180101  -0.367996   0.376677   0.162866
     3  C    1.301817   0.223611   0.105889  -0.077645  -1.289650   0.699545
     4  C   -0.771727   0.060051  -0.366007   0.021456   0.454039   0.419927
     5  C   -0.254551   0.192244   0.350028  -0.061132  -0.119404  -0.514104
     6  C    0.905370   1.311987  -0.820817  -1.914761  -0.028557  -0.135518
     7  C    8.064109   0.311414  -0.005900  -1.158449  -1.151688   1.032159
     8  C    0.311414  10.855991   1.001624  -3.752974   0.188651   0.296741
     9  C   -0.005900   1.001624   8.145600   0.244207  -0.551144  -0.143049
    10  C   -1.158449  -3.752974   0.244207  13.830534  -2.667136   1.738057
    11  C   -1.151688   0.188651  -0.551144  -2.667136  12.794607  -4.137488
    12  C    1.032159   0.296741  -0.143049   1.738057  -4.137488  14.973649
    13  C   -0.931411  -0.583600   0.017673  -0.410845   0.519230  -1.494862
    14  C   -0.222300  -1.458293  -0.167351  -0.591606   1.014615  -6.762444
    15  H   -0.004074  -0.001048   0.000074  -0.000699   0.003689   0.012546
    16  H    0.023231  -0.013377   0.001687   0.003074  -0.023929  -0.074581
    17  H   -0.026139   0.017384  -0.044023   0.011551  -0.001094  -0.001394
    18  N    0.061915  -0.035613   0.007701  -0.189180   0.293890  -0.089399
    19  N   -0.085868   0.031300  -0.031406   0.010413  -0.002966   0.011376
    20  O   -0.018526   0.024165   0.064913   0.001896   0.000231  -0.002165
    21  O   -0.027887   0.004148   0.000760   0.000369   0.002427   0.021066
    22  O    0.007351  -0.060243   0.005289   0.104718   0.195970  -0.153402
    23  O    0.067886   0.312049   0.256296  -0.206101  -0.111965  -0.001349
    24  C   -0.916525   0.449938  -0.126065   1.279378   0.178402  -0.521172
    25  C   -0.428250  -2.043507  -1.675274   0.822428   0.008771  -0.207513
    26  S    0.125903   1.622147   1.331570  -1.478900  -0.381803   0.106807
    27  C   -0.113806  -1.370109  -1.009534   0.444472   0.015474  -0.085824
    28  H    0.001648   0.024744   0.068126  -0.001078  -0.000123  -0.000394
    29  C   -0.127631  -0.956065   0.192536   0.586593  -0.001409   0.051705
    30  O   -0.000437   0.003524   0.000196   0.001406  -0.000033   0.000249
    31  C   -0.005447   0.067596  -0.284396  -0.204809  -0.005283  -0.003147
    32  C   -0.007317  -0.203261  -0.122465   0.332058   0.010036   0.016296
    33  S    0.000606  -0.012239  -0.010550  -0.012594   0.000048  -0.000932
    34  C   -0.002942  -0.045291  -0.007676   0.092585   0.000818   0.001628
    35  O    0.000276   0.007351   0.018862  -0.008364  -0.000435   0.000371
    36  C    0.000235   0.002556  -0.012858   0.000322   0.000107   0.000154
    37  H   -0.000000   0.000011   0.000024  -0.000039  -0.000000   0.000000
    38  H   -0.000000   0.000001   0.000018  -0.000003  -0.000000   0.000000
    39  H   -0.000099   0.001422  -0.001298   0.000131   0.000057   0.000139
    40  H   -0.000125  -0.003068  -0.002106   0.000107  -0.000001  -0.000058
    41  H   -0.004524   0.001150  -0.001789   0.000039   0.000179   0.002900
    42  H   -0.003952   0.003885   0.001623   0.003069  -0.031708   0.021482
              13         14         15         16         17         18
     1  C   -0.140652  -0.489907   0.000100  -0.001234   0.002863   0.004977
     2  C   -1.469938  -1.111446  -0.007589  -0.002445  -0.057027   0.048913
     3  C   -1.203308  -0.521267   0.011627   0.000752  -0.007514  -0.030965
     4  C   -6.393861  -0.151149  -0.084017  -0.000091   0.001329   0.005554
     5  C    0.602673  -0.101700  -0.001346   0.005011   0.004575  -0.000894
     6  C    0.365221   0.269388   0.000685   0.000292   0.343971   0.011380
     7  C   -0.931411  -0.222300  -0.004074   0.023231  -0.026139   0.061915
     8  C   -0.583600  -1.458293  -0.001048  -0.013377   0.017384  -0.035613
     9  C    0.017673  -0.167351   0.000074   0.001687  -0.044023   0.007701
    10  C   -0.410845  -0.591606  -0.000699   0.003074   0.011551  -0.189180
    11  C    0.519230   1.014615   0.003689  -0.023929  -0.001094   0.293890
    12  C   -1.494862  -6.762444   0.012546  -0.074581  -0.001394  -0.089399
    13  C   19.311428  -2.319227  -0.010175   0.442199   0.000553  -0.011717
    14  C   -2.319227  18.829316   0.430164  -0.010748  -0.000855   0.021640
    15  H   -0.010175   0.430164   0.485902  -0.005445  -0.000000   0.000165
    16  H    0.442199  -0.010748  -0.005445   0.482934   0.000000  -0.002725
    17  H    0.000553  -0.000855  -0.000000   0.000000   0.502627  -0.000002
    18  N   -0.011717   0.021640   0.000165  -0.002725  -0.000002   7.244403
    19  N    0.031366   0.013121  -0.002845   0.000121  -0.000802   0.000062
    20  O   -0.002865   0.002999  -0.000009   0.000001   0.009459  -0.000020
    21  O    0.175180  -0.006351   0.007545   0.000060  -0.000009  -0.000057
    22  O    0.015699   0.176625   0.000047   0.008632   0.000000  -0.049926
    23  O   -0.047637  -0.011833   0.000001  -0.000021   0.000096  -0.148290
    24  C   -0.023166  -0.312533   0.000018  -0.000488  -0.015503  -0.099699
    25  C    0.101241   0.010461   0.000022   0.000000   0.044196  -0.035197
    26  S   -0.056541   0.007026   0.000008  -0.000018   0.014161  -0.062813
    27  C    0.000715  -0.008938   0.000000  -0.000003   0.022414  -0.013076
    28  H   -0.000182  -0.000060  -0.000000   0.000000   0.000816   0.000014
    29  C    0.023547   0.001585   0.000000  -0.000003   0.011790  -0.006646
    30  O    0.000017   0.000012   0.000000   0.000000   0.000219   0.000009
    31  C   -0.000322   0.000131  -0.000000   0.000000  -0.000069   0.001842
    32  C    0.003158   0.000427  -0.000000   0.000000   0.000281   0.014715
    33  S   -0.000031  -0.000026   0.000000  -0.000000  -0.000054   0.000258
    34  C    0.000241   0.000013  -0.000000   0.000000   0.000032   0.000961
    35  O    0.000020   0.000008   0.000000  -0.000000   0.000000  -0.001402
    36  C    0.000009   0.000003   0.000000   0.000000  -0.000001   0.000277
    37  H    0.000000   0.000000  -0.000000  -0.000000  -0.000000   0.000001
    38  H    0.000000   0.000000   0.000000  -0.000000   0.000000  -0.000000
    39  H    0.000008   0.000001  -0.000000   0.000000  -0.000000   0.000171
    40  H   -0.000003  -0.000003   0.000000   0.000000  -0.000137  -0.000003
    41  H    0.002997   0.009275  -0.000029  -0.000000  -0.000034   0.000001
    42  H    0.011614   0.004260  -0.000000  -0.000046   0.000001   0.289876
              19         20         21         22         23         24
     1  C    0.182661   0.220030   0.100786   0.000350   0.004372   0.744365
     2  C   -0.304019  -0.046329  -0.065237  -0.002902   0.038092  -0.732250
     3  C   -0.063679   0.000407   0.011102  -0.004549   0.058503  -0.354650
     4  C   -0.075766  -0.030261  -0.217950   0.007502  -0.013065   0.317779
     5  C    0.061305   0.082667   0.287234   0.000427  -0.001016   0.011237
     6  C    0.076916   0.029437  -0.000443  -0.001172  -0.024185  -0.974598
     7  C   -0.085868  -0.018526  -0.027887   0.007351   0.067886  -0.916525
     8  C    0.031300   0.024165   0.004148  -0.060243   0.312049   0.449938
     9  C   -0.031406   0.064913   0.000760   0.005289   0.256296  -0.126065
    10  C    0.010413   0.001896   0.000369   0.104718  -0.206101   1.279378
    11  C   -0.002966   0.000231   0.002427   0.195970  -0.111965   0.178402
    12  C    0.011376  -0.002165   0.021066  -0.153402  -0.001349  -0.521172
    13  C    0.031366  -0.002865   0.175180   0.015699  -0.047637  -0.023166
    14  C    0.013121   0.002999  -0.006351   0.176625  -0.011833  -0.312533
    15  H   -0.002845  -0.000009   0.007545   0.000047   0.000001   0.000018
    16  H    0.000121   0.000001   0.000060   0.008632  -0.000021  -0.000488
    17  H   -0.000802   0.009459  -0.000009   0.000000   0.000096  -0.015503
    18  N    0.000062  -0.000020  -0.000057  -0.049926  -0.148290  -0.099699
    19  N    7.206847  -0.063713  -0.056579  -0.000018   0.000052   0.046145
    20  O   -0.063713   8.029684   0.001773  -0.000000   0.000005   0.005863
    21  O   -0.056579   0.001773   8.031516   0.000016  -0.000001   0.000136
    22  O   -0.000018  -0.000000   0.000016   8.026581  -0.001362  -0.000772
    23  O    0.000052   0.000005  -0.000001  -0.001362   8.735308  -0.522434
    24  C    0.046145   0.005863   0.000136  -0.000772  -0.522434  19.946298
    25  C    0.001889  -0.017310   0.000261   0.000195  -0.224567  -1.176110
    26  S    0.003107  -0.001511  -0.000060  -0.001898   0.149029  -0.069025
    27  C    0.000626  -0.000683   0.000013  -0.000043  -0.069201  -4.658945
    28  H   -0.000080   0.000206   0.000000  -0.000000   0.000380   0.189756
    29  C    0.001766  -0.001949   0.000002   0.000305  -0.055118  -5.657001
    30  O    0.000001  -0.000009   0.000000   0.000000   0.000481   0.058406
    31  C   -0.000045   0.000069   0.000000  -0.000017  -0.051274   0.596402
    32  C   -0.000001  -0.000003   0.000000   0.000064  -0.042061  -1.391396
    33  S   -0.000000   0.000006   0.000000  -0.000000  -0.003813   0.194069
    34  C    0.000000  -0.000000   0.000000   0.000003   0.001503  -0.423151
    35  O    0.000000  -0.000000   0.000000  -0.000002   0.024558  -0.113732
    36  C   -0.000000   0.000000   0.000000   0.000000  -0.000698   0.059371
    37  H    0.000000  -0.000000  -0.000000   0.000000   0.000004   0.000368
    38  H    0.000000  -0.000000  -0.000000  -0.000000  -0.000000  -0.000421
    39  H   -0.000000   0.000000   0.000000   0.000000  -0.000529   0.008252
    40  H   -0.000000   0.000000  -0.000000  -0.000000  -0.000065  -0.069106
    41  H    0.276335   0.008973   0.009820   0.000000  -0.000000   0.000811
    42  H    0.000001  -0.000000  -0.000000   0.010806   0.006565  -0.009291
              25         26         27         28         29         30
     1  C   -0.470183   0.013088  -0.023212  -0.004009  -0.029397  -0.000153
     2  C    0.390780  -0.009494   0.209200  -0.023106   0.244378   0.002312
     3  C   -0.200406   0.155390  -0.078694   0.001303  -0.032939   0.000089
     4  C    0.199442  -0.047624   0.035513  -0.001114   0.044188   0.000091
     5  C    0.053413  -0.001827   0.006983   0.000024   0.004024  -0.000003
     6  C    0.933635  -0.848257  -0.331705   0.025994  -1.689439  -0.016723
     7  C   -0.428250   0.125903  -0.113806   0.001648  -0.127631  -0.000437
     8  C   -2.043507   1.622147  -1.370109   0.024744  -0.956065   0.003524
     9  C   -1.675274   1.331570  -1.009534   0.068126   0.192536   0.000196
    10  C    0.822428  -1.478900   0.444472  -0.001078   0.586593   0.001406
    11  C    0.008771  -0.381803   0.015474  -0.000123  -0.001409  -0.000033
    12  C   -0.207513   0.106807  -0.085824  -0.000394   0.051705   0.000249
    13  C    0.101241  -0.056541   0.000715  -0.000182   0.023547   0.000017
[...]
    33  S    0.000007   0.000005  -0.000000  -0.000000   0.000096   0.000031
    34  C    0.000022   0.000012  -0.000000   0.000000   0.000051  -0.000654
    35  O   -0.000010  -0.000002   0.000000   0.000000  -0.000003   0.000148
    36  C    0.000003   0.000000  -0.000000   0.000000  -0.000004   0.000068
    37  H    0.000000  -0.000000  -0.000000  -0.000000  -0.000000   0.000000
    38  H   -0.000000  -0.000000   0.000000   0.000000   0.000000  -0.000000
    39  H    0.000000  -0.000000   0.000000  -0.000000  -0.000000   0.000008
    40  H   -0.000001  -0.000000   0.000000  -0.000000  -0.000186  -0.000003
    41  H    0.001155   0.000711  -0.000026   0.000000  -0.000039   0.000001
    42  H   -0.005167  -0.001164   0.000000  -0.000026   0.000000   0.324915
              19         20         21         22         23         24
     1  C    0.103370   0.243921   0.091180   0.000624  -0.001460   0.753803
     2  C   -0.145290  -0.100503  -0.051045  -0.001936  -0.004490  -0.418724
     3  C   -0.103838   0.013162   0.024247  -0.007515  -0.010224  -0.602493
     4  C   -0.086021  -0.026548  -0.195429  -0.000121   0.000064   0.158816
     5  C    0.108264   0.072597   0.272693  -0.001259   0.000841   0.027522
     6  C    0.042232   0.031520   0.001755  -0.001311  -0.045950  -1.208035
     7  C   -0.091107  -0.022328  -0.026855   0.019998   0.059223  -0.720719
     8  C    0.032119   0.022388   0.003388  -0.057687  -0.245904  -0.479610
     9  C    0.005897   0.048030  -0.000040   0.002924   0.036186   0.884646
    10  C    0.012445   0.000527   0.000281   0.107685   0.309463   2.210341
    11  C   -0.004409   0.000384   0.001970   0.212905   0.054762  -0.149938
    12  C    0.011314  -0.001128   0.027219  -0.211059  -0.032587  -0.295269
    13  C    0.029823  -0.001761   0.135911   0.038721   0.002516  -0.242843
    14  C    0.014405   0.003577  -0.022120   0.163243  -0.001046  -0.317508
    15  H   -0.002137  -0.000013   0.006243   0.000072   0.000001   0.000028
    16  H    0.000191   0.000001   0.000070   0.006087  -0.000015  -0.000356
    17  H   -0.001588   0.009004  -0.000013   0.000001  -0.000107  -0.036110
    18  N   -0.000059  -0.000009  -0.000060  -0.048225  -0.040168  -0.151831
    19  N    7.222160  -0.053802  -0.041554  -0.000025  -0.000037   0.013509
    20  O   -0.053802   8.052623   0.001865  -0.000001   0.000018   0.024737
    21  O   -0.041554   0.001865   8.041417   0.000012   0.000000   0.000364
    22  O   -0.000025  -0.000001   0.000012   8.058416   0.001549   0.001514
    23  O   -0.000037   0.000018   0.000000   0.001549   8.214324  -0.144941
    24  C    0.013509   0.024737   0.000364   0.001514  -0.144941  15.495106
    25  C    0.009536  -0.028057   0.000050   0.000319  -0.110081  -0.547209
    26  S   -0.000118   0.002020  -0.000002   0.000380   0.169918  -0.144285
    27  C    0.002637  -0.004712   0.000006   0.000027  -0.029283  -3.770014
    28  H   -0.000026   0.000282  -0.000000  -0.000000   0.000198   0.108798
    29  C    0.000690  -0.000171   0.000004   0.000220   0.052370  -3.133096
    30  O   -0.000002  -0.000005  -0.000000   0.000000   0.000199   0.148107
    31  C   -0.000004  -0.000002   0.000000   0.000005  -0.016215  -0.201374
    32  C   -0.000007   0.000020   0.000000   0.000011   0.012836  -1.250362
    33  S    0.000003   0.000000   0.000000   0.000000  -0.000746   0.149977
    34  C    0.000000   0.000001   0.000000   0.000000   0.001211  -0.144893
    35  O    0.000000  -0.000000  -0.000000   0.000001   0.002738  -0.005387
    36  C   -0.000000  -0.000000  -0.000000  -0.000000  -0.000097   0.010643
    37  H   -0.000000   0.000000   0.000000   0.000000  -0.000000   0.000272
    38  H   -0.000000  -0.000000  -0.000000  -0.000000   0.000000  -0.000093
    39  H    0.000000  -0.000000  -0.000000   0.000000   0.000141  -0.017467
    40  H    0.000002   0.000013   0.000000  -0.000000  -0.000031  -0.114073
    41  H    0.327343   0.006240   0.004569  -0.000000  -0.000000   0.000295
    42  H    0.000001  -0.000000  -0.000000   0.006156   0.005148   0.006987
              25         26         27         28         29         30
     1  C   -0.258745  -0.043615  -0.030917  -0.004974  -0.002672   0.000191
     2  C    0.263580  -0.102021   0.066332  -0.013694   0.007781   0.001672
     3  C   -0.033967   0.053281  -0.034211  -0.001030  -0.046454   0.000054
     4  C    0.156528  -0.026759   0.028075  -0.000522   0.013442   0.000029
     5  C    0.009839   0.001828   0.005307   0.000177   0.000956  -0.000017
     6  C    0.027743  -0.273572  -0.325516  -0.031000  -0.586960  -0.001824
     7  C   -0.324924   0.099971  -0.121022  -0.001559  -0.012649   0.000336
     8  C   -1.088573   0.872909  -0.809667   0.006017  -0.487889   0.005712
     9  C   -1.258588   0.716152  -1.169369   0.063018  -0.482008   0.002533
    10  C    0.724910  -1.028288   0.285775   0.006743   0.049341  -0.001043
    11  C   -0.145048   0.008124  -0.028391  -0.000154   0.017216   0.000030
    12  C   -0.036048   0.044074  -0.050010  -0.000992  -0.005133   0.000211
    13  C    0.043015   0.036410  -0.004761  -0.000128   0.003031   0.000013
    14  C    0.023649   0.034493  -0.006010  -0.000145   0.000827   0.000011
    15  H    0.000024  -0.000003   0.000001   0.000000   0.000000  -0.000000
    16  H   -0.000010   0.000034  -0.000003  -0.000000   0.000000   0.000000
    17  H    0.041946   0.002338   0.028812  -0.000347   0.007392   0.000202
    18  N   -0.061234   0.049548  -0.019157  -0.000004   0.007544   0.000028
    19  N    0.009536  -0.000118   0.002637  -0.000026   0.000690  -0.000002
    20  O   -0.028057   0.002020  -0.004712   0.000282  -0.000171  -0.000005
    21  O    0.000050  -0.000002   0.000006  -0.000000   0.000004  -0.000000
    22  O    0.000319   0.000380   0.000027  -0.000000   0.000220   0.000000
    23  O   -0.110081   0.169918  -0.029283   0.000198   0.052370   0.000199
    24  C   -0.547209  -0.144285  -3.770014   0.108798  -3.133096   0.148107
    25  C   12.969176  -2.495602   2.693804   0.359530  -3.134202  -0.099644
    26  S   -2.495602  19.991497  -1.994322   0.030694   0.781938   0.052543
    27  C    2.693804  -1.994322  13.563912  -0.184820   0.482166   0.053259
    28  H    0.359530   0.030694  -0.184820   0.552249   0.001888  -0.004799
    29  C   -3.134202   0.781938   0.482166   0.001888  11.978221  -0.169893
    30  O   -0.099644   0.052543   0.053259  -0.004799  -0.169893   8.095543
    31  C   -0.847817   0.423839  -0.578069  -0.004948   0.713225   0.000067
    32  C   -0.080892  -0.111099  -1.651051   0.001926  -0.967572   0.030733
    33  S   -0.200692  -0.016931   0.195396  -0.000534   0.721692  -0.066757
    34  C   -0.223381  -0.450619   0.138703   0.000082  -0.259608  -0.007616
    35  O   -0.007349  -0.053747   0.052096   0.000033   0.035110  -0.000981
    36  C   -0.011663   0.117155  -0.365593   0.000022  -0.088260   0.014076
    37  H   -0.000006   0.001442   0.000358   0.000000  -0.003881   0.000024
    38  H    0.000379  -0.001169   0.006187   0.000000  -0.004370  -0.000050
    39  H    0.001086   0.003890  -0.012785   0.000000   0.021348  -0.000047
    40  H   -0.127980  -0.011696   0.190483   0.002696   0.080634   0.167155
    41  H    0.000082  -0.000025   0.000021   0.000000   0.000000  -0.000000
    42  H    0.000552  -0.005356   0.000145   0.000000  -0.000709   0.000000
              31         32         33         34         35         36
     1  C    0.002559  -0.000084  -0.000475  -0.000442   0.000008   0.000096
     2  C   -0.005676  -0.008454   0.000578  -0.002329  -0.000008   0.000133
     3  C    0.002557  -0.000525   0.000028   0.000092  -0.000030   0.000046
     4  C   -0.000090  -0.000437   0.000086   0.000028  -0.000001  -0.000015
     5  C    0.000052   0.000036   0.000010   0.000003  -0.000000  -0.000000
     6  C    0.015243  -0.048521   0.009732  -0.002714  -0.003500   0.001539
     7  C   -0.009470   0.001958  -0.000139  -0.000717  -0.000027   0.000020
     8  C   -0.000780  -0.023699  -0.002940  -0.003221  -0.004781   0.003279
     9  C   -0.204250  -0.053427  -0.007016  -0.008683   0.005568  -0.000817
    10  C   -0.040279  -0.001865  -0.004228  -0.010728   0.004401   0.000680
    11  C   -0.003317   0.001287  -0.000279  -0.001104   0.000035   0.000101
    12  C    0.006660   0.001236   0.000008   0.000424  -0.000062   0.000044
    13  C    0.000616   0.000317   0.000007   0.000022  -0.000010   0.000003
    14  C    0.000242   0.000121   0.000005   0.000012  -0.000002   0.000000
    15  H   -0.000000   0.000000  -0.000000  -0.000000   0.000000  -0.000000
    16  H    0.000000   0.000000  -0.000000   0.000000   0.000000   0.000000
    17  H    0.000046   0.000053   0.000096   0.000051  -0.000003  -0.000004
    18  N    0.002252   0.000154   0.000031  -0.000654   0.000148   0.000068
    19  N   -0.000004  -0.000007   0.000003   0.000000   0.000000  -0.000000
    20  O   -0.000002   0.000020   0.000000   0.000001  -0.000000  -0.000000
    21  O    0.000000   0.000000   0.000000   0.000000  -0.000000  -0.000000
    22  O    0.000005   0.000011   0.000000   0.000000   0.000001  -0.000000
    23  O   -0.016215   0.012836  -0.000746   0.001211   0.002738  -0.000097
    24  C   -0.201374  -1.250362   0.149977  -0.144893  -0.005387   0.010643
    25  C   -0.847817  -0.080892  -0.200692  -0.223381  -0.007349  -0.011663
    26  S    0.423839  -0.111099  -0.016931  -0.450619  -0.053747   0.117155
    27  C   -0.578069  -1.651051   0.195396   0.138703   0.052096  -0.365593
    28  H   -0.004948   0.001926  -0.000534   0.000082   0.000033   0.000022
    29  C    0.713225  -0.967572   0.721692  -0.259608   0.035110  -0.088260
    30  O    0.000067   0.030733  -0.066757  -0.007616  -0.000981   0.014076
    31  C   11.147471  -5.996567   0.658675   1.303143   0.103883  -1.161123
    32  C   -5.996567  23.938155  -2.844369  -7.919573  -0.256958   2.675493
    33  S    0.658675  -2.844369  17.377534   0.410508   0.049241  -0.178774
    34  C    1.303143  -7.919573   0.410508  14.630429   0.096402  -1.477358
    35  O    0.103883  -0.256958   0.049241   0.096402   8.071051  -0.005638
    36  C   -1.161123   2.675493  -0.178774  -1.477358  -0.005638   6.331166
    37  H    0.011920  -0.117916   0.014766   0.407968  -0.004074   0.034593
    38  H    0.053595  -0.092583  -0.020430   0.095732  -0.000363   0.321357
    39  H   -0.093426   0.459679  -0.014251  -0.330332   0.151276   0.015335
    40  H    0.018289  -0.010978   0.012145   0.005235  -0.000065  -0.005247
    41  H    0.000000  -0.000000  -0.000000  -0.000000   0.000000   0.000000
    42  H   -0.000042  -0.000006  -0.000001   0.000010  -0.000006  -0.000000
              37         38         39         40         41         42
     1  C    0.000000  -0.000000   0.000001  -0.000308  -0.012395  -0.000021
     2  C   -0.000000  -0.000000   0.000023   0.000684  -0.005487   0.000352
     3  C   -0.000000  -0.000000  -0.000005  -0.000016   0.004170   0.000284
     4  C    0.000000  -0.000000  -0.000000   0.000017   0.007662   0.000973
     5  C    0.000000  -0.000000  -0.000000   0.000003  -0.030603  -0.000002
     6  C    0.000001  -0.000002  -0.000370   0.002177   0.004606  -0.000289
     7  C    0.000000  -0.000000  -0.000032  -0.000088  -0.001891   0.005675
     8  C   -0.000003   0.000000  -0.001041  -0.002541   0.001059   0.009666
     9  C    0.000003   0.000008  -0.000567  -0.009873   0.000114  -0.001726
    10  C    0.000007  -0.000001   0.000856   0.000024   0.000113  -0.009161
    11  C    0.000000  -0.000000   0.000018  -0.000008  -0.000065  -0.034312
    12  C    0.000000  -0.000000   0.000004  -0.000033   0.000579   0.007005
    13  C    0.000000  -0.000000   0.000000  -0.000001   0.001155  -0.005167
    14  C   -0.000000  -0.000000  -0.000000  -0.000000   0.000711  -0.001164
    15  H   -0.000000   0.000000   0.000000   0.000000  -0.000026   0.000000
    16  H   -0.000000   0.000000  -0.000000  -0.000000   0.000000  -0.000026
    17  H   -0.000000   0.000000  -0.000000  -0.000186  -0.000039   0.000000
    18  N    0.000000  -0.000000   0.000008  -0.000003   0.000001   0.324915
    19  N   -0.000000  -0.000000   0.000000   0.000002   0.327343   0.000001
    20  O    0.000000  -0.000000  -0.000000   0.000013   0.006240  -0.000000
    21  O    0.000000  -0.000000  -0.000000   0.000000   0.004569  -0.000000
    22  O    0.000000  -0.000000   0.000000  -0.000000  -0.000000   0.006156
    23  O   -0.000000   0.000000   0.000141  -0.000031  -0.000000   0.005148
    24  C    0.000272  -0.000093  -0.017467  -0.114073   0.000295   0.006987
    25  C   -0.000006   0.000379   0.001086  -0.127980   0.000082   0.000552
    26  S    0.001442  -0.001169   0.003890  -0.011696  -0.000025  -0.005356
    27  C    0.000358   0.006187  -0.012785   0.190483   0.000021   0.000145
    28  H    0.000000   0.000000   0.000000   0.002696   0.000000   0.000000
    29  C   -0.003881  -0.004370   0.021348   0.080634   0.000000  -0.000709
    30  O    0.000024  -0.000050  -0.000047   0.167155  -0.000000   0.000000
    31  C    0.011920   0.053595  -0.093426   0.018289   0.000000  -0.000042
    32  C   -0.117916  -0.092583   0.459679  -0.010978  -0.000000  -0.000006
    33  S    0.014766  -0.020430  -0.014251   0.012145  -0.000000  -0.000001
    34  C    0.407968   0.095732  -0.330332   0.005235  -0.000000   0.000010
    35  O   -0.004074  -0.000363   0.151276  -0.000065   0.000000  -0.000006
    36  C    0.034593   0.321357   0.015335  -0.005247   0.000000  -0.000000
    37  H    0.535211  -0.004901   0.003088   0.000000  -0.000000  -0.000000
    38  H   -0.004901   0.480425  -0.000019  -0.000003   0.000000   0.000000
    39  H    0.003088  -0.000019   0.544312  -0.000001   0.000000  -0.000001
    40  H    0.000000  -0.000003  -0.000001   0.533331  -0.000000   0.000000
    41  H   -0.000000   0.000000   0.000000  -0.000000   0.336273   0.000000
    42  H   -0.000000   0.000000  -0.000001   0.000000   0.000000   0.342255
 Mulliken charges:
               1
     1  C    0.400468
     2  C   -0.164446
     3  C    0.236326
     4  C    0.132948
     5  C    0.261381
     6  C    0.063115
     7  C    0.175584
     8  C    0.029108
     9  C    0.303305
    10  C    0.018764
    11  C    0.388319
    12  C    0.023829
    13  C   -0.401463
    14  C   -0.537929
    15  H    0.163383
    16  H    0.165691
    17  H    0.155690
    18  N   -0.362013
    19  N   -0.405918
    20  O   -0.293890
    21  O   -0.276123
    22  O   -0.291730
    23  O   -0.240325
    24  C    0.101166
    25  C   -0.204035
    26  S   -0.735247
    27  C   -0.603819
    28  H    0.115323
    29  C    0.408493
    30  O   -0.220054
    31  C    0.699111
    32  C    0.312932
    33  S   -0.241955
    34  C   -0.246087
    35  O   -0.228998
    36  C   -0.231258
    37  H    0.121128
    38  H    0.166301
    39  H    0.269278
    40  H    0.270243
    41  H    0.355538
    42  H    0.347868
 Sum of Mulliken charges =  -0.00000
 Mulliken charges with hydrogens summed into heavy atoms:
               1
     1  C    0.400468
     2  C   -0.164446
     3  C    0.236326
     4  C    0.132948
     5  C    0.261381
     6  C    0.218804
     7  C    0.175584
     8  C    0.029108
     9  C    0.303305
    10  C    0.018764
    11  C    0.388319
    12  C    0.023829
    13  C   -0.235772
    14  C   -0.374546
    18  N   -0.014145
    19  N   -0.050380
    20  O   -0.293890
    21  O   -0.276123
    22  O   -0.291730
    23  O   -0.240325
    24  C    0.101166
    25  C   -0.088712
    26  S   -0.735247
    27  C   -0.603819
    29  C    0.408493
    30  O    0.050189
    31  C    0.699111
    32  C    0.312932
    33  S   -0.241955
    34  C   -0.124959
    35  O    0.040280
    36  C   -0.064957
 Electronic spatial extent (au):  <R**2>=          18156.3242
 Charge=             -0.0000 electrons
 Dipole moment (field-independent basis, Debye):
    X=              5.3297    Y=             -0.4023    Z=             -0.6396  Tot=              5.3830
 Quadrupole moment (field-independent basis, Debye-Ang):
   XX=           -184.0801   YY=           -199.8221   ZZ=           -197.8480
   XY=              8.6456   XZ=            -10.3148   YZ=             -8.6232
 Traceless Quadrupole moment (field-independent basis, Debye-Ang):
   XX=              9.8367   YY=             -5.9054   ZZ=             -3.9313
   XY=              8.6456   XZ=            -10.3148   YZ=             -8.6232
 Octapole moment (field-independent basis, Debye-Ang**2):
  XXX=            420.0316  YYY=            -33.7894  ZZZ=              0.5753  XYY=            136.1957
  XXY=             87.4338  XXZ=            -33.3015  XZZ=             -3.2382  YZZ=             -1.1998
  YYZ=              2.7756  XYZ=            -29.2319
 Hexadecapole moment (field-independent basis, Debye-Ang**3):
 XXXX=         -18320.1584 YYYY=          -5123.3468 ZZZZ=           -563.2582 XXXY=            130.7291
 XXXZ=           -586.0004 YYYX=            431.8852 YYYZ=            -48.8181 ZZZX=             19.0691
 ZZZY=            -10.8456 XXYY=          -3934.3507 XXZZ=          -3371.1706 YYZZ=           -865.9094
 XXYZ=           -225.1345 YYXZ=            -35.1553 ZZXY=             25.8536
 N-N= 3.332429713123D+03 E-N=-1.184059992970D+04  KE= 2.195633824341D+03
 Unable to Open any file for archive entry.
 1\1\GINC-CX1-106-7-1\FOpt\RB3LYP\6-311+G(d,p)\C22H10N2O6S2\NS5018\17-N
 ov-2020\0\\# opt=modredundant b3lyp/6-311+g(d,p)\\NDI_170.pdb\\0,1\C,-
 2.3181717123,-2.856011218,-0.5311658238\C,-2.1496337183,-1.4204030805,
 -0.177392681\C,-3.274605485,-0.5585433268,-0.1207905013\C,-4.574996770
 7,-1.0322462409,-0.4064311409\C,-4.7815134938,-2.4589897149,-0.7693729
 253\C,-0.891634121,-0.9367452167,0.0505826937\C,-3.0582219726,0.801356
 1617,0.2375945078\C,-1.7353166087,1.2826055851,0.5161359134\C,-0.61256
 1549,0.4265385236,0.3777229015\C,-1.6259733928,2.6555652408,1.06451710
 66\C,-4.0726967521,3.0619835645,0.6949968051\C,-4.2046285497,1.6427362
 859,0.2971210129\C,-5.4706272734,1.1592351019,0.0029263849\C,-5.664392
 5608,-0.1785577794,-0.3499878231\H,-6.6499307432,-0.565079103,-0.57613
 38522\H,-6.3043554945,1.8480637443,0.0597686147\H,-0.0809183324,-1.637
 6577759,-0.0768171966\N,-2.7856818717,3.4314865539,1.0461334803\N,-3.6
 275529214,-3.2437028164,-0.7934549115\O,-1.4045759465,-3.6554471423,-0
 .5942115709\O,-5.8631152849,-2.9450396382,-1.0309197658\O,-4.993468673
 4,3.8559420284,0.7422901266\O,-0.6166941708,3.1385681802,1.545250607\C
 ,0.8138044656,0.7588535384,0.4113497009\C,1.8334517039,-0.190117906,0.
 4634102471\S,1.5039675816,2.3286565503,0.053394475\C,3.1103091631,0.32
 39871704,0.2172639075\H,1.6760617576,-1.2335469815,0.7014196444\C,3.12
 60388244,1.6853071007,-0.0723559335\O,4.2738863552,-0.3928827024,0.252
 5274265\C,4.2665174361,2.5041153978,-0.3765470389\C,4.289245429,3.8609
 841513,-0.6660548019\S,5.9129643933,1.872844376,-0.4335541209\C,5.5834
 637632,4.3841296877,-0.921000398\O,3.1345232109,4.5833511347,-0.699753
 7694\C,6.5517700525,3.4249596641,-0.8290658379\H,5.7773211533,5.421474
 8268,-1.1641595684\H,7.614430697,3.5431322518,-0.9759833852\H,3.328515
 4701,5.5205016447,-0.8026751071\H,4.0863134351,-1.329395794,0.37165142
 08\H,-3.7624406657,-4.2186897206,-1.0380391889\H,-2.6718768275,4.37267
 76925,1.4058103656\\Version=ES64L-G16RevC.01\State=1-A\HF=-2202.080009
 9\RMSD=7.941e-09\RMSF=4.943e-04\Dipole=2.0051749,0.606569,-0.3107782\Q
 uadrupole=1.1819119,3.5731998,-4.7551117,8.7374893,-4.1397985,-8.36727
 98\PG=C01 [X(C22H10N2O6S2)]\\@
 The archive entry for this job was punched.


0EVERYBODY IS IGNORANT, ONLY ON DIFFERENT SUBJECTS.
0          WILL ROGERS
 Job cpu time:       2 days 19 hours 16 minutes  3.2 seconds.
 Elapsed time:       0 days  8 hours 26 minutes 25.5 seconds.
 File lengths (MBytes):  RWF=    361 Int=      0 D2E=      0 Chk=     44 Scr=      1
 Normal termination of Gaussian 16 at Tue Nov 17 17:22:49 2020.
