 Entering Gaussian System, Link 0=g16
 Input=NDI_-30.gjf
 Output=NDI_-30.log
 Initial command:
 /apps/gaussian/g16-c01-avx/g16/l1.exe "/tmp/pbs.2575767[15].pbs/Gau-366296.inp" -scrdir="/tmp/pbs.2575767[15].pbs/"
 Entering Link 1 = /apps/gaussian/g16-c01-avx/g16/l1.exe PID=    366297.
  
 Copyright (c) 1988-2019, Gaussian, Inc.  All Rights Reserved.
  
 This is part of the Gaussian(R) 16 program.  It is based on
 the Gaussian(R) 09 system (copyright 2009, Gaussian, Inc.),
 the Gaussian(R) 03 system (copyright 2003, Gaussian, Inc.),
 the Gaussian(R) 98 system (copyright 1998, Gaussian, Inc.),
 the Gaussian(R) 94 system (copyright 1995, Gaussian, Inc.),
 the Gaussian 92(TM) system (copyright 1992, Gaussian, Inc.),
 the Gaussian 90(TM) system (copyright 1990, Gaussian, Inc.),
 the Gaussian 88(TM) system (copyright 1988, Gaussian, Inc.),
 the Gaussian 86(TM) system (copyright 1986, Carnegie Mellon
 University), and the Gaussian 82(TM) system (copyright 1983,
 Carnegie Mellon University). Gaussian is a federally registered
 trademark of Gaussian, Inc.
  
 This software contains proprietary and confidential information,
 including trade secrets, belonging to Gaussian, Inc.
  
 This software is provided under written license and may be
 used, copied, transmitted, or stored only in accord with that
 written license.
  
 The following legend is applicable only to US Government
 contracts under FAR:
  
                    RESTRICTED RIGHTS LEGEND
  
 Use, reproduction and disclosure by the US Government is
 subject to restrictions as set forth in subparagraphs (a)
 and (c) of the Commercial Computer Software - Restricted
 Rights clause in FAR 52.227-19.
  
 Gaussian, Inc.
 340 Quinnipiac St., Bldg. 40, Wallingford CT 06492
  
  
 ---------------------------------------------------------------
 Warning -- This program may not be used in any manner that
 competes with the business of Gaussian, Inc. or will provide
 assistance to any competitor of Gaussian, Inc.  The licensee
 of this program is prohibited from giving any competitor of
 Gaussian, Inc. access to this program.  By using this program,
 the user acknowledges that Gaussian, Inc. is engaged in the
 business of creating and licensing software in the field of
 computational chemistry and represents and warrants to the
 licensee that it is not a competitor of Gaussian, Inc. and that
 it will not use this program in any manner prohibited above.
 ---------------------------------------------------------------
  

 Cite this work as:
 Gaussian 16, Revision C.01,
 M. J. Frisch, G. W. Trucks, H. B. Schlegel, G. E. Scuseria, 
 M. A. Robb, J. R. Cheeseman, G. Scalmani, V. Barone, 
 G. A. Petersson, H. Nakatsuji, X. Li, M. Caricato, A. V. Marenich, 
 J. Bloino, B. G. Janesko, R. Gomperts, B. Mennucci, H. P. Hratchian, 
 J. V. Ortiz, A. F. Izmaylov, J. L. Sonnenberg, D. Williams-Young, 
 F. Ding, F. Lipparini, F. Egidi, J. Goings, B. Peng, A. Petrone, 
 T. Henderson, D. Ranasinghe, V. G. Zakrzewski, J. Gao, N. Rega, 
 G. Zheng, W. Liang, M. Hada, M. Ehara, K. Toyota, R. Fukuda, 
 J. Hasegawa, M. Ishida, T. Nakajima, Y. Honda, O. Kitao, H. Nakai, 
 T. Vreven, K. Throssell, J. A. Montgomery, Jr., J. E. Peralta, 
 F. Ogliaro, M. J. Bearpark, J. J. Heyd, E. N. Brothers, K. N. Kudin, 
 V. N. Staroverov, T. A. Keith, R. Kobayashi, J. Normand, 
 K. Raghavachari, A. P. Rendell, J. C. Burant, S. S. Iyengar, 
 J. Tomasi, M. Cossi, J. M. Millam, M. Klene, C. Adamo, R. Cammi, 
 J. W. Ochterski, R. L. Martin, K. Morokuma, O. Farkas, 
 J. B. Foresman, and D. J. Fox, Gaussian, Inc., Wallingford CT, 2019.
 
 ******************************************
 Gaussian 16:  ES64L-G16RevC.01  3-Jul-2019
                17-Nov-2020 
 ******************************************
 %mem=10GB
 %nprocshared=8
 Will use up to    8 processors via shared memory.
 -------------------------------------
 # opt=modredundant b3lyp/6-311+g(d,p)
 -------------------------------------
 1/18=120,19=15,26=3,38=1/1,3;
 2/9=110,12=2,17=6,18=5,40=1/2;
 3/5=4,6=6,7=111,11=2,25=1,30=1,71=1,74=-5/1,2,3;
 4//1;
 5/5=2,38=5/2;
 6/7=2,8=2,9=2,10=2,28=1/1;
 7//1,2,3,16;
 1/18=20,19=15,26=3/3(2);
 2/9=110/2;
 99//99;
 2/9=110/2;
 3/5=4,6=6,7=111,11=2,25=1,30=1,71=1,74=-5/1,2,3;
 4/5=5,16=3,69=1/1;
 5/5=2,38=5/2;
 7//1,2,3,16;
 1/18=20,19=15,26=3/3(-5);
 2/9=110/2;
 6/7=2,8=2,9=2,10=2,19=2,28=1/1;
 99/9=1/99;
 -----------
 NDI_-30.pdb
 -----------
 Symbolic Z-matrix:
 Charge =  0 Multiplicity = 1
 C                    -2.56     -2.99     -0.41 
 C                    -2.26     -1.55     -0.22 
 C                    -3.3      -0.61     -0.08 
 C                    -4.65     -1.02     -0.12 
 C                    -4.99     -2.46     -0.3 
 C                    -0.95     -1.14     -0.22 
 C                    -2.96      0.76      0.1 
 C                    -1.6       1.19      0.12 
 C                    -0.56      0.23     -0.07 
 C                    -1.33      2.62      0.45 
 C                    -3.78      3.12      0.51 
 C                    -4.03      1.68      0.27 
 C                    -5.36      1.25      0.23 
 C                    -5.67     -0.1       0.04 
 H                    -6.7      -0.44      0.01 
 H                    -6.13      2.        0.36 
 H                    -0.19     -1.9      -0.37 
 N                    -2.43      3.48      0.61 
 N                    -3.92     -3.35     -0.44 
 O                    -1.69     -3.85     -0.53 
 O                    -6.15     -2.85     -0.34 
 O                    -4.68      3.94      0.63 
 O                    -0.21      3.1       0.6 
 C                     0.88      0.48     -0.18 
 C                     1.569     1.568    -0.665 
 S                     1.999    -0.817     0.222 
 C                     2.967     1.371    -0.719 
 H                     1.09      2.489    -0.975 
 C                     3.387     0.124    -0.249 
 O                     3.895     2.272    -1.156 
 C                     4.736    -0.361    -0.141 
 C                     5.155    -1.616     0.298 
 S                     6.145     0.613    -0.549 
 C                     6.564    -1.789     0.306 
 O                     4.225    -2.53      0.673 
 C                     7.224    -0.665    -0.134 
 H                     7.074    -2.689     0.608 
 H                     8.294    -0.524    -0.228 
 H                     4.49     -3.577     0.764 
 H                     3.521     3.205    -1.206 
 H                    -4.23     -4.36     -0.17 
 H                    -2.15      4.41      0.36 
 
 The following ModRedundant input section has been read:
 D       8       9      24      25 F                                           
 

 GradGradGradGradGradGradGradGradGradGradGradGradGradGradGradGradGradGrad
 Berny optimization.
 Initialization pass.
                           ----------------------------
                           !    Initial Parameters    !
                           ! (Angstroms and Degrees)  !
 --------------------------                            --------------------------
 ! Name  Definition              Value          Derivative Info.                !
 --------------------------------------------------------------------------------
 ! R1    R(1,2)                  1.4831         estimate D2E/DX2                !
 ! R2    R(1,19)                 1.4072         estimate D2E/DX2                !
 ! R3    R(1,20)                 1.2292         estimate D2E/DX2                !
 ! R4    R(2,3)                  1.4088         estimate D2E/DX2                !
 ! R5    R(2,6)                  1.3727         estimate D2E/DX2                !
 ! R6    R(3,4)                  1.4115         estimate D2E/DX2                !
 ! R7    R(3,7)                  1.423          estimate D2E/DX2                !
 ! R8    R(4,5)                  1.4905         estimate D2E/DX2                !
 ! R9    R(4,14)                 1.3829         estimate D2E/DX2                !
 ! R10   R(5,19)                 1.3988         estimate D2E/DX2                !
 ! R11   R(5,21)                 1.2245         estimate D2E/DX2                !
 ! R12   R(6,9)                  1.4323         estimate D2E/DX2                !
 ! R13   R(6,17)                 1.0852         estimate D2E/DX2                !
 ! R14   R(7,8)                  1.4265         estimate D2E/DX2                !
 ! R15   R(7,12)                 1.4213         estimate D2E/DX2                !
 ! R16   R(8,9)                  1.428          estimate D2E/DX2                !
 ! R17   R(8,10)                 1.4922         estimate D2E/DX2                !
 ! R18   R(9,24)                 1.4657         estimate D2E/DX2                !
 ! R19   R(10,18)                1.4054         estimate D2E/DX2                !
 ! R20   R(10,23)                1.2277         estimate D2E/DX2                !
 ! R21   R(11,12)                1.4811         estimate D2E/DX2                !
 ! R22   R(11,18)                1.4007         estimate D2E/DX2                !
 ! R23   R(11,22)                1.2234         estimate D2E/DX2                !
 ! R24   R(12,13)                1.3984         estimate D2E/DX2                !
 ! R25   R(13,14)                1.3981         estimate D2E/DX2                !
 ! R26   R(13,16)                1.0827         estimate D2E/DX2                !
 ! R27   R(14,15)                1.0851         estimate D2E/DX2                !
 ! R28   R(18,42)                1.0029         estimate D2E/DX2                !
 ! R29   R(19,41)                1.0905         estimate D2E/DX2                !
 ! R30   R(24,25)                1.3761         estimate D2E/DX2                !
 ! R31   R(24,26)                1.7595         estimate D2E/DX2                !
 ! R32   R(25,27)                1.4128         estimate D2E/DX2                !
 ! R33   R(25,28)                1.0834         estimate D2E/DX2                !
 ! R34   R(26,29)                1.7418         estimate D2E/DX2                !
 ! R35   R(27,29)                1.3973         estimate D2E/DX2                !
 ! R36   R(27,30)                1.3653         estimate D2E/DX2                !
 ! R37   R(29,31)                1.4376         estimate D2E/DX2                !
 ! R38   R(30,40)                1.0064         estimate D2E/DX2                !
 ! R39   R(31,32)                1.394          estimate D2E/DX2                !
 ! R40   R(31,33)                1.7608         estimate D2E/DX2                !
 ! R41   R(32,34)                1.4196         estimate D2E/DX2                !
 ! R42   R(32,35)                1.3568         estimate D2E/DX2                !
 ! R43   R(33,36)                1.7233         estimate D2E/DX2                !
 ! R44   R(34,36)                1.3757         estimate D2E/DX2                !
 ! R45   R(34,37)                1.0776         estimate D2E/DX2                !
 ! R46   R(35,39)                1.0838         estimate D2E/DX2                !
 ! R47   R(36,38)                1.0833         estimate D2E/DX2                !
 ! A1    A(2,1,19)             116.527          estimate D2E/DX2                !
 ! A2    A(2,1,20)             123.2737         estimate D2E/DX2                !
 ! A3    A(19,1,20)            120.1979         estimate D2E/DX2                !
 ! A4    A(1,2,3)              120.7455         estimate D2E/DX2                !
 ! A5    A(1,2,6)              118.8843         estimate D2E/DX2                !
 ! A6    A(3,2,6)              120.3454         estimate D2E/DX2                !
 ! A7    A(2,3,4)              120.6259         estimate D2E/DX2                !
 ! A8    A(2,3,7)              118.5916         estimate D2E/DX2                !
 ! A9    A(4,3,7)              120.7824         estimate D2E/DX2                !
 ! A10   A(3,4,5)              120.1483         estimate D2E/DX2                !
 ! A11   A(3,4,14)             120.5934         estimate D2E/DX2                !
 ! A12   A(5,4,14)             119.2388         estimate D2E/DX2                !
 ! A13   A(4,5,19)             116.8914         estimate D2E/DX2                !
 ! A14   A(4,5,21)             121.8545         estimate D2E/DX2                !
 ! A15   A(19,5,21)            121.2488         estimate D2E/DX2                !
 ! A16   A(2,6,9)              123.0626         estimate D2E/DX2                !
 ! A17   A(2,6,17)             117.3337         estimate D2E/DX2                !
 ! A18   A(9,6,17)             119.5802         estimate D2E/DX2                !
 ! A19   A(3,7,8)              121.3176         estimate D2E/DX2                !
 ! A20   A(3,7,12)             117.2859         estimate D2E/DX2                !
 ! A21   A(8,7,12)             121.3945         estimate D2E/DX2                !
 ! A22   A(7,8,9)              119.3284         estimate D2E/DX2                !
 ! A23   A(7,8,10)             117.6762         estimate D2E/DX2                !
 ! A24   A(9,8,10)             122.8113         estimate D2E/DX2                !
 ! A25   A(6,9,8)              117.2994         estimate D2E/DX2                !
 ! A26   A(6,9,24)             115.0121         estimate D2E/DX2                !
 ! A27   A(8,9,24)             127.6498         estimate D2E/DX2                !
 ! A28   A(8,10,18)            118.0319         estimate D2E/DX2                !
 ! A29   A(8,10,23)            124.524          estimate D2E/DX2                !
 ! A30   A(18,10,23)           117.4428         estimate D2E/DX2                !
 ! A31   A(12,11,18)           115.0947         estimate D2E/DX2                !
 ! A32   A(12,11,22)           122.9128         estimate D2E/DX2                !
 ! A33   A(18,11,22)           121.9866         estimate D2E/DX2                !
 ! A34   A(7,12,11)            121.4411         estimate D2E/DX2                !
 ! A35   A(7,12,13)            120.9006         estimate D2E/DX2                !
 ! A36   A(11,12,13)           117.6548         estimate D2E/DX2                !
 ! A37   A(12,13,14)           120.7772         estimate D2E/DX2                !
 ! A38   A(12,13,16)           117.3846         estimate D2E/DX2                !
 ! A39   A(14,13,16)           121.8361         estimate D2E/DX2                !
 ! A40   A(4,14,13)            119.6408         estimate D2E/DX2                !
 ! A41   A(4,14,15)            119.2412         estimate D2E/DX2                !
 ! A42   A(13,14,15)           121.1172         estimate D2E/DX2                !
 ! A43   A(10,18,11)           126.0815         estimate D2E/DX2                !
 ! A44   A(10,18,42)           108.6957         estimate D2E/DX2                !
 ! A45   A(11,18,42)           119.3146         estimate D2E/DX2                !
 ! A46   A(1,19,5)             125.0576         estimate D2E/DX2                !
 ! A47   A(1,19,41)            120.4267         estimate D2E/DX2                !
 ! A48   A(5,19,41)            110.3085         estimate D2E/DX2                !
 ! A49   A(9,24,25)            130.7851         estimate D2E/DX2                !
 ! A50   A(9,24,26)            118.8125         estimate D2E/DX2                !
 ! A51   A(25,24,26)           110.1757         estimate D2E/DX2                !
 ! A52   A(24,25,27)           113.494          estimate D2E/DX2                !
 ! A53   A(24,25,28)           123.4763         estimate D2E/DX2                !
 ! A54   A(27,25,28)           123.0296         estimate D2E/DX2                !
 ! A55   A(24,26,29)            92.681          estimate D2E/DX2                !
 ! A56   A(25,27,29)           114.1431         estimate D2E/DX2                !
 ! A57   A(25,27,30)           126.3555         estimate D2E/DX2                !
 ! A58   A(29,27,30)           119.4938         estimate D2E/DX2                !
 ! A59   A(26,29,27)           109.486          estimate D2E/DX2                !
 ! A60   A(26,29,31)           123.0376         estimate D2E/DX2                !
 ! A61   A(27,29,31)           127.4757         estimate D2E/DX2                !
 ! A62   A(27,30,40)           112.0312         estimate D2E/DX2                !
 ! A63   A(29,31,32)           127.548          estimate D2E/DX2                !
 ! A64   A(29,31,33)           123.152          estimate D2E/DX2                !
 ! A65   A(32,31,33)           109.2958         estimate D2E/DX2                !
 ! A66   A(31,32,34)           114.1929         estimate D2E/DX2                !
 ! A67   A(31,32,35)           119.1749         estimate D2E/DX2                !
 ! A68   A(34,32,35)           126.6313         estimate D2E/DX2                !
 ! A69   A(31,33,36)            92.0061         estimate D2E/DX2                !
 ! A70   A(32,34,36)           112.0119         estimate D2E/DX2                !
 ! A71   A(32,34,37)           124.9652         estimate D2E/DX2                !
 ! A72   A(36,34,37)           123.0204         estimate D2E/DX2                !
 ! A73   A(32,35,39)           120.4216         estimate D2E/DX2                !
 ! A74   A(33,36,34)           112.4917         estimate D2E/DX2                !
 ! A75   A(33,36,38)           120.0662         estimate D2E/DX2                !
 ! A76   A(34,36,38)           127.4406         estimate D2E/DX2                !
 ! D1    D(19,1,2,3)            -0.0402         estimate D2E/DX2                !
 ! D2    D(19,1,2,6)          -178.232          estimate D2E/DX2                !
 ! D3    D(20,1,2,3)          -179.6115         estimate D2E/DX2                !
 ! D4    D(20,1,2,6)             2.1967         estimate D2E/DX2                !
 ! D5    D(2,1,19,5)            -0.2714         estimate D2E/DX2                !
 ! D6    D(2,1,19,41)         -154.9401         estimate D2E/DX2                !
 ! D7    D(20,1,19,5)          179.3139         estimate D2E/DX2                !
 ! D8    D(20,1,19,41)          24.6452         estimate D2E/DX2                !
 ! D9    D(1,2,3,4)             -0.105          estimate D2E/DX2                !
 ! D10   D(1,2,3,7)           -179.9973         estimate D2E/DX2                !
 ! D11   D(6,2,3,4)            178.0603         estimate D2E/DX2                !
 ! D12   D(6,2,3,7)             -1.832          estimate D2E/DX2                !
 ! D13   D(1,2,6,9)            178.7655         estimate D2E/DX2                !
 ! D14   D(1,2,6,17)             0.5382         estimate D2E/DX2                !
 ! D15   D(3,2,6,9)              0.5662         estimate D2E/DX2                !
 ! D16   D(3,2,6,17)          -177.661          estimate D2E/DX2                !
 ! D17   D(2,3,4,5)              0.5238         estimate D2E/DX2                !
 ! D18   D(2,3,4,14)           178.9053         estimate D2E/DX2                !
 ! D19   D(7,3,4,5)           -179.5863         estimate D2E/DX2                !
 ! D20   D(7,3,4,14)            -1.2048         estimate D2E/DX2                !
 ! D21   D(2,3,7,8)              0.9439         estimate D2E/DX2                !
 ! D22   D(2,3,7,12)          -178.5478         estimate D2E/DX2                !
 ! D23   D(4,3,7,8)           -178.9482         estimate D2E/DX2                !
 ! D24   D(4,3,7,12)             1.56           estimate D2E/DX2                !
 ! D25   D(3,4,5,19)            -0.7863         estimate D2E/DX2                !
 ! D26   D(3,4,5,21)          -179.9543         estimate D2E/DX2                !
 ! D27   D(14,4,5,19)         -179.1897         estimate D2E/DX2                !
 ! D28   D(14,4,5,21)            1.6423         estimate D2E/DX2                !
 ! D29   D(3,4,14,13)            0.6262         estimate D2E/DX2                !
 ! D30   D(3,4,14,15)         -179.7176         estimate D2E/DX2                !
 ! D31   D(5,4,14,13)          179.0223         estimate D2E/DX2                !
 ! D32   D(5,4,14,15)           -1.3214         estimate D2E/DX2                !
 ! D33   D(4,5,19,1)             0.6724         estimate D2E/DX2                !
 ! D34   D(4,5,19,41)          157.5074         estimate D2E/DX2                !
 ! D35   D(21,5,19,1)          179.8457         estimate D2E/DX2                !
 ! D36   D(21,5,19,41)         -23.3193         estimate D2E/DX2                !
 ! D37   D(2,6,9,8)              1.5899         estimate D2E/DX2                !
 ! D38   D(2,6,9,24)          -176.322          estimate D2E/DX2                !
 ! D39   D(17,6,9,8)           179.779          estimate D2E/DX2                !
 ! D40   D(17,6,9,24)            1.8672         estimate D2E/DX2                !
 ! D41   D(3,7,8,9)              1.2142         estimate D2E/DX2                !
 ! D42   D(3,7,8,10)          -173.9942         estimate D2E/DX2                !
 ! D43   D(12,7,8,9)          -179.3149         estimate D2E/DX2                !
 ! D44   D(12,7,8,10)            5.4766         estimate D2E/DX2                !
 ! D45   D(3,7,12,11)          177.9024         estimate D2E/DX2                !
 ! D46   D(3,7,12,13)           -1.4077         estimate D2E/DX2                !
 ! D47   D(8,7,12,11)           -1.5889         estimate D2E/DX2                !
 ! D48   D(8,7,12,13)          179.1009         estimate D2E/DX2                !
 ! D49   D(7,8,9,6)             -2.414          estimate D2E/DX2                !
 ! D50   D(7,8,9,24)           175.1958         estimate D2E/DX2                !
 ! D51   D(10,8,9,6)           172.5365         estimate D2E/DX2                !
 ! D52   D(10,8,9,24)           -9.8537         estimate D2E/DX2                !
 ! D53   D(7,8,10,18)           -5.2348         estimate D2E/DX2                !
 ! D54   D(7,8,10,23)          174.3306         estimate D2E/DX2                !
 ! D55   D(9,8,10,18)          179.736          estimate D2E/DX2                !
 ! D56   D(9,8,10,23)           -0.6986         estimate D2E/DX2                !
 ! D57   D(6,9,24,25)          147.6202         estimate D2E/DX2                !
 ! D58   D(6,9,24,26)          -26.3161         estimate D2E/DX2                !
 ! D59   D(8,9,24,25)          -30.036          Frozen                          !
 ! D60   D(8,9,24,26)          156.0276         estimate D2E/DX2                !
 ! D61   D(8,10,18,11)           1.0927         estimate D2E/DX2                !
 ! D62   D(8,10,18,42)        -151.3012         estimate D2E/DX2                !
 ! D63   D(23,10,18,11)       -178.5038         estimate D2E/DX2                !
 ! D64   D(23,10,18,42)         29.1023         estimate D2E/DX2                !
 ! D65   D(18,11,12,7)          -2.5592         estimate D2E/DX2                !
 ! D66   D(18,11,12,13)        176.7725         estimate D2E/DX2                !
 ! D67   D(22,11,12,7)         178.3061         estimate D2E/DX2                !
 ! D68   D(22,11,12,13)         -2.3622         estimate D2E/DX2                !
 ! D69   D(12,11,18,10)          2.7627         estimate D2E/DX2                !
 ! D70   D(12,11,18,42)        152.5373         estimate D2E/DX2                !
 ! D71   D(22,11,18,10)       -178.0937         estimate D2E/DX2                !
 ! D72   D(22,11,18,42)        -28.3191         estimate D2E/DX2                !
 ! D73   D(7,12,13,14)           0.8911         estimate D2E/DX2                !
 ! D74   D(7,12,13,16)        -179.6245         estimate D2E/DX2                !
 ! D75   D(11,12,13,14)       -178.4444         estimate D2E/DX2                !
 ! D76   D(11,12,13,16)          1.04           estimate D2E/DX2                !
 ! D77   D(12,13,14,4)          -0.4717         estimate D2E/DX2                !
 ! D78   D(12,13,14,15)        179.8786         estimate D2E/DX2                !
 ! D79   D(16,13,14,4)        -179.9328         estimate D2E/DX2                !
 ! D80   D(16,13,14,15)          0.4175         estimate D2E/DX2                !
 ! D81   D(9,24,25,27)        -174.1946         estimate D2E/DX2                !
 ! D82   D(9,24,25,28)           5.9012         estimate D2E/DX2                !
 ! D83   D(26,24,25,27)          0.1464         estimate D2E/DX2                !
 ! D84   D(26,24,25,28)       -179.7577         estimate D2E/DX2                !
 ! D85   D(9,24,26,29)         175.7355         estimate D2E/DX2                !
 ! D86   D(25,24,26,29)          0.6236         estimate D2E/DX2                !
 ! D87   D(24,25,27,29)         -1.1184         estimate D2E/DX2                !
 ! D88   D(24,25,27,30)        179.8997         estimate D2E/DX2                !
 ! D89   D(28,25,27,29)        178.7863         estimate D2E/DX2                !
 ! D90   D(28,25,27,30)         -0.1957         estimate D2E/DX2                !
 ! D91   D(24,26,29,27)         -1.2174         estimate D2E/DX2                !
 ! D92   D(24,26,29,31)        178.5137         estimate D2E/DX2                !
 ! D93   D(25,27,29,26)          1.5399         estimate D2E/DX2                !
 ! D94   D(25,27,29,31)       -178.1762         estimate D2E/DX2                !
 ! D95   D(30,27,29,26)       -179.4021         estimate D2E/DX2                !
 ! D96   D(30,27,29,31)          0.8819         estimate D2E/DX2                !
 ! D97   D(25,27,30,40)         16.0517         estimate D2E/DX2                !
 ! D98   D(29,27,30,40)       -162.881          estimate D2E/DX2                !
 ! D99   D(26,29,31,32)          1.9662         estimate D2E/DX2                !
 ! D100  D(26,29,31,33)       -177.2038         estimate D2E/DX2                !
 ! D101  D(27,29,31,32)       -178.3531         estimate D2E/DX2                !
 ! D102  D(27,29,31,33)          2.4769         estimate D2E/DX2                !
 ! D103  D(29,31,32,34)       -179.2672         estimate D2E/DX2                !
 ! D104  D(29,31,32,35)          0.4022         estimate D2E/DX2                !
 ! D105  D(33,31,32,34)         -0.0034         estimate D2E/DX2                !
 ! D106  D(33,31,32,35)        179.6659         estimate D2E/DX2                !
 ! D107  D(29,31,33,36)        179.5132         estimate D2E/DX2                !
 ! D108  D(32,31,33,36)          0.2104         estimate D2E/DX2                !
 ! D109  D(31,32,34,36)         -0.2781         estimate D2E/DX2                !
 ! D110  D(31,32,34,37)       -179.7149         estimate D2E/DX2                !
 ! D111  D(35,32,34,36)       -179.9183         estimate D2E/DX2                !
 ! D112  D(35,32,34,37)          0.6449         estimate D2E/DX2                !
 ! D113  D(31,32,35,39)        163.7265         estimate D2E/DX2                !
 ! D114  D(34,32,35,39)        -16.6494         estimate D2E/DX2                !
 ! D115  D(31,33,36,34)         -0.3761         estimate D2E/DX2                !
 ! D116  D(31,33,36,38)       -179.962          estimate D2E/DX2                !
 ! D117  D(32,34,36,33)          0.4372         estimate D2E/DX2                !
 ! D118  D(32,34,36,38)        179.9859         estimate D2E/DX2                !
 ! D119  D(37,34,36,33)        179.8868         estimate D2E/DX2                !
 ! D120  D(37,34,36,38)         -0.5645         estimate D2E/DX2                !
 --------------------------------------------------------------------------------
 Trust Radius=3.00D-01 FncErr=1.00D-07 GrdErr=1.00D-06 EigMax=2.50D+02 EigMin=1.00D-04
 Number of steps in this run=    252 maximum allowed number of steps=    252.
 GradGradGradGradGradGradGradGradGradGradGradGradGradGradGradGradGradGrad

                          Input orientation:                          
 ---------------------------------------------------------------------
 Center     Atomic      Atomic             Coordinates (Angstroms)
 Number     Number       Type             X           Y           Z
 ---------------------------------------------------------------------
      1          6           0       -2.560000   -2.990000   -0.410000
      2          6           0       -2.260000   -1.550000   -0.220000
      3          6           0       -3.300000   -0.610000   -0.080000
      4          6           0       -4.650000   -1.020000   -0.120000
      5          6           0       -4.990000   -2.460000   -0.300000
      6          6           0       -0.950000   -1.140000   -0.220000
      7          6           0       -2.960000    0.760000    0.100000
      8          6           0       -1.600000    1.190000    0.120000
      9          6           0       -0.560000    0.230000   -0.070000
     10          6           0       -1.330000    2.620000    0.450000
     11          6           0       -3.780000    3.120000    0.510000
     12          6           0       -4.030000    1.680000    0.270000
     13          6           0       -5.360000    1.250000    0.230000
     14          6           0       -5.670000   -0.100000    0.040000
     15          1           0       -6.700000   -0.440000    0.010000
     16          1           0       -6.130000    2.000000    0.360000
     17          1           0       -0.190000   -1.900000   -0.370000
     18          7           0       -2.430000    3.480000    0.610000
     19          7           0       -3.920000   -3.350000   -0.440000
     20          8           0       -1.690000   -3.850000   -0.530000
     21          8           0       -6.150000   -2.850000   -0.340000
     22          8           0       -4.680000    3.940000    0.630000
     23          8           0       -0.210000    3.100000    0.600000
     24          6           0        0.880000    0.480000   -0.180000
     25          6           0        1.569000    1.568000   -0.665000
     26         16           0        1.999000   -0.817000    0.222000
     27          6           0        2.967000    1.371000   -0.719000
     28          1           0        1.090000    2.489000   -0.975000
     29          6           0        3.387000    0.124000   -0.249000
     30          8           0        3.895000    2.272000   -1.156000
     31          6           0        4.736000   -0.361000   -0.141000
     32          6           0        5.155000   -1.616000    0.298000
     33         16           0        6.145000    0.613000   -0.549000
     34          6           0        6.564000   -1.789000    0.306000
     35          8           0        4.225000   -2.530000    0.673000
     36          6           0        7.224000   -0.665000   -0.134000
     37          1           0        7.074000   -2.689000    0.608000
     38          1           0        8.294000   -0.524000   -0.228000
     39          1           0        4.490000   -3.577000    0.764000
     40          1           0        3.521000    3.205000   -1.206000
     41          1           0       -4.230000   -4.360000   -0.170000
     42          1           0       -2.150000    4.410000    0.360000
 ---------------------------------------------------------------------
                    Distance matrix (angstroms):
                    1          2          3          4          5
     1  C    0.000000
     2  C    1.483139   0.000000
     3  C    2.514140   1.408829   0.000000
     4  C    2.886711   2.450102   1.411453   0.000000
     5  C    2.489558   2.878784   2.515353   1.490503   0.000000
     6  C    2.459817   1.372662   2.413089   3.703296   4.250929
     7  C    3.805601   2.434851   1.422990   2.464325   3.827440
     8  C    4.321447   2.838803   2.483948   3.774149   4.999100
     9  C    3.805785   2.465948   2.865886   4.277043   5.187861
    10  C    5.807289   4.324662   3.820301   4.959526   6.305910
    11  C    6.298166   4.965098   3.806757   4.277078   5.766854
    12  C    4.942894   3.715629   2.428889   2.797588   4.287902
    13  C    5.121250   4.201488   2.792723   2.404059   3.765886
    14  C    4.269274   3.714593   2.427221   1.382896   2.479435
    15  H    4.880420   4.582423   3.405437   2.134432   2.664695
    16  H    6.183680   5.283540   3.874868   3.397234   4.650462
    17  H    2.608946   2.104733   3.379393   4.552856   4.833063
    18  N    6.551198   5.100853   4.238054   5.070631   6.531868
    19  N    1.407160   2.458455   2.832243   2.462560   1.398785
    20  O    1.229187   2.389770   3.645847   4.115653   3.588175
    21  O    3.593411   4.103230   3.634240   2.376405   1.224459
    22  O    7.321264   6.059620   4.807390   5.016473   6.474643
    23  O    6.605354   5.147563   4.875920   6.099705   7.387286
    24  C    4.891564   3.739265   4.320937   5.730140   6.566194
    25  C    6.155407   4.957942   5.365917   6.758012   7.705744
    26  S    5.089777   4.344161   5.311634   6.660884   7.198476
    27  C    7.047094   6.008558   6.603633   8.005896   8.841152
    28  H    6.607660   5.301514   5.447653   6.781719   7.868585
    29  C    6.714888   5.889968   6.729286   8.119036   8.766629
    30  O    8.361351   7.305327   7.825070   9.215616  10.102860
    31  C    7.759872   7.096758   8.040088   9.409130   9.951189
    32  C    7.868314   7.433364   8.523024   9.831987  10.197596
    33  S    9.422205   8.685093   9.535393  10.926242  11.553941
    34  C    9.230516   8.842894   9.941707  11.248406  11.589322
    35  O    6.886270   6.619145   7.802502   9.037399   9.266491
    36  C   10.060241   9.525591  10.524282  11.879314  12.346310
    37  H    9.692310   9.439622  10.602616  11.864557  12.100289
    38  H   11.132098  10.603757  11.595264  12.953950  13.424527
    39  H    7.171147   7.116143   8.378516   9.532015   9.604696
    40  H    8.717236   7.549979   7.896084   9.262573  10.264024
    41  H    2.173338   3.432128   3.864647   3.366675   2.050488
    42  H    7.451242   5.989165   5.168801   5.997108   7.463116
                    6          7          8          9         10
     6  C    0.000000
     7  C    2.784331   0.000000
     8  C    2.442744   1.426499   0.000000
     9  C    1.432306   2.463696   1.428041   0.000000
    10  C    3.838085   2.497799   1.492213   2.564254   0.000000
    11  C    5.166178   2.531818   2.937584   4.365421   2.501220
    12  C    4.204628   1.421337   2.483445   3.776109   2.864612
    13  C    5.036139   2.452957   3.762087   4.916340   4.262183
    14  C    4.840207   2.843818   4.270293   5.121826   5.138297
    15  H    5.797016   3.928829   5.355278   6.176965   6.196297
    16  H    6.085097   3.413810   4.608102   5.860264   4.840713
    17  H    1.085219   3.869031   3.431661   2.182613   4.733117
    18  N    4.921758   2.817694   2.484572   3.810748   1.405418
    19  N    3.708558   4.255032   5.129093   4.923708   6.568188
    20  O    2.826270   4.823059   5.082539   4.258509   6.553694
    21  O    5.475263   4.837541   6.102106   6.388067   7.333308
    22  O    6.359387   3.653998   4.160409   5.588247   3.605177
    23  O    4.381507   3.645285   2.410519   2.967878   1.227721
    24  C    2.444361   3.860363   2.597018   1.465674   3.140159
    25  C    3.725138   4.663682   3.286589   2.583972   3.279349
    26  S    2.999382   5.205141   4.122045   2.780279   4.790323
    27  C    4.679424   6.014434   4.646953   3.763351   4.625016
    28  H    4.230989   4.532942   3.181592   2.940171   2.811438
    29  C    4.517533   6.388326   5.112992   3.952478   5.382258
    30  O    5.999322   7.131248   5.744034   5.019580   5.477314
    31  C    5.739658   7.780947   6.528294   5.329347   6.784688
    32  C    6.145399   8.458002   7.316785   6.017006   7.747388
    33  S    7.315755   9.129284   7.795224   6.732990   7.803953
    34  C    7.560296   9.861360   8.692522   7.414116   9.042967
    35  O    5.432327   7.923172   6.933602   5.573677   7.578275
    36  C    8.188241  10.285876   9.020450   7.835546   9.181677
    37  H    8.213986  10.622374   9.514361   8.201110   9.941713
    38  H    9.264505  11.331759  10.047394   8.887452  10.147206
    39  H    6.041591   8.645980   7.760614   6.378974   8.507280
    40  H    6.311978   7.048902   5.660666   5.176455   5.159144
    41  H    4.596662   5.282064   6.148455   5.877670   7.583851
    42  H    5.707793   3.747826   3.275439   4.492816   1.970939
                   11         12         13         14         15
    11  C    0.000000
    12  C    1.481114   0.000000
    13  C    2.464082   1.398356   0.000000
    14  C    3.763164   2.431234   1.398106   0.000000
    15  H    4.631414   3.419196   2.167971   1.085081   0.000000
    16  H    2.607566   2.126147   1.082728   2.173476   2.530020
    17  H    6.234012   5.288818   6.083700   5.782603   6.682522
    18  N    1.400750   2.432201   3.701648   4.861985   5.827461
    19  N    6.540872   5.081053   4.866467   3.722284   4.049568
    20  O    7.350551   6.057764   6.329020   5.497981   6.084390
    21  O    6.479221   5.038591   4.214143   2.817321   2.496618
    22  O    1.223438   2.379012   2.803302   4.201167   4.863044
    23  O    3.571190   4.088728   5.484697   6.353361   7.416185
    24  C    5.400120   5.074505   6.300683   6.579308   7.637991
    25  C    5.692199   5.677638   6.993797   7.462062   8.536044
    26  S    6.998554   6.525807   7.643784   7.704594   8.709746
    27  C    7.077531   7.073303   8.381776   8.794185   9.862152
    28  H    5.130330   5.330939   6.677548   7.309634   8.380535
    29  C    7.804998   7.596209   8.832176   9.064378  10.106075
    30  O    7.899385   8.074006   9.413846   9.927035  10.998569
    31  C    9.222983   9.009848  10.230453  10.410846  11.437270
    32  C   10.114784   9.758516  10.898798  10.933684  11.916667
    33  S   10.291363  10.263522  11.548924  11.851140  12.900206
    34  C   11.451560  11.147560  12.305408  12.352904  13.335708
    35  O    9.799444   9.275319  10.312947  10.208654  11.142858
    36  C   11.654569  11.502815  12.734079  12.907546  13.926562
    37  H   12.311109  11.937388  13.048485  13.016723  13.969205
    38  H   12.633482  12.529429  13.776377  13.973006  14.996124
    39  H   10.644587  10.023497  10.982148  10.762867  11.645831
    40  H    7.500432   7.843583   9.206318   9.846320  10.919410
    41  H    7.524314   6.059307   5.736637   4.501700   4.636777
    42  H    2.084107   3.315931   4.506285   5.730000   6.659392
                   16         17         18         19         20
    16  H    0.000000
    17  H    7.143284   0.000000
    18  N    3.992856   5.909518   0.000000
    19  N    5.843509   4.002537   7.069052   0.000000
    20  O    7.397851   2.465380   7.454938   2.287138   0.000000
    21  O    4.900296   6.035313   7.403364   2.287553   4.574680
    22  O    2.437006   7.434090   2.296628   7.407199   8.424358
    23  O    6.026110   5.093260   2.252310   7.513202   7.195123
    24  C    7.193198   2.616372   4.536541   6.146259   5.047405
    25  C    7.778936   3.899760   4.612306   7.373362   6.324083
    26  S    8.604369   2.512981   6.183106   6.472163   4.834596
    27  C    9.182336   4.559374   5.944891   8.354427   6.998729
    28  H    7.358651   4.611697   3.985562   7.712344   6.936090
    29  C    9.719236   4.111708   6.770384   8.093047   6.453493
    30  O   10.142626   5.891571   6.677099   9.653692   8.310414
    31  C   11.130826   5.165892   8.165099   9.162416   7.322426
    32  C   11.850339   5.394062   9.143237   9.268604   7.247783
    33  S   12.386512   6.817583   9.115569  10.817646   9.016981
    34  C   13.247531   6.788653  10.428174  10.625794   8.548399
    35  O   11.306852   4.580063   8.967335   8.261489   6.178740
    36  C   13.626283   7.519862  10.532534  11.466979   9.474198
    37  H   14.014059   7.371886  11.330604  11.063601   8.913510
    38  H   14.654968   8.596034  11.477737  12.538461  10.527760
    39  H   12.002106   5.099087   9.884906   8.498779   6.319918
    40  H    9.851202   6.366431   6.227992   9.946017   8.796847
    41  H    6.658866   4.734258   8.081708   1.090459   2.615588
    42  H    4.652795   6.647601   1.002896   7.999406   8.320535
                   21         22         23         24         25
    21  O    0.000000
    22  O    7.014692   0.000000
    23  O    8.459888   4.548340   0.000000
    24  C    7.780450   6.598583   2.942941   0.000000
    25  C    8.899849   6.808334   2.666850   1.376114   0.000000
    26  S    8.417549   8.210028   4.512810   1.759538   2.580677
    27  C   10.053863   8.179008   3.850004   2.332375   1.412844
    28  H    9.018079   6.162331   2.131653   2.170762   1.083412
    29  C    9.990362   8.967217   4.745080   2.533090   2.358668
    30  O   11.304989   8.916426   4.540941   3.640613   2.479309
    31  C   11.168694  10.380467   6.081983   3.946839   3.745064
    32  C   11.390032  11.300734   7.149481   4.785115   4.891280
    33  S   12.775096  11.385938   6.920361   5.279590   4.676030
    34  C   12.774538  12.623548   8.359177   6.139415   6.096090
    35  O   10.429247  11.007351   7.167388   4.580036   5.063416
    36  C   13.552879  12.786514   8.365306   6.446664   6.103055
    37  H   13.258914  13.494467   9.304259   7.002081   7.074433
    38  H   14.630515  13.747296   9.281001   7.481826   7.056420
    39  H   10.721798  11.857999   8.166959   5.512031   6.086486
    40  H   11.442955   8.436085   4.146447   3.931054   2.604372
    41  H    2.448551   8.350599   8.509107   7.038309   8.307503
    42  H    8.318509   2.587412   2.353147   4.991733   4.791508
                   26         27         28         29         30
    26  S    0.000000
    27  C    2.570963   0.000000
    28  H    3.631629   2.199679   0.000000
    29  C    1.741800   1.397251   3.375872   0.000000
    30  O    3.877579   1.365267   2.819198   2.386340   0.000000
    31  C    2.798370   2.542296   4.702273   1.437599   2.944519
    32  C    3.256457   3.839766   5.915723   2.540203   4.338002
    33  S    4.452938   3.271567   5.408685   2.817035   2.860635
    34  C    4.668090   4.896390   7.064483   3.749790   5.074714
    35  O    2.844793   4.328745   6.142841   2.931901   5.149111
    36  C    5.239319   4.754952   6.948450   3.918969   4.555512
    37  H    5.423007   5.925536   8.070058   4.716078   6.150549
    38  H    6.317862   5.675300   7.844348   4.949646   5.294337
    39  H    3.757186   5.385306   7.168018   3.992515   6.184758
    40  H    4.531242   1.976775   2.544755   3.228988   1.006412
    41  H    7.176835   9.216429   8.709720   8.839185  10.534289
    42  H    6.674936   6.048425   3.996256   7.028445   6.588727
                   31         32         33         34         35
    31  C    0.000000
    32  C    1.394025   0.000000
    33  S    1.760801   2.581850   0.000000
    34  C    2.362324   1.419603   2.583832   0.000000
    35  O    2.372399   1.356805   3.880481   2.480865   0.000000
    36  C    2.506513   2.317711   1.723296   1.375709   3.622634
    37  H    3.383316   2.220358   3.620068   1.077638   2.854174
    38  H    3.562794   3.364886   2.452348   2.208683   4.625213
    39  H    3.349955   2.122475   4.692451   2.776362   1.083843
    40  H    3.914946   5.307920   3.746397   6.040367   6.075894
    41  H    9.817433   9.789116  11.511516  11.106172   8.691753
    42  H    8.392284   9.469928   9.167907  10.694125   9.428796
                   36         37         38         39         40
    36  C    0.000000
    37  H    2.160935   0.000000
    38  H    1.083336   2.621931   0.000000
    39  H    4.094008   2.736775   4.977478   0.000000
    40  H    5.462444   7.117137   6.135426   7.128491   0.000000
    41  H   12.035300  11.453294  13.098429   8.804763  10.880281
    42  H   10.671061  11.642142  11.565779  10.394469   6.005383
                   41         42
    41  H    0.000000
    42  H    9.028854   0.000000
 Stoichiometry    C22H10N2O6S2
 Framework group  C1[X(C22H10N2O6S2)]
 Deg. of freedom   120
 Full point group                 C1      NOp   1
 Largest Abelian subgroup         C1      NOp   1
 Largest concise Abelian subgroup C1      NOp   1
                         Standard orientation:                         
 ---------------------------------------------------------------------
 Center     Atomic      Atomic             Coordinates (Angstroms)
 Number     Number       Type             X           Y           Z
 ---------------------------------------------------------------------
      1          6           0        2.426690   -3.046470    0.251254
      2          6           0        2.160269   -1.592463    0.130496
      3          6           0        3.221984   -0.668975    0.061708
      4          6           0        4.562165   -1.109333    0.108607
      5          6           0        4.868790   -2.563680    0.220222
      6          6           0        0.859185   -1.155034    0.124374
      7          6           0        2.913938    0.715481   -0.053566
      8          6           0        1.563725    1.174986   -0.079662
      9          6           0        0.500498    0.228940    0.038002
     10          6           0        1.330183    2.625618   -0.340090
     11          6           0        3.790559    3.075437   -0.322348
     12          6           0        4.005897    1.619911   -0.152720
     13          6           0        5.325681    1.160013   -0.107287
     14          6           0        5.603926   -0.204350    0.018385
     15          1           0        6.625894   -0.567442    0.052229
     16          1           0        6.113439    1.899067   -0.181697
     17          1           0        0.080777   -1.905323    0.218440
     18          7           0        2.450689    3.468982   -0.431765
     19          7           0        3.778103   -3.436603    0.290993
     20          8           0        1.536965   -3.892690    0.307829
     21          8           0        6.019463   -2.979997    0.264172
     22          8           0        4.709458    3.881077   -0.380382
     23          8           0        0.223753    3.136636   -0.488320
     24          6           0       -0.936209    0.503707    0.130611
     25          6           0       -1.613530    1.579636    0.657207
     26         16           0       -2.072152   -0.746447   -0.362057
     27          6           0       -3.016095    1.410107    0.671429
     28          1           0       -1.122900    2.472863    1.024915
     29          6           0       -3.450834    0.198417    0.128181
     30          8           0       -3.935044    2.306938    1.135304
     31          6           0       -4.806686   -0.251316   -0.033358
     32          6           0       -5.241273   -1.472620   -0.546053
     33         16           0       -6.204295    0.730211    0.395262
     34          6           0       -6.652974   -1.614739   -0.592709
     35          8           0       -4.321960   -2.385686   -0.948664
     36          6           0       -7.299583   -0.501157   -0.108551
     37          1           0       -7.174342   -2.486749   -0.951984
     38          1           0       -8.368316   -0.342319   -0.029832
     39          1           0       -4.606089   -3.420646   -1.099803
     40          1           0       -3.543373    3.227866    1.241844
     41          1           0        4.073425   -4.437670   -0.024838
     42          1           0        2.184172    4.390568   -0.139452
 ---------------------------------------------------------------------
 Rotational constants (GHZ):           0.2364010           0.0663108           0.0527094
 Standard basis: 6-311+G(d,p) (5D, 7F)
 There are   812 symmetry adapted cartesian basis functions of A   symmetry.
 There are   780 symmetry adapted basis functions of A   symmetry.
   780 basis functions,  1260 primitive gaussians,   812 cartesian basis functions
   118 alpha electrons      118 beta electrons
       nuclear repulsion energy      3318.9135401336 Hartrees.
 NAtoms=   42 NActive=   42 NUniq=   42 SFac= 1.00D+00 NAtFMM=   60 NAOKFM=F Big=F
 Integral buffers will be    131072 words long.
 Raffenetti 2 integral format.
 Two-electron integral symmetry is turned on.
 One-electron integrals computed using PRISM.
 NBasis=   780 RedAO= T EigKep=  1.83D-06  NBF=   780
 NBsUse=   768 1.00D-06 EigRej=  8.20D-07 NBFU=   768
 ExpMin= 4.05D-02 ExpMax= 9.34D+04 ExpMxC= 3.17D+03 IAcc=3 IRadAn=         5 AccDes= 0.00D+00
 Harris functional with IExCor=  402 and IRadAn=       5 diagonalized for initial guess.
 HarFok:  IExCor=  402 AccDes= 0.00D+00 IRadAn=         5 IDoV= 1 UseB2=F ITyADJ=14
 ICtDFT=  3500011 ScaDFX=  1.000000  1.000000  1.000000  1.000000
 FoFCou: FMM=F IPFlag=           0 FMFlag=      100000 FMFlg1=           0
         NFxFlg=           0 DoJE=T BraDBF=F KetDBF=T FulRan=T
         wScrn=  0.000000 ICntrl=       500 IOpCl=  0 I1Cent=   200000004 NGrid=           0
         NMat0=    1 NMatS0=      1 NMatT0=    0 NMatD0=    1 NMtDS0=    0 NMtDT0=    0
 Petite list used in FoFCou.
 Requested convergence on RMS density matrix=1.00D-08 within 128 cycles.
 Requested convergence on MAX density matrix=1.00D-06.
 Requested convergence on             energy=1.00D-06.
 No special actions if energy rises.
 SCF Done:  E(RB3LYP) =  -2202.04885079     A.U. after   17 cycles
            NFock= 17  Conv=0.56D-08     -V/T= 2.0032

 **********************************************************************

            Population analysis using the SCF Density.

 **********************************************************************

 Orbital symmetries:
       Occupied  (A) (A) (A) (A) (A) (A) (A) (A) (A) (A) (A) (A)
                 (A) (A) (A) (A) (A) (A) (A) (A) (A) (A) (A) (A)
                 (A) (A) (A) (A) (A) (A) (A) (A) (A) (A) (A) (A)
                 (A) (A) (A) (A) (A) (A) (A) (A) (A) (A) (A) (A)
                 (A) (A) (A) (A) (A) (A) (A) (A) (A) (A) (A) (A)
                 (A) (A) (A) (A) (A) (A) (A) (A) (A) (A) (A) (A)
                 (A) (A) (A) (A) (A) (A) (A) (A) (A) (A) (A) (A)
                 (A) (A) (A) (A) (A) (A) (A) (A) (A) (A) (A) (A)
                 (A) (A) (A) (A) (A) (A) (A) (A) (A) (A) (A) (A)
                 (A) (A) (A) (A) (A) (A) (A) (A) (A) (A)
       Virtual   (A) (A) (A) (A) (A) (A) (A) (A) (A) (A) (A) (A)
                 (A) (A) (A) (A) (A) (A) (A) (A) (A) (A) (A) (A)
                 (A) (A) (A) (A) (A) (A) (A) (A) (A) (A) (A) (A)
                 (A) (A) (A) (A) (A) (A) (A) (A) (A) (A) (A) (A)
                 (A) (A) (A) (A) (A) (A) (A) (A) (A) (A) (A) (A)
                 (A) (A) (A) (A) (A) (A) (A) (A) (A) (A) (A) (A)
                 (A) (A) (A) (A) (A) (A) (A) (A) (A) (A) (A) (A)
                 (A) (A) (A) (A) (A) (A) (A) (A) (A) (A) (A) (A)
                 (A) (A) (A) (A) (A) (A) (A) (A) (A) (A) (A) (A)
                 (A) (A) (A) (A) (A) (A) (A) (A) (A) (A) (A) (A)
                 (A) (A) (A) (A) (A) (A) (A) (A) (A) (A) (A) (A)
                 (A) (A) (A) (A) (A) (A) (A) (A) (A) (A) (A) (A)
                 (A) (A) (A) (A) (A) (A) (A) (A) (A) (A) (A) (A)
                 (A) (A) (A) (A) (A) (A) (A) (A) (A) (A) (A) (A)
                 (A) (A) (A) (A) (A) (A) (A) (A) (A) (A) (A) (A)
                 (A) (A) (A) (A) (A) (A) (A) (A) (A) (A) (A) (A)
                 (A) (A) (A) (A) (A) (A) (A) (A) (A) (A) (A) (A)
                 (A) (A) (A) (A) (A) (A) (A) (A) (A) (A) (A) (A)
                 (A) (A) (A) (A) (A) (A) (A) (A) (A) (A) (A) (A)
                 (A) (A) (A) (A) (A) (A) (A) (A) (A) (A) (A) (A)
                 (A) (A) (A) (A) (A) (A) (A) (A) (A) (A) (A) (A)
                 (A) (A) (A) (A) (A) (A) (A) (A) (A) (A) (A) (A)
                 (A) (A) (A) (A) (A) (A) (A) (A) (A) (A) (A) (A)
                 (A) (A) (A) (A) (A) (A) (A) (A) (A) (A) (A) (A)
                 (A) (A) (A) (A) (A) (A) (A) (A) (A) (A) (A) (A)
                 (A) (A) (A) (A) (A) (A) (A) (A) (A) (A) (A) (A)
                 (A) (A) (A) (A) (A) (A) (A) (A) (A) (A) (A) (A)
                 (A) (A) (A) (A) (A) (A) (A) (A) (A) (A) (A) (A)
                 (A) (A) (A) (A) (A) (A) (A) (A) (A) (A) (A) (A)
                 (A) (A) (A) (A) (A) (A) (A) (A) (A) (A) (A) (A)
                 (A) (A) (A) (A) (A) (A) (A) (A) (A) (A) (A) (A)
                 (A) (A) (A) (A) (A) (A) (A) (A) (A) (A) (A) (A)
                 (A) (A) (A) (A) (A) (A) (A) (A) (A) (A) (A) (A)
                 (A) (A) (A) (A) (A) (A) (A) (A) (A) (A) (A) (A)
                 (A) (A) (A) (A) (A) (A) (A) (A) (A) (A) (A) (A)
                 (A) (A) (A) (A) (A) (A) (A) (A) (A) (A) (A) (A)
                 (A) (A) (A) (A) (A) (A) (A) (A) (A) (A) (A) (A)
                 (A) (A) (A) (A) (A) (A) (A) (A) (A) (A) (A) (A)
                 (A) (A) (A) (A) (A) (A) (A) (A) (A) (A) (A) (A)
                 (A) (A) (A) (A) (A) (A) (A) (A) (A) (A) (A) (A)
                 (A) (A) (A) (A) (A) (A) (A) (A) (A) (A) (A) (A)
                 (A) (A) (A) (A) (A) (A) (A) (A) (A) (A) (A) (A)
                 (A) (A) (A) (A) (A) (A) (A) (A) (A) (A) (A) (A)
                 (A) (A) (A) (A) (A) (A) (A) (A) (A) (A) (A) (A)
                 (A) (A) (A) (A) (A) (A) (A) (A) (A) (A) (A) (A)
                 (A) (A) (A) (A) (A) (A) (A) (A) (A) (A) (A) (A)
                 (A) (A) (A) (A) (A) (A) (A) (A) (A) (A) (A) (A)
                 (A) (A) (A) (A) (A) (A) (A) (A) (A) (A) (A) (A)
                 (A) (A) (A) (A) (A) (A) (A) (A) (A) (A) (A) (A)
                 (A) (A) (A) (A) (A) (A) (A) (A) (A) (A) (A) (A)
                 (A) (A) (A) (A) (A) (A) (A) (A) (A) (A) (A) (A)
                 (A) (A) (A) (A) (A) (A) (A) (A) (A) (A) (A) (A)
                 (A) (A) (A) (A) (A) (A) (A) (A) (A) (A) (A) (A)
                 (A) (A) (A) (A) (A) (A) (A) (A) (A) (A) (A) (A)
                 (A) (A)
 The electronic state is 1-A.
 Alpha  occ. eigenvalues --  -88.89121 -88.89087 -19.18636 -19.18071 -19.13086
 Alpha  occ. eigenvalues --  -19.12945 -19.12509 -19.12467 -14.39059 -14.37881
 Alpha  occ. eigenvalues --  -10.32066 -10.31621 -10.31595 -10.31226 -10.26062
 Alpha  occ. eigenvalues --  -10.25600 -10.24737 -10.23619 -10.23356 -10.23257
 Alpha  occ. eigenvalues --  -10.23110 -10.22961 -10.22855 -10.22715 -10.22624
 Alpha  occ. eigenvalues --  -10.22531 -10.22164 -10.21933 -10.21581 -10.21382
 Alpha  occ. eigenvalues --  -10.19714 -10.19647  -7.97672  -7.97670  -5.93991
 Alpha  occ. eigenvalues --   -5.93985  -5.93598  -5.93592  -5.93235  -5.93207
 Alpha  occ. eigenvalues --   -1.08399  -1.08359  -1.08052  -1.07252  -1.06705
 Alpha  occ. eigenvalues --   -1.06501  -0.95850  -0.95516  -0.92560  -0.90888
 Alpha  occ. eigenvalues --   -0.89322  -0.87058  -0.84015  -0.80834  -0.78858
 Alpha  occ. eigenvalues --   -0.77989  -0.75212  -0.74495  -0.72918  -0.71187
 Alpha  occ. eigenvalues --   -0.71054  -0.67550  -0.66766  -0.65180  -0.62535
 Alpha  occ. eigenvalues --   -0.62062  -0.61662  -0.60486  -0.58607  -0.57495
 Alpha  occ. eigenvalues --   -0.56752  -0.55366  -0.54562  -0.52626  -0.51978
 Alpha  occ. eigenvalues --   -0.51215  -0.50852  -0.50373  -0.48600  -0.48525
 Alpha  occ. eigenvalues --   -0.47736  -0.47478  -0.46837  -0.46121  -0.45790
 Alpha  occ. eigenvalues --   -0.45519  -0.45046  -0.44972  -0.44687  -0.43603
 Alpha  occ. eigenvalues --   -0.43155  -0.42957  -0.42665  -0.41888  -0.41851
 Alpha  occ. eigenvalues --   -0.40283  -0.40190  -0.39446  -0.38916  -0.38253
 Alpha  occ. eigenvalues --   -0.37580  -0.36569  -0.35859  -0.35114  -0.34292
 Alpha  occ. eigenvalues --   -0.32973  -0.31600  -0.31438  -0.30917  -0.30775
 Alpha  occ. eigenvalues --   -0.30158  -0.29187  -0.28648  -0.27834  -0.26622
 Alpha  occ. eigenvalues --   -0.25476  -0.25370  -0.20460
 Alpha virt. eigenvalues --   -0.13701  -0.08496  -0.07612  -0.05220  -0.04253
 Alpha virt. eigenvalues --   -0.04057  -0.02027  -0.01198  -0.01079  -0.00329
 Alpha virt. eigenvalues --   -0.00130   0.00145   0.00725   0.01325   0.01573
 Alpha virt. eigenvalues --    0.01887   0.02411   0.02686   0.02942   0.03532
 Alpha virt. eigenvalues --    0.03701   0.04087   0.04213   0.04365   0.04730
 Alpha virt. eigenvalues --    0.04956   0.05675   0.06008   0.06123   0.06376
 Alpha virt. eigenvalues --    0.06583   0.06894   0.07370   0.07656   0.08044
 Alpha virt. eigenvalues --    0.08123   0.08321   0.08680   0.08840   0.09320
 Alpha virt. eigenvalues --    0.09850   0.09896   0.10369   0.10428   0.10840
 Alpha virt. eigenvalues --    0.11045   0.11200   0.11768   0.11956   0.12352
 Alpha virt. eigenvalues --    0.12648   0.12905   0.13280   0.13700   0.13873
 Alpha virt. eigenvalues --    0.14005   0.14075   0.14477   0.14706   0.15143
 Alpha virt. eigenvalues --    0.15211   0.15451   0.15661   0.15913   0.15991
 Alpha virt. eigenvalues --    0.16284   0.16511   0.16698   0.16954   0.17321
 Alpha virt. eigenvalues --    0.17385   0.17627   0.17855   0.18073   0.18344
 Alpha virt. eigenvalues --    0.18404   0.18427   0.19271   0.19371   0.19550
 Alpha virt. eigenvalues --    0.19704   0.19931   0.20010   0.20316   0.20691
 Alpha virt. eigenvalues --    0.20844   0.21220   0.21388   0.21513   0.21709
 Alpha virt. eigenvalues --    0.21985   0.22301   0.22476   0.22834   0.22927
 Alpha virt. eigenvalues --    0.23332   0.23497   0.23684   0.23970   0.24126
 Alpha virt. eigenvalues --    0.24224   0.24540   0.24783   0.24903   0.25119
 Alpha virt. eigenvalues --    0.25348   0.25370   0.25555   0.26050   0.26277
 Alpha virt. eigenvalues --    0.26539   0.26770   0.26963   0.27297   0.27602
 Alpha virt. eigenvalues --    0.27866   0.28025   0.28193   0.28373   0.28901
 Alpha virt. eigenvalues --    0.29066   0.29204   0.29494   0.29728   0.30206
 Alpha virt. eigenvalues --    0.30400   0.30488   0.30719   0.31092   0.31209
 Alpha virt. eigenvalues --    0.31413   0.31702   0.31942   0.32309   0.32624
 Alpha virt. eigenvalues --    0.33001   0.33167   0.33385   0.33851   0.34036
 Alpha virt. eigenvalues --    0.34432   0.34850   0.35261   0.35653   0.35920
 Alpha virt. eigenvalues --    0.36460   0.36646   0.37002   0.37417   0.38226
 Alpha virt. eigenvalues --    0.38323   0.38804   0.39171   0.39350   0.39648
 Alpha virt. eigenvalues --    0.39893   0.40612   0.41001   0.41556   0.41913
 Alpha virt. eigenvalues --    0.42125   0.42757   0.43820   0.44379   0.44675
 Alpha virt. eigenvalues --    0.45017   0.45732   0.46046   0.46440   0.47272
 Alpha virt. eigenvalues --    0.47629   0.48129   0.48793   0.48993   0.49566
 Alpha virt. eigenvalues --    0.50399   0.50944   0.51238   0.52052   0.52550
 Alpha virt. eigenvalues --    0.52970   0.53638   0.54038   0.54435   0.55183
 Alpha virt. eigenvalues --    0.55767   0.55833   0.56404   0.56759   0.57278
 Alpha virt. eigenvalues --    0.58108   0.58865   0.59085   0.59322   0.59729
 Alpha virt. eigenvalues --    0.59904   0.60495   0.60753   0.61226   0.61536
 Alpha virt. eigenvalues --    0.61673   0.62060   0.62757   0.62931   0.63907
 Alpha virt. eigenvalues --    0.64200   0.64503   0.65506   0.65574   0.65652
 Alpha virt. eigenvalues --    0.66384   0.66480   0.66885   0.67700   0.68180
 Alpha virt. eigenvalues --    0.68515   0.69321   0.69615   0.70396   0.70744
 Alpha virt. eigenvalues --    0.71228   0.71347   0.71611   0.72262   0.72825
 Alpha virt. eigenvalues --    0.73027   0.73304   0.74319   0.74815   0.75200
 Alpha virt. eigenvalues --    0.75595   0.76310   0.76868   0.77313   0.77761
 Alpha virt. eigenvalues --    0.78327   0.78866   0.79342   0.80133   0.80678
 Alpha virt. eigenvalues --    0.81647   0.82576   0.82721   0.83129   0.83640
 Alpha virt. eigenvalues --    0.84051   0.84920   0.85297   0.85847   0.86338
 Alpha virt. eigenvalues --    0.87120   0.87283   0.87841   0.88549   0.89003
 Alpha virt. eigenvalues --    0.89608   0.89841   0.90110   0.91154   0.91469
 Alpha virt. eigenvalues --    0.91642   0.91922   0.92404   0.92564   0.93272
 Alpha virt. eigenvalues --    0.94045   0.94393   0.94549   0.94915   0.95105
 Alpha virt. eigenvalues --    0.95792   0.96339   0.96875   0.97872   0.98608
 Alpha virt. eigenvalues --    0.98698   0.99291   1.00077   1.01212   1.01318
 Alpha virt. eigenvalues --    1.01984   1.02235   1.02330   1.03353   1.03668
 Alpha virt. eigenvalues --    1.04317   1.04869   1.05303   1.05885   1.05902
 Alpha virt. eigenvalues --    1.06846   1.07147   1.07895   1.08309   1.09491
 Alpha virt. eigenvalues --    1.09882   1.10240   1.11944   1.12090   1.12871
 Alpha virt. eigenvalues --    1.13625   1.14252   1.14956   1.15523   1.16252
 Alpha virt. eigenvalues --    1.16712   1.17352   1.17651   1.18704   1.19795
 Alpha virt. eigenvalues --    1.20536   1.21140   1.21876   1.22549   1.23273
 Alpha virt. eigenvalues --    1.23671   1.23963   1.25025   1.25566   1.26160
 Alpha virt. eigenvalues --    1.26581   1.27568   1.28244   1.28713   1.29645
 Alpha virt. eigenvalues --    1.30873   1.31449   1.32502   1.33362   1.34428
 Alpha virt. eigenvalues --    1.35150   1.36394   1.37227   1.39508   1.40053
 Alpha virt. eigenvalues --    1.41253   1.41991   1.43212   1.43492   1.44245
 Alpha virt. eigenvalues --    1.44462   1.45072   1.45434   1.46447   1.46712
 Alpha virt. eigenvalues --    1.47110   1.47949   1.48304   1.48823   1.49862
 Alpha virt. eigenvalues --    1.50658   1.51459   1.52560   1.53486   1.54168
 Alpha virt. eigenvalues --    1.54697   1.55398   1.55824   1.56965   1.57240
 Alpha virt. eigenvalues --    1.58177   1.58896   1.60251   1.60852   1.62592
 Alpha virt. eigenvalues --    1.63040   1.64343   1.64823   1.65522   1.66272
 Alpha virt. eigenvalues --    1.67095   1.67470   1.67637   1.69070   1.69844
 Alpha virt. eigenvalues --    1.70342   1.71240   1.71511   1.72195   1.72896
 Alpha virt. eigenvalues --    1.73338   1.74820   1.75277   1.75850   1.76254
 Alpha virt. eigenvalues --    1.77644   1.77919   1.78241   1.80185   1.81179
 Alpha virt. eigenvalues --    1.82260   1.83363   1.84300   1.84769   1.85481
 Alpha virt. eigenvalues --    1.86208   1.86428   1.87068   1.87494   1.88255
 Alpha virt. eigenvalues --    1.88647   1.89637   1.90213   1.90703   1.91680
 Alpha virt. eigenvalues --    1.92292   1.93136   1.93768   1.94910   1.95328
 Alpha virt. eigenvalues --    1.95687   1.96086   1.97206   1.97758   1.98506
 Alpha virt. eigenvalues --    1.99379   1.99817   2.01216   2.01983   2.03437
 Alpha virt. eigenvalues --    2.03967   2.04897   2.05472   2.05983   2.06935
 Alpha virt. eigenvalues --    2.07636   2.08309   2.09099   2.10226   2.10617
 Alpha virt. eigenvalues --    2.11321   2.13467   2.14292   2.15153   2.15519
 Alpha virt. eigenvalues --    2.15987   2.17377   2.18324   2.19681   2.20785
 Alpha virt. eigenvalues --    2.21618   2.24280   2.25588   2.26559   2.28516
 Alpha virt. eigenvalues --    2.30310   2.31852   2.33730   2.37007   2.37919
 Alpha virt. eigenvalues --    2.39400   2.39784   2.40825   2.41543   2.43861
 Alpha virt. eigenvalues --    2.46058   2.47710   2.48718   2.49360   2.52924
 Alpha virt. eigenvalues --    2.54206   2.56532   2.57215   2.57645   2.59434
 Alpha virt. eigenvalues --    2.59946   2.60978   2.61957   2.62879   2.63412
 Alpha virt. eigenvalues --    2.64939   2.65775   2.66912   2.67275   2.68800
 Alpha virt. eigenvalues --    2.68909   2.69431   2.71033   2.71494   2.72229
 Alpha virt. eigenvalues --    2.72806   2.73120   2.74370   2.74746   2.75990
 Alpha virt. eigenvalues --    2.77441   2.77808   2.78612   2.79835   2.82081
 Alpha virt. eigenvalues --    2.82442   2.82955   2.83557   2.84705   2.85495
 Alpha virt. eigenvalues --    2.86430   2.87675   2.88667   2.89209   2.90488
 Alpha virt. eigenvalues --    2.90910   2.91934   2.92159   2.93010   2.93671
 Alpha virt. eigenvalues --    2.93829   2.95035   2.95245   2.95643   2.95932
 Alpha virt. eigenvalues --    2.97018   2.97065   2.98711   3.01309   3.03717
 Alpha virt. eigenvalues --    3.05083   3.05330   3.08458   3.10164   3.11146
 Alpha virt. eigenvalues --    3.11596   3.13451   3.14767   3.15653   3.16855
 Alpha virt. eigenvalues --    3.17424   3.18376   3.19352   3.20522   3.22840
 Alpha virt. eigenvalues --    3.23345   3.26484   3.27170   3.28223   3.29278
 Alpha virt. eigenvalues --    3.31074   3.32879   3.32987   3.33955   3.34192
 Alpha virt. eigenvalues --    3.35010   3.36002   3.37043   3.37067   3.38872
 Alpha virt. eigenvalues --    3.40408   3.41774   3.42170   3.42409   3.43736
 Alpha virt. eigenvalues --    3.46162   3.46391   3.48940   3.52260   3.53975
 Alpha virt. eigenvalues --    3.56985   3.58581   3.59018   3.60861   3.63477
 Alpha virt. eigenvalues --    3.65436   3.66705   3.73961   3.78094   3.80311
 Alpha virt. eigenvalues --    3.84135   3.85217   3.85554   3.87214   3.88780
 Alpha virt. eigenvalues --    3.91169   3.92976   3.97911   4.00309   4.01394
 Alpha virt. eigenvalues --    4.07256   4.11265   4.16025   4.19742   4.22916
 Alpha virt. eigenvalues --    4.24136   4.32926   4.34619   4.37482   4.48482
 Alpha virt. eigenvalues --    4.62788   4.67968   4.78098   4.83194   4.84689
 Alpha virt. eigenvalues --    4.99637   5.00633   5.03166   5.04752   5.05204
 Alpha virt. eigenvalues --    5.07823   5.09461   5.10979   5.19916   5.22987
 Alpha virt. eigenvalues --    5.24774   5.26273   5.28804   5.39932   5.67317
 Alpha virt. eigenvalues --    5.70586   5.73965   5.77937   5.79046   5.81847
 Alpha virt. eigenvalues --    7.99727   8.02277  17.27999  17.30380  17.47925
 Alpha virt. eigenvalues --   17.51595  17.56587  17.62031  23.45142  23.53223
 Alpha virt. eigenvalues --   23.67895  23.77436  23.80111  23.80789  23.81803
 Alpha virt. eigenvalues --   23.84636  23.85369  23.85963  23.86828  23.92162
 Alpha virt. eigenvalues --   23.94139  23.97331  23.99240  24.00053  24.00239
 Alpha virt. eigenvalues --   24.03260  24.11221  24.11844  24.12063  24.13477
 Alpha virt. eigenvalues --   35.55584  35.61407  49.90557  49.92720  49.98917
 Alpha virt. eigenvalues --   50.00697  50.03905  50.05572 189.16654 189.19791
          Condensed to atoms (all electrons):
               1          2          3          4          5          6
     1  C   13.067075  -4.319716  -0.575047   1.910140  -2.571664  -0.717667
     2  C   -4.319716  12.373690   0.378112  -0.110574   1.623465  -0.289370
     3  C   -0.575047   0.378112   6.669964   0.756344  -0.667128   0.405437
     4  C    1.910140  -0.110574   0.756344  14.320618  -3.287368  -0.626522
     5  C   -2.571664   1.623465  -0.667128  -3.287368  10.338207   0.202880
     6  C   -0.717667  -0.289370   0.405437  -0.626522   0.202880   9.698989
     7  C   -0.977431   1.020643   1.003578  -0.081489  -0.191073   0.591588
     8  C   -0.249006  -0.099005   0.443449  -0.021826   0.215651   1.291393
     9  C   -0.617283  -0.676590  -0.252761  -0.286289   0.410685  -0.940966
    10  C    0.034128  -0.453801  -0.105904  -0.022855  -0.028157  -1.739671
    11  C    0.098808   0.338375  -0.905001   0.259628  -0.119500   0.098883
    12  C    0.436188   0.316749   0.527563   0.028243  -0.324904   0.159299
    13  C   -0.056241  -1.304139  -0.635501  -6.488612   0.318075   0.559676
    14  C   -0.348968  -1.577869  -0.670115  -0.274857  -0.391519   0.313624
    15  H    0.000502  -0.008487   0.010033  -0.082501  -0.002688   0.000655
    16  H   -0.000973  -0.002823  -0.003923   0.002239   0.005988  -0.000014
    17  H    0.010568  -0.014487   0.008400  -0.002431   0.003625   0.381477
    18  N   -0.000621   0.023777   0.000987  -0.000355  -0.000882   0.072919
    19  N    0.072622  -0.212101  -0.083683  -0.169824   0.111034   0.122125
    20  O    0.273812  -0.120598   0.004928  -0.022771   0.071133   0.028957
    21  O    0.108048  -0.072576   0.013811  -0.225873   0.268717   0.003667
    22  O    0.000773  -0.000897  -0.012340   0.012499   0.000391  -0.000593
    23  O    0.000555   0.004210   0.002651  -0.001127  -0.000181  -0.029912
    24  C    0.463913  -0.527388  -0.396867   0.059065   0.005846  -1.006477
    25  C   -0.007433  -0.203708  -0.133098   0.007815  -0.005011  -0.876303
    26  S   -0.118972   0.117075  -0.015892   0.051654   0.006827   0.000759
    27  C    0.020503  -0.065581  -0.084506   0.000719  -0.003139  -1.159571
    28  H   -0.000327  -0.001313  -0.000473  -0.000007   0.000050   0.012985
    29  C   -0.015912  -0.192765  -0.033678  -0.017492   0.003044  -0.493848
    30  O   -0.000027  -0.000395   0.000184  -0.000027  -0.000000   0.007776
    31  C   -0.003932  -0.004337  -0.001816   0.000373  -0.000307  -0.091482
    32  C    0.001052  -0.025373   0.000428  -0.002259  -0.000052   0.138051
    33  S    0.000254   0.001220  -0.000719   0.000113  -0.000010  -0.034329
    34  C    0.001186  -0.004977  -0.000315  -0.000115   0.000002  -0.029463
    35  O    0.000303  -0.002985   0.000139  -0.000101   0.000011   0.011081
    36  C   -0.000052   0.000288   0.000079  -0.000013  -0.000002   0.012435
    37  H   -0.000000   0.000003   0.000000   0.000000  -0.000000   0.000015
    38  H    0.000000  -0.000000   0.000000  -0.000000   0.000000   0.000004
    39  H   -0.000117   0.000179  -0.000007  -0.000001   0.000000   0.000978
    40  H   -0.000009  -0.000139  -0.000059   0.000007  -0.000000  -0.006546
    41  H    0.006008  -0.017609  -0.002601   0.006925  -0.016626   0.009442
    42  H   -0.000114  -0.001323   0.000501  -0.001148  -0.000118   0.001458
               7          8          9         10         11         12
     1  C   -0.977431  -0.249006  -0.617283   0.034128   0.098808   0.436188
     2  C    1.020643  -0.099005  -0.676590  -0.453801   0.338375   0.316749
     3  C    1.003578   0.443449  -0.252761  -0.105904  -0.905001   0.527563
     4  C   -0.081489  -0.021826  -0.286289  -0.022855   0.259628   0.028243
     5  C   -0.191073   0.215651   0.410685  -0.028157  -0.119500  -0.324904
     6  C    0.591588   1.291393  -0.940966  -1.739671   0.098883   0.159299
     7  C    7.216526  -0.031884  -0.740286  -0.732573  -0.937531   1.205818
     8  C   -0.031884   9.002958   0.282978  -1.803313   0.324334   0.467028
     9  C   -0.740286   0.282978   8.554577   0.725868  -0.275146  -0.434511
    10  C   -0.732573  -1.803313   0.725868  11.451461  -2.047610   0.917689
    11  C   -0.937531   0.324334  -0.275146  -2.047610  11.046752  -3.234367
    12  C    1.205818   0.467028  -0.434511   0.917689  -3.234367  13.943420
    13  C   -0.521783  -0.981081  -0.127233  -0.701867   0.216830  -0.470581
    14  C   -0.346986  -1.743509  -0.341645  -0.517099   0.749769  -6.694080
    15  H   -0.004542  -0.002099  -0.000049  -0.000806   0.003970   0.008179
    16  H    0.016484  -0.014361   0.001314   0.001135  -0.015096  -0.079337
    17  H   -0.015998   0.031709  -0.035457   0.007604  -0.000639   0.001133
    18  N    0.018832  -0.025149  -0.001769  -0.169971   0.107672  -0.063896
    19  N   -0.071532   0.034319   0.047068   0.007532  -0.003435  -0.007005
    20  O   -0.024669   0.018436   0.059544   0.002384   0.000292  -0.001544
    21  O   -0.023069   0.001212   0.000209   0.000193   0.002303   0.022768
    22  O    0.000772  -0.053879   0.004015   0.074758   0.248489  -0.240121
    23  O    0.008194  -0.163324  -0.023751   0.272146   0.016631   0.001340
    24  C   -0.660599  -0.045923   1.161138   1.428724  -0.053693  -0.564897
    25  C   -0.056845  -0.055703  -0.037917  -0.035070  -0.029662   0.017780
    26  S   -0.010314  -0.223826   0.179073  -0.086706  -0.024412  -0.047353
    27  C   -0.017240  -0.421539  -0.305680  -0.003991  -0.002296  -0.015067
    28  H    0.000834   0.017253   0.003289   0.016258   0.000866   0.000581
    29  C   -0.028238  -0.443371   0.074626  -0.094316   0.001109  -0.063828
    30  O   -0.000061   0.005833  -0.007242  -0.008764   0.000127  -0.000042
    31  C   -0.005654   0.027226  -0.283088  -0.050992  -0.001629   0.000816
    32  C   -0.006842  -0.042571  -0.250969  -0.035228  -0.000091  -0.002049
    33  S    0.000839   0.004548   0.003615   0.000361   0.000065   0.000289
    34  C    0.000201  -0.001576   0.005942  -0.001154   0.000023   0.000029
    35  O   -0.000183  -0.000252   0.003158  -0.000219  -0.000006  -0.000031
    36  C   -0.000083   0.000262  -0.015781  -0.001453  -0.000001  -0.000009
    37  H    0.000000   0.000002   0.000026  -0.000000   0.000000   0.000000
    38  H    0.000000  -0.000001   0.000021   0.000000   0.000000  -0.000000
    39  H   -0.000021  -0.000107  -0.001561  -0.000035  -0.000000  -0.000002
    40  H   -0.000392  -0.004239  -0.002622   0.007921  -0.000147   0.000201
    41  H   -0.003329   0.001295  -0.000470   0.000071   0.000089   0.001852
    42  H   -0.008803   0.005912   0.002022  -0.016739  -0.022528   0.017669
              13         14         15         16         17         18
     1  C   -0.056241  -0.348968   0.000502  -0.000973   0.010568  -0.000621
     2  C   -1.304139  -1.577869  -0.008487  -0.002823  -0.014487   0.023777
     3  C   -0.635501  -0.670115   0.010033  -0.003923   0.008400   0.000987
     4  C   -6.488612  -0.274857  -0.082501   0.002239  -0.002431  -0.000355
     5  C    0.318075  -0.391519  -0.002688   0.005988   0.003625  -0.000882
     6  C    0.559676   0.313624   0.000655  -0.000014   0.381477   0.072919
     7  C   -0.521783  -0.346986  -0.004542   0.016484  -0.015998   0.018832
     8  C   -0.981081  -1.743509  -0.002099  -0.014361   0.031709  -0.025149
     9  C   -0.127233  -0.341645  -0.000049   0.001314  -0.035457  -0.001769
    10  C   -0.701867  -0.517099  -0.000806   0.001135   0.007604  -0.169971
    11  C    0.216830   0.749769   0.003970  -0.015096  -0.000639   0.107672
    12  C   -0.470581  -6.694080   0.008179  -0.079337   0.001133  -0.063896
    13  C   16.782433  -0.655804  -0.018609   0.452978  -0.000295   0.040832
    14  C   -0.655804  18.588963   0.446912  -0.013124  -0.000868   0.012766
    15  H   -0.018609   0.446912   0.484626  -0.005386  -0.000000   0.000137
    16  H    0.452978  -0.013124  -0.005386   0.481554   0.000000  -0.002385
    17  H   -0.000295  -0.000868  -0.000000   0.000000   0.476890   0.000059
    18  N    0.040832   0.012766   0.000137  -0.002385   0.000059   7.235236
    19  N    0.024046   0.012587  -0.002719   0.000114  -0.002911  -0.000022
    20  O   -0.001476   0.002906  -0.000010   0.000001   0.013806  -0.000010
    21  O    0.161800   0.019948   0.007376   0.000076  -0.000009  -0.000047
    22  O    0.069916   0.190807   0.000061   0.007812  -0.000000  -0.055378
    23  O    0.001685  -0.003134   0.000001  -0.000016   0.000059  -0.095104
    24  C   -0.243839  -0.270290  -0.000061  -0.000447  -0.055096  -0.063037
    25  C    0.032145   0.020349   0.000009  -0.000021  -0.020452  -0.015688
    26  S    0.019106   0.014870   0.000001  -0.000003   0.048117  -0.012202
    27  C    0.006152   0.001713   0.000000  -0.000003  -0.011459  -0.030254
    28  H   -0.000071  -0.000013   0.000000   0.000000  -0.000043  -0.003051
    29  C   -0.006583  -0.006079  -0.000001  -0.000002   0.001591  -0.009395
    30  O    0.000004   0.000002  -0.000000   0.000000   0.000006   0.000167
    31  C    0.000246   0.000267   0.000000   0.000000  -0.000658  -0.001927
    32  C   -0.000161  -0.000217  -0.000000  -0.000000  -0.000667  -0.000464
    33  S    0.000030   0.000013   0.000000  -0.000000  -0.000116   0.000032
    34  C   -0.000002  -0.000009  -0.000000   0.000000  -0.000488   0.000007
    35  O   -0.000004  -0.000006  -0.000000   0.000000  -0.000066  -0.000002
    36  C    0.000000  -0.000000   0.000000   0.000000   0.000036  -0.000009
    37  H    0.000000   0.000000  -0.000000  -0.000000  -0.000000   0.000000
    38  H   -0.000000  -0.000000  -0.000000   0.000000   0.000000   0.000000
    39  H   -0.000000   0.000000   0.000000   0.000000   0.000022  -0.000000
    40  H    0.000007   0.000001   0.000000  -0.000000  -0.000002  -0.000044
    41  H    0.003782   0.010475  -0.000031  -0.000000  -0.000031   0.000000
    42  H    0.019730   0.005618  -0.000000  -0.000044   0.000000   0.286315
              19         20         21         22         23         24
     1  C    0.072622   0.273812   0.108048   0.000773   0.000555   0.463913
     2  C   -0.212101  -0.120598  -0.072576  -0.000897   0.004210  -0.527388
     3  C   -0.083683   0.004928   0.013811  -0.012340   0.002651  -0.396867
     4  C   -0.169824  -0.022771  -0.225873   0.012499  -0.001127   0.059065
     5  C    0.111034   0.071133   0.268717   0.000391  -0.000181   0.005846
     6  C    0.122125   0.028957   0.003667  -0.000593  -0.029912  -1.006477
     7  C   -0.071532  -0.024669  -0.023069   0.000772   0.008194  -0.660599
     8  C    0.034319   0.018436   0.001212  -0.053879  -0.163324  -0.045923
     9  C    0.047068   0.059544   0.000209   0.004015  -0.023751   1.161138
    10  C    0.007532   0.002384   0.000193   0.074758   0.272146   1.428724
    11  C   -0.003435   0.000292   0.002303   0.248489   0.016631  -0.053693
    12  C   -0.007005  -0.001544   0.022768  -0.240121   0.001340  -0.564897
    13  C    0.024046  -0.001476   0.161800   0.069916   0.001685  -0.243839
    14  C    0.012587   0.002906   0.019948   0.190807  -0.003134  -0.270290
    15  H   -0.002719  -0.000010   0.007376   0.000061   0.000001  -0.000061
    16  H    0.000114   0.000001   0.000076   0.007812  -0.000016  -0.000447
    17  H   -0.002911   0.013806  -0.000009  -0.000000   0.000059  -0.055096
    18  N   -0.000022  -0.000010  -0.000047  -0.055378  -0.095104  -0.063037
    19  N    7.195170  -0.066001  -0.055127  -0.000029   0.000038   0.029674
    20  O   -0.066001   8.027768   0.001504   0.000000   0.000002   0.014264
    21  O   -0.055127   0.001504   8.035261   0.000016  -0.000000   0.000173
    22  O   -0.000029   0.000000   0.000016   8.029488   0.001767  -0.002037
    23  O    0.000038   0.000002  -0.000000   0.001767   8.176556  -0.297415
    24  C    0.029674   0.014264   0.000173  -0.002037  -0.297415  13.741506
    25  C    0.002224  -0.002127   0.000013  -0.000317   0.140350   0.605713
    26  S    0.008025   0.001159   0.000009   0.000048   0.018885  -0.394344
    27  C    0.000817  -0.000625  -0.000001   0.000041   0.202708  -3.085133
    28  H   -0.000003   0.000001   0.000000   0.000003  -0.028043   0.054111
    29  C    0.000434   0.002165  -0.000003  -0.000031   0.027816  -2.849248
    30  O   -0.000000   0.000000  -0.000000  -0.000000   0.001178   0.067744
    31  C    0.000034  -0.000046   0.000000  -0.000002   0.009309  -0.173205
    32  C   -0.000051   0.000705  -0.000000  -0.000000   0.002537  -0.975119
    33  S    0.000004  -0.000006  -0.000000   0.000000   0.000938   0.103102
    34  C    0.000006   0.000023  -0.000000   0.000000   0.000324  -0.123910
    35  O   -0.000003  -0.000001  -0.000000  -0.000000  -0.000016  -0.018152
    36  C   -0.000001   0.000003   0.000000  -0.000000  -0.000015  -0.018902
    37  H    0.000000   0.000000   0.000000   0.000000  -0.000000   0.000328
    38  H   -0.000000   0.000000  -0.000000   0.000000   0.000000  -0.000110
    39  H   -0.000000  -0.000001   0.000000  -0.000000  -0.000000  -0.002242
    40  H    0.000000  -0.000000   0.000000   0.000000  -0.000986  -0.075063
    41  H    0.281074   0.008489   0.008960   0.000000  -0.000000   0.000190
    42  H    0.000001  -0.000000  -0.000000   0.010487   0.011695  -0.009279
              25         26         27         28         29         30
     1  C   -0.007433  -0.118972   0.020503  -0.000327  -0.015912  -0.000027
     2  C   -0.203708   0.117075  -0.065581  -0.001313  -0.192765  -0.000395
     3  C   -0.133098  -0.015892  -0.084506  -0.000473  -0.033678   0.000184
     4  C    0.007815   0.051654   0.000719  -0.000007  -0.017492  -0.000027
     5  C   -0.005011   0.006827  -0.003139   0.000050   0.003044  -0.000000
     6  C   -0.876303   0.000759  -1.159571   0.012985  -0.493848   0.007776
     7  C   -0.056845  -0.010314  -0.017240   0.000834  -0.028238  -0.000061
     8  C   -0.055703  -0.223826  -0.421539   0.017253  -0.443371   0.005833
     9  C   -0.037917   0.179073  -0.305680   0.003289   0.074626  -0.007242
    10  C   -0.035070  -0.086706  -0.003991   0.016258  -0.094316  -0.008764
    11  C   -0.029662  -0.024412  -0.002296   0.000866   0.001109   0.000127
    12  C    0.017780  -0.047353  -0.015067   0.000581  -0.063828  -0.000042
    13  C    0.032145   0.019106   0.006152  -0.000071  -0.006583   0.000004
[...]
    33  S    0.000022   0.000007   0.000000  -0.000000  -0.000056   0.000104
    34  C   -0.000000  -0.000009   0.000000  -0.000000  -0.000316   0.000010
    35  O   -0.000001  -0.000000  -0.000000   0.000000  -0.000064  -0.000001
    36  C    0.000000   0.000001   0.000000   0.000000   0.000011  -0.000004
    37  H    0.000000   0.000000  -0.000000  -0.000000  -0.000000   0.000000
    38  H   -0.000000  -0.000000  -0.000000   0.000000   0.000000   0.000000
    39  H    0.000000   0.000000  -0.000000   0.000000   0.000014  -0.000000
    40  H    0.000003   0.000001   0.000000  -0.000000  -0.000002  -0.000102
    41  H    0.001776   0.003773  -0.000028   0.000000  -0.000035   0.000000
    42  H   -0.006037  -0.000811   0.000000  -0.000032  -0.000000   0.327529
              19         20         21         22         23         24
     1  C    0.113954   0.276825   0.095964   0.000736  -0.000881   0.414165
     2  C   -0.216737  -0.127258  -0.064739  -0.000871  -0.005971  -0.415385
     3  C   -0.128649   0.018343   0.026038  -0.013156  -0.010741  -0.402723
     4  C   -0.127686  -0.026758  -0.203095   0.003295  -0.000090   0.063599
     5  C    0.131994   0.067004   0.259917  -0.000639  -0.000003   0.041871
     6  C    0.110902   0.026240   0.005023  -0.000297  -0.023586  -0.559326
     7  C   -0.097516  -0.025535  -0.028989   0.017678   0.007944  -0.569255
     8  C    0.032311   0.015233   0.002821  -0.049687  -0.225991   0.288891
     9  C    0.031078   0.050516   0.000252   0.004599  -0.039517   1.224682
    10  C    0.008184   0.001437   0.000196   0.063460   0.298963   1.034970
    11  C   -0.004985   0.000307   0.002277   0.253196   0.038083  -0.092877
    12  C   -0.001751  -0.000687   0.025033  -0.242578   0.004019  -0.535519
    13  C    0.043647  -0.002082   0.144097   0.063888   0.008154  -0.227149
    14  C    0.017566   0.000841  -0.003238   0.170349   0.000021  -0.252779
    15  H   -0.002141  -0.000014   0.006477   0.000068   0.000001  -0.000068
    16  H    0.000171   0.000001   0.000078   0.006162  -0.000019  -0.000408
    17  H   -0.002368   0.012215  -0.000015   0.000001   0.000103  -0.052284
    18  N   -0.000149  -0.000020  -0.000063  -0.044670  -0.063988  -0.106318
    19  N    7.226899  -0.058420  -0.041650  -0.000039   0.000010   0.028430
    20  O   -0.058420   8.044402   0.001646  -0.000000   0.000001   0.008686
    21  O   -0.041650   0.001646   8.043096   0.000015   0.000000   0.000535
    22  O   -0.000039  -0.000000   0.000015   8.052301   0.002040  -0.002155
    23  O    0.000010   0.000001   0.000000   0.002040   8.163662  -0.327331
    24  C    0.028430   0.008686   0.000535  -0.002155  -0.327331  14.746062
    25  C    0.000770  -0.003116   0.000052   0.000345   0.164336   0.481776
    26  S    0.009587   0.000085   0.000031   0.000109   0.015808  -0.301811
    27  C    0.000610  -0.000825   0.000004   0.000216   0.214010  -4.035935
    28  H   -0.000002   0.000001   0.000000   0.000008  -0.024935   0.063355
    29  C    0.000316   0.002393   0.000002   0.000012   0.034361  -3.187545
    30  O   -0.000000   0.000000  -0.000000   0.000000   0.001316   0.104738
    31  C    0.000034  -0.000233   0.000000  -0.000001   0.011382  -0.489535
    32  C   -0.000043   0.000676  -0.000000  -0.000000   0.002928  -0.916384
    33  S    0.000006  -0.000009   0.000000   0.000000   0.000933   0.056127
    34  C    0.000005   0.000022  -0.000000   0.000000   0.000321  -0.070992
    35  O   -0.000001  -0.000000  -0.000000  -0.000000  -0.000010   0.010954
    36  C   -0.000001   0.000003  -0.000000  -0.000000   0.000012  -0.009233
    37  H    0.000000   0.000000   0.000000   0.000000   0.000000   0.000246
    38  H   -0.000000   0.000000  -0.000000  -0.000000   0.000000  -0.000083
    39  H   -0.000000  -0.000001  -0.000000  -0.000000   0.000000  -0.008969
    40  H    0.000000  -0.000000   0.000000   0.000000  -0.001037  -0.096188
    41  H    0.329181   0.005959   0.004483  -0.000000  -0.000000   0.000005
    42  H    0.000001  -0.000000  -0.000000   0.005914   0.006157   0.002910
              25         26         27         28         29         30
     1  C   -0.113498  -0.088763  -0.002589  -0.000271  -0.016656  -0.000029
     2  C   -0.415926   0.145277  -0.124556  -0.000775  -0.231531  -0.000648
     3  C   -0.175086  -0.024987  -0.105245  -0.000721  -0.041211   0.000197
     4  C    0.015752   0.068943   0.007045   0.000040  -0.012141  -0.000035
     5  C    0.002534   0.002430  -0.001871   0.000048   0.002703   0.000000
     6  C   -1.080484  -0.041212  -1.304131   0.012060  -0.675736   0.011349
     7  C   -0.214962   0.005191  -0.077651   0.001924  -0.051360   0.000225
     8  C   -0.233176  -0.245275  -0.716674   0.019920  -0.501876   0.008456
     9  C   -0.054355   0.106729  -0.466371   0.007521  -0.022313  -0.004556
    10  C    0.278477  -0.097165   0.270928   0.010658   0.051296  -0.009333
    11  C   -0.019655  -0.020266   0.000272   0.001253  -0.002220   0.000212
    12  C    0.014951  -0.034625  -0.008112   0.000502  -0.048351  -0.000008
    13  C    0.048185   0.025595   0.009721  -0.000109  -0.004776   0.000004
    14  C    0.038136   0.020732   0.004756  -0.000035  -0.003150   0.000003
    15  H    0.000010   0.000004   0.000000   0.000000  -0.000001  -0.000000
    16  H   -0.000001  -0.000005  -0.000002   0.000000  -0.000002   0.000000
    17  H   -0.016901   0.044019  -0.009942  -0.000054  -0.003077   0.000012
    18  N    0.007095  -0.009077  -0.006499  -0.000990  -0.003875   0.000233
    19  N    0.000770   0.009587   0.000610  -0.000002   0.000316  -0.000000
    20  O   -0.003116   0.000085  -0.000825   0.000001   0.002393   0.000000
    21  O    0.000052   0.000031   0.000004   0.000000   0.000002  -0.000000
    22  O    0.000345   0.000109   0.000216   0.000008   0.000012   0.000000
    23  O    0.164336   0.015808   0.214010  -0.024935   0.034361   0.001316
    24  C    0.481776  -0.301811  -4.035935   0.063355  -3.187545   0.104738
    25  C   12.606774  -2.010863   2.096978   0.396338  -3.654983  -0.073082
    26  S   -2.010863  19.228129  -1.322143   0.026810   1.003559   0.035005
    27  C    2.096978  -1.322143  14.158000  -0.163836   0.504955   0.208536
    28  H    0.396338   0.026810  -0.163836   0.540885  -0.005459  -0.007722
    29  C   -3.654983   1.003559   0.504955  -0.005459  12.189411  -0.221841
    30  O   -0.073082   0.035005   0.208536  -0.007722  -0.221841   8.071488
    31  C   -0.942434   0.434785  -0.519559  -0.006477   0.829699  -0.027338
    32  C   -0.224768  -0.299979  -1.926023   0.000130  -1.066302   0.002090
    33  S   -0.229800   0.061508   0.280163  -0.000137   0.807018  -0.060346
    34  C   -0.263787  -0.147260  -0.101552   0.000039  -0.097914  -0.003471
    35  O    0.004962  -0.032671   0.065057   0.000032   0.029206  -0.000837
    36  C   -0.060857   0.090678  -0.444721   0.000011  -0.136836   0.006938
    37  H    0.000024   0.000987   0.000683   0.000000  -0.004511   0.000020
    38  H    0.000496  -0.000948   0.006475   0.000000  -0.004990  -0.000054
    39  H    0.002347  -0.003469  -0.011511   0.000000   0.028521  -0.000035
    40  H   -0.117025  -0.005866   0.141947   0.004218   0.089904   0.191378
    41  H   -0.000037   0.000014  -0.000003  -0.000000  -0.000003  -0.000000
    42  H   -0.001362  -0.000221  -0.000456   0.000003  -0.000221  -0.000004
              31         32         33         34         35         36
     1  C   -0.011201  -0.003160  -0.000146   0.000394  -0.000162  -0.000047
     2  C   -0.021145  -0.039420   0.001292  -0.003170  -0.001716  -0.000241
     3  C   -0.005539  -0.000708  -0.000758  -0.000353   0.000065   0.000055
     4  C    0.000675  -0.001764   0.000167  -0.000038  -0.000054  -0.000017
     5  C   -0.000164  -0.000027   0.000004   0.000012   0.000004  -0.000002
     6  C   -0.164834   0.071173  -0.036837  -0.030147   0.006131   0.010341
     7  C   -0.012985  -0.008004   0.000595   0.000546  -0.000171  -0.000136
     8  C    0.007525  -0.030821  -0.001906  -0.002359   0.000339   0.000586
     9  C   -0.326940  -0.228813   0.002595   0.014938   0.007134  -0.013854
    10  C   -0.011043  -0.016572   0.002092  -0.000353  -0.000022  -0.000835
    11  C   -0.001344  -0.000154   0.000007   0.000011  -0.000005   0.000004
    12  C    0.001725  -0.001471   0.000099  -0.000002  -0.000004   0.000007
    13  C    0.000323  -0.000142   0.000022  -0.000000  -0.000001   0.000000
    14  C    0.000466  -0.000085   0.000007  -0.000009  -0.000000   0.000001
    15  H    0.000000  -0.000000   0.000000   0.000000  -0.000000   0.000000
    16  H    0.000000  -0.000000  -0.000000  -0.000000   0.000000   0.000000
    17  H   -0.000392  -0.001686  -0.000056  -0.000316  -0.000064   0.000011
    18  N   -0.000887  -0.000396   0.000104   0.000010  -0.000001  -0.000004
    19  N    0.000034  -0.000043   0.000006   0.000005  -0.000001  -0.000001
    20  O   -0.000233   0.000676  -0.000009   0.000022  -0.000000   0.000003
    21  O    0.000000  -0.000000   0.000000  -0.000000  -0.000000  -0.000000
    22  O   -0.000001  -0.000000   0.000000   0.000000  -0.000000  -0.000000
    23  O    0.011382   0.002928   0.000933   0.000321  -0.000010   0.000012
    24  C   -0.489535  -0.916384   0.056127  -0.070992   0.010954  -0.009233
    25  C   -0.942434  -0.224768  -0.229800  -0.263787   0.004962  -0.060857
    26  S    0.434785  -0.299979   0.061508  -0.147260  -0.032671   0.090678
    27  C   -0.519559  -1.926023   0.280163  -0.101552   0.065057  -0.444721
    28  H   -0.006477   0.000130  -0.000137   0.000039   0.000032   0.000011
    29  C    0.829699  -1.066302   0.807018  -0.097914   0.029206  -0.136836
    30  O   -0.027338   0.002090  -0.060346  -0.003471  -0.000837   0.006938
    31  C   11.614574  -6.554141   0.728729   1.915442   0.137553  -1.335066
    32  C   -6.554141  25.829121  -3.139824  -8.789676  -0.384958   2.994033
    33  S    0.728729  -3.139824  17.421063   0.564104   0.049495  -0.231104
    34  C    1.915442  -8.789676   0.564104  14.481628   0.126636  -1.446555
    35  O    0.137553  -0.384958   0.049495   0.126636   8.090738  -0.012503
    36  C   -1.335066   2.994033  -0.231104  -1.446555  -0.012503   6.431291
    37  H    0.007875  -0.110988   0.014499   0.402144  -0.004425   0.038350
    38  H    0.058956  -0.089590  -0.021738   0.092662  -0.000318   0.316909
    39  H   -0.106446   0.488194  -0.014112  -0.349898   0.137440   0.017349
    40  H    0.012782  -0.013977   0.016832   0.004889  -0.000024  -0.004696
    41  H   -0.000000  -0.000000   0.000000  -0.000000  -0.000000  -0.000000
    42  H   -0.000009  -0.000002  -0.000001  -0.000000  -0.000000  -0.000000
              37         38         39         40         41         42
     1  C   -0.000000   0.000000  -0.000089  -0.000014  -0.022181  -0.000085
     2  C    0.000003  -0.000000  -0.000024  -0.000130   0.001505  -0.000174
     3  C    0.000000   0.000000  -0.000007  -0.000054   0.004184   0.000431
     4  C    0.000000  -0.000000  -0.000001   0.000011   0.006909   0.001176
     5  C   -0.000000   0.000000  -0.000001   0.000000  -0.029077   0.000028
     6  C    0.000008   0.000005   0.000006  -0.007977   0.002336  -0.001072
     7  C    0.000000   0.000000  -0.000030  -0.000512  -0.001184   0.006164
     8  C    0.000001  -0.000001  -0.000060  -0.006408   0.000403   0.003737
     9  C    0.000023   0.000021  -0.002747  -0.003433  -0.000141  -0.001508
    10  C   -0.000000  -0.000000  -0.000026   0.008448   0.000031  -0.006734
    11  C   -0.000000   0.000000  -0.000000  -0.000217  -0.000076  -0.039038
    12  C    0.000000  -0.000000  -0.000000   0.000157   0.000321   0.011765
    13  C    0.000000  -0.000000   0.000000   0.000003   0.001776  -0.006037
    14  C    0.000000  -0.000000   0.000000   0.000001   0.003773  -0.000811
    15  H   -0.000000  -0.000000  -0.000000   0.000000  -0.000028   0.000000
    16  H   -0.000000   0.000000   0.000000  -0.000000   0.000000  -0.000032
    17  H   -0.000000   0.000000   0.000014  -0.000002  -0.000035  -0.000000
    18  N    0.000000   0.000000  -0.000000  -0.000102   0.000000   0.327529
    19  N    0.000000  -0.000000  -0.000000   0.000000   0.329181   0.000001
    20  O    0.000000   0.000000  -0.000001  -0.000000   0.005959  -0.000000
    21  O    0.000000  -0.000000  -0.000000   0.000000   0.004483  -0.000000
    22  O    0.000000  -0.000000  -0.000000   0.000000  -0.000000   0.005914
    23  O    0.000000   0.000000   0.000000  -0.001037  -0.000000   0.006157
    24  C    0.000246  -0.000083  -0.008969  -0.096188   0.000005   0.002910
    25  C    0.000024   0.000496   0.002347  -0.117025  -0.000037  -0.001362
    26  S    0.000987  -0.000948  -0.003469  -0.005866   0.000014  -0.000221
    27  C    0.000683   0.006475  -0.011511   0.141947  -0.000003  -0.000456
    28  H    0.000000   0.000000   0.000000   0.004218  -0.000000   0.000003
    29  C   -0.004511  -0.004990   0.028521   0.089904  -0.000003  -0.000221
    30  O    0.000020  -0.000054  -0.000035   0.191378  -0.000000  -0.000004
    31  C    0.007875   0.058956  -0.106446   0.012782  -0.000000  -0.000009
    32  C   -0.110988  -0.089590   0.488194  -0.013977  -0.000000  -0.000002
    33  S    0.014499  -0.021738  -0.014112   0.016832   0.000000  -0.000001
    34  C    0.402144   0.092662  -0.349898   0.004889  -0.000000  -0.000000
    35  O   -0.004425  -0.000318   0.137440  -0.000024  -0.000000  -0.000000
    36  C    0.038350   0.316909   0.017349  -0.004696  -0.000000  -0.000000
    37  H    0.535629  -0.004870   0.003324   0.000000  -0.000000  -0.000000
    38  H   -0.004870   0.480963  -0.000017  -0.000003   0.000000   0.000000
    39  H    0.003324  -0.000017   0.550133  -0.000001  -0.000000  -0.000000
    40  H    0.000000  -0.000003  -0.000001   0.512063   0.000000   0.000001
    41  H   -0.000000   0.000000  -0.000000   0.000000   0.335206   0.000000
    42  H   -0.000000   0.000000  -0.000000   0.000001   0.000000   0.340722
 Mulliken charges:
               1
     1  C    0.398122
     2  C   -0.169361
     3  C    0.264250
     4  C    0.137958
     5  C    0.244559
     6  C   -0.106330
     7  C    0.255932
     8  C    0.113929
     9  C    0.181707
    10  C   -0.080563
    11  C    0.382426
    12  C    0.028784
    13  C   -0.408826
    14  C   -0.519779
    15  H    0.164057
    16  H    0.166307
    17  H    0.176932
    18  N   -0.387212
    19  N   -0.403513
    20  O   -0.287878
    21  O   -0.276245
    22  O   -0.290298
    23  O   -0.250462
    24  C    0.088254
    25  C   -0.254182
    26  S   -0.639409
    27  C   -0.620148
    28  H    0.125767
    29  C    0.425524
    30  O   -0.232860
    31  C    0.775187
    32  C    0.461535
    33  S   -0.270689
    34  C   -0.295949
    35  O   -0.227801
    36  C   -0.209871
    37  H    0.120976
    38  H    0.166124
    39  H    0.270114
    40  H    0.275029
    41  H    0.356677
    42  H    0.351228
 Sum of Mulliken charges =  -0.00000
 Mulliken charges with hydrogens summed into heavy atoms:
               1
     1  C    0.398122
     2  C   -0.169361
     3  C    0.264250
     4  C    0.137958
     5  C    0.244559
     6  C    0.070601
     7  C    0.255932
     8  C    0.113929
     9  C    0.181707
    10  C   -0.080563
    11  C    0.382426
    12  C    0.028784
    13  C   -0.242520
    14  C   -0.355722
    18  N   -0.035984
    19  N   -0.046837
    20  O   -0.287878
    21  O   -0.276245
    22  O   -0.290298
    23  O   -0.250462
    24  C    0.088254
    25  C   -0.128415
    26  S   -0.639409
    27  C   -0.620148
    29  C    0.425524
    30  O    0.042169
    31  C    0.775187
    32  C    0.461535
    33  S   -0.270689
    34  C   -0.174973
    35  O    0.042314
    36  C   -0.043747
 Electronic spatial extent (au):  <R**2>=          18321.5672
 Charge=             -0.0000 electrons
 Dipole moment (field-independent basis, Debye):
    X=             -5.1385    Y=             -0.5451    Z=              0.1821  Tot=              5.1706
 Quadrupole moment (field-independent basis, Debye-Ang):
   XX=           -185.2968   YY=           -200.5360   ZZ=           -195.8582
   XY=              8.5682   XZ=              4.4425   YZ=             11.4732
 Traceless Quadrupole moment (field-independent basis, Debye-Ang):
   XX=              8.6002   YY=             -6.6390   ZZ=             -1.9612
   XY=              8.5682   XZ=              4.4425   YZ=             11.4732
 Octapole moment (field-independent basis, Debye-Ang**2):
  XXX=           -415.9420  YYY=            -13.0705  ZZZ=             -2.7634  XYY=           -149.8848
  XXY=            -81.9668  XXZ=            -42.6272  XZZ=              4.7285  YZZ=             -2.3798
  YYZ=              1.7962  XYZ=            -31.8352
 Hexadecapole moment (field-independent basis, Debye-Ang**3):
 XXXX=         -18157.4937 YYYY=          -5024.1532 ZZZZ=           -467.7854 XXXY=            782.1371
 XXXZ=            205.6697 YYYX=           -191.2225 YYYZ=            152.6075 ZZZX=              7.0364
 ZZZY=             15.9398 XXYY=          -4283.6885 XXZZ=          -3375.5266 YYZZ=           -864.2349
 XXYZ=            246.6714 YYXZ=             65.9305 ZZXY=              8.8444
 N-N= 3.321778392301D+03 E-N=-1.181920272106D+04  KE= 2.195637874597D+03
 Unable to Open any file for archive entry.
 1\1\GINC-CX1-106-18-2\FOpt\RB3LYP\6-311+G(d,p)\C22H10N2O6S2\NS5018\17-
 Nov-2020\0\\# opt=modredundant b3lyp/6-311+g(d,p)\\NDI_-30.pdb\\0,1\C,
 -2.5998452809,-3.0084857596,-0.3744857675\C,-2.2784418158,-1.565166289
 ,-0.1996356576\C,-3.3177183213,-0.6072188309,-0.0755742689\C,-4.676729
 7628,-0.9967450635,-0.1182712132\C,-5.035943832,-2.4281288772,-0.30269
 65499\C,-0.9688041606,-1.1706626571,-0.1947652644\C,-2.9604015449,0.75
 97686828,0.1082739944\C,-1.5810493821,1.1575620563,0.1356262732\C,-0.5
 624229169,0.1914276178,-0.0639937443\C,-1.2908594833,2.5723279754,0.49
 45410235\C,-3.7439056171,3.1204453125,0.5041205319\C,-4.0274573213,1.6
 894470834,0.2604765155\C,-5.3523790783,1.2852679143,0.2069809003\C,-5.
 6854257352,-0.0577460758,0.0147731706\H,-6.7170833694,-0.3832234473,-0
 .0246753585\H,-6.1200493464,2.0399259246,0.3252456192\H,-0.2216040874,
 -1.9398899228,-0.3422583302\N,-2.396508428,3.4178416523,0.612417753\N,
 -3.9584795128,-3.3062578148,-0.4090013155\O,-1.7656449145,-3.884492939
 ,-0.4819232815\O,-6.1771131739,-2.8398719009,-0.3581811525\O,-4.592397
 7345,3.984321718,0.6235859912\O,-0.1893862429,3.0454229758,0.710525585
 1\C,0.8673817507,0.4328650933,-0.2257667395\C,1.5526368723,1.505044749
 4,-0.7575019861\S,2.0031786311,-0.8351583362,0.2323400479\C,2.94281499
 69,1.3186100621,-0.8007039467\H,1.0742303255,2.4038533821,-1.113587504
 6\C,3.3834183232,0.1018013404,-0.2887815095\O,3.8379919772,2.222100023
 1,-1.2991440451\C,4.7367504097,-0.3622561784,-0.1559805936\C,5.1729433
 767,-1.5848851242,0.3313581733\S,6.1338794561,0.6112551517,-0.61362498
 66\C,6.5832119019,-1.7430897168,0.3398181917\O,4.277620688,-2.52084869
 47,0.7583599033\C,7.2257233569,-0.6382268258,-0.1423055832\H,7.0881980
 333,-2.6354725218,0.6883848685\H,8.28877046,-0.4866899714,-0.250239825
 2\H,4.7346712015,-3.3254727589,1.0230856318\H,3.4162451003,3.081439188
 8,-1.4027462895\H,-4.1959104986,-4.2847086715,-0.5311582737\H,-2.16910
 53006,4.3779704737,0.8460890128\\Version=ES64L-G16RevC.01\State=1-A\HF
 =-2202.0838519\RMSD=5.258e-09\RMSF=4.270e-04\Dipole=2.0147231,-0.24976
 62,-0.1291898\Quadrupole=6.2645227,-3.8334146,-2.4311081,-6.9245999,2.
 617421,-8.556386\PG=C01 [X(C22H10N2O6S2)]\\@
 The archive entry for this job was punched.


 THE ONLY DIFFERENCE BETWEEN ECCENTRICS AND JOGGERS
 IS THAT JOGGERS WEAR SWEATBANDS WHEN THEY RUN IN THE RAIN.
 Job cpu time:       1 days 12 hours 43 minutes 55.9 seconds.
 Elapsed time:       0 days  4 hours 36 minutes 30.5 seconds.
 File lengths (MBytes):  RWF=    361 Int=      0 D2E=      0 Chk=     44 Scr=      1
 Normal termination of Gaussian 16 at Tue Nov 17 13:32:52 2020.
