 Entering Gaussian System, Link 0=g16
 Input=pBTTT_115.gjf
 Output=pBTTT_115.log
 Initial command:
 /apps/gaussian/g16-c01-avx/g16/l1.exe "/tmp/pbs.4762174[290].pbs/Gau-2030122.inp" -scrdir="/tmp/pbs.4762174[290].pbs/"
 Entering Link 1 = /apps/gaussian/g16-c01-avx/g16/l1.exe PID=   2030123.
  
 Copyright (c) 1988-2019, Gaussian, Inc.  All Rights Reserved.
  
 This is part of the Gaussian(R) 16 program.  It is based on
 the Gaussian(R) 09 system (copyright 2009, Gaussian, Inc.),
 the Gaussian(R) 03 system (copyright 2003, Gaussian, Inc.),
 the Gaussian(R) 98 system (copyright 1998, Gaussian, Inc.),
 the Gaussian(R) 94 system (copyright 1995, Gaussian, Inc.),
 the Gaussian 92(TM) system (copyright 1992, Gaussian, Inc.),
 the Gaussian 90(TM) system (copyright 1990, Gaussian, Inc.),
 the Gaussian 88(TM) system (copyright 1988, Gaussian, Inc.),
 the Gaussian 86(TM) system (copyright 1986, Carnegie Mellon
 University), and the Gaussian 82(TM) system (copyright 1983,
 Carnegie Mellon University). Gaussian is a federally registered
 trademark of Gaussian, Inc.
  
 This software contains proprietary and confidential information,
 including trade secrets, belonging to Gaussian, Inc.
  
 This software is provided under written license and may be
 used, copied, transmitted, or stored only in accord with that
 written license.
  
 The following legend is applicable only to US Government
 contracts under FAR:
  
                    RESTRICTED RIGHTS LEGEND
  
 Use, reproduction and disclosure by the US Government is
 subject to restrictions as set forth in subparagraphs (a)
 and (c) of the Commercial Computer Software - Restricted
 Rights clause in FAR 52.227-19.
  
 Gaussian, Inc.
 340 Quinnipiac St., Bldg. 40, Wallingford CT 06492
  
  
 ---------------------------------------------------------------
 Warning -- This program may not be used in any manner that
 competes with the business of Gaussian, Inc. or will provide
 assistance to any competitor of Gaussian, Inc.  The licensee
 of this program is prohibited from giving any competitor of
 Gaussian, Inc. access to this program.  By using this program,
 the user acknowledges that Gaussian, Inc. is engaged in the
 business of creating and licensing software in the field of
 computational chemistry and represents and warrants to the
 licensee that it is not a competitor of Gaussian, Inc. and that
 it will not use this program in any manner prohibited above.
 ---------------------------------------------------------------
  

 Cite this work as:
 Gaussian 16, Revision C.01,
 M. J. Frisch, G. W. Trucks, H. B. Schlegel, G. E. Scuseria, 
 M. A. Robb, J. R. Cheeseman, G. Scalmani, V. Barone, 
 G. A. Petersson, H. Nakatsuji, X. Li, M. Caricato, A. V. Marenich, 
 J. Bloino, B. G. Janesko, R. Gomperts, B. Mennucci, H. P. Hratchian, 
 J. V. Ortiz, A. F. Izmaylov, J. L. Sonnenberg, D. Williams-Young, 
 F. Ding, F. Lipparini, F. Egidi, J. Goings, B. Peng, A. Petrone, 
 T. Henderson, D. Ranasinghe, V. G. Zakrzewski, J. Gao, N. Rega, 
 G. Zheng, W. Liang, M. Hada, M. Ehara, K. Toyota, R. Fukuda, 
 J. Hasegawa, M. Ishida, T. Nakajima, Y. Honda, O. Kitao, H. Nakai, 
 T. Vreven, K. Throssell, J. A. Montgomery, Jr., J. E. Peralta, 
 F. Ogliaro, M. J. Bearpark, J. J. Heyd, E. N. Brothers, K. N. Kudin, 
 V. N. Staroverov, T. A. Keith, R. Kobayashi, J. Normand, 
 K. Raghavachari, A. P. Rendell, J. C. Burant, S. S. Iyengar, 
 J. Tomasi, M. Cossi, J. M. Millam, M. Klene, C. Adamo, R. Cammi, 
 J. W. Ochterski, R. L. Martin, K. Morokuma, O. Farkas, 
 J. B. Foresman, and D. J. Fox, Gaussian, Inc., Wallingford CT, 2019.
 
 ******************************************
 Gaussian 16:  ES64L-G16RevC.01  3-Jul-2019
                25-Oct-2021 
 ******************************************
 %mem=10GB
 %nprocshared=8
 Will use up to    8 processors via shared memory.
 --------------------------------------
 # opt=modredundant wb97xd/6-311+g(d,p)
 --------------------------------------
 1/18=120,19=15,26=3,38=1/1,3;
 2/9=110,12=2,17=6,18=5,40=1/2;
 3/5=4,6=6,7=111,11=2,25=1,30=1,71=1,74=-58/1,2,3;
 4//1;
 5/5=2,38=5/2;
 6/7=2,8=2,9=2,10=2,28=1/1;
 7//1,2,3,16;
 1/18=20,19=15,26=3/3(2);
 2/9=110/2;
 99//99;
 2/9=110/2;
 3/5=4,6=6,7=111,11=2,25=1,30=1,71=1,74=-58/1,2,3;
 4/5=5,16=3,69=1/1;
 5/5=2,38=5/2;
 7//1,2,3,16;
 1/18=20,19=15,26=3/3(-5);
 2/9=110/2;
 6/7=2,8=2,9=2,10=2,19=2,28=1/1;
 99/9=1/99;
 -------------
 pBTTT_115.pdb
 -------------
 Symbolic Z-matrix:
 Charge =  0 Multiplicity = 1
 C                    -4.25     -1.36     -0.21 
 C                    -2.93     -0.95     -0.61 
 C                    -1.97     -2.05     -0.62 
 C                    -4.33     -2.76      0.1 
 H                    -5.1      -0.7      -0.14 
 S                    -2.8      -3.56     -0.11 
 H                    -5.23     -3.27      0.41 
 C                    -0.56     -2.13     -0.97 
 S                     0.697    -2.524     0.242 
 C                     1.972    -2.424    -0.923 
 C                     1.484    -2.121    -2.245 
 C                     0.06     -1.971    -2.287 
 H                    -0.497    -1.905    -3.209 
 S                     2.537    -2.699    -3.494 
 C                     3.664    -3.346    -2.299 
 C                     3.207    -3.135    -0.944 
 H                     4.492    -3.986    -2.57 
 H                     3.606    -3.687    -0.097 
 O                    -2.4       0.49     -0.72 
 H                    -2.92      1.52     -0.76 
 
 Add virtual bond connecting atoms H20        and O19        Dist= 2.18D+00.
 The following ModRedundant input section has been read:
 D       2       3       8       9 F                                           
 

 GradGradGradGradGradGradGradGradGradGradGradGradGradGradGradGradGradGrad
 Berny optimization.
 Initialization pass.
                           ----------------------------
                           !    Initial Parameters    !
                           ! (Angstroms and Degrees)  !
 --------------------------                            --------------------------
 ! Name  Definition              Value          Derivative Info.                !
 --------------------------------------------------------------------------------
 ! R1    R(1,2)                  1.4389         estimate D2E/DX2                !
 ! R2    R(1,4)                  1.4361         estimate D2E/DX2                !
 ! R3    R(1,5)                  1.0784         estimate D2E/DX2                !
 ! R4    R(2,3)                  1.46           estimate D2E/DX2                !
 ! R5    R(2,19)                 1.5384         estimate D2E/DX2                !
 ! R6    R(3,6)                  1.797          estimate D2E/DX2                !
 ! R7    R(3,8)                  1.455          estimate D2E/DX2                !
 ! R8    R(4,6)                  1.7393         estimate D2E/DX2                !
 ! R9    R(4,7)                  1.0799         estimate D2E/DX2                !
 ! R10   R(8,9)                  1.79           estimate D2E/DX2                !
 ! R11   R(8,12)                 1.4643         estimate D2E/DX2                !
 ! R12   R(9,10)                 1.73           estimate D2E/DX2                !
 ! R13   R(10,11)                1.4414         estimate D2E/DX2                !
 ! R14   R(10,16)                1.4252         estimate D2E/DX2                !
 ! R15   R(11,12)                1.4325         estimate D2E/DX2                !
 ! R16   R(11,14)                1.7329         estimate D2E/DX2                !
 ! R17   R(12,13)                1.0792         estimate D2E/DX2                !
 ! R18   R(14,15)                1.7654         estimate D2E/DX2                !
 ! R19   R(15,16)                1.4455         estimate D2E/DX2                !
 ! R20   R(15,17)                1.081          estimate D2E/DX2                !
 ! R21   R(16,18)                1.0869         estimate D2E/DX2                !
 ! R22   R(19,20)                1.1545         estimate D2E/DX2                !
 ! A1    A(2,1,4)              112.8843         estimate D2E/DX2                !
 ! A2    A(2,1,5)              124.5209         estimate D2E/DX2                !
 ! A3    A(4,1,5)              122.5942         estimate D2E/DX2                !
 ! A4    A(1,2,3)              112.9799         estimate D2E/DX2                !
 ! A5    A(1,2,19)             127.059          estimate D2E/DX2                !
 ! A6    A(3,2,19)             118.5686         estimate D2E/DX2                !
 ! A7    A(2,3,6)              109.1138         estimate D2E/DX2                !
 ! A8    A(2,3,8)              132.8639         estimate D2E/DX2                !
 ! A9    A(6,3,8)              118.0132         estimate D2E/DX2                !
 ! A10   A(1,4,6)              111.9209         estimate D2E/DX2                !
 ! A11   A(1,4,7)              124.6643         estimate D2E/DX2                !
 ! A12   A(6,4,7)              123.4062         estimate D2E/DX2                !
 ! A13   A(3,6,4)               93.0997         estimate D2E/DX2                !
 ! A14   A(3,8,9)              121.9876         estimate D2E/DX2                !
 ! A15   A(3,8,12)             128.3674         estimate D2E/DX2                !
 ! A16   A(9,8,12)             109.6056         estimate D2E/DX2                !
 ! A17   A(8,9,10)              92.8004         estimate D2E/DX2                !
 ! A18   A(9,10,11)            112.3501         estimate D2E/DX2                !
 ! A19   A(9,10,16)            128.2965         estimate D2E/DX2                !
 ! A20   A(11,10,16)           112.6272         estimate D2E/DX2                !
 ! A21   A(10,11,12)           112.672          estimate D2E/DX2                !
 ! A22   A(10,11,14)           112.657          estimate D2E/DX2                !
 ! A23   A(12,11,14)           128.1591         estimate D2E/DX2                !
 ! A24   A(8,12,11)            112.5296         estimate D2E/DX2                !
 ! A25   A(8,12,13)            123.8141         estimate D2E/DX2                !
 ! A26   A(11,12,13)           122.9913         estimate D2E/DX2                !
 ! A27   A(11,14,15)            91.2763         estimate D2E/DX2                !
 ! A28   A(14,15,16)           112.2839         estimate D2E/DX2                !
 ! A29   A(14,15,17)           122.4275         estimate D2E/DX2                !
 ! A30   A(16,15,17)           124.3033         estimate D2E/DX2                !
 ! A31   A(10,16,15)           111.1372         estimate D2E/DX2                !
 ! A32   A(10,16,18)           124.0557         estimate D2E/DX2                !
 ! A33   A(15,16,18)           122.7052         estimate D2E/DX2                !
 ! A34   A(2,19,20)            133.0318         estimate D2E/DX2                !
 ! D1    D(4,1,2,3)              0.3915         estimate D2E/DX2                !
 ! D2    D(4,1,2,19)          -165.8104         estimate D2E/DX2                !
 ! D3    D(5,1,2,3)           -179.8811         estimate D2E/DX2                !
 ! D4    D(5,1,2,19)            13.9169         estimate D2E/DX2                !
 ! D5    D(2,1,4,6)             -0.3845         estimate D2E/DX2                !
 ! D6    D(2,1,4,7)           -179.3471         estimate D2E/DX2                !
 ! D7    D(5,1,4,6)            179.8822         estimate D2E/DX2                !
 ! D8    D(5,1,4,7)              0.9196         estimate D2E/DX2                !
 ! D9    D(1,2,3,6)             -0.2224         estimate D2E/DX2                !
 ! D10   D(1,2,3,8)            178.6265         estimate D2E/DX2                !
 ! D11   D(19,2,3,6)           167.2616         estimate D2E/DX2                !
 ! D12   D(19,2,3,8)           -13.8895         estimate D2E/DX2                !
 ! D13   D(1,2,19,20)          -16.0519         estimate D2E/DX2                !
 ! D14   D(3,2,19,20)          178.4264         estimate D2E/DX2                !
 ! D15   D(2,3,6,4)              0.0033         estimate D2E/DX2                !
 ! D16   D(8,3,6,4)           -179.041          estimate D2E/DX2                !
 ! D17   D(2,3,8,9)            114.9823         Frozen                          !
 ! D18   D(2,3,8,12)           -67.5471         estimate D2E/DX2                !
 ! D19   D(6,3,8,9)            -66.2498         estimate D2E/DX2                !
 ! D20   D(6,3,8,12)           111.2208         estimate D2E/DX2                !
 ! D21   D(1,4,6,3)              0.2153         estimate D2E/DX2                !
 ! D22   D(7,4,6,3)            179.1932         estimate D2E/DX2                !
 ! D23   D(3,8,9,10)           179.7641         estimate D2E/DX2                !
 ! D24   D(12,8,9,10)            1.8691         estimate D2E/DX2                !
 ! D25   D(3,8,12,11)         -179.8647         estimate D2E/DX2                !
 ! D26   D(3,8,12,13)           -8.9833         estimate D2E/DX2                !
 ! D27   D(9,8,12,11)           -2.142          estimate D2E/DX2                !
 ! D28   D(9,8,12,13)          168.7395         estimate D2E/DX2                !
 ! D29   D(8,9,10,11)           -1.1561         estimate D2E/DX2                !
 ! D30   D(8,9,10,16)         -149.8835         estimate D2E/DX2                !
 ! D31   D(9,10,11,12)           0.1019         estimate D2E/DX2                !
 ! D32   D(9,10,11,14)        -154.0506         estimate D2E/DX2                !
 ! D33   D(16,10,11,12)        153.91           estimate D2E/DX2                !
 ! D34   D(16,10,11,14)         -0.2425         estimate D2E/DX2                !
 ! D35   D(9,10,16,15)         149.7537         estimate D2E/DX2                !
 ! D36   D(9,10,16,18)         -14.0952         estimate D2E/DX2                !
 ! D37   D(11,10,16,15)          1.096          estimate D2E/DX2                !
 ! D38   D(11,10,16,18)       -162.7529         estimate D2E/DX2                !
 ! D39   D(10,11,12,8)           1.3503         estimate D2E/DX2                !
 ! D40   D(10,11,12,13)       -169.6178         estimate D2E/DX2                !
 ! D41   D(14,11,12,8)         150.5746         estimate D2E/DX2                !
 ! D42   D(14,11,12,13)        -20.3935         estimate D2E/DX2                !
 ! D43   D(10,11,14,15)         -0.5191         estimate D2E/DX2                !
 ! D44   D(12,11,14,15)       -149.7471         estimate D2E/DX2                !
 ! D45   D(11,14,15,16)          1.1478         estimate D2E/DX2                !
 ! D46   D(11,14,15,17)        170.236          estimate D2E/DX2                !
 ! D47   D(14,15,16,10)         -1.4815         estimate D2E/DX2                !
 ! D48   D(14,15,16,18)        162.6229         estimate D2E/DX2                !
 ! D49   D(17,15,16,10)       -170.3289         estimate D2E/DX2                !
 ! D50   D(17,15,16,18)         -6.2244         estimate D2E/DX2                !
 --------------------------------------------------------------------------------
 Trust Radius=3.00D-01 FncErr=1.00D-07 GrdErr=1.00D-06 EigMax=2.50D+02 EigMin=1.00D-04
 Number of steps in this run=    116 maximum allowed number of steps=    120.
 GradGradGradGradGradGradGradGradGradGradGradGradGradGradGradGradGradGrad

                          Input orientation:                          
 ---------------------------------------------------------------------
 Center     Atomic      Atomic             Coordinates (Angstroms)
 Number     Number       Type             X           Y           Z
 ---------------------------------------------------------------------
      1          6           0       -4.250000   -1.360000   -0.210000
      2          6           0       -2.930000   -0.950000   -0.610000
      3          6           0       -1.970000   -2.050000   -0.620000
      4          6           0       -4.330000   -2.760000    0.100000
      5          1           0       -5.100000   -0.700000   -0.140000
      6         16           0       -2.800000   -3.560000   -0.110000
      7          1           0       -5.230000   -3.270000    0.410000
      8          6           0       -0.560000   -2.130000   -0.970000
      9         16           0        0.697000   -2.524000    0.242000
     10          6           0        1.972000   -2.424000   -0.923000
     11          6           0        1.484000   -2.121000   -2.245000
     12          6           0        0.060000   -1.971000   -2.287000
     13          1           0       -0.497000   -1.905000   -3.209000
     14         16           0        2.537000   -2.699000   -3.494000
     15          6           0        3.664000   -3.346000   -2.299000
     16          6           0        3.207000   -3.135000   -0.944000
     17          1           0        4.492000   -3.986000   -2.570000
     18          1           0        3.606000   -3.687000   -0.097000
     19          8           0       -2.400000    0.490000   -0.720000
     20          1           0       -2.920000    1.520000   -0.760000
 ---------------------------------------------------------------------
                    Distance matrix (angstroms):
                    1          2          3          4          5
     1  C    0.000000
     2  C    1.438923   0.000000
     3  C    2.417147   1.460034   0.000000
     4  C    1.436141   2.395871   2.567509   0.000000
     5  H    1.078425   2.234346   3.442354   2.212261   0.000000
     6  S    2.636759   2.660639   1.796970   1.739253   3.670218
     7  H    2.234480   3.422397   3.630000   1.079907   2.631406
     8  C    3.845335   2.671872   1.454991   3.969219   4.831708
     9  S    5.102157   4.044565   2.842641   5.034540   6.089180
    10  C    6.352460   5.128377   3.971278   6.393327   7.321096
    11  C    6.131811   4.850553   3.817824   6.301582   7.056863
    12  C    4.823210   3.576992   2.627933   5.058892   5.731549
    13  H    4.834877   3.685962   2.982227   5.135406   5.662013
    14  S    7.657738   6.423749   5.384619   7.750887   8.577242
    15  C    8.422560   7.216258   6.020018   8.366758   9.405865
    16  C    7.700405   6.522925   5.299390   7.618197   8.693785
    17  H    9.428045   8.254997   7.021968   9.298369  10.426368
    18  H    8.194171   7.104480   5.834816   7.992386   9.204263
    19  O    2.665539   1.538376   2.578081   3.867790   3.007075
    20  H    3.219596   2.474571   3.696891   4.587603   3.172570
                    6          7          8          9         10
     6  S    0.000000
     7  H    2.501879   0.000000
     8  C    2.793224   5.001290   0.000000
     9  S    3.664179   5.976125   1.790036   0.000000
    10  C    4.972268   7.373019   2.549445   1.729986   0.000000
    11  C    4.998160   7.310747   2.409075   2.639497   1.441401
    12  C    3.929866   6.078265   1.464298   2.665974   2.391955
    13  H    4.200790   6.112420   2.251159   3.703809   3.404573
    14  S    6.377801   8.711690   4.035560   4.168204   2.646675
    15  C    6.827944   9.297725   4.592066   3.991924   2.367768
    16  C    6.079493   8.546023   3.898845   2.842537   1.425197
    17  H    7.707551  10.193642   5.614930   4.944372   3.391586
    18  H    6.407272   8.860352   4.532321   3.151154   2.224275
    19  O    4.115167   4.839773   3.211308   4.427307   5.258040
    20  H    5.122821   5.445099   4.351574   5.517303   6.285966
                   11         12         13         14         15
    11  C    0.000000
    12  C    1.432494   0.000000
    13  H    2.213665   1.079208   0.000000
    14  S    1.732886   2.849976   3.149098   0.000000
    15  C    2.501188   3.857407   4.496499   1.765436   0.000000
    16  C    2.385273   3.614160   4.512509   2.672358   1.445474
    17  H    3.554140   4.876775   5.443253   2.516380   1.081030
    18  H    3.401344   4.507202   5.449282   3.695743   2.229002
    19  O    4.922235   3.816230   3.943673   6.499136   7.347124
    20  H    5.904009   4.837273   4.857896   7.419809   8.330398
                   16         17         18         19         20
    16  C    0.000000
    17  H    2.240380   0.000000
    18  H    1.086883   2.643885   0.000000
    19  O    6.680513   8.423582   7.342172   0.000000
    20  H    7.696948   9.409032   8.375028   1.154513   0.000000
 Stoichiometry    C10H6OS3
 Framework group  C1[X(C10H6OS3)]
 Deg. of freedom    54
 Full point group                 C1      NOp   1
 Largest Abelian subgroup         C1      NOp   1
 Largest concise Abelian subgroup C1      NOp   1
                         Standard orientation:                         
 ---------------------------------------------------------------------
 Center     Atomic      Atomic             Coordinates (Angstroms)
 Number     Number       Type             X           Y           Z
 ---------------------------------------------------------------------
      1          6           0       -4.094371    0.529029   -0.133170
      2          6           0       -2.790596    1.004415    0.247195
      3          6           0       -1.725299    0.054787   -0.061109
      4          6           0       -4.061184   -0.779337   -0.724419
      5          1           0       -5.010705    1.080102    0.007015
      6         16           0       -2.442387   -1.408272   -0.818963
      7          1           0       -4.927999   -1.311703   -1.086937
      8          6           0       -0.280875    0.098354    0.108424
      9         16           0        0.577583   -1.013273    1.218182
     10          6           0        2.123760   -0.339267    0.833602
     11          6           0        2.034728    0.710587   -0.150023
     12          6           0        0.689474    0.953371   -0.578262
     13          1           0        0.445352    1.582714   -1.420296
     14         16           0        3.498199    0.900066   -1.058451
     15          6           0        4.277053   -0.397528   -0.149384
     16          6           0        3.393564   -0.986400    0.831469
     17          1           0        5.232656   -0.813625   -0.436282
     18          1           0        3.584089   -1.954506    1.287302
     19          8           0       -2.469864    2.197820    1.163445
     20          1           0       -3.096333    3.090041    1.543415
 ---------------------------------------------------------------------
 Rotational constants (GHZ):           1.1591023           0.2592444           0.2452606
 Standard basis: 6-311+G(d,p) (5D, 7F)
 There are   382 symmetry adapted cartesian basis functions of A   symmetry.
 There are   368 symmetry adapted basis functions of A   symmetry.
   368 basis functions,   594 primitive gaussians,   382 cartesian basis functions
    61 alpha electrons       61 beta electrons
       nuclear repulsion energy      1100.8499074488 Hartrees.
 NAtoms=   20 NActive=   20 NUniq=   20 SFac= 1.00D+00 NAtFMM=   60 NAOKFM=F Big=F
 Integral buffers will be    131072 words long.
 Raffenetti 2 integral format.
 Two-electron integral symmetry is turned on.
 Nuclear repulsion after empirical dispersion term =     1100.8399567614 Hartrees.
 One-electron integrals computed using PRISM.
 NBasis=   368 RedAO= T EigKep=  3.53D-06  NBF=   368
 NBsUse=   367 1.00D-06 EigRej=  5.46D-07 NBFU=   367
 ExpMin= 4.05D-02 ExpMax= 9.34D+04 ExpMxC= 3.17D+03 IAcc=3 IRadAn=         5 AccDes= 0.00D+00
 Harris functional with IExCor= 4639 and IRadAn=       5 diagonalized for initial guess.
 HarFok:  IExCor= 4639 AccDes= 0.00D+00 IRadAn=         5 IDoV= 1 UseB2=F ITyADJ=14
 ICtDFT=  3500011 ScaDFX=  1.000000  1.000000  1.000000  1.000000
 FoFCou: FMM=F IPFlag=           0 FMFlag=      100000 FMFlg1=           0
         NFxFlg=           0 DoJE=T BraDBF=F KetDBF=T FulRan=T
         wScrn=  0.000000 ICntrl=       500 IOpCl=  0 I1Cent=   200000004 NGrid=           0
         NMat0=    1 NMatS0=      1 NMatT0=    0 NMatD0=    1 NMtDS0=    0 NMtDT0=    0
 Petite list used in FoFCou.
 Requested convergence on RMS density matrix=1.00D-08 within 128 cycles.
 Requested convergence on MAX density matrix=1.00D-06.
 Requested convergence on             energy=1.00D-06.
 No special actions if energy rises.
 SCF Done:  E(RwB97XD) =  -1654.29856208     A.U. after   18 cycles
            NFock= 18  Conv=0.48D-08     -V/T= 2.0031

 **********************************************************************

            Population analysis using the SCF Density.

 **********************************************************************

 Orbital symmetries:
       Occupied  (A) (A) (A) (A) (A) (A) (A) (A) (A) (A) (A) (A)
                 (A) (A) (A) (A) (A) (A) (A) (A) (A) (A) (A) (A)
                 (A) (A) (A) (A) (A) (A) (A) (A) (A) (A) (A) (A)
                 (A) (A) (A) (A) (A) (A) (A) (A) (A) (A) (A) (A)
                 (A) (A) (A) (A) (A) (A) (A) (A) (A) (A) (A) (A)
                 (A)
       Virtual   (A) (A) (A) (A) (A) (A) (A) (A) (A) (A) (A) (A)
                 (A) (A) (A) (A) (A) (A) (A) (A) (A) (A) (A) (A)
                 (A) (A) (A) (A) (A) (A) (A) (A) (A) (A) (A) (A)
                 (A) (A) (A) (A) (A) (A) (A) (A) (A) (A) (A) (A)
                 (A) (A) (A) (A) (A) (A) (A) (A) (A) (A) (A) (A)
                 (A) (A) (A) (A) (A) (A) (A) (A) (A) (A) (A) (A)
                 (A) (A) (A) (A) (A) (A) (A) (A) (A) (A) (A) (A)
                 (A) (A) (A) (A) (A) (A) (A) (A) (A) (A) (A) (A)
                 (A) (A) (A) (A) (A) (A) (A) (A) (A) (A) (A) (A)
                 (A) (A) (A) (A) (A) (A) (A) (A) (A) (A) (A) (A)
                 (A) (A) (A) (A) (A) (A) (A) (A) (A) (A) (A) (A)
                 (A) (A) (A) (A) (A) (A) (A) (A) (A) (A) (A) (A)
                 (A) (A) (A) (A) (A) (A) (A) (A) (A) (A) (A) (A)
                 (A) (A) (A) (A) (A) (A) (A) (A) (A) (A) (A) (A)
                 (A) (A) (A) (A) (A) (A) (A) (A) (A) (A) (A) (A)
                 (A) (A) (A) (A) (A) (A) (A) (A) (A) (A) (A) (A)
                 (A) (A) (A) (A) (A) (A) (A) (A) (A) (A) (A) (A)
                 (A) (A) (A) (A) (A) (A) (A) (A) (A) (A) (A) (A)
                 (A) (A) (A) (A) (A) (A) (A) (A) (A) (A) (A) (A)
                 (A) (A) (A) (A) (A) (A) (A) (A) (A) (A) (A) (A)
                 (A) (A) (A) (A) (A) (A) (A) (A) (A) (A) (A) (A)
                 (A) (A) (A) (A) (A) (A) (A) (A) (A) (A) (A) (A)
                 (A) (A) (A) (A) (A) (A) (A) (A) (A) (A) (A) (A)
                 (A) (A) (A) (A) (A) (A) (A) (A) (A) (A) (A) (A)
                 (A) (A) (A) (A) (A) (A) (A) (A) (A) (A) (A) (A)
                 (A) (A) (A) (A) (A) (A)
 The electronic state is 1-A.
 Alpha  occ. eigenvalues --  -89.06472 -89.05627 -89.05188 -19.28143 -10.39124
 Alpha  occ. eigenvalues --  -10.35042 -10.34876 -10.34119 -10.33460 -10.33170
 Alpha  occ. eigenvalues --  -10.33128 -10.31827 -10.31663 -10.31462  -8.10331
 Alpha  occ. eigenvalues --   -8.09570  -8.09132  -6.05167  -6.04799  -6.04447
 Alpha  occ. eigenvalues --   -6.04422  -6.04059  -6.03992  -6.03637  -6.03617
 Alpha  occ. eigenvalues --   -6.03189  -1.07885  -1.00406  -0.97764  -0.93309
 Alpha  occ. eigenvalues --   -0.86973  -0.85060  -0.83579  -0.80307  -0.78189
 Alpha  occ. eigenvalues --   -0.70889  -0.67086  -0.66448  -0.62730  -0.62173
 Alpha  occ. eigenvalues --   -0.60014  -0.57501  -0.54148  -0.52922  -0.51276
 Alpha  occ. eigenvalues --   -0.50315  -0.48888  -0.47768  -0.47650  -0.46715
 Alpha  occ. eigenvalues --   -0.45068  -0.44386  -0.42446  -0.42149  -0.41511
 Alpha  occ. eigenvalues --   -0.41023  -0.36626  -0.33188  -0.31587  -0.30263
 Alpha  occ. eigenvalues --   -0.27625
 Alpha virt. eigenvalues --   -0.00295   0.02374   0.02586   0.05600   0.05870
 Alpha virt. eigenvalues --    0.06044   0.06653   0.07212   0.07624   0.08214
 Alpha virt. eigenvalues --    0.08918   0.09100   0.09376   0.09422   0.10025
 Alpha virt. eigenvalues --    0.10345   0.10563   0.11560   0.11969   0.12468
 Alpha virt. eigenvalues --    0.13017   0.13155   0.13656   0.14224   0.14751
 Alpha virt. eigenvalues --    0.14887   0.16127   0.16724   0.17069   0.17296
 Alpha virt. eigenvalues --    0.17491   0.18155   0.18460   0.19026   0.19497
 Alpha virt. eigenvalues --    0.19590   0.20355   0.20528   0.21110   0.21412
 Alpha virt. eigenvalues --    0.21843   0.22471   0.22943   0.23091   0.23306
 Alpha virt. eigenvalues --    0.23862   0.24084   0.24951   0.25197   0.25966
 Alpha virt. eigenvalues --    0.26121   0.26473   0.26639   0.27173   0.27349
 Alpha virt. eigenvalues --    0.27688   0.27905   0.28495   0.28772   0.28896
 Alpha virt. eigenvalues --    0.29429   0.30062   0.30300   0.30686   0.31388
 Alpha virt. eigenvalues --    0.32110   0.33116   0.33263   0.33537   0.34580
 Alpha virt. eigenvalues --    0.35749   0.35802   0.37424   0.37754   0.38606
 Alpha virt. eigenvalues --    0.39779   0.40166   0.41609   0.42183   0.42519
 Alpha virt. eigenvalues --    0.43701   0.44675   0.45317   0.45658   0.46637
 Alpha virt. eigenvalues --    0.49216   0.50040   0.50233   0.50752   0.52614
 Alpha virt. eigenvalues --    0.53269   0.53619   0.55398   0.57668   0.60145
 Alpha virt. eigenvalues --    0.62008   0.63135   0.63464   0.63709   0.64403
 Alpha virt. eigenvalues --    0.65309   0.66501   0.67033   0.68632   0.69115
 Alpha virt. eigenvalues --    0.69774   0.70636   0.71415   0.72009   0.72827
 Alpha virt. eigenvalues --    0.74150   0.75697   0.76637   0.77299   0.78336
 Alpha virt. eigenvalues --    0.78883   0.79360   0.79878   0.80853   0.81365
 Alpha virt. eigenvalues --    0.81678   0.82790   0.83531   0.83689   0.85132
 Alpha virt. eigenvalues --    0.86206   0.86820   0.88162   0.89102   0.89461
 Alpha virt. eigenvalues --    0.90010   0.91706   0.91753   0.93322   0.94515
 Alpha virt. eigenvalues --    0.95632   0.97026   0.97376   0.99650   1.00706
 Alpha virt. eigenvalues --    1.01147   1.01843   1.02640   1.03864   1.04869
 Alpha virt. eigenvalues --    1.06048   1.07042   1.08594   1.08918   1.09898
 Alpha virt. eigenvalues --    1.10983   1.11761   1.12767   1.15282   1.16526
 Alpha virt. eigenvalues --    1.19483   1.20915   1.22478   1.25410   1.26287
 Alpha virt. eigenvalues --    1.30199   1.33385   1.34298   1.36727   1.39268
 Alpha virt. eigenvalues --    1.41841   1.43823   1.46641   1.47437   1.50477
 Alpha virt. eigenvalues --    1.53359   1.55617   1.58088   1.58574   1.60072
 Alpha virt. eigenvalues --    1.60457   1.61930   1.63130   1.64405   1.67096
 Alpha virt. eigenvalues --    1.69904   1.70602   1.71658   1.73382   1.74798
 Alpha virt. eigenvalues --    1.75750   1.77645   1.78619   1.79173   1.80391
 Alpha virt. eigenvalues --    1.81434   1.84369   1.85307   1.85977   1.87603
 Alpha virt. eigenvalues --    1.88345   1.90045   1.90954   1.92630   1.93824
 Alpha virt. eigenvalues --    1.96033   1.98905   1.99229   1.99688   2.00834
 Alpha virt. eigenvalues --    2.03618   2.04588   2.05512   2.07942   2.08789
 Alpha virt. eigenvalues --    2.10646   2.11778   2.12409   2.13195   2.16186
 Alpha virt. eigenvalues --    2.17207   2.18924   2.19697   2.20957   2.23258
 Alpha virt. eigenvalues --    2.24075   2.26767   2.32674   2.37160   2.40751
 Alpha virt. eigenvalues --    2.44708   2.45625   2.46987   2.54869   2.56678
 Alpha virt. eigenvalues --    2.59563   2.61912   2.64998   2.67679   2.74392
 Alpha virt. eigenvalues --    2.77575   2.78295   2.79288   2.80483   2.81907
 Alpha virt. eigenvalues --    2.83874   2.84970   2.86133   2.87164   2.89820
 Alpha virt. eigenvalues --    2.93060   2.96176   2.98561   3.01526   3.03530
 Alpha virt. eigenvalues --    3.04449   3.07976   3.08368   3.11744   3.12858
 Alpha virt. eigenvalues --    3.14342   3.15509   3.18515   3.23008   3.30342
 Alpha virt. eigenvalues --    3.32025   3.34168   3.36586   3.43014   3.46674
 Alpha virt. eigenvalues --    3.49688   3.56368   3.64961   3.72878   3.81799
 Alpha virt. eigenvalues --    4.00126   4.04097   4.10929   4.14714   4.22759
 Alpha virt. eigenvalues --    4.40374   4.53059   5.14024   5.31300   5.55568
 Alpha virt. eigenvalues --    8.03799   8.05697   8.08523  17.42416  17.42923
 Alpha virt. eigenvalues --   17.45278  17.55950  17.57401  17.60760  17.61042
 Alpha virt. eigenvalues --   17.63576  17.65619  23.57718  23.71897  23.84605
 Alpha virt. eigenvalues --   23.89970  23.92573  23.98122  23.99740  24.07306
 Alpha virt. eigenvalues --   24.08405  24.09463  50.00313 189.28010 189.30118
 Alpha virt. eigenvalues --  189.33418
          Condensed to atoms (all electrons):
               1          2          3          4          5          6
     1  C    7.490716  -2.211866   0.492918  -0.323563   0.444138   0.471593
     2  C   -2.211866  12.390886  -3.039162   1.282452  -0.091707  -1.444112
     3  C    0.492918  -3.039162   9.659339  -0.852931   0.032886  -0.048095
     4  C   -0.323563   1.282452  -0.852931   5.828206  -0.019053  -0.098164
     5  H    0.444138  -0.091707   0.032886  -0.019053   0.478636  -0.000524
     6  S    0.471593  -1.444112  -0.048095  -0.098164  -0.000524  17.033437
     7  H    0.021539  -0.045062   0.024321   0.381832  -0.003059  -0.015206
     8  C    0.025031  -0.813193   0.550698  -0.097677  -0.005073  -0.101761
     9  S   -0.070943   0.383685   0.535605   0.072551  -0.000227  -0.147783
    10  C    0.007556  -0.426243  -0.754697  -0.022801  -0.000089   0.284219
    11  C    0.010124   0.477075   0.909824   0.029427  -0.000010  -0.387822
    12  C    0.081296  -0.976986  -1.276662  -0.119191  -0.000094   0.642097
    13  H    0.002535   0.008879   0.024441   0.000772   0.000001  -0.007716
    14  S    0.004603  -0.006556  -0.018453   0.000011  -0.000008  -0.002164
    15  C    0.000916  -0.012746  -0.022660  -0.001430   0.000002   0.005056
    16  C    0.006426  -0.113634  -0.137800  -0.002935  -0.000018   0.058550
    17  H   -0.000001   0.000019   0.000165   0.000000  -0.000000  -0.000013
    18  H    0.000003   0.000078   0.000354  -0.000010   0.000000  -0.000127
    19  O   -0.168021   0.543262  -0.181688   0.017501  -0.002247   0.008040
    20  H   -0.048333  -0.054504   0.080636  -0.006249  -0.000123  -0.009059
               7          8          9         10         11         12
     1  C    0.021539   0.025031  -0.070943   0.007556   0.010124   0.081296
     2  C   -0.045062  -0.813193   0.383685  -0.426243   0.477075  -0.976986
     3  C    0.024321   0.550698   0.535605  -0.754697   0.909824  -1.276662
     4  C    0.381832  -0.097677   0.072551  -0.022801   0.029427  -0.119191
     5  H   -0.003059  -0.005073  -0.000227  -0.000089  -0.000010  -0.000094
     6  S   -0.015206  -0.101761  -0.147783   0.284219  -0.387822   0.642097
     7  H    0.438825  -0.000452  -0.000550   0.000074  -0.000052   0.000249
     8  C   -0.000452   9.127785   0.265192  -1.289387   2.188484  -3.566347
     9  S   -0.000550   0.265192  18.304371  -1.854211   2.808287  -3.527924
    10  C    0.000074  -1.289387  -1.854211  13.918451  -6.797094   4.069711
    11  C   -0.000052   2.188484   2.808287  -6.797094  17.872289  -9.023735
    12  C    0.000249  -3.566347  -3.527924   4.069711  -9.023735  17.778082
    13  H    0.000000   0.121907   0.010677  -0.053225   0.059639   0.194671
    14  S    0.000002  -0.271444   0.192771   0.432229  -1.040204   0.284469
    15  C   -0.000001   0.150193   0.013814   0.611734  -0.227288  -0.352576
    16  C    0.000018  -0.552138  -0.582407  -2.395977  -1.014074   1.849131
    17  H    0.000000  -0.003113   0.001623  -0.019886   0.011423   0.009726
    18  H    0.000000   0.004113   0.014434   0.008665  -0.018477  -0.008038
    19  O   -0.000095  -0.052705  -0.026395   0.013777  -0.007021   0.036432
    20  H   -0.000008   0.022851   0.004233  -0.001762   0.005865  -0.008775
              13         14         15         16         17         18
     1  C    0.002535   0.004603   0.000916   0.006426  -0.000001   0.000003
     2  C    0.008879  -0.006556  -0.012746  -0.113634   0.000019   0.000078
     3  C    0.024441  -0.018453  -0.022660  -0.137800   0.000165   0.000354
     4  C    0.000772   0.000011  -0.001430  -0.002935   0.000000  -0.000010
     5  H    0.000001  -0.000008   0.000002  -0.000018  -0.000000   0.000000
     6  S   -0.007716  -0.002164   0.005056   0.058550  -0.000013  -0.000127
     7  H    0.000000   0.000002  -0.000001   0.000018   0.000000   0.000000
     8  C    0.121907  -0.271444   0.150193  -0.552138  -0.003113   0.004113
     9  S    0.010677   0.192771   0.013814  -0.582407   0.001623   0.014434
    10  C   -0.053225   0.432229   0.611734  -2.395977  -0.019886   0.008665
    11  C    0.059639  -1.040204  -0.227288  -1.014074   0.011423  -0.018477
    12  C    0.194671   0.284469  -0.352576   1.849131   0.009726  -0.008038
    13  H    0.477215   0.002702   0.001432  -0.011596  -0.000004   0.000010
    14  S    0.002702  16.572318   0.303010  -0.263615  -0.022942   0.000884
    15  C    0.001432   0.303010   5.620595  -0.148763   0.375105   0.011183
    16  C   -0.011596  -0.263615  -0.148763   9.124532   0.010224   0.345355
    17  H   -0.000004  -0.022942   0.375105   0.010224   0.439618  -0.002645
    18  H    0.000010   0.000884   0.011183   0.345355  -0.002645   0.475608
    19  O   -0.000074  -0.000900   0.000218   0.000022  -0.000000  -0.000000
    20  H    0.000008   0.000042   0.000008  -0.000098  -0.000000   0.000000
              19         20
     1  C   -0.168021  -0.048333
     2  C    0.543262  -0.054504
     3  C   -0.181688   0.080636
     4  C    0.017501  -0.006249
     5  H   -0.002247  -0.000123
     6  S    0.008040  -0.009059
     7  H   -0.000095  -0.000008
     8  C   -0.052705   0.022851
     9  S   -0.026395   0.004233
    10  C    0.013777  -0.001762
    11  C   -0.007021   0.005865
    12  C    0.036432  -0.008775
    13  H   -0.000074   0.000008
    14  S   -0.000900   0.000042
    15  C    0.000218   0.000008
    16  C    0.000022  -0.000098
    17  H   -0.000000  -0.000000
    18  H   -0.000000   0.000000
    19  O    7.991504   0.229640
    20  H    0.229640   0.471360
 Mulliken charges:
               1
     1  C   -0.236667
     2  C    0.149434
     3  C    0.020958
     4  C   -0.068749
     5  H    0.166569
     6  S   -0.240448
     7  H    0.197624
     8  C    0.297037
     9  S   -0.396801
    10  C    0.268955
    11  C    0.143338
    12  C   -0.085539
    13  H    0.167725
    14  S   -0.166755
    15  C   -0.327805
    16  C   -0.171205
    17  H    0.200698
    18  H    0.168609
    19  O   -0.401249
    20  H    0.314269
 Sum of Mulliken charges =  -0.00000
 Mulliken charges with hydrogens summed into heavy atoms:
               1
     1  C   -0.070098
     2  C    0.149434
     3  C    0.020958
     4  C    0.128875
     6  S   -0.240448
     8  C    0.297037
     9  S   -0.396801
    10  C    0.268955
    11  C    0.143338
    12  C    0.082186
    14  S   -0.166755
    15  C   -0.127107
    16  C   -0.002596
    19  O   -0.086979
 Electronic spatial extent (au):  <R**2>=           4400.9542
 Charge=              0.0000 electrons
 Dipole moment (field-independent basis, Debye):
    X=             -2.0447    Y=             -0.0379    Z=             -0.8996  Tot=              2.2342
 Quadrupole moment (field-independent basis, Debye-Ang):
   XX=            -78.9551   YY=            -94.5234   ZZ=           -104.2934
   XY=             -9.9399   XZ=             -1.8931   YZ=              0.7547
 Traceless Quadrupole moment (field-independent basis, Debye-Ang):
   XX=             13.6355   YY=             -1.9328   ZZ=            -11.7028
   XY=             -9.9399   XZ=             -1.8931   YZ=              0.7547
 Octapole moment (field-independent basis, Debye-Ang**2):
  XXX=            -66.3496  YYY=             26.6651  ZZZ=              1.9916  XYY=            -32.2047
  XXY=             -1.8640  XXZ=             -9.4195  XZZ=             -4.2539  YZZ=              6.3323
  YYZ=             13.3409  XYZ=            -27.3197
 Hexadecapole moment (field-independent basis, Debye-Ang**3):
 XXXX=          -4087.8181 YYYY=           -688.2148 ZZZZ=           -541.8914 XXXY=           -202.1073
 XXXZ=            -69.0893 YYYX=           -130.5123 YYYZ=             60.3307 ZZZX=            -34.7997
 ZZZY=             12.7489 XXYY=           -785.4502 XXZZ=           -897.1351 YYZZ=           -183.2713
 XXYZ=             75.0922 YYXZ=            -40.1577 ZZXY=            -24.5385
 N-N= 1.100839956761D+03 E-N=-6.111912007536D+03  KE= 1.649266685448D+03
 Calling FoFJK, ICntrl=      2127 FMM=F ISym2X=0 I1Cent= 0 IOpClX= 0 NMat=1 NMatS=1 NMatT=0.
 ***** Axes restored to original set *****
 -------------------------------------------------------------------
 Center     Atomic                   Forces (Hartrees/Bohr)
 Number     Number              X              Y              Z
 -------------------------------------------------------------------
      1        6           0.016538668   -0.044844089    0.004738380
      2        6           0.034594755    0.022451107    0.012417610
      3        6          -0.044939622    0.028950699    0.003794526
      4        6           0.018766811    0.055177137   -0.017657685
      5        1          -0.000552272    0.001756725    0.000584380
      6       16          -0.007517393    0.032148782   -0.006975281
      7        1           0.002512180   -0.002910111    0.000363119
      8        6           0.042552399    0.009468850   -0.055252487
      9       16          -0.011250232    0.014144390   -0.011561643
     10        6          -0.007598128   -0.010631926   -0.037142914
     11        6          -0.015708241   -0.015502302    0.037061416
     12        6          -0.014489704   -0.007231983    0.061216246
     13        1          -0.004937301    0.005279212    0.001798984
     14       16           0.016730862   -0.000148291    0.017122445
     15        6          -0.031465831    0.010417690    0.056696392
     16        6           0.011797819   -0.013285900   -0.061228877
     17        1           0.001944862    0.005850160   -0.003968536
     18        1           0.004959147    0.007705564   -0.002471404
     19        8          -0.035622133    0.012986606   -0.003782480
     20        1           0.023683354   -0.111782319    0.004247809
 -------------------------------------------------------------------
 Cartesian Forces:  Max     0.111782319 RMS     0.028404962

 GradGradGradGradGradGradGradGradGradGradGradGradGradGradGradGradGradGrad
 Berny optimization.
 FormGI is forming the generalized inverse of G from B-inverse, IUseBI=4.
 Internal  Forces:  Max     0.110540753 RMS     0.021917295
 Search for a local minimum.
 Step number   1 out of a maximum of  116
 All quantities printed in internal units (Hartrees-Bohrs-Radians)
 Mixed Optimization -- RFO/linear search
 Second derivative matrix not updated -- first step.
 ITU=  0
     Eigenvalues ---    0.00230   0.00994   0.01058   0.01221   0.01271
     Eigenvalues ---    0.01296   0.01362   0.01417   0.01458   0.01494
     Eigenvalues ---    0.01500   0.01592   0.01596   0.01772   0.02201
     Eigenvalues ---    0.02654   0.15078   0.15690   0.15738   0.15997
     Eigenvalues ---    0.16000   0.16000   0.17986   0.22443   0.22526
     Eigenvalues ---    0.23317   0.23980   0.24118   0.24633   0.24978
     Eigenvalues ---    0.24995   0.26145   0.26569   0.28307   0.28366
     Eigenvalues ---    0.28663   0.30910   0.31268   0.31577   0.34810
     Eigenvalues ---    0.35175   0.35870   0.35872   0.36006   0.36090
     Eigenvalues ---    0.36185   0.36299   0.37598   0.38230   0.38435
     Eigenvalues ---    0.39456   0.39713   0.407331000.000001000.00000
     Eigenvalues --- 1000.000001000.000001000.000001000.000001000.00000
     Eigenvalues --- 1000.000001000.000001000.000001000.000001000.00000
     Eigenvalues --- 1000.000001000.000001000.000001000.000001000.00000
     Eigenvalues --- 1000.000001000.000001000.000001000.000001000.00000
     Eigenvalues --- 1000.000001000.000001000.000001000.000001000.00000
     Eigenvalues --- 1000.000001000.000001000.000001000.000001000.00000
     Eigenvalues --- 1000.000001000.000001000.000001000.000001000.00000
     Eigenvalues --- 1000.000001000.000001000.000001000.000001000.00000
     Eigenvalues --- 1000.000001000.000001000.000001000.000001000.00000
     Eigenvalues --- 1000.000001000.000001000.000001000.000001000.00000
     Eigenvalues --- 1000.00000
 RFO step:  Lambda=-1.22660172D-01 EMin= 2.30000000D-03
 Linear search not attempted -- first point.
 Maximum step size (   0.300) exceeded in Quadratic search.
    -- Step size scaled by   0.558
 Iteration  1 RMS(Cart)=  0.06463022 RMS(Int)=  0.00146289
 Iteration  2 RMS(Cart)=  0.00158323 RMS(Int)=  0.00010180
 Iteration  3 RMS(Cart)=  0.00000874 RMS(Int)=  0.00010159
 Iteration  4 RMS(Cart)=  0.00000000 RMS(Int)=  0.00010159
 Iteration  1 RMS(Cart)=  0.00000080 RMS(Int)=  0.00000032
 Variable       Old X    -DE/DX   Delta X   Delta X   Delta X     New X
                                 (Linear)    (Quad)   (Total)
    R1        2.71917  -0.02490   0.00000  -0.02801  -0.02792   2.69125
    R2        2.71391  -0.06070   0.00000  -0.06514  -0.06513   2.64878
    R3        2.03793   0.00155   0.00000   0.00178   0.00178   2.03971
    R4        2.75906  -0.07330   0.00000  -0.08368  -0.08363   2.67544
    R5        2.90711  -0.09662   0.00000  -0.13177  -0.13177   2.77534
    R6        3.39578  -0.02900   0.00000  -0.04067  -0.04072   3.35507
    R7        2.74954  -0.00812   0.00000  -0.00908  -0.00908   2.74045
    R8        3.28671  -0.01903   0.00000  -0.02313  -0.02321   3.26350
    R9        2.04073  -0.00062   0.00000  -0.00071  -0.00071   2.04002
   R10        3.38268  -0.01770   0.00000  -0.02382  -0.02389   3.35879
   R11        2.76712  -0.07370   0.00000  -0.08475  -0.08478   2.68234
   R12        3.26920  -0.00700   0.00000  -0.00791  -0.00791   3.26129
   R13        2.72385  -0.03932   0.00000  -0.04346  -0.04331   2.68054
   R14        2.69323  -0.00187   0.00000  -0.00298  -0.00289   2.69034
   R15        2.70702  -0.01341   0.00000  -0.01535  -0.01530   2.69173
   R16        3.27468  -0.00449   0.00000  -0.00463  -0.00465   3.27003
   R17        2.03941   0.00133   0.00000   0.00154   0.00154   2.04095
   R18        3.33619  -0.01793   0.00000  -0.02336  -0.02346   3.31273
   R19        2.73155  -0.06610   0.00000  -0.07271  -0.07273   2.65882
   R20        2.04285  -0.00098   0.00000  -0.00113  -0.00113   2.04172
   R21        2.05391  -0.00402   0.00000  -0.00473  -0.00473   2.04918
   R22        2.18171  -0.11054   0.00000  -0.15208  -0.15208   2.02964
    A1        1.97020  -0.00379   0.00000  -0.00901  -0.00891   1.96129
    A2        2.17330   0.00102   0.00000   0.00277   0.00271   2.17601
    A3        2.13967   0.00278   0.00000   0.00626   0.00620   2.14588
    A4        1.97187   0.01523   0.00000   0.02096   0.02107   1.99294
    A5        2.21760  -0.00415   0.00000  -0.00419  -0.00430   2.21330
    A6        2.06941  -0.01023   0.00000  -0.01349  -0.01361   2.05580
    A7        1.90440  -0.00462   0.00000  -0.00664  -0.00662   1.89778
    A8        2.31891  -0.00710   0.00000  -0.01079  -0.01080   2.30811
    A9        2.05972   0.01171   0.00000   0.01738   0.01737   2.07709
   A10        1.95339  -0.00105   0.00000  -0.00129  -0.00133   1.95206
   A11        2.17580   0.00439   0.00000   0.00828   0.00830   2.18410
   A12        2.15384  -0.00335   0.00000  -0.00702  -0.00700   2.14685
   A13        1.62490  -0.00576   0.00000  -0.00402  -0.00422   1.62068
   A14        2.12909  -0.00353   0.00000  -0.00503  -0.00506   2.12403
   A15        2.24043  -0.00544   0.00000  -0.00790  -0.00793   2.23251
   A16        1.91298   0.00904   0.00000   0.01326   0.01328   1.92626
   A17        1.61967  -0.00735   0.00000  -0.00847  -0.00842   1.61125
   A18        1.96088  -0.01044   0.00000  -0.01344  -0.01366   1.94722
   A19        2.23920   0.00867   0.00000   0.01892   0.01866   2.25786
   A20        1.96572   0.00561   0.00000   0.00818   0.00822   1.97394
   A21        1.96650   0.00768   0.00000   0.01052   0.01053   1.97703
   A22        1.96624  -0.01297   0.00000  -0.01710  -0.01722   1.94902
   A23        2.23680   0.00873   0.00000   0.01848   0.01823   2.25503
   A24        1.96401   0.00112   0.00000  -0.00165  -0.00154   1.96247
   A25        2.16096  -0.00521   0.00000  -0.00784  -0.00794   2.15302
   A26        2.14660   0.00465   0.00000   0.01170   0.01160   2.15820
   A27        1.59307   0.00060   0.00000   0.00248   0.00248   1.59555
   A28        1.95972   0.00199   0.00000   0.00210   0.00206   1.96178
   A29        2.13676  -0.00473   0.00000  -0.00750  -0.00763   2.12914
   A30        2.16950   0.00383   0.00000   0.00963   0.00954   2.17904
   A31        1.93971   0.00477   0.00000   0.00435   0.00445   1.94416
   A32        2.16518   0.00047   0.00000   0.00535   0.00513   2.17031
   A33        2.14161  -0.00333   0.00000  -0.00237  -0.00261   2.13900
   A34        2.32184  -0.06370   0.00000  -0.12580  -0.12580   2.19604
    D1        0.00683  -0.00053   0.00000  -0.00175  -0.00173   0.00510
    D2       -2.89394  -0.00362   0.00000  -0.01633  -0.01639  -2.91033
    D3       -3.13952   0.00026   0.00000   0.00158   0.00159  -3.13793
    D4        0.24290  -0.00283   0.00000  -0.01301  -0.01307   0.22983
    D5       -0.00671  -0.00003   0.00000  -0.00069  -0.00073  -0.00744
    D6       -3.13020   0.00026   0.00000   0.00091   0.00091  -3.12929
    D7        3.13954  -0.00079   0.00000  -0.00394  -0.00398   3.13556
    D8        0.01605  -0.00050   0.00000  -0.00233  -0.00234   0.01371
    D9       -0.00388   0.00093   0.00000   0.00340   0.00339  -0.00050
   D10        3.11762   0.00032   0.00000   0.00066   0.00069   3.11831
   D11        2.91927   0.00426   0.00000   0.01751   0.01748   2.93675
   D12       -0.24242   0.00365   0.00000   0.01478   0.01479  -0.22763
   D13       -0.28016   0.00198   0.00000   0.00442   0.00434  -0.27582
   D14        3.11413  -0.00437   0.00000  -0.01510  -0.01502   3.09911
   D15        0.00006  -0.00081   0.00000  -0.00325  -0.00323  -0.00317
   D16       -3.12486  -0.00010   0.00000  -0.00066  -0.00062  -3.12548
   D17        2.00682  -0.00010   0.00000   0.00000   0.00000   2.00682
   D18       -1.17892   0.00269   0.00000   0.01097   0.01097  -1.16795
   D19       -1.15628  -0.00091   0.00000  -0.00317  -0.00317  -1.15945
   D20        1.94117   0.00187   0.00000   0.00780   0.00780   1.94897
   D21        0.00376   0.00053   0.00000   0.00236   0.00237   0.00612
   D22        3.12751   0.00034   0.00000   0.00097   0.00095   3.12846
   D23        3.13747   0.00063   0.00000   0.00292   0.00293   3.14041
   D24        0.03262  -0.00141   0.00000  -0.00581  -0.00588   0.02674
   D25       -3.13923  -0.00160   0.00000  -0.00578  -0.00574   3.13822
   D26       -0.15679   0.00267   0.00000   0.01046   0.01042  -0.14637
   D27       -0.03738   0.00069   0.00000   0.00379   0.00389  -0.03349
   D28        2.94506   0.00496   0.00000   0.02002   0.02005   2.96511
   D29       -0.02018   0.00224   0.00000   0.00707   0.00700  -0.01317
   D30       -2.61596  -0.00669   0.00000  -0.02299  -0.02306  -2.63902
   D31        0.00178  -0.00181   0.00000  -0.00562  -0.00557  -0.00380
   D32       -2.68869  -0.01068   0.00000  -0.03278  -0.03241  -2.72111
   D33        2.68624   0.00764   0.00000   0.02440   0.02415   2.71038
   D34       -0.00423  -0.00123   0.00000  -0.00277  -0.00269  -0.00692
   D35        2.61369   0.00595   0.00000   0.02686   0.02713   2.64083
   D36       -0.24601  -0.00069   0.00000  -0.00017  -0.00005  -0.24606
   D37        0.01913   0.00103   0.00000   0.00216   0.00212   0.02125
   D38       -2.84057  -0.00560   0.00000  -0.02487  -0.02506  -2.86564
   D39        0.02357   0.00074   0.00000   0.00104   0.00099   0.02456
   D40       -2.96039  -0.00245   0.00000  -0.01300  -0.01316  -2.97355
   D41        2.62802   0.00434   0.00000   0.02153   0.02178   2.64981
   D42       -0.35593   0.00114   0.00000   0.00749   0.00763  -0.34830
   D43       -0.00906   0.00112   0.00000   0.00228   0.00225  -0.00681
   D44       -2.61358  -0.00761   0.00000  -0.02507  -0.02501  -2.63859
   D45        0.02003  -0.00039   0.00000  -0.00089  -0.00090   0.01913
   D46        2.97118   0.00606   0.00000   0.02348   0.02334   2.99452
   D47       -0.02586  -0.00017   0.00000  -0.00041  -0.00036  -0.02622
   D48        2.83831   0.00705   0.00000   0.02763   0.02769   2.86600
   D49       -2.97280  -0.00567   0.00000  -0.02310  -0.02318  -2.99598
   D50       -0.10864   0.00156   0.00000   0.00494   0.00487  -0.10377
         Item               Value     Threshold  Converged?
 Maximum Force            0.110541     0.000450     NO 
 RMS     Force            0.022021     0.000300     NO 
 Maximum Displacement     0.439567     0.001800     NO 
 RMS     Displacement     0.064741     0.001200     NO 
 Predicted change in Energy=-5.541903D-02
 GradGradGradGradGradGradGradGradGradGradGradGradGradGradGradGradGradGrad

                          Input orientation:                          
 ---------------------------------------------------------------------
 Center     Atomic      Atomic             Coordinates (Angstroms)
 Number     Number       Type             X           Y           Z
 ---------------------------------------------------------------------
      1          6           0       -4.204741   -1.332130   -0.219800
      2          6           0       -2.882579   -0.976687   -0.611900
      3          6           0       -1.968982   -2.058228   -0.618558
      4          6           0       -4.322132   -2.694767    0.087007
      5          1           0       -5.033399   -0.643167   -0.159022
      6         16           0       -2.824674   -3.530604   -0.116532
      7          1           0       -5.232463   -3.185933    0.395940
      8          6           0       -0.564421   -2.145884   -0.968642
      9         16           0        0.676012   -2.546338    0.239702
     10          6           0        1.944248   -2.446626   -0.926501
     11          6           0        1.443383   -2.132874   -2.215990
     12          6           0        0.027562   -1.980111   -2.248045
     13          1           0       -0.544250   -1.889994   -3.159834
     14         16           0        2.514252   -2.668651   -3.465209
     15          6           0        3.643542   -3.304282   -2.284632
     16          6           0        3.192899   -3.129519   -0.963270
     17          1           0        4.495775   -3.902887   -2.572205
     18          1           0        3.620825   -3.667777   -0.124796
     19          8           0       -2.337226    0.381068   -0.738441
     20          1           0       -2.911632    1.287391   -0.785274
 ---------------------------------------------------------------------
                    Distance matrix (angstroms):
                    1          2          3          4          5
     1  C    0.000000
     2  C    1.424146   0.000000
     3  C    2.384291   1.415781   0.000000
     4  C    1.401675   2.347889   2.537778   0.000000
     5  H    1.079369   2.223142   3.406497   2.185290   0.000000
     6  S    2.597795   2.602160   1.775424   1.726972   3.635597
     7  H    2.207246   3.379122   3.598782   1.079531   2.610224
     8  C    3.804587   2.620714   1.450184   3.941580   4.783869
     9  S    5.050465   3.981533   2.823270   5.002678   6.031452
    10  C    6.289006   5.055488   3.944497   6.352660   7.247693
    11  C    6.043780   4.756451   3.768501   6.233834   6.956943
    12  C    4.737725   3.486080   2.578278   4.988290   5.636024
    13  H    4.728023   3.576854   2.918262   5.045991   5.541833
    14  S    7.580491   6.334817   5.345599   7.704224   8.485311
    15  C    8.351555   7.127832   5.985724   8.333555   9.321430
    16  C    7.649080   6.455198   5.283135   7.600511   8.631381
    17  H    9.372384   8.175914   7.000900   9.289050  10.356370
    18  H    8.167237   7.055034   5.837842   8.005134   9.167608
    19  O    2.586821   1.468646   2.469846   3.752595   2.941790
    20  H    2.975530   2.270892   3.479878   4.313695   2.936179
                    6          7          8          9         10
     6  S    0.000000
     7  H    2.485734   0.000000
     8  C    2.784292   4.973369   0.000000
     9  S    3.653831   5.945045   1.777395   0.000000
    10  C    4.957184   7.334889   2.526983   1.725802   0.000000
    11  C    4.957589   7.245553   2.363753   2.605808   1.418482
    12  C    3.883636   6.009369   1.419435   2.632486   2.374405
    13  H    4.141693   6.025141   2.206175   3.671058   3.389725
    14  S    6.360875   8.671081   3.998045   4.137686   2.611367
    15  C    6.825665   9.272698   4.558582   3.969002   2.338310
    16  C    6.090075   8.534480   3.883944   2.849905   1.423665
    17  H    7.730324  10.196201   5.591428   4.933319   3.367392
    18  H    6.446964   8.881669   4.532607   3.172130   2.223702
    19  O    3.990683   4.732093   3.095370   4.313476   5.134418
    20  H    4.864962   5.176114   4.162979   5.349696   6.127185
                   11         12         13         14         15
    11  C    0.000000
    12  C    1.424400   0.000000
    13  H    2.213711   1.080023   0.000000
    14  S    1.730423   2.852929   3.170803   0.000000
    15  C    2.493513   3.850984   4.505972   1.753021   0.000000
    16  C    2.371374   3.604323   4.508613   2.632994   1.406989
    17  H    3.546397   4.875149   5.458837   2.499445   1.080429
    18  H    3.386780   4.501993   5.451588   3.658021   2.190328
    19  O    4.774522   3.666919   3.773014   6.346093   7.193199
    20  H    5.719381   4.631968   4.619395   7.229975   8.142595
                   16         17         18         19         20
    16  C    0.000000
    17  H    2.210036   0.000000
    18  H    1.084381   2.609718   0.000000
    19  O    6.554163   8.270724   7.229667   0.000000
    20  H    7.536980   9.219642   8.225747   1.074038   0.000000
 Stoichiometry    C10H6OS3
 Framework group  C1[X(C10H6OS3)]
 Deg. of freedom    54
 Full point group                 C1      NOp   1
 Largest Abelian subgroup         C1      NOp   1
 Largest concise Abelian subgroup C1      NOp   1
                         Standard orientation:                         
 ---------------------------------------------------------------------
 Center     Atomic      Atomic             Coordinates (Angstroms)
 Number     Number       Type             X           Y           Z
 ---------------------------------------------------------------------
      1          6           0       -4.044959    0.569115   -0.068866
      2          6           0       -2.731191    0.976407    0.300347
      3          6           0       -1.716762    0.055147   -0.055530
      4          6           0       -4.056815   -0.677570   -0.709435
      5          1           0       -4.940550    1.142182    0.117009
      6         16           0       -2.467476   -1.334822   -0.865804
      7          1           0       -4.938421   -1.175106   -1.084422
      8          6           0       -0.275583    0.082319    0.103527
      9         16           0        0.570840   -1.080550    1.147766
     10          6           0        2.111275   -0.392797    0.783832
     11          6           0        1.997355    0.689111   -0.126435
     12          6           0        0.655269    0.949044   -0.526629
     13          1           0        0.388957    1.629336   -1.322072
     14         16           0        3.468627    0.946704   -1.000144
     15          6           0        4.252733   -0.373931   -0.155049
     16          6           0        3.393158   -1.011622    0.758241
     17          1           0        5.228204   -0.738649   -0.442737
     18          1           0        3.610876   -1.985769    1.181937
     19          8           0       -2.372630    2.071930    1.210393
     20          1           0       -3.026764    2.859918    1.534031
 ---------------------------------------------------------------------
 Rotational constants (GHZ):           1.2129480           0.2639897           0.2497715
 Standard basis: 6-311+G(d,p) (5D, 7F)
 There are   382 symmetry adapted cartesian basis functions of A   symmetry.
 There are   368 symmetry adapted basis functions of A   symmetry.
   368 basis functions,   594 primitive gaussians,   382 cartesian basis functions
    61 alpha electrons       61 beta electrons
       nuclear repulsion energy      1114.5858503932 Hartrees.
 NAtoms=   20 NActive=   20 NUniq=   20 SFac= 1.00D+00 NAtFMM=   60 NAOKFM=F Big=F
 Integral buffers will be    131072 words long.
 Raffenetti 2 integral format.
 Two-electron integral symmetry is turned on.
 Nuclear repulsion after empirical dispersion term =     1114.5757111382 Hartrees.
 One-electron integrals computed using PRISM.
 NBasis=   368 RedAO= T EigKep=  3.06D-06  NBF=   368
 NBsUse=   367 1.00D-06 EigRej=  4.78D-07 NBFU=   367
 Initial guess from the checkpoint file:  "/tmp/pbs.4762174[290].pbs/Gau-2030123.chk"
 B after Tr=     0.000000   -0.000000   -0.000000
         Rot=    0.999672   -0.025432   -0.001973    0.002114 Ang=  -2.93 deg.
 ExpMin= 4.05D-02 ExpMax= 9.34D+04 ExpMxC= 3.17D+03 IAcc=3 IRadAn=         5 AccDes= 0.00D+00
 Harris functional with IExCor= 4639 and IRadAn=       5 diagonalized for initial guess.
 HarFok:  IExCor= 4639 AccDes= 0.00D+00 IRadAn=         5 IDoV= 1 UseB2=F ITyADJ=14
 ICtDFT=  3500011 ScaDFX=  1.000000  1.000000  1.000000  1.000000
 FoFCou: FMM=F IPFlag=           0 FMFlag=      100000 FMFlg1=           0
         NFxFlg=           0 DoJE=T BraDBF=F KetDBF=T FulRan=T
         wScrn=  0.000000 ICntrl=       500 IOpCl=  0 I1Cent=   200000004 NGrid=           0
         NMat0=    1 NMatS0=      1 NMatT0=    0 NMatD0=    1 NMtDS0=    0 NMtDT0=    0
 Petite list used in FoFCou.
 Requested convergence on RMS density matrix=1.00D-08 within 128 cycles.
 Requested convergence on MAX density matrix=1.00D-06.
 Requested convergence on             energy=1.00D-06.
 No special actions if energy rises.
 SCF Done:  E(RwB97XD) =  -1654.35734164     A.U. after   16 cycles
            NFock= 16  Conv=0.39D-08     -V/T= 2.0026
 Calling FoFJK, ICntrl=      2127 FMM=F ISym2X=0 I1Cent= 0 IOpClX= 0 NMat=1 NMatS=1 NMatT=0.
 ***** Axes restored to original set *****
 -------------------------------------------------------------------
 Center     Atomic                   Forces (Hartrees/Bohr)
 Number     Number              X              Y              Z
 -------------------------------------------------------------------
      1        6           0.004413079   -0.028689950    0.003488682
      2        6           0.034405540    0.034565936    0.008194342
      3        6          -0.034530362    0.013014747    0.003289921
      4        6           0.011262275    0.033777420   -0.011505307
      5        1          -0.000138346    0.001779118    0.000576492
      6       16          -0.003499182    0.017192566   -0.004379331
      7        1           0.002095485   -0.003083857    0.000430419
      8        6           0.030945242    0.007456786   -0.035995870
      9       16          -0.008968463    0.011367934   -0.004001090
     10        6          -0.007314656   -0.008909159   -0.025106736
     11        6          -0.006515911   -0.014273915    0.023996247
     12        6          -0.012510000   -0.004131202    0.038495708
     13        1          -0.003120532    0.004952016    0.001473123
     14       16           0.012973632    0.001735949    0.007281198
     15        6          -0.020954302    0.004837507    0.036938425
     16        6           0.008609633   -0.010250432   -0.038538978
     17        1           0.001741064    0.005149636   -0.003628263
     18        1           0.004200266    0.007072799   -0.000396494
     19        8          -0.038388264    0.011013498   -0.005005721
     20        1           0.025293800   -0.084577395    0.004393235
 -------------------------------------------------------------------
 Cartesian Forces:  Max     0.084577395 RMS     0.020610750

 GradGradGradGradGradGradGradGradGradGradGradGradGradGradGradGradGradGrad
 Berny optimization.
 Using GEDIIS/GDIIS optimizer.
 FormGI is forming the generalized inverse of G from B-inverse, IUseBI=4.
 Internal  Forces:  Max     0.085089759 RMS     0.015121036
 Search for a local minimum.
 Step number   2 out of a maximum of  116
 All quantities printed in internal units (Hartrees-Bohrs-Radians)
 Mixed Optimization -- RFO/linear search
 Update second derivatives using D2CorX and points    1    2
 DE= -5.88D-02 DEPred=-5.54D-02 R= 1.06D+00
 TightC=F SS=  1.41D+00  RLast= 3.14D-01 DXNew= 5.0454D-01 9.4295D-01
 Trust test= 1.06D+00 RLast= 3.14D-01 DXMaxT set to 5.05D-01
 ITU=  1  0
 Use linear search instead of GDIIS.
     Eigenvalues ---    0.00230   0.00995   0.01054   0.01219   0.01269
     Eigenvalues ---    0.01292   0.01347   0.01399   0.01460   0.01489
     Eigenvalues ---    0.01498   0.01592   0.01593   0.01743   0.02126
     Eigenvalues ---    0.02511   0.14632   0.15267   0.15754   0.15822
     Eigenvalues ---    0.15999   0.16020   0.18295   0.20924   0.22457
     Eigenvalues ---    0.22540   0.23393   0.24117   0.24323   0.24978
     Eigenvalues ---    0.25000   0.25501   0.26243   0.26628   0.28409
     Eigenvalues ---    0.28535   0.30898   0.31274   0.31555   0.34849
     Eigenvalues ---    0.35178   0.35870   0.36005   0.36071   0.36091
     Eigenvalues ---    0.36184   0.36413   0.37564   0.38142   0.39293
     Eigenvalues ---    0.39558   0.40643   0.432261000.000001000.00000
     Eigenvalues --- 1000.000001000.000001000.000001000.000001000.00000
     Eigenvalues --- 1000.000001000.000001000.000001000.000001000.00000
     Eigenvalues --- 1000.000001000.000001000.000001000.000001000.00000
     Eigenvalues --- 1000.000001000.000001000.000001000.000001000.00000
     Eigenvalues --- 1000.000001000.000001000.000001000.000001000.00000
     Eigenvalues --- 1000.000001000.000001000.000001000.000001000.00000
     Eigenvalues --- 1000.000001000.000001000.000001000.000001000.00000
     Eigenvalues --- 1000.000001000.000001000.000001000.000001000.00000
     Eigenvalues --- 1000.000001000.000001000.000001000.000001000.00000
     Eigenvalues --- 1000.000001000.000001000.000001000.000001000.00000
     Eigenvalues --- 1000.00000
 RFO step:  Lambda=-9.94038273D-03 EMin= 2.30057135D-03
 Quartic linear search produced a step of  1.49271.
 Iteration  1 RMS(Cart)=  0.10562039 RMS(Int)=  0.01773071
 Iteration  2 RMS(Cart)=  0.02212218 RMS(Int)=  0.00095445
 Iteration  3 RMS(Cart)=  0.00035655 RMS(Int)=  0.00091042
 Iteration  4 RMS(Cart)=  0.00000048 RMS(Int)=  0.00091042
 Iteration  1 RMS(Cart)=  0.00003095 RMS(Int)=  0.00001276
 Iteration  2 RMS(Cart)=  0.00001691 RMS(Int)=  0.00001425
 Iteration  3 RMS(Cart)=  0.00000923 RMS(Int)=  0.00001610
 Iteration  4 RMS(Cart)=  0.00000504 RMS(Int)=  0.00001732
 Iteration  5 RMS(Cart)=  0.00000275 RMS(Int)=  0.00001803
 Iteration  6 RMS(Cart)=  0.00000150 RMS(Int)=  0.00001844
 Iteration  7 RMS(Cart)=  0.00000082 RMS(Int)=  0.00001866
 Variable       Old X    -DE/DX   Delta X   Delta X   Delta X     New X
                                 (Linear)    (Quad)   (Total)
    R1        2.69125  -0.00960  -0.04168   0.03973  -0.00162   2.68962
    R2        2.64878  -0.03492  -0.09722   0.02512  -0.07221   2.57657
    R3        2.03971   0.00127   0.00266   0.00179   0.00445   2.04417
    R4        2.67544  -0.04295  -0.12483   0.02942  -0.09504   2.58040
    R5        2.77534  -0.07282  -0.19670  -0.07150  -0.26819   2.50715
    R6        3.35507  -0.01703  -0.06078   0.02058  -0.04026   3.31480
    R7        2.74045  -0.00131  -0.01356   0.02524   0.01168   2.75213
    R8        3.26350  -0.01083  -0.03464   0.01237  -0.02269   3.24081
    R9        2.04002  -0.00024  -0.00106   0.00107   0.00000   2.04002
   R10        3.35879  -0.01127  -0.03566   0.00644  -0.03002   3.32877
   R11        2.68234  -0.04633  -0.12655   0.01111  -0.11591   2.56643
   R12        3.26129  -0.00153  -0.01180   0.02134   0.00970   3.27099
   R13        2.68054  -0.02402  -0.06465   0.00462  -0.05848   2.62206
   R14        2.69034   0.00086  -0.00432   0.01173   0.00793   2.69826
   R15        2.69173  -0.00469  -0.02283   0.02325   0.00086   2.69259
   R16        3.27003  -0.00052  -0.00695   0.01659   0.00968   3.27971
   R17        2.04095   0.00082   0.00230  -0.00029   0.00201   2.04295
   R18        3.31273  -0.01094  -0.03502   0.00983  -0.02596   3.28678
   R19        2.65882  -0.04052  -0.10856   0.01450  -0.09441   2.56442
   R20        2.04172  -0.00051  -0.00169   0.00081  -0.00088   2.04083
   R21        2.04918  -0.00216  -0.00706   0.00310  -0.00395   2.04523
   R22        2.02964  -0.08509  -0.22700  -0.09697  -0.32398   1.70566
    A1        1.96129  -0.00191  -0.01330   0.00937  -0.00344   1.95786
    A2        2.17601  -0.00014   0.00405  -0.01146  -0.00769   2.16833
    A3        2.14588   0.00205   0.00926   0.00210   0.01109   2.15696
    A4        1.99294   0.00591   0.03145  -0.03673  -0.00605   1.98689
    A5        2.21330  -0.00385  -0.00642  -0.00633  -0.01517   2.19813
    A6        2.05580  -0.00125  -0.02031   0.05924   0.03687   2.09268
    A7        1.89778   0.00037  -0.00988   0.03077   0.02152   1.91930
    A8        2.30811  -0.00825  -0.01612  -0.03165  -0.04809   2.26002
    A9        2.07709   0.00788   0.02592   0.00109   0.02668   2.10376
   A10        1.95206   0.00023  -0.00198   0.00948   0.00731   1.95937
   A11        2.18410   0.00369   0.01239   0.01065   0.02313   2.20723
   A12        2.14685  -0.00393  -0.01044  -0.02008  -0.03043   2.11641
   A13        1.62068  -0.00460  -0.00630  -0.01284  -0.01958   1.60109
   A14        2.12403  -0.00305  -0.00755  -0.00641  -0.01407   2.10995
   A15        2.23251  -0.00351  -0.01183   0.00149  -0.01045   2.22205
   A16        1.92626   0.00662   0.01982   0.00506   0.02488   1.95114
   A17        1.61125  -0.00496  -0.01257  -0.00589  -0.01775   1.59350
   A18        1.94722  -0.00617  -0.02039   0.01016  -0.01135   1.93587
   A19        2.25786   0.00659   0.02785   0.01634   0.04122   2.29908
   A20        1.97394   0.00284   0.01228  -0.00794   0.00409   1.97803
   A21        1.97703   0.00363   0.01572  -0.01079   0.00442   1.98145
   A22        1.94902  -0.00723  -0.02570   0.01675  -0.01008   1.93894
   A23        2.25503   0.00659   0.02722   0.01733   0.04138   2.29641
   A24        1.96247   0.00092  -0.00230   0.00160   0.00012   1.96259
   A25        2.15302  -0.00341  -0.01186   0.00542  -0.00746   2.14556
   A26        2.15820   0.00297   0.01731  -0.00364   0.01265   2.17086
   A27        1.59555  -0.00070   0.00370  -0.01593  -0.01146   1.58409
   A28        1.96178   0.00248   0.00307   0.01442   0.01699   1.97877
   A29        2.12914  -0.00476  -0.01138  -0.01770  -0.03029   2.09885
   A30        2.17904   0.00316   0.01424   0.00876   0.02200   2.20104
   A31        1.94416   0.00262   0.00665  -0.00669   0.00073   1.94489
   A32        2.17031   0.00007   0.00766  -0.00501   0.00098   2.17129
   A33        2.13900  -0.00116  -0.00389   0.01708   0.01164   2.15065
   A34        2.19604  -0.04850  -0.18778  -0.04589  -0.23367   1.96237
    D1        0.00510  -0.00019  -0.00258   0.01814   0.01543   0.02054
    D2       -2.91033  -0.00442  -0.02446  -0.07434  -0.09738  -3.00771
    D3       -3.13793   0.00062   0.00238   0.02429   0.02622  -3.11171
    D4        0.22983  -0.00361  -0.01950  -0.06819  -0.08660   0.14323
    D5       -0.00744  -0.00019  -0.00109   0.00044  -0.00035  -0.00779
    D6       -3.12929   0.00021   0.00136  -0.00183  -0.00048  -3.12977
    D7        3.13556  -0.00098  -0.00594  -0.00557  -0.01103   3.12453
    D8        0.01371  -0.00059  -0.00349  -0.00785  -0.01116   0.00255
    D9       -0.00050   0.00050   0.00505  -0.02751  -0.02270  -0.02319
   D10        3.11831   0.00024   0.00103  -0.01562  -0.01504   3.10327
   D11        2.93675   0.00386   0.02610   0.04834   0.07583   3.01258
   D12       -0.22763   0.00359   0.02207   0.06022   0.08348  -0.14415
   D13       -0.27582   0.00167   0.00648   0.07661   0.08340  -0.19241
   D14        3.09911  -0.00349  -0.02242  -0.00757  -0.03030   3.06881
   D15       -0.00317  -0.00050  -0.00482   0.02332   0.01893   0.01576
   D16       -3.12548  -0.00005  -0.00093   0.01382   0.01320  -3.11227
   D17        2.00682  -0.00032   0.00000   0.00000   0.00000   2.00682
   D18       -1.16795   0.00227   0.01637   0.00593   0.02233  -1.14562
   D19       -1.15945  -0.00071  -0.00473   0.01311   0.00816  -1.15129
   D20        1.94897   0.00188   0.01164   0.01905   0.03049   1.97946
   D21        0.00612   0.00042   0.00353  -0.01394  -0.01054  -0.00441
   D22        3.12846   0.00013   0.00142  -0.01133  -0.00973   3.11873
   D23        3.14041   0.00070   0.00438   0.00472   0.00909  -3.13368
   D24        0.02674  -0.00133  -0.00878  -0.00025  -0.00954   0.01720
   D25        3.13822  -0.00133  -0.00856   0.00028  -0.00820   3.13002
   D26       -0.14637   0.00252   0.01555   0.02520   0.04050  -0.10587
   D27       -0.03349   0.00089   0.00581   0.00549   0.01189  -0.02160
   D28        2.96511   0.00474   0.02993   0.03041   0.06058   3.02570
   D29       -0.01317   0.00169   0.01046  -0.00517   0.00519  -0.00798
   D30       -2.63902  -0.00593  -0.03442  -0.04531  -0.08065  -2.71967
   D31       -0.00380  -0.00125  -0.00832   0.00948   0.00121  -0.00259
   D32       -2.72111  -0.00882  -0.04839  -0.04029  -0.08591  -2.80702
   D33        2.71038   0.00679   0.03605   0.04938   0.08302   2.79341
   D34       -0.00692  -0.00078  -0.00402  -0.00039  -0.00410  -0.01102
   D35        2.64083   0.00612   0.04050   0.02947   0.07146   2.71229
   D36       -0.24606  -0.00016  -0.00008   0.00429   0.00529  -0.24077
   D37        0.02125   0.00048   0.00316  -0.01552  -0.01271   0.00854
   D38       -2.86564  -0.00579  -0.03741  -0.04070  -0.07888  -2.94452
   D39        0.02456   0.00026   0.00148  -0.00981  -0.00865   0.01591
   D40       -2.97355  -0.00300  -0.01964  -0.03568  -0.05624  -3.02978
   D41        2.64981   0.00508   0.03252   0.04849   0.08241   2.73222
   D42       -0.34830   0.00182   0.01140   0.02262   0.03483  -0.31347
   D43       -0.00681   0.00086   0.00335   0.01201   0.01498   0.00816
   D44       -2.63859  -0.00638  -0.03733  -0.03909  -0.07738  -2.71597
   D45        0.01913  -0.00050  -0.00135  -0.02093  -0.02256  -0.00343
   D46        2.99452   0.00537   0.03484   0.01432   0.04760   3.04212
   D47       -0.02622   0.00018  -0.00053   0.02415   0.02408  -0.00214
   D48        2.86600   0.00652   0.04134   0.04513   0.08754   2.95354
   D49       -2.99598  -0.00500  -0.03461  -0.00934  -0.04503  -3.04102
   D50       -0.10377   0.00134   0.00726   0.01164   0.01843  -0.08534
         Item               Value     Threshold  Converged?
 Maximum Force            0.085090     0.000450     NO 
 RMS     Force            0.015193     0.000300     NO 
 Maximum Displacement     0.796977     0.001800     NO 
 RMS     Displacement     0.117005     0.001200     NO 
 Predicted change in Energy=-5.941252D-02
 GradGradGradGradGradGradGradGradGradGradGradGradGradGradGradGradGradGrad

                          Input orientation:                          
 ---------------------------------------------------------------------
 Center     Atomic      Atomic             Coordinates (Angstroms)
 Number     Number       Type             X           Y           Z
 ---------------------------------------------------------------------
      1          6           0       -4.140159   -1.260894   -0.227229
      2          6           0       -2.794043   -0.982676   -0.596441
      3          6           0       -1.983677   -2.081706   -0.597689
      4          6           0       -4.329535   -2.576975    0.074585
      5          1           0       -4.928236   -0.520539   -0.196560
      6         16           0       -2.891477   -3.495891   -0.094791
      7          1           0       -5.258437   -3.039884    0.371647
      8          6           0       -0.577109   -2.194876   -0.957903
      9         16           0        0.632518   -2.631048    0.246034
     10          6           0        1.897937   -2.527889   -0.930491
     11          6           0        1.390059   -2.185609   -2.175541
     12          6           0       -0.023752   -2.008746   -2.184110
     13          1           0       -0.612338   -1.838769   -3.074851
     14         16           0        2.507436   -2.593177   -3.439455
     15          6           0        3.630532   -3.228791   -2.273364
     16          6           0        3.188657   -3.135200   -0.993708
     17          1           0        4.532357   -3.724699   -2.600635
     18          1           0        3.674350   -3.627444   -0.161153
     19          8           0       -2.276152    0.221164   -0.803217
     20          1           0       -2.906931    0.865649   -0.841129
 ---------------------------------------------------------------------
                    Distance matrix (angstroms):
                    1          2          3          4          5
     1  C    0.000000
     2  C    1.423288   0.000000
     3  C    2.336961   1.365489   0.000000
     4  C    1.363461   2.312964   2.490039   0.000000
     5  H    1.081726   2.219967   3.356869   2.158910   0.000000
     6  S    2.563583   2.564643   1.754117   1.714965   3.607140
     7  H    2.184950   3.352990   3.547079   1.079532   2.603649
     8  C    3.755201   2.552427   1.456364   3.910593   4.723913
     9  S    4.987960   3.894639   2.803234   4.965308   5.964237
    10  C    6.209546   4.951157   3.921322   6.308248   7.152954
    11  C    5.935850   4.631124   3.725923   6.158733   6.827127
    12  C    4.618817   3.353808   2.522570   4.895340   5.497188
    13  H    4.570384   3.411048   2.841816   4.927621   5.352500
    14  S    7.502259   6.227530   5.339226   7.687191   8.372658
    15  C    8.273024   7.009441   5.970179   8.324686   9.214133
    16  C    7.603424   6.370549   5.293366   7.614203   8.564803
    17  H    9.322871   8.075372   7.012127   9.327765  10.273706
    18  H    8.165260   7.001742   5.881594   8.075966   9.146507
    19  O    2.450057   1.326725   2.330449   3.580015   2.819877
    20  H    2.533754   1.867865   3.098154   3.835883   2.534297
                    6          7          8          9         10
     6  S    0.000000
     7  H    2.455200   0.000000
     8  C    2.791756   4.939289   0.000000
     9  S    3.644538   5.906461   1.761507   0.000000
    10  C    4.957208   7.291872   2.497499   1.730936   0.000000
    11  C    4.937399   7.170806   2.313542   2.576104   1.387533
    12  C    3.847168   5.915832   1.358099   2.592981   2.352437
    13  H    4.101376   5.908237   2.146979   3.633957   3.372632
    14  S    6.414821   8.662149   3.978839   4.135164   2.582760
    15  C    6.881433   9.276074   4.528096   3.961408   2.301403
    16  C    6.156800   8.557260   3.881557   2.885304   1.427859
    17  H    7.838681  10.254906   5.580822   4.950590   3.340944
    18  H    6.567480   8.967932   4.556530   3.226662   2.226330
    19  O    3.833666   4.572611   2.957689   4.206709   4.999651
    20  H    4.424962   4.717372   3.848184   5.092790   5.883098
                   11         12         13         14         15
    11  C    0.000000
    12  C    1.424856   0.000000
    13  H    2.222306   1.081084   0.000000
    14  S    1.735546   2.885197   3.230334   0.000000
    15  C    2.473362   3.853604   4.536131   1.739286   0.000000
    16  C    2.352321   3.606318   4.523213   2.596060   1.357030
    17  H    3.524705   4.886320   5.499955   2.466631   1.079963
    18  H    3.369664   4.515362   5.483127   3.630242   2.149948
    19  O    4.595316   3.457264   3.488828   6.144345   6.996602
[...]
 Stoichiometry    C10H6OS3
 Framework group  C1[X(C10H6OS3)]
 Deg. of freedom    54
 Full point group                 C1      NOp   1
 Largest Abelian subgroup         C1      NOp   1
 Largest concise Abelian subgroup C1      NOp   1
                         Standard orientation:                         
 ---------------------------------------------------------------------
 Center     Atomic      Atomic             Coordinates (Angstroms)
 Number     Number       Type             X           Y           Z
 ---------------------------------------------------------------------
      1          6           0       -3.917886    0.778192    0.274887
      2          6           0       -2.520422    1.008133    0.442133
      3          6           0       -1.736478    0.028570   -0.106264
      4          6           0       -4.171009   -0.380678   -0.390845
      5          1           0       -4.689422    1.446002    0.638108
      6         16           0       -2.730936   -1.198070   -0.836302
      7          1           0       -5.133359   -0.794543   -0.650932
      8          6           0       -0.280758   -0.058062   -0.082613
      9         16           0        0.516259   -1.365315    0.777029
     10          6           0        2.071674   -0.713210    0.394448
     11          6           0        1.950605    0.455329   -0.332583
     12          6           0        0.607758    0.831866   -0.608435
     13          1           0        0.299967    1.708226   -1.160839
     14         16           0        3.508151    1.108752   -0.713814
     15          6           0        4.290243   -0.204447    0.111291
     16          6           0        3.419532   -1.098523    0.649851
     17          1           0        5.368882   -0.235285    0.149803
     18          1           0        3.724431   -1.977990    1.199207
     19          8           0       -1.983267    2.081793    1.074004
     20          1           0       -2.679485    2.590354    1.490788
 ---------------------------------------------------------------------
 Rotational constants (GHZ):           1.3163929           0.2699420           0.2459047

 **********************************************************************

            Population analysis using the SCF Density.

 **********************************************************************

 Orbital symmetries:
       Occupied  (A) (A) (A) (A) (A) (A) (A) (A) (A) (A) (A) (A)
                 (A) (A) (A) (A) (A) (A) (A) (A) (A) (A) (A) (A)
                 (A) (A) (A) (A) (A) (A) (A) (A) (A) (A) (A) (A)
                 (A) (A) (A) (A) (A) (A) (A) (A) (A) (A) (A) (A)
                 (A) (A) (A) (A) (A) (A) (A) (A) (A) (A) (A) (A)
                 (A)
       Virtual   (A) (A) (A) (A) (A) (A) (A) (A) (A) (A) (A) (A)
                 (A) (A) (A) (A) (A) (A) (A) (A) (A) (A) (A) (A)
                 (A) (A) (A) (A) (A) (A) (A) (A) (A) (A) (A) (A)
                 (A) (A) (A) (A) (A) (A) (A) (A) (A) (A) (A) (A)
                 (A) (A) (A) (A) (A) (A) (A) (A) (A) (A) (A) (A)
                 (A) (A) (A) (A) (A) (A) (A) (A) (A) (A) (A) (A)
                 (A) (A) (A) (A) (A) (A) (A) (A) (A) (A) (A) (A)
                 (A) (A) (A) (A) (A) (A) (A) (A) (A) (A) (A) (A)
                 (A) (A) (A) (A) (A) (A) (A) (A) (A) (A) (A) (A)
                 (A) (A) (A) (A) (A) (A) (A) (A) (A) (A) (A) (A)
                 (A) (A) (A) (A) (A) (A) (A) (A) (A) (A) (A) (A)
                 (A) (A) (A) (A) (A) (A) (A) (A) (A) (A) (A) (A)
                 (A) (A) (A) (A) (A) (A) (A) (A) (A) (A) (A) (A)
                 (A) (A) (A) (A) (A) (A) (A) (A) (A) (A) (A) (A)
                 (A) (A) (A) (A) (A) (A) (A) (A) (A) (A) (A) (A)
                 (A) (A) (A) (A) (A) (A) (A) (A) (A) (A) (A) (A)
                 (A) (A) (A) (A) (A) (A) (A) (A) (A) (A) (A) (A)
                 (A) (A) (A) (A) (A) (A) (A) (A) (A) (A) (A) (A)
                 (A) (A) (A) (A) (A) (A) (A) (A) (A) (A) (A) (A)
                 (A) (A) (A) (A) (A) (A) (A) (A) (A) (A) (A) (A)
                 (A) (A) (A) (A) (A) (A) (A) (A) (A) (A) (A) (A)
                 (A) (A) (A) (A) (A) (A) (A) (A) (A) (A) (A) (A)
                 (A) (A) (A) (A) (A) (A) (A) (A) (A) (A) (A) (A)
                 (A) (A) (A) (A) (A) (A) (A) (A) (A) (A) (A) (A)
                 (A) (A) (A) (A) (A) (A) (A) (A) (A) (A) (A) (A)
                 (A) (A) (A) (A) (A) (A)
 The electronic state is 1-A.
 Alpha  occ. eigenvalues --  -89.05171 -89.04679 -89.04500 -19.29056 -10.36083
 Alpha  occ. eigenvalues --  -10.33171 -10.32712 -10.32254 -10.31971 -10.31965
 Alpha  occ. eigenvalues --  -10.31900 -10.30338 -10.30147 -10.29965  -8.09234
 Alpha  occ. eigenvalues --   -8.08725  -8.08543  -6.04069  -6.03688  -6.03573
 Alpha  occ. eigenvalues --   -6.03396  -6.03328  -6.03201  -6.03026  -6.02788
 Alpha  occ. eigenvalues --   -6.02592  -1.18204  -1.01746  -0.99673  -0.94965
 Alpha  occ. eigenvalues --   -0.86895  -0.85942  -0.83932  -0.80605  -0.79838
 Alpha  occ. eigenvalues --   -0.70922  -0.70087  -0.66166  -0.64823  -0.62892
 Alpha  occ. eigenvalues --   -0.60701  -0.58047  -0.57036  -0.53614  -0.52569
 Alpha  occ. eigenvalues --   -0.51847  -0.49992  -0.49401  -0.47505  -0.46964
 Alpha  occ. eigenvalues --   -0.45829  -0.44834  -0.44342  -0.44009  -0.42067
 Alpha  occ. eigenvalues --   -0.41656  -0.36475  -0.33518  -0.31506  -0.30238
 Alpha  occ. eigenvalues --   -0.28268
 Alpha virt. eigenvalues --    0.02059   0.04257   0.05003   0.06083   0.06212
 Alpha virt. eigenvalues --    0.06773   0.07414   0.07586   0.08136   0.09132
 Alpha virt. eigenvalues --    0.09322   0.09400   0.09862   0.10250   0.10753
 Alpha virt. eigenvalues --    0.11259   0.11609   0.11871   0.12358   0.12592
 Alpha virt. eigenvalues --    0.13376   0.13768   0.14308   0.14901   0.15477
 Alpha virt. eigenvalues --    0.15740   0.16117   0.17072   0.17649   0.17756
 Alpha virt. eigenvalues --    0.18019   0.18800   0.19157   0.19406   0.19848
 Alpha virt. eigenvalues --    0.20215   0.20804   0.20907   0.21751   0.21917
 Alpha virt. eigenvalues --    0.22103   0.22528   0.22984   0.23172   0.23664
 Alpha virt. eigenvalues --    0.24054   0.24432   0.25321   0.25383   0.25500
 Alpha virt. eigenvalues --    0.26253   0.26713   0.26992   0.27473   0.27673
 Alpha virt. eigenvalues --    0.28231   0.28848   0.29039   0.29634   0.30432
 Alpha virt. eigenvalues --    0.30927   0.31603   0.32019   0.32474   0.32501
 Alpha virt. eigenvalues --    0.33644   0.34373   0.34586   0.35446   0.36305
 Alpha virt. eigenvalues --    0.37791   0.38256   0.39166   0.40242   0.40475
 Alpha virt. eigenvalues --    0.41516   0.41579   0.42205   0.43090   0.44153
 Alpha virt. eigenvalues --    0.45013   0.45328   0.47602   0.48051   0.49276
 Alpha virt. eigenvalues --    0.50638   0.52330   0.53070   0.54125   0.54393
 Alpha virt. eigenvalues --    0.55639   0.57830   0.58859   0.60477   0.61712
 Alpha virt. eigenvalues --    0.62519   0.63557   0.63812   0.64149   0.65158
 Alpha virt. eigenvalues --    0.67054   0.67735   0.67826   0.68874   0.70090
 Alpha virt. eigenvalues --    0.71228   0.71367   0.72260   0.72950   0.74605
 Alpha virt. eigenvalues --    0.74950   0.78816   0.79076   0.79484   0.79668
 Alpha virt. eigenvalues --    0.80986   0.81568   0.81995   0.82660   0.83616
 Alpha virt. eigenvalues --    0.85405   0.86031   0.86767   0.87628   0.88243
 Alpha virt. eigenvalues --    0.89185   0.89938   0.90878   0.91438   0.92278
 Alpha virt. eigenvalues --    0.92733   0.93645   0.94038   0.95021   0.95677
 Alpha virt. eigenvalues --    0.96391   0.97247   0.99018   0.99612   1.02986
 Alpha virt. eigenvalues --    1.03104   1.04417   1.05841   1.06360   1.06993
 Alpha virt. eigenvalues --    1.08624   1.10540   1.11383   1.12166   1.12824
 Alpha virt. eigenvalues --    1.14145   1.15143   1.16228   1.16422   1.17990
 Alpha virt. eigenvalues --    1.20488   1.21335   1.23325   1.24457   1.25789
 Alpha virt. eigenvalues --    1.27797   1.30689   1.35353   1.38429   1.40086
 Alpha virt. eigenvalues --    1.43455   1.44055   1.44654   1.46935   1.49271
 Alpha virt. eigenvalues --    1.51234   1.56076   1.58735   1.60982   1.62990
 Alpha virt. eigenvalues --    1.65088   1.66075   1.67683   1.68189   1.69658
 Alpha virt. eigenvalues --    1.70500   1.72333   1.74581   1.77107   1.78178
 Alpha virt. eigenvalues --    1.79686   1.81893   1.82556   1.82761   1.83789
 Alpha virt. eigenvalues --    1.85505   1.86509   1.87816   1.88723   1.91397
 Alpha virt. eigenvalues --    1.93383   1.94557   1.95595   1.98219   1.99367
 Alpha virt. eigenvalues --    2.00541   2.01537   2.03097   2.05621   2.06721
 Alpha virt. eigenvalues --    2.08797   2.09375   2.12001   2.12760   2.15085
 Alpha virt. eigenvalues --    2.15796   2.17442   2.17996   2.18956   2.20206
 Alpha virt. eigenvalues --    2.21723   2.23245   2.23666   2.26324   2.27560
 Alpha virt. eigenvalues --    2.28695   2.29589   2.37783   2.41825   2.46583
 Alpha virt. eigenvalues --    2.50937   2.51243   2.55517   2.60010   2.62890
 Alpha virt. eigenvalues --    2.66179   2.69374   2.72335   2.73391   2.79700
 Alpha virt. eigenvalues --    2.80158   2.80815   2.81731   2.82288   2.83324
 Alpha virt. eigenvalues --    2.84045   2.87914   2.88382   2.93466   2.97614
 Alpha virt. eigenvalues --    3.00480   3.03930   3.05859   3.07606   3.08756
 Alpha virt. eigenvalues --    3.13054   3.17365   3.17953   3.23076   3.23472
 Alpha virt. eigenvalues --    3.27471   3.27939   3.31230   3.38948   3.40612
 Alpha virt. eigenvalues --    3.41283   3.44634   3.47269   3.54622   3.57823
 Alpha virt. eigenvalues --    3.58971   3.63041   3.68110   3.80687   3.98170
 Alpha virt. eigenvalues --    4.04073   4.08263   4.15632   4.21244   4.30676
 Alpha virt. eigenvalues --    4.46062   4.61270   5.12612   5.57272   5.86200
 Alpha virt. eigenvalues --    8.09866   8.11041   8.12244  17.42667  17.43945
 Alpha virt. eigenvalues --   17.45280  17.59858  17.60820  17.64770  17.66728
 Alpha virt. eigenvalues --   17.68857  17.71552  23.60561  23.76519  23.90900
 Alpha virt. eigenvalues --   23.94270  23.99175  24.17801  24.20956  24.28463
 Alpha virt. eigenvalues --   24.28962  24.30474  50.08494 189.34831 189.36120
 Alpha virt. eigenvalues --  189.37587
          Condensed to atoms (all electrons):
               1          2          3          4          5          6
     1  C    8.401285  -3.121833   0.563422  -0.844928   0.401877   0.635726
     2  C   -3.121833  14.235710  -3.364236   2.009276  -0.057880  -1.997408
     3  C    0.563422  -3.364236  10.629645  -1.157851  -0.011069   0.082414
     4  C   -0.844928   2.009276  -1.157851   6.351323   0.033938  -0.196482
     5  H    0.401877  -0.057880  -0.011069   0.033938   0.498150   0.000235
     6  S    0.635726  -1.997408   0.082414  -0.196482   0.000235  17.289071
     7  H    0.026183  -0.029696   0.033300   0.370564  -0.003717  -0.027760
     8  C    0.174018  -1.316334   1.009779  -0.248862  -0.006391   0.133520
     9  S   -0.080278   0.124720   0.740535   0.076335  -0.000249  -0.039339
    10  C    0.061572  -0.214040  -1.116109  -0.028609  -0.000116   0.119475
    11  C   -0.224228  -0.351081   1.648369   0.054927  -0.000296  -0.071205
    12  C    0.358199   0.096332  -3.208587  -0.214805   0.001107   0.319148
    13  H   -0.002542   0.024292   0.033639   0.004063  -0.000004  -0.011624
    14  S   -0.011087  -0.020550   0.008279   0.002962  -0.000002   0.001648
    15  C    0.000323  -0.026905   0.011896  -0.000663  -0.000000   0.002786
    16  C   -0.014152   0.014684  -0.188637   0.004443  -0.000011  -0.007320
    17  H   -0.000001  -0.000002  -0.000048  -0.000000   0.000000   0.000002
    18  H    0.000006  -0.000123  -0.000570  -0.000003   0.000000   0.000045
    19  O    0.078918   0.060764  -0.096864  -0.032097  -0.004947   0.041729
    20  H   -0.182719   0.155004   0.034706   0.005719   0.002893  -0.016881
               7          8          9         10         11         12
     1  C    0.026183   0.174018  -0.080278   0.061572  -0.224228   0.358199
     2  C   -0.029696  -1.316334   0.124720  -0.214040  -0.351081   0.096332
     3  C    0.033300   1.009779   0.740535  -1.116109   1.648369  -3.208587
     4  C    0.370564  -0.248862   0.076335  -0.028609   0.054927  -0.214805
     5  H   -0.003717  -0.006391  -0.000249  -0.000116  -0.000296   0.001107
     6  S   -0.027760   0.133520  -0.039339   0.119475  -0.071205   0.319148
     7  H    0.445728  -0.003527  -0.000418  -0.000215   0.000150  -0.000339
     8  C   -0.003527  11.600961   1.612983  -1.148553   3.476808  -6.639600
     9  S   -0.000418   1.612983  18.607899  -0.235178   2.390561  -4.703639
    10  C   -0.000215  -1.148553  -0.235178  18.548079  -4.833412   1.195029
    11  C    0.000150   3.476808   2.390561  -4.833412  18.942083 -12.122167
    12  C   -0.000339  -6.639600  -4.703639   1.195029 -12.122167  26.251606
    13  H    0.000001   0.064239   0.015505  -0.064780   0.118746   0.170493
    14  S   -0.000002  -0.833859   0.181457   0.283220  -0.585800  -0.448813
    15  C    0.000000   0.195133   0.296478   1.528055  -0.124478  -1.068621
    16  C   -0.000013  -2.209908  -2.393977  -8.333367  -1.934682   5.298313
    17  H    0.000000   0.002646  -0.001367  -0.016987   0.029467   0.009273
    18  H    0.000000  -0.007923   0.017525   0.019112  -0.050173  -0.000888
    19  O   -0.000285  -0.033541  -0.037713   0.036643  -0.081381   0.121730
    20  H   -0.000006   0.020079   0.002579   0.000169   0.008209  -0.009005
              13         14         15         16         17         18
     1  C   -0.002542  -0.011087   0.000323  -0.014152  -0.000001   0.000006
     2  C    0.024292  -0.020550  -0.026905   0.014684  -0.000002  -0.000123
     3  C    0.033639   0.008279   0.011896  -0.188637  -0.000048  -0.000570
     4  C    0.004063   0.002962  -0.000663   0.004443  -0.000000  -0.000003
     5  H   -0.000004  -0.000002  -0.000000  -0.000011   0.000000   0.000000
     6  S   -0.011624   0.001648   0.002786  -0.007320   0.000002   0.000045
     7  H    0.000001  -0.000002   0.000000  -0.000013   0.000000   0.000000
     8  C    0.064239  -0.833859   0.195133  -2.209908   0.002646  -0.007923
     9  S    0.015505   0.181457   0.296478  -2.393977  -0.001367   0.017525
    10  C   -0.064780   0.283220   1.528055  -8.333367  -0.016987   0.019112
    11  C    0.118746  -0.585800  -0.124478  -1.934682   0.029467  -0.050173
    12  C    0.170493  -0.448813  -1.068621   5.298313   0.009273  -0.000888
    13  H    0.481854   0.008157   0.002605  -0.005008  -0.000004   0.000002
    14  S    0.008157  17.522254   0.414370  -0.049900  -0.043438   0.008178
    15  C    0.002605   0.414370   5.938478  -1.369340   0.375158   0.027799
    16  C   -0.005008  -0.049900  -1.369340  16.617198   0.013022   0.347315
    17  H   -0.000004  -0.043438   0.375158   0.013022   0.443976  -0.003701
    18  H    0.000002   0.008178   0.027799   0.347315  -0.003701   0.482305
    19  O   -0.001979  -0.000780  -0.000014   0.004588  -0.000000  -0.000000
    20  H    0.000220  -0.000001   0.000032   0.000284  -0.000000  -0.000000
              19         20
     1  C    0.078918  -0.182719
     2  C    0.060764   0.155004
     3  C   -0.096864   0.034706
     4  C   -0.032097   0.005719
     5  H   -0.004947   0.002893
     6  S    0.041729  -0.016881
     7  H   -0.000285  -0.000006
     8  C   -0.033541   0.020079
     9  S   -0.037713   0.002579
    10  C    0.036643   0.000169
    11  C   -0.081381   0.008209
    12  C    0.121730  -0.009005
    13  H   -0.001979   0.000220
    14  S   -0.000780  -0.000001
    15  C   -0.000014   0.000032
    16  C    0.004588   0.000284
    17  H   -0.000000  -0.000000
    18  H   -0.000000  -0.000000
    19  O    7.953182   0.226176
    20  H    0.226176   0.486505
 Mulliken charges:
               1
     1  C   -0.219760
     2  C   -0.220693
     3  C    0.347988
     4  C   -0.189249
     5  H    0.146482
     6  S   -0.257780
     7  H    0.190052
     8  C    0.158331
     9  S   -0.574418
    10  C    0.200011
    11  C   -0.290417
    12  C    0.595235
    13  H    0.162125
    14  S   -0.436293
    15  C   -0.203092
    16  C    0.206469
    17  H    0.192006
    18  H    0.161094
    19  O   -0.234131
    20  H    0.266038
 Sum of Mulliken charges =  -0.00000
 Mulliken charges with hydrogens summed into heavy atoms:
               1
     1  C   -0.073278
     2  C   -0.220693
     3  C    0.347988
     4  C    0.000804
     6  S   -0.257780
     8  C    0.158331
     9  S   -0.574418
    10  C    0.200011
    11  C   -0.290417
    12  C    0.757360
    14  S   -0.436293
    15  C   -0.011086
    16  C    0.367563
    19  O    0.031907
 Electronic spatial extent (au):  <R**2>=           4270.9339
 Charge=             -0.0000 electrons
 Dipole moment (field-independent basis, Debye):
    X=             -1.9863    Y=              0.9126    Z=              0.6778  Tot=              2.2886
 Quadrupole moment (field-independent basis, Debye-Ang):
   XX=            -77.9631   YY=            -96.9081   ZZ=           -103.5259
   XY=             -8.2373   XZ=             -1.1522   YZ=              0.5463
 Traceless Quadrupole moment (field-independent basis, Debye-Ang):
   XX=             14.8359   YY=             -4.1091   ZZ=            -10.7269
   XY=             -8.2373   XZ=             -1.1522   YZ=              0.5463
 Octapole moment (field-independent basis, Debye-Ang**2):
  XXX=            -38.1717  YYY=             19.9362  ZZZ=              7.8218  XYY=            -19.6813
  XXY=              8.1407  XXZ=             18.9051  XZZ=             -9.4192  YZZ=              7.6153
  YYZ=             11.0727  XYZ=            -25.5921
 Hexadecapole moment (field-independent basis, Debye-Ang**3):
 XXXX=          -3964.4841 YYYY=           -770.8529 ZZZZ=           -380.5974 XXXY=            -97.2852
 XXXZ=              6.4278 YYYX=            -78.5940 YYYZ=             25.6607 ZZZX=            -22.3086
 ZZZY=             17.2604 XXYY=           -842.0874 XXZZ=           -871.9081 YYZZ=           -171.7949
 XXYZ=             47.1979 YYXZ=            -24.7398 ZZXY=            -27.4556
 N-N= 1.128865827113D+03 E-N=-6.169580729806D+03  KE= 1.651135805736D+03
 Unable to Open any file for archive entry.
 1\1\GINC-CX3-2-0\FOpt\RwB97XD\6-311+G(d,p)\C10H6O1S3\NS5018\26-Oct-202
 1\0\\# opt=modredundant wb97xd/6-311+g(d,p)\\pBTTT_115.pdb\\0,1\C,-4.0
 857649069,-1.1585573188,-0.1771558907\C,-2.7431409675,-1.0389403966,-0
 .6427783407\C,-2.0570552185,-2.2239017793,-0.640974151\C,-4.3929137124
 ,-2.434483878,0.1805061189\H,-4.7804320771,-0.3300847013,-0.1120547498
 \S,-3.0753329119,-3.5065520057,-0.0540617914\H,-5.331997805,-2.8034494
 345,0.5639549012\C,-0.666301711,-2.4429843177,-1.0217552652\S,0.507636
 124,-2.9715685278,0.1722295874\C,1.7785279454,-2.9045259011,-0.9987809
 598\C,1.2998042987,-2.4739496529,-2.221131554\C,-0.0971857342,-2.21082
 22555,-2.2383608453\H,-0.6631081531,-1.8673592338,-3.0925599724\S,2.57
 29674052,-2.4052879716,-3.3927074717\C,3.7228295456,-2.958860886,-2.21
 443182\C,3.1749499886,-3.1880311121,-0.9917847313\H,4.7558643231,-3.08
 24511652,-2.503325036\H,3.7375701133,-3.5354713284,-0.1368220542\O,-2.
 1684302647,0.1177951118,-1.057762026\H,-2.7564862815,0.8514867542,-0.8
 762439479\\Version=ES64L-G16RevC.01\State=1-A\HF=-1654.4107344\RMSD=7.
 031e-09\RMSF=3.603e-04\Dipole=-0.6972089,0.5338475,0.1991\Quadrupole=9
 .848681,-3.3045499,-6.5441311,-7.4022109,-2.3138223,-0.4335226\PG=C01 
 [X(C10H6O1S3)]\\@
 The archive entry for this job was punched.


 FESTINA LENTE!
     - IMPERATOR AUGUSTUS 
 Job cpu time:       0 days  4 hours 13 minutes 22.5 seconds.
 Elapsed time:       0 days  0 hours 32 minutes  2.7 seconds.
 File lengths (MBytes):  RWF=     86 Int=      0 D2E=      0 Chk=     11 Scr=      1
 Normal termination of Gaussian 16 at Tue Oct 26 00:29:40 2021.
