 Entering Gaussian System, Link 0=g16
 Input=pBTTT_-110.gjf
 Output=pBTTT_-110.log
 Initial command:
 /apps/gaussian/g16-c01-avx/g16/l1.exe "/tmp/pbs.4762174[65].pbs/Gau-3205071.inp" -scrdir="/tmp/pbs.4762174[65].pbs/"
 Entering Link 1 = /apps/gaussian/g16-c01-avx/g16/l1.exe PID=   3205072.
  
 Copyright (c) 1988-2019, Gaussian, Inc.  All Rights Reserved.
  
 This is part of the Gaussian(R) 16 program.  It is based on
 the Gaussian(R) 09 system (copyright 2009, Gaussian, Inc.),
 the Gaussian(R) 03 system (copyright 2003, Gaussian, Inc.),
 the Gaussian(R) 98 system (copyright 1998, Gaussian, Inc.),
 the Gaussian(R) 94 system (copyright 1995, Gaussian, Inc.),
 the Gaussian 92(TM) system (copyright 1992, Gaussian, Inc.),
 the Gaussian 90(TM) system (copyright 1990, Gaussian, Inc.),
 the Gaussian 88(TM) system (copyright 1988, Gaussian, Inc.),
 the Gaussian 86(TM) system (copyright 1986, Carnegie Mellon
 University), and the Gaussian 82(TM) system (copyright 1983,
 Carnegie Mellon University). Gaussian is a federally registered
 trademark of Gaussian, Inc.
  
 This software contains proprietary and confidential information,
 including trade secrets, belonging to Gaussian, Inc.
  
 This software is provided under written license and may be
 used, copied, transmitted, or stored only in accord with that
 written license.
  
 The following legend is applicable only to US Government
 contracts under FAR:
  
                    RESTRICTED RIGHTS LEGEND
  
 Use, reproduction and disclosure by the US Government is
 subject to restrictions as set forth in subparagraphs (a)
 and (c) of the Commercial Computer Software - Restricted
 Rights clause in FAR 52.227-19.
  
 Gaussian, Inc.
 340 Quinnipiac St., Bldg. 40, Wallingford CT 06492
  
  
 ---------------------------------------------------------------
 Warning -- This program may not be used in any manner that
 competes with the business of Gaussian, Inc. or will provide
 assistance to any competitor of Gaussian, Inc.  The licensee
 of this program is prohibited from giving any competitor of
 Gaussian, Inc. access to this program.  By using this program,
 the user acknowledges that Gaussian, Inc. is engaged in the
 business of creating and licensing software in the field of
 computational chemistry and represents and warrants to the
 licensee that it is not a competitor of Gaussian, Inc. and that
 it will not use this program in any manner prohibited above.
 ---------------------------------------------------------------
  

 Cite this work as:
 Gaussian 16, Revision C.01,
 M. J. Frisch, G. W. Trucks, H. B. Schlegel, G. E. Scuseria, 
 M. A. Robb, J. R. Cheeseman, G. Scalmani, V. Barone, 
 G. A. Petersson, H. Nakatsuji, X. Li, M. Caricato, A. V. Marenich, 
 J. Bloino, B. G. Janesko, R. Gomperts, B. Mennucci, H. P. Hratchian, 
 J. V. Ortiz, A. F. Izmaylov, J. L. Sonnenberg, D. Williams-Young, 
 F. Ding, F. Lipparini, F. Egidi, J. Goings, B. Peng, A. Petrone, 
 T. Henderson, D. Ranasinghe, V. G. Zakrzewski, J. Gao, N. Rega, 
 G. Zheng, W. Liang, M. Hada, M. Ehara, K. Toyota, R. Fukuda, 
 J. Hasegawa, M. Ishida, T. Nakajima, Y. Honda, O. Kitao, H. Nakai, 
 T. Vreven, K. Throssell, J. A. Montgomery, Jr., J. E. Peralta, 
 F. Ogliaro, M. J. Bearpark, J. J. Heyd, E. N. Brothers, K. N. Kudin, 
 V. N. Staroverov, T. A. Keith, R. Kobayashi, J. Normand, 
 K. Raghavachari, A. P. Rendell, J. C. Burant, S. S. Iyengar, 
 J. Tomasi, M. Cossi, J. M. Millam, M. Klene, C. Adamo, R. Cammi, 
 J. W. Ochterski, R. L. Martin, K. Morokuma, O. Farkas, 
 J. B. Foresman, and D. J. Fox, Gaussian, Inc., Wallingford CT, 2019.
 
 ******************************************
 Gaussian 16:  ES64L-G16RevC.01  3-Jul-2019
                25-Oct-2021 
 ******************************************
 %mem=10GB
 %nprocshared=8
 Will use up to    8 processors via shared memory.
 --------------------------------------
 # opt=modredundant wb97xd/6-311+g(d,p)
 --------------------------------------
 1/18=120,19=15,26=3,38=1/1,3;
 2/9=110,12=2,17=6,18=5,40=1/2;
 3/5=4,6=6,7=111,11=2,25=1,30=1,71=1,74=-58/1,2,3;
 4//1;
 5/5=2,38=5/2;
 6/7=2,8=2,9=2,10=2,28=1/1;
 7//1,2,3,16;
 1/18=20,19=15,26=3/3(2);
 2/9=110/2;
 99//99;
 2/9=110/2;
 3/5=4,6=6,7=111,11=2,25=1,30=1,71=1,74=-58/1,2,3;
 4/5=5,16=3,69=1/1;
 5/5=2,38=5/2;
 7//1,2,3,16;
 1/18=20,19=15,26=3/3(-5);
 2/9=110/2;
 6/7=2,8=2,9=2,10=2,19=2,28=1/1;
 99/9=1/99;
 --------------
 pBTTT_-110.pdb
 --------------
 Symbolic Z-matrix:
 Charge =  0 Multiplicity = 1
 C                    -4.25     -1.36     -0.21 
 C                    -2.93     -0.95     -0.61 
 C                    -1.97     -2.05     -0.62 
 C                    -4.33     -2.76      0.1 
 H                    -5.1      -0.7      -0.14 
 S                    -2.8      -3.56     -0.11 
 H                    -5.23     -3.27      0.41 
 C                    -0.56     -2.13     -0.97 
 S                     0.006    -2.984    -2.438 
 C                     1.665    -2.616    -2.115 
 C                     1.829    -1.825    -0.922 
 C                     0.584    -1.531    -0.279 
 H                     0.492    -0.821     0.528 
 S                     3.273    -0.867    -0.95 
 C                     3.709    -1.498    -2.539 
 C                     2.725    -2.425    -3.05 
 H                     4.519    -1.085    -3.124 
 H                     2.669    -2.703    -4.099 
 O                    -2.4       0.49     -0.72 
 H                    -2.92      1.52     -0.76 
 
 Add virtual bond connecting atoms H20        and O19        Dist= 2.18D+00.
 The following ModRedundant input section has been read:
 D       2       3       8       9 F                                           
 

 GradGradGradGradGradGradGradGradGradGradGradGradGradGradGradGradGradGrad
 Berny optimization.
 Initialization pass.
                           ----------------------------
                           !    Initial Parameters    !
                           ! (Angstroms and Degrees)  !
 --------------------------                            --------------------------
 ! Name  Definition              Value          Derivative Info.                !
 --------------------------------------------------------------------------------
 ! R1    R(1,2)                  1.4389         estimate D2E/DX2                !
 ! R2    R(1,4)                  1.4361         estimate D2E/DX2                !
 ! R3    R(1,5)                  1.0784         estimate D2E/DX2                !
 ! R4    R(2,3)                  1.46           estimate D2E/DX2                !
 ! R5    R(2,19)                 1.5384         estimate D2E/DX2                !
 ! R6    R(3,6)                  1.797          estimate D2E/DX2                !
 ! R7    R(3,8)                  1.455          estimate D2E/DX2                !
 ! R8    R(4,6)                  1.7393         estimate D2E/DX2                !
 ! R9    R(4,7)                  1.0799         estimate D2E/DX2                !
 ! R10   R(8,9)                  1.7902         estimate D2E/DX2                !
 ! R11   R(8,12)                 1.4646         estimate D2E/DX2                !
 ! R12   R(9,10)                 1.7297         estimate D2E/DX2                !
 ! R13   R(10,11)                1.4408         estimate D2E/DX2                !
 ! R14   R(10,16)                1.4263         estimate D2E/DX2                !
 ! R15   R(11,12)                1.4318         estimate D2E/DX2                !
 ! R16   R(11,14)                1.7331         estimate D2E/DX2                !
 ! R17   R(12,13)                1.0788         estimate D2E/DX2                !
 ! R18   R(14,15)                1.7644         estimate D2E/DX2                !
 ! R19   R(15,16)                1.4452         estimate D2E/DX2                !
 ! R20   R(15,17)                1.0812         estimate D2E/DX2                !
 ! R21   R(16,18)                1.0867         estimate D2E/DX2                !
 ! R22   R(19,20)                1.1545         estimate D2E/DX2                !
 ! A1    A(2,1,4)              112.8843         estimate D2E/DX2                !
 ! A2    A(2,1,5)              124.5209         estimate D2E/DX2                !
 ! A3    A(4,1,5)              122.5942         estimate D2E/DX2                !
 ! A4    A(1,2,3)              112.9799         estimate D2E/DX2                !
 ! A5    A(1,2,19)             127.059          estimate D2E/DX2                !
 ! A6    A(3,2,19)             118.5686         estimate D2E/DX2                !
 ! A7    A(2,3,6)              109.1138         estimate D2E/DX2                !
 ! A8    A(2,3,8)              132.8639         estimate D2E/DX2                !
 ! A9    A(6,3,8)              118.0132         estimate D2E/DX2                !
 ! A10   A(1,4,6)              111.9209         estimate D2E/DX2                !
 ! A11   A(1,4,7)              124.6643         estimate D2E/DX2                !
 ! A12   A(6,4,7)              123.4062         estimate D2E/DX2                !
 ! A13   A(3,6,4)               93.0997         estimate D2E/DX2                !
 ! A14   A(3,8,9)              121.9977         estimate D2E/DX2                !
 ! A15   A(3,8,12)             128.3872         estimate D2E/DX2                !
 ! A16   A(9,8,12)             109.575          estimate D2E/DX2                !
 ! A17   A(8,9,10)              92.7869         estimate D2E/DX2                !
 ! A18   A(9,10,11)            112.3704         estimate D2E/DX2                !
 ! A19   A(9,10,16)            128.2334         estimate D2E/DX2                !
 ! A20   A(11,10,16)           112.6248         estimate D2E/DX2                !
 ! A21   A(10,11,12)           112.6824         estimate D2E/DX2                !
 ! A22   A(10,11,14)           112.6397         estimate D2E/DX2                !
 ! A23   A(12,11,14)           128.1889         estimate D2E/DX2                !
 ! A24   A(8,12,11)            112.5415         estimate D2E/DX2                !
 ! A25   A(8,12,13)            123.7447         estimate D2E/DX2                !
 ! A26   A(11,12,13)           123.0418         estimate D2E/DX2                !
 ! A27   A(11,14,15)            91.3038         estimate D2E/DX2                !
 ! A28   A(14,15,16)           112.3067         estimate D2E/DX2                !
 ! A29   A(14,15,17)           122.3991         estimate D2E/DX2                !
 ! A30   A(16,15,17)           124.3193         estimate D2E/DX2                !
 ! A31   A(10,16,15)           111.1072         estimate D2E/DX2                !
 ! A32   A(10,16,18)           124.0745         estimate D2E/DX2                !
 ! A33   A(15,16,18)           122.718          estimate D2E/DX2                !
 ! A34   A(2,19,20)            133.0318         estimate D2E/DX2                !
 ! D1    D(4,1,2,3)              0.3915         estimate D2E/DX2                !
 ! D2    D(4,1,2,19)          -165.8104         estimate D2E/DX2                !
 ! D3    D(5,1,2,3)           -179.8811         estimate D2E/DX2                !
 ! D4    D(5,1,2,19)            13.9169         estimate D2E/DX2                !
 ! D5    D(2,1,4,6)             -0.3845         estimate D2E/DX2                !
 ! D6    D(2,1,4,7)           -179.3471         estimate D2E/DX2                !
 ! D7    D(5,1,4,6)            179.8822         estimate D2E/DX2                !
 ! D8    D(5,1,4,7)              0.9196         estimate D2E/DX2                !
 ! D9    D(1,2,3,6)             -0.2224         estimate D2E/DX2                !
 ! D10   D(1,2,3,8)            178.6265         estimate D2E/DX2                !
 ! D11   D(19,2,3,6)           167.2616         estimate D2E/DX2                !
 ! D12   D(19,2,3,8)           -13.8895         estimate D2E/DX2                !
 ! D13   D(1,2,19,20)          -16.0519         estimate D2E/DX2                !
 ! D14   D(3,2,19,20)          178.4264         estimate D2E/DX2                !
 ! D15   D(2,3,6,4)              0.0033         estimate D2E/DX2                !
 ! D16   D(8,3,6,4)           -179.041          estimate D2E/DX2                !
 ! D17   D(2,3,8,9)           -109.9859         Frozen                          !
 ! D18   D(2,3,8,12)            67.4639         estimate D2E/DX2                !
 ! D19   D(6,3,8,9)             68.7821         estimate D2E/DX2                !
 ! D20   D(6,3,8,12)          -113.7681         estimate D2E/DX2                !
 ! D21   D(1,4,6,3)              0.2153         estimate D2E/DX2                !
 ! D22   D(7,4,6,3)            179.1932         estimate D2E/DX2                !
 ! D23   D(3,8,9,10)           179.7979         estimate D2E/DX2                !
 ! D24   D(12,8,9,10)            1.9193         estimate D2E/DX2                !
 ! D25   D(3,8,12,11)         -179.8557         estimate D2E/DX2                !
 ! D26   D(3,8,12,13)           -9.0159         estimate D2E/DX2                !
 ! D27   D(9,8,12,11)           -2.151          estimate D2E/DX2                !
 ! D28   D(9,8,12,13)          168.6888         estimate D2E/DX2                !
 ! D29   D(8,9,10,11)           -1.2368         estimate D2E/DX2                !
 ! D30   D(8,9,10,16)         -149.8713         estimate D2E/DX2                !
 ! D31   D(9,10,11,12)           0.1916         estimate D2E/DX2                !
 ! D32   D(9,10,11,14)        -154.0114         estimate D2E/DX2                !
 ! D33   D(16,10,11,12)        153.9003         estimate D2E/DX2                !
 ! D34   D(16,10,11,14)         -0.3027         estimate D2E/DX2                !
 ! D35   D(9,10,16,15)         149.6905         estimate D2E/DX2                !
 ! D36   D(9,10,16,18)         -14.166          estimate D2E/DX2                !
 ! D37   D(11,10,16,15)          1.1203         estimate D2E/DX2                !
 ! D38   D(11,10,16,18)       -162.7361         estimate D2E/DX2                !
 ! D39   D(10,11,12,8)           1.3006         estimate D2E/DX2                !
 ! D40   D(10,11,12,13)       -169.6136         estimate D2E/DX2                !
 ! D41   D(14,11,12,8)         150.5688         estimate D2E/DX2                !
 ! D42   D(14,11,12,13)        -20.3454         estimate D2E/DX2                !
 ! D43   D(10,11,14,15)         -0.459          estimate D2E/DX2                !
 ! D44   D(12,11,14,15)       -149.7377         estimate D2E/DX2                !
 ! D45   D(11,14,15,16)          1.1023         estimate D2E/DX2                !
 ! D46   D(11,14,15,17)        170.2496         estimate D2E/DX2                !
 ! D47   D(14,15,16,10)         -1.4612         estimate D2E/DX2                !
 ! D48   D(14,15,16,18)        162.652          estimate D2E/DX2                !
 ! D49   D(17,15,16,10)       -170.3634         estimate D2E/DX2                !
 ! D50   D(17,15,16,18)         -6.2502         estimate D2E/DX2                !
 --------------------------------------------------------------------------------
 Trust Radius=3.00D-01 FncErr=1.00D-07 GrdErr=1.00D-06 EigMax=2.50D+02 EigMin=1.00D-04
 Number of steps in this run=    116 maximum allowed number of steps=    120.
 GradGradGradGradGradGradGradGradGradGradGradGradGradGradGradGradGradGrad

                          Input orientation:                          
 ---------------------------------------------------------------------
 Center     Atomic      Atomic             Coordinates (Angstroms)
 Number     Number       Type             X           Y           Z
 ---------------------------------------------------------------------
      1          6           0       -4.250000   -1.360000   -0.210000
      2          6           0       -2.930000   -0.950000   -0.610000
      3          6           0       -1.970000   -2.050000   -0.620000
      4          6           0       -4.330000   -2.760000    0.100000
      5          1           0       -5.100000   -0.700000   -0.140000
      6         16           0       -2.800000   -3.560000   -0.110000
      7          1           0       -5.230000   -3.270000    0.410000
      8          6           0       -0.560000   -2.130000   -0.970000
      9         16           0        0.006000   -2.984000   -2.438000
     10          6           0        1.665000   -2.616000   -2.115000
     11          6           0        1.829000   -1.825000   -0.922000
     12          6           0        0.584000   -1.531000   -0.279000
     13          1           0        0.492000   -0.821000    0.528000
     14         16           0        3.273000   -0.867000   -0.950000
     15          6           0        3.709000   -1.498000   -2.539000
     16          6           0        2.725000   -2.425000   -3.050000
     17          1           0        4.519000   -1.085000   -3.124000
     18          1           0        2.669000   -2.703000   -4.099000
     19          8           0       -2.400000    0.490000   -0.720000
     20          1           0       -2.920000    1.520000   -0.760000
 ---------------------------------------------------------------------
                    Distance matrix (angstroms):
                    1          2          3          4          5
     1  C    0.000000
     2  C    1.438923   0.000000
     3  C    2.417147   1.460034   0.000000
     4  C    1.436141   2.395871   2.567509   0.000000
     5  H    1.078425   2.234346   3.442354   2.212261   0.000000
     6  S    2.636759   2.660639   1.796970   1.739253   3.670218
     7  H    2.234480   3.422397   3.630000   1.079907   2.631406
     8  C    3.845335   2.671872   1.454991   3.969219   4.831708
     9  S    5.070986   4.012335   2.842896   5.029167   6.047206
    10  C    6.339857   5.114157   3.970970   6.392729   7.303212
    11  C    6.138193   4.848819   3.817621   6.312843   7.063157
    12  C    4.837516   3.577054   2.628414   5.079516   5.746106
    13  H    4.829258   3.608569   2.981575   5.214843   5.633057
    14  S    7.575367   6.212866   5.384927   7.905160   8.413746
    15  C    8.293911   6.935248   6.019826   8.554676   9.164632
    16  C    7.605948   6.333107   5.299863   7.733547   8.524925
    17  H    9.244587   7.862952   7.021991   9.565804  10.078573
    18  H    8.049878   6.826048   5.835252   8.162160   8.946678
    19  O    2.665539   1.538376   2.578081   3.867790   3.007075
    20  H    3.219596   2.474571   3.696891   4.587603   3.172570
                    6          7          8          9         10
     6  S    0.000000
     7  H    2.501879   0.000000
     8  C    2.793224   5.001290   0.000000
     9  S    3.691205   5.967294   1.790166   0.000000
    10  C    4.984715   7.371863   2.549087   1.729750   0.000000
    11  C    5.009712   7.327464   2.408869   2.639103   1.440773
    12  C    3.949286   6.107490   1.464588   2.665816   2.390958
    13  H    4.329715   6.225175   2.250375   3.702961   3.403440
    14  S    6.696206   8.940079   4.035772   4.167628   2.646108
    15  C    7.246997   9.578220   4.591900   3.991316   2.368045
    16  C    6.360617   8.715942   3.899314   2.842532   1.426291
    17  H    8.293225  10.597471   5.614978   4.944084   3.392250
    18  H    6.823235   9.113000   4.532705   3.151103   2.225273
    19  O    4.115167   4.839773   3.211308   4.561692   5.302592
    20  H    5.122821   5.445099   4.351574   5.627004   6.321768
                   11         12         13         14         15
    11  C    0.000000
    12  C    1.431751   0.000000
    13  H    2.213162   1.078802   0.000000
    14  S    1.733114   2.849887   3.149692   0.000000
    15  C    2.501203   3.856723   4.495988   1.764420   0.000000
    16  C    2.385624   3.614078   4.512337   2.671641   1.445236
    17  H    3.554223   4.876184   5.442750   2.515217   1.081154
    18  H    3.401443   4.507018   5.448888   3.694850   2.228727
    19  O    4.825398   3.630865   3.411728   5.837575   6.676884
    20  H    5.811047   4.670972   4.333702   6.639813   7.497787
                   16         17         18         19         20
    16  C    0.000000
    17  H    2.240427   0.000000
    18  H    1.086656   2.644059   0.000000
    19  O    6.339696   7.492156   6.878056   0.000000
    20  H    7.257627   8.228806   7.760127   1.154513   0.000000
 Stoichiometry    C10H6OS3
 Framework group  C1[X(C10H6OS3)]
 Deg. of freedom    54
 Full point group                 C1      NOp   1
 Largest Abelian subgroup         C1      NOp   1
 Largest concise Abelian subgroup C1      NOp   1
                         Standard orientation:                         
 ---------------------------------------------------------------------
 Center     Atomic      Atomic             Coordinates (Angstroms)
 Number     Number       Type             X           Y           Z
 ---------------------------------------------------------------------
      1          6           0        3.984504    0.793796    0.380782
      2          6           0        2.580045    1.067396    0.532887
      3          6           0        1.731281    0.036460   -0.057429
      4          6           0        4.241806   -0.429354   -0.326468
      5          1           0        4.774302    1.429798    0.747825
      6         16           0        2.770746   -1.234824   -0.787119
      7          1           0        5.225598   -0.821565   -0.537476
      8          6           0        0.288338   -0.135647   -0.130189
      9         16           0       -0.561982   -1.414676    0.789450
     10          6           0       -2.110212   -0.940643    0.180917
     11          6           0       -2.028777    0.198282   -0.697744
     12          6           0       -0.687708    0.670323   -0.866915
     13          1           0       -0.449502    1.603543   -1.352891
     14         16           0       -3.500298    1.112773   -0.742682
     15          6           0       -4.271653    0.003416    0.392005
     16          6           0       -3.381111   -1.051847    0.818690
     17          1           0       -5.230076    0.213095    0.846268
     18          1           0       -3.568503   -1.657549    1.701203
     19          8           0        1.935230    2.399250    0.953576
     20          1           0        2.351799    3.353231    1.452865
 ---------------------------------------------------------------------
 Rotational constants (GHZ):           1.1773582           0.2654279           0.2396281
 Standard basis: 6-311+G(d,p) (5D, 7F)
 There are   382 symmetry adapted cartesian basis functions of A   symmetry.
 There are   368 symmetry adapted basis functions of A   symmetry.
   368 basis functions,   594 primitive gaussians,   382 cartesian basis functions
    61 alpha electrons       61 beta electrons
       nuclear repulsion energy      1101.2435519510 Hartrees.
 NAtoms=   20 NActive=   20 NUniq=   20 SFac= 1.00D+00 NAtFMM=   60 NAOKFM=F Big=F
 Integral buffers will be    131072 words long.
 Raffenetti 2 integral format.
 Two-electron integral symmetry is turned on.
 Nuclear repulsion after empirical dispersion term =     1101.2335306088 Hartrees.
 One-electron integrals computed using PRISM.
 NBasis=   368 RedAO= T EigKep=  3.33D-06  NBF=   368
 NBsUse=   367 1.00D-06 EigRej=  5.96D-07 NBFU=   367
 ExpMin= 4.05D-02 ExpMax= 9.34D+04 ExpMxC= 3.17D+03 IAcc=3 IRadAn=         5 AccDes= 0.00D+00
 Harris functional with IExCor= 4639 and IRadAn=       5 diagonalized for initial guess.
 HarFok:  IExCor= 4639 AccDes= 0.00D+00 IRadAn=         5 IDoV= 1 UseB2=F ITyADJ=14
 ICtDFT=  3500011 ScaDFX=  1.000000  1.000000  1.000000  1.000000
 FoFCou: FMM=F IPFlag=           0 FMFlag=      100000 FMFlg1=           0
         NFxFlg=           0 DoJE=T BraDBF=F KetDBF=T FulRan=T
         wScrn=  0.000000 ICntrl=       500 IOpCl=  0 I1Cent=   200000004 NGrid=           0
         NMat0=    1 NMatS0=      1 NMatT0=    0 NMatD0=    1 NMtDS0=    0 NMtDT0=    0
 Petite list used in FoFCou.
 Requested convergence on RMS density matrix=1.00D-08 within 128 cycles.
 Requested convergence on MAX density matrix=1.00D-06.
 Requested convergence on             energy=1.00D-06.
 No special actions if energy rises.
 SCF Done:  E(RwB97XD) =  -1654.29822961     A.U. after   18 cycles
            NFock= 18  Conv=0.46D-08     -V/T= 2.0030

 **********************************************************************

            Population analysis using the SCF Density.

 **********************************************************************

 Orbital symmetries:
       Occupied  (A) (A) (A) (A) (A) (A) (A) (A) (A) (A) (A) (A)
                 (A) (A) (A) (A) (A) (A) (A) (A) (A) (A) (A) (A)
                 (A) (A) (A) (A) (A) (A) (A) (A) (A) (A) (A) (A)
                 (A) (A) (A) (A) (A) (A) (A) (A) (A) (A) (A) (A)
                 (A) (A) (A) (A) (A) (A) (A) (A) (A) (A) (A) (A)
                 (A)
       Virtual   (A) (A) (A) (A) (A) (A) (A) (A) (A) (A) (A) (A)
                 (A) (A) (A) (A) (A) (A) (A) (A) (A) (A) (A) (A)
                 (A) (A) (A) (A) (A) (A) (A) (A) (A) (A) (A) (A)
                 (A) (A) (A) (A) (A) (A) (A) (A) (A) (A) (A) (A)
                 (A) (A) (A) (A) (A) (A) (A) (A) (A) (A) (A) (A)
                 (A) (A) (A) (A) (A) (A) (A) (A) (A) (A) (A) (A)
                 (A) (A) (A) (A) (A) (A) (A) (A) (A) (A) (A) (A)
                 (A) (A) (A) (A) (A) (A) (A) (A) (A) (A) (A) (A)
                 (A) (A) (A) (A) (A) (A) (A) (A) (A) (A) (A) (A)
                 (A) (A) (A) (A) (A) (A) (A) (A) (A) (A) (A) (A)
                 (A) (A) (A) (A) (A) (A) (A) (A) (A) (A) (A) (A)
                 (A) (A) (A) (A) (A) (A) (A) (A) (A) (A) (A) (A)
                 (A) (A) (A) (A) (A) (A) (A) (A) (A) (A) (A) (A)
                 (A) (A) (A) (A) (A) (A) (A) (A) (A) (A) (A) (A)
                 (A) (A) (A) (A) (A) (A) (A) (A) (A) (A) (A) (A)
                 (A) (A) (A) (A) (A) (A) (A) (A) (A) (A) (A) (A)
                 (A) (A) (A) (A) (A) (A) (A) (A) (A) (A) (A) (A)
                 (A) (A) (A) (A) (A) (A) (A) (A) (A) (A) (A) (A)
                 (A) (A) (A) (A) (A) (A) (A) (A) (A) (A) (A) (A)
                 (A) (A) (A) (A) (A) (A) (A) (A) (A) (A) (A) (A)
                 (A) (A) (A) (A) (A) (A) (A) (A) (A) (A) (A) (A)
                 (A) (A) (A) (A) (A) (A) (A) (A) (A) (A) (A) (A)
                 (A) (A) (A) (A) (A) (A) (A) (A) (A) (A) (A) (A)
                 (A) (A) (A) (A) (A) (A) (A) (A) (A) (A) (A) (A)
                 (A) (A) (A) (A) (A) (A) (A) (A) (A) (A) (A) (A)
                 (A) (A) (A) (A) (A) (A)
 The electronic state is 1-A.
 Alpha  occ. eigenvalues --  -89.06360 -89.05627 -89.05310 -19.28227 -10.39047
 Alpha  occ. eigenvalues --  -10.34987 -10.34832 -10.33950 -10.33482 -10.33248
 Alpha  occ. eigenvalues --  -10.33121 -10.31733 -10.31595 -10.31509  -8.10215
 Alpha  occ. eigenvalues --   -8.09570  -8.09249  -6.05054  -6.04684  -6.04422
 Alpha  occ. eigenvalues --   -6.04330  -6.04106  -6.04058  -6.03737  -6.03637
 Alpha  occ. eigenvalues --   -6.03308  -1.07969  -1.00436  -0.97680  -0.93328
 Alpha  occ. eigenvalues --   -0.86975  -0.85020  -0.83505  -0.80331  -0.78163
 Alpha  occ. eigenvalues --   -0.70860  -0.67015  -0.66465  -0.62755  -0.62117
 Alpha  occ. eigenvalues --   -0.60007  -0.57506  -0.54098  -0.52871  -0.51057
 Alpha  occ. eigenvalues --   -0.50547  -0.49056  -0.47637  -0.47523  -0.46717
 Alpha  occ. eigenvalues --   -0.45095  -0.44207  -0.42489  -0.42165  -0.41671
 Alpha  occ. eigenvalues --   -0.41058  -0.36644  -0.33117  -0.31497  -0.30416
 Alpha  occ. eigenvalues --   -0.27516
 Alpha virt. eigenvalues --    0.00204   0.01513   0.02771   0.05482   0.05915
 Alpha virt. eigenvalues --    0.06164   0.06715   0.07413   0.07670   0.08137
 Alpha virt. eigenvalues --    0.08471   0.09022   0.09473   0.09883   0.10264
 Alpha virt. eigenvalues --    0.10515   0.10873   0.11279   0.11819   0.12277
 Alpha virt. eigenvalues --    0.12721   0.13618   0.14119   0.14253   0.14778
 Alpha virt. eigenvalues --    0.15113   0.15532   0.16637   0.17100   0.17494
 Alpha virt. eigenvalues --    0.17652   0.18228   0.18635   0.18871   0.19494
 Alpha virt. eigenvalues --    0.19820   0.20240   0.20436   0.21038   0.21579
 Alpha virt. eigenvalues --    0.21671   0.22512   0.22828   0.23260   0.23501
 Alpha virt. eigenvalues --    0.23619   0.24325   0.24911   0.25309   0.25719
 Alpha virt. eigenvalues --    0.26344   0.26414   0.26518   0.26954   0.27204
 Alpha virt. eigenvalues --    0.27721   0.28228   0.28307   0.28400   0.28911
 Alpha virt. eigenvalues --    0.29362   0.30113   0.30648   0.31587   0.31782
 Alpha virt. eigenvalues --    0.32125   0.32829   0.33235   0.34102   0.34751
 Alpha virt. eigenvalues --    0.35075   0.36558   0.36901   0.37769   0.39156
 Alpha virt. eigenvalues --    0.39722   0.40119   0.41004   0.42036   0.42432
 Alpha virt. eigenvalues --    0.43362   0.44688   0.44957   0.45922   0.47015
 Alpha virt. eigenvalues --    0.47851   0.48690   0.50490   0.51311   0.51638
 Alpha virt. eigenvalues --    0.53197   0.53847   0.55346   0.58227   0.60368
 Alpha virt. eigenvalues --    0.60948   0.62990   0.63171   0.63962   0.64752
 Alpha virt. eigenvalues --    0.66164   0.66496   0.67423   0.68018   0.69390
 Alpha virt. eigenvalues --    0.69866   0.70525   0.71670   0.72195   0.73095
 Alpha virt. eigenvalues --    0.74626   0.75405   0.76808   0.78219   0.78413
 Alpha virt. eigenvalues --    0.78800   0.79277   0.80004   0.80757   0.81026
 Alpha virt. eigenvalues --    0.81972   0.82775   0.83579   0.84054   0.84884
 Alpha virt. eigenvalues --    0.86374   0.87115   0.88336   0.88794   0.89491
 Alpha virt. eigenvalues --    0.90155   0.90926   0.92051   0.92826   0.95041
 Alpha virt. eigenvalues --    0.95343   0.95717   0.96970   0.98921   1.00484
 Alpha virt. eigenvalues --    1.00958   1.02109   1.02849   1.03779   1.04891
 Alpha virt. eigenvalues --    1.05800   1.06978   1.08407   1.08975   1.09241
 Alpha virt. eigenvalues --    1.10418   1.11645   1.12871   1.14514   1.16575
 Alpha virt. eigenvalues --    1.19077   1.20738   1.22952   1.23422   1.27171
 Alpha virt. eigenvalues --    1.29943   1.32691   1.35224   1.37564   1.40388
 Alpha virt. eigenvalues --    1.41988   1.43724   1.46775   1.48576   1.50192
 Alpha virt. eigenvalues --    1.52851   1.55713   1.57115   1.59115   1.60283
 Alpha virt. eigenvalues --    1.61267   1.61954   1.62926   1.64927   1.67008
 Alpha virt. eigenvalues --    1.69742   1.70070   1.71564   1.73292   1.75257
 Alpha virt. eigenvalues --    1.75846   1.77884   1.78339   1.78914   1.80228
 Alpha virt. eigenvalues --    1.82276   1.83427   1.85691   1.86463   1.88535
 Alpha virt. eigenvalues --    1.88654   1.88988   1.91132   1.93136   1.93744
 Alpha virt. eigenvalues --    1.95551   1.97218   1.98119   1.99535   2.02070
 Alpha virt. eigenvalues --    2.03269   2.04505   2.06356   2.07188   2.08729
 Alpha virt. eigenvalues --    2.10390   2.12507   2.12718   2.14023   2.15783
 Alpha virt. eigenvalues --    2.17449   2.18611   2.19995   2.21177   2.22590
 Alpha virt. eigenvalues --    2.23419   2.27687   2.33549   2.37421   2.39580
 Alpha virt. eigenvalues --    2.44253   2.45652   2.48195   2.54714   2.56702
 Alpha virt. eigenvalues --    2.59690   2.62153   2.64988   2.67228   2.74363
 Alpha virt. eigenvalues --    2.77704   2.78552   2.79118   2.80452   2.81706
 Alpha virt. eigenvalues --    2.83501   2.84847   2.85489   2.86641   2.89790
 Alpha virt. eigenvalues --    2.93872   2.95881   2.98858   3.01081   3.03199
 Alpha virt. eigenvalues --    3.05148   3.07695   3.08348   3.11767   3.13734
 Alpha virt. eigenvalues --    3.14050   3.15728   3.17437   3.23205   3.30655
 Alpha virt. eigenvalues --    3.32039   3.34170   3.36795   3.42993   3.46560
 Alpha virt. eigenvalues --    3.50159   3.56369   3.64664   3.73092   3.81695
 Alpha virt. eigenvalues --    3.99588   4.04215   4.10935   4.14583   4.22966
 Alpha virt. eigenvalues --    4.40403   4.53209   5.13888   5.30635   5.55438
 Alpha virt. eigenvalues --    8.04901   8.05756   8.07631  17.42667  17.43043
 Alpha virt. eigenvalues --   17.45092  17.56163  17.57538  17.60784  17.61628
 Alpha virt. eigenvalues --   17.63608  17.65892  23.57784  23.71358  23.84380
 Alpha virt. eigenvalues --   23.90239  23.92520  23.98190  23.99716  24.07491
 Alpha virt. eigenvalues --   24.08449  24.09307  50.00006 189.29334 189.30065
 Alpha virt. eigenvalues --  189.32513
          Condensed to atoms (all electrons):
               1          2          3          4          5          6
     1  C    7.401919  -2.345622   0.690249  -0.257705   0.440258   0.466544
     2  C   -2.345622  13.818884  -4.452233   1.498850  -0.094384  -1.706878
     3  C    0.690249  -4.452233  10.370458  -1.134821   0.034533   0.344156
     4  C   -0.257705   1.498850  -1.134821   5.941407  -0.016570  -0.239298
     5  H    0.440258  -0.094384   0.034533  -0.016570   0.479519   0.001501
     6  S    0.466544  -1.706878   0.344156  -0.239298   0.001501  17.273625
     7  H    0.023970  -0.048338   0.034929   0.375901  -0.002966  -0.016793
     8  C    0.110636  -1.511676   0.621504  -0.144170  -0.004889   0.084157
     9  S    0.027728  -0.157748   0.275534   0.024564   0.000035   0.129215
    10  C    0.020512   0.381890  -0.512669   0.013332   0.000006  -0.039008
    11  C   -0.135780  -0.547422   0.547412   0.015668  -0.000152   0.028282
    12  C    0.078934   0.301214  -0.790478  -0.056985  -0.000167   0.044567
    13  H    0.000903   0.000962   0.024143   0.000908  -0.000001  -0.005390
    14  S   -0.017628  -0.005407   0.016876   0.002571  -0.000006   0.004174
    15  C    0.001318  -0.002642  -0.015684  -0.000097   0.000001  -0.003485
    16  C   -0.003909   0.183314   0.024748   0.006780  -0.000010  -0.053018
    17  H   -0.000002  -0.000044  -0.000044  -0.000000   0.000000   0.000012
    18  H   -0.000007  -0.000360  -0.000784  -0.000009   0.000000   0.000089
    19  O   -0.186347   0.598083  -0.219719   0.018565  -0.002483   0.006265
    20  H   -0.049011  -0.049269   0.071150  -0.005403  -0.000221  -0.006262
               7          8          9         10         11         12
     1  C    0.023970   0.110636   0.027728   0.020512  -0.135780   0.078934
     2  C   -0.048338  -1.511676  -0.157748   0.381890  -0.547422   0.301214
     3  C    0.034929   0.621504   0.275534  -0.512669   0.547412  -0.790478
     4  C    0.375901  -0.144170   0.024564   0.013332   0.015668  -0.056985
     5  H   -0.002966  -0.004889   0.000035   0.000006  -0.000152  -0.000167
     6  S   -0.016793   0.084157   0.129215  -0.039008   0.028282   0.044567
     7  H    0.439929  -0.002333  -0.000466  -0.000203   0.000109   0.000090
     8  C   -0.002333   8.390939   0.124573  -0.788833   0.893309  -1.592375
     9  S   -0.000466   0.124573  17.481331  -1.363850   1.242508  -1.585343
    10  C   -0.000203  -0.788833  -1.363850  13.443982  -5.367871   1.767125
    11  C    0.000109   0.893309   1.242508  -5.367871  14.143001  -3.634796
    12  C    0.000090  -1.592375  -1.585343   1.767125  -3.634796  10.795127
    13  H    0.000001   0.079601   0.007045  -0.037250   0.047635   0.247593
    14  S   -0.000001  -0.256470   0.155897   0.590738  -0.804020  -0.059505
    15  C   -0.000000   0.083489  -0.040940   0.750660  -0.514667  -0.171869
    16  C   -0.000018  -0.388864   0.058484  -3.075615  -0.183769   0.683987
    17  H   -0.000000  -0.001869   0.000706  -0.016088   0.014019   0.010152
    18  H    0.000000   0.005542   0.009524   0.023328  -0.021118  -0.003708
    19  O   -0.000085  -0.026165  -0.017044   0.005542  -0.012957   0.020270
    20  H   -0.000008   0.024246   0.002124  -0.000944   0.003026  -0.001505
              13         14         15         16         17         18
     1  C    0.000903  -0.017628   0.001318  -0.003909  -0.000002  -0.000007
     2  C    0.000962  -0.005407  -0.002642   0.183314  -0.000044  -0.000360
     3  C    0.024143   0.016876  -0.015684   0.024748  -0.000044  -0.000784
     4  C    0.000908   0.002571  -0.000097   0.006780  -0.000000  -0.000009
     5  H   -0.000001  -0.000006   0.000001  -0.000010   0.000000   0.000000
     6  S   -0.005390   0.004174  -0.003485  -0.053018   0.000012   0.000089
     7  H    0.000001  -0.000001  -0.000000  -0.000018  -0.000000   0.000000
     8  C    0.079601  -0.256470   0.083489  -0.388864  -0.001869   0.005542
     9  S    0.007045   0.155897  -0.040940   0.058484   0.000706   0.009524
    10  C   -0.037250   0.590738   0.750660  -3.075615  -0.016088   0.023328
    11  C    0.047635  -0.804020  -0.514667  -0.183769   0.014019  -0.021118
    12  C    0.247593  -0.059505  -0.171869   0.683987   0.010152  -0.003708
    13  H    0.466925  -0.000223   0.002015  -0.010957  -0.000004   0.000007
    14  S   -0.000223  16.564463   0.403061  -0.387923  -0.024277  -0.001272
    15  C    0.002015   0.403061   5.655872  -0.183562   0.374740   0.014865
    16  C   -0.010957  -0.387923  -0.183562   9.225142   0.005027   0.331699
    17  H   -0.000004  -0.024277   0.374740   0.005027   0.439407  -0.002650
    18  H    0.000007  -0.001272   0.014865   0.331699  -0.002650   0.475446
    19  O   -0.000093  -0.000606   0.000074  -0.003358   0.000000   0.000002
    20  H   -0.000113   0.000100  -0.000014   0.000140   0.000000   0.000000
              19         20
     1  C   -0.186347  -0.049011
     2  C    0.598083  -0.049269
     3  C   -0.219719   0.071150
     4  C    0.018565  -0.005403
     5  H   -0.002483  -0.000221
     6  S    0.006265  -0.006262
     7  H   -0.000085  -0.000008
     8  C   -0.026165   0.024246
     9  S   -0.017044   0.002124
    10  C    0.005542  -0.000944
    11  C   -0.012957   0.003026
    12  C    0.020270  -0.001505
    13  H   -0.000093  -0.000113
    14  S   -0.000606   0.000100
    15  C    0.000074  -0.000014
    16  C   -0.003358   0.000140
    17  H    0.000000   0.000000
    18  H    0.000002   0.000000
    19  O    8.000934   0.234571
    20  H    0.234571   0.461756
 Mulliken charges:
               1
     1  C   -0.266960
     2  C    0.138828
     3  C    0.070739
     4  C   -0.043487
     5  H    0.165996
     6  S   -0.312455
     7  H    0.196282
     8  C    0.299647
     9  S   -0.373877
    10  C    0.205216
    11  C    0.287584
    12  C   -0.052326
    13  H    0.176293
    14  S   -0.180543
    15  C   -0.353134
    16  C   -0.228316
    17  H    0.200914
    18  H    0.169407
    19  O   -0.415448
    20  H    0.315639
 Sum of Mulliken charges =  -0.00000
 Mulliken charges with hydrogens summed into heavy atoms:
               1
     1  C   -0.100964
     2  C    0.138828
     3  C    0.070739
     4  C    0.152794
     6  S   -0.312455
     8  C    0.299647
     9  S   -0.373877
    10  C    0.205216
    11  C    0.287584
    12  C    0.123968
    14  S   -0.180543
    15  C   -0.152220
    16  C   -0.058909
    19  O   -0.099809
 Electronic spatial extent (au):  <R**2>=           4393.8040
 Charge=              0.0000 electrons
 Dipole moment (field-independent basis, Debye):
    X=              1.7397    Y=              1.5854    Z=              1.3411  Tot=              2.7090
 Quadrupole moment (field-independent basis, Debye-Ang):
   XX=            -81.0598   YY=            -94.7389   ZZ=           -102.8273
   XY=              3.9336   XZ=             -2.8630   YZ=              1.6507
 Traceless Quadrupole moment (field-independent basis, Debye-Ang):
   XX=             11.8155   YY=             -1.8636   ZZ=             -9.9519
   XY=              3.9336   XZ=             -2.8630   YZ=              1.6507
 Octapole moment (field-independent basis, Debye-Ang**2):
  XXX=             53.1906  YYY=             47.8065  ZZZ=              9.2737  XYY=             29.3797
  XXY=             22.0306  XXZ=             33.0973  XZZ=             -0.1298  YZZ=              8.3195
  YYZ=             19.5929  XYZ=             27.7084
 Hexadecapole moment (field-independent basis, Debye-Ang**3):
 XXXX=          -4129.1801 YYYY=           -750.8896 ZZZZ=           -419.3224 XXXY=            -21.2602
 XXXZ=           -113.0593 YYYX=            103.9125 YYYZ=             74.4195 ZZZX=             -1.9944
 ZZZY=              9.7332 XXYY=           -869.9219 XXZZ=           -875.5642 YYZZ=           -176.1824
 XXYZ=             53.6135 YYXZ=             41.3274 ZZXY=             30.7701
 N-N= 1.101233530609D+03 E-N=-6.112714911911D+03  KE= 1.649271527831D+03
 Calling FoFJK, ICntrl=      2127 FMM=F ISym2X=0 I1Cent= 0 IOpClX= 0 NMat=1 NMatS=1 NMatT=0.
 ***** Axes restored to original set *****
 -------------------------------------------------------------------
 Center     Atomic                   Forces (Hartrees/Bohr)
 Number     Number              X              Y              Z
 -------------------------------------------------------------------
      1        6           0.016894747   -0.044872861    0.006251850
      2        6           0.034887485    0.021550808    0.013760972
      3        6          -0.046439762    0.025132030    0.002846423
      4        6           0.017939742    0.055119775   -0.018594827
      5        1          -0.000509597    0.001804049    0.000602984
      6       16          -0.007431941    0.033019802   -0.006803123
      7        1           0.002362837   -0.002972277   -0.000157194
      8        6           0.064815005    0.028979792    0.022176375
      9       16          -0.004673294    0.001852483    0.021045945
     10        6           0.009469741    0.033686858    0.017622511
     11        6          -0.030595076   -0.008499502   -0.028690727
     12        6          -0.041171033   -0.030427663   -0.038026589
     13        1          -0.004931015   -0.003264483    0.004442589
     14       16           0.007277021   -0.015396881   -0.016527838
     15        6          -0.051856928   -0.036658508   -0.015651263
     16        6           0.035577678    0.045630670    0.024343186
     17        1           0.003784976   -0.002033685    0.005805231
     18        1           0.006078832   -0.005055510    0.005031447
     19        8          -0.035153690    0.014282594   -0.003392223
     20        1           0.023674271   -0.111877489    0.003914274
 -------------------------------------------------------------------
 Cartesian Forces:  Max     0.111877489 RMS     0.028541069

 GradGradGradGradGradGradGradGradGradGradGradGradGradGradGradGradGradGrad
 Berny optimization.
 FormGI is forming the generalized inverse of G from B-inverse, IUseBI=4.
 Internal  Forces:  Max     0.110610504 RMS     0.021889317
 Search for a local minimum.
 Step number   1 out of a maximum of  116
 All quantities printed in internal units (Hartrees-Bohrs-Radians)
 Mixed Optimization -- RFO/linear search
 Second derivative matrix not updated -- first step.
 ITU=  0
     Eigenvalues ---    0.00230   0.00994   0.01057   0.01222   0.01273
     Eigenvalues ---    0.01299   0.01362   0.01421   0.01458   0.01498
     Eigenvalues ---    0.01500   0.01592   0.01596   0.01767   0.02203
     Eigenvalues ---    0.02657   0.15078   0.15688   0.15739   0.15997
     Eigenvalues ---    0.16000   0.16000   0.17981   0.22442   0.22526
     Eigenvalues ---    0.23318   0.23976   0.24118   0.24633   0.24978
     Eigenvalues ---    0.24995   0.26145   0.26560   0.28307   0.28444
     Eigenvalues ---    0.28663   0.30910   0.31251   0.31596   0.34820
     Eigenvalues ---    0.35202   0.35855   0.35872   0.36006   0.36140
     Eigenvalues ---    0.36185   0.36315   0.37598   0.38262   0.38435
     Eigenvalues ---    0.39456   0.39805   0.405981000.000001000.00000
     Eigenvalues --- 1000.000001000.000001000.000001000.000001000.00000
     Eigenvalues --- 1000.000001000.000001000.000001000.000001000.00000
     Eigenvalues --- 1000.000001000.000001000.000001000.000001000.00000
     Eigenvalues --- 1000.000001000.000001000.000001000.000001000.00000
     Eigenvalues --- 1000.000001000.000001000.000001000.000001000.00000
     Eigenvalues --- 1000.000001000.000001000.000001000.000001000.00000
     Eigenvalues --- 1000.000001000.000001000.000001000.000001000.00000
     Eigenvalues --- 1000.000001000.000001000.000001000.000001000.00000
     Eigenvalues --- 1000.000001000.000001000.000001000.000001000.00000
     Eigenvalues --- 1000.000001000.000001000.000001000.000001000.00000
     Eigenvalues --- 1000.00000
 RFO step:  Lambda=-1.22412998D-01 EMin= 2.30000000D-03
 Linear search not attempted -- first point.
 Maximum step size (   0.300) exceeded in Quadratic search.
    -- Step size scaled by   0.558
 Iteration  1 RMS(Cart)=  0.05757706 RMS(Int)=  0.00163038
 Iteration  2 RMS(Cart)=  0.00182781 RMS(Int)=  0.00010144
 Iteration  3 RMS(Cart)=  0.00001108 RMS(Int)=  0.00010113
 Iteration  4 RMS(Cart)=  0.00000000 RMS(Int)=  0.00010113
 Iteration  1 RMS(Cart)=  0.00000040 RMS(Int)=  0.00000016
 Variable       Old X    -DE/DX   Delta X   Delta X   Delta X     New X
                                 (Linear)    (Quad)   (Total)
    R1        2.71917  -0.02476   0.00000  -0.02788  -0.02780   2.69138
    R2        2.71391  -0.06101   0.00000  -0.06552  -0.06551   2.64841
    R3        2.03793   0.00154   0.00000   0.00178   0.00178   2.03971
    R4        2.75906  -0.07344   0.00000  -0.08390  -0.08385   2.67522
    R5        2.90711  -0.09535   0.00000  -0.13015  -0.13015   2.77696
    R6        3.39578  -0.02940   0.00000  -0.04128  -0.04133   3.35445
    R7        2.74954  -0.00689   0.00000  -0.00772  -0.00772   2.74181
    R8        3.28671  -0.01871   0.00000  -0.02275  -0.02283   3.26388
    R9        2.04073  -0.00061   0.00000  -0.00071  -0.00071   2.04002
   R10        3.38292  -0.01848   0.00000  -0.02498  -0.02506   3.35787
   R11        2.76767  -0.07383   0.00000  -0.08502  -0.08505   2.68262
   R12        3.26875  -0.00687   0.00000  -0.00776  -0.00776   3.26099
   R13        2.72267  -0.03904   0.00000  -0.04311  -0.04296   2.67970
   R14        2.69530  -0.00302   0.00000  -0.00419  -0.00411   2.69119
   R15        2.70562  -0.01249   0.00000  -0.01434  -0.01429   2.69133
   R16        3.27511  -0.00461   0.00000  -0.00478  -0.00480   3.27031
   R17        2.03864   0.00160   0.00000   0.00184   0.00184   2.04048
   R18        3.33427  -0.01779   0.00000  -0.02313  -0.02322   3.31105
   R19        2.73110  -0.06588   0.00000  -0.07250  -0.07252   2.65858
   R20        2.04308  -0.00108   0.00000  -0.00126  -0.00126   2.04183
   R21        2.05348  -0.00388   0.00000  -0.00456  -0.00456   2.04892
   R22        2.18171  -0.11061   0.00000  -0.15231  -0.15231   2.02940
    A1        1.97020  -0.00372   0.00000  -0.00889  -0.00878   1.96142
    A2        2.17330   0.00093   0.00000   0.00261   0.00255   2.17585
    A3        2.13967   0.00280   0.00000   0.00631   0.00625   2.14592
    A4        1.97187   0.01548   0.00000   0.02136   0.02148   1.99335
    A5        2.21760  -0.00427   0.00000  -0.00434  -0.00444   2.21315
    A6        2.06941  -0.01036   0.00000  -0.01372  -0.01385   2.05557
    A7        1.90440  -0.00496   0.00000  -0.00716  -0.00714   1.89726
    A8        2.31891  -0.00828   0.00000  -0.01259  -0.01260   2.30631
    A9        2.05972   0.01323   0.00000   0.01968   0.01966   2.07938
   A10        1.95339  -0.00143   0.00000  -0.00188  -0.00193   1.95146
   A11        2.17580   0.00454   0.00000   0.00850   0.00852   2.18433
   A12        2.15384  -0.00311   0.00000  -0.00662  -0.00660   2.14725
   A13        1.62490  -0.00538   0.00000  -0.00341  -0.00362   1.62128
   A14        2.12926  -0.00453   0.00000  -0.00657  -0.00659   2.12267
   A15        2.24078  -0.00467   0.00000  -0.00679  -0.00681   2.23397
   A16        1.91245   0.00925   0.00000   0.01350   0.01353   1.92597
   A17        1.61944  -0.00712   0.00000  -0.00822  -0.00817   1.61127
   A18        1.96123  -0.01055   0.00000  -0.01364  -0.01384   1.94739
   A19        2.23810   0.00837   0.00000   0.01824   0.01797   2.25607
   A20        1.96567   0.00596   0.00000   0.00868   0.00875   1.97442
   A21        1.96668   0.00742   0.00000   0.01017   0.01017   1.97685
   A22        1.96593  -0.01310   0.00000  -0.01733  -0.01746   1.94847
   A23        2.23732   0.00925   0.00000   0.01953   0.01930   2.25661
   A24        1.96422   0.00102   0.00000  -0.00176  -0.00165   1.96257
   A25        2.15975  -0.00528   0.00000  -0.00795  -0.00806   2.15169
   A26        2.14748   0.00482   0.00000   0.01200   0.01189   2.15937
   A27        1.59355   0.00042   0.00000   0.00230   0.00231   1.59586
   A28        1.96012   0.00207   0.00000   0.00223   0.00219   1.96231
   A29        2.13627  -0.00468   0.00000  -0.00743  -0.00755   2.12872
   A30        2.16978   0.00366   0.00000   0.00929   0.00920   2.17898
   A31        1.93919   0.00464   0.00000   0.00410   0.00420   1.94339
   A32        2.16551   0.00052   0.00000   0.00541   0.00520   2.17071
   A33        2.14183  -0.00330   0.00000  -0.00240  -0.00263   2.13921
   A34        2.32184  -0.06377   0.00000  -0.12608  -0.12608   2.19576
    D1        0.00683  -0.00089   0.00000  -0.00374  -0.00374   0.00310
    D2       -2.89394  -0.00401   0.00000  -0.01848  -0.01854  -2.91248
    D3       -3.13952   0.00041   0.00000   0.00199   0.00199  -3.13753
    D4        0.24290  -0.00271   0.00000  -0.01275  -0.01282   0.23007
    D5       -0.00671   0.00085   0.00000   0.00278   0.00272  -0.00399
    D6       -3.13020   0.00073   0.00000   0.00308   0.00306  -3.12714
    D7        3.13954  -0.00042   0.00000  -0.00282  -0.00288   3.13666
    D8        0.01605  -0.00054   0.00000  -0.00252  -0.00254   0.01351
    D9       -0.00388   0.00063   0.00000   0.00310   0.00308  -0.00080
   D10        3.11762   0.00035   0.00000  -0.00083  -0.00080   3.11682
   D11        2.91927   0.00399   0.00000   0.01735   0.01732   2.93658
   D12       -0.24242   0.00371   0.00000   0.01342   0.01344  -0.22898
   D13       -0.28016   0.00175   0.00000   0.00332   0.00324  -0.27692
   D14        3.11413  -0.00468   0.00000  -0.01644  -0.01635   3.09778
   D15        0.00006  -0.00014   0.00000  -0.00133  -0.00131  -0.00125
   D16       -3.12486   0.00034   0.00000   0.00230   0.00236  -3.12250
   D17       -1.91962  -0.00153   0.00000   0.00000  -0.00000  -1.91962
   D18        1.17747   0.00034   0.00000   0.00457   0.00458   1.18205
   D19        1.20047  -0.00202   0.00000  -0.00448  -0.00449   1.19598
   D20       -1.98563  -0.00014   0.00000   0.00009   0.00009  -1.98554
   D21        0.00376  -0.00036   0.00000  -0.00073  -0.00073   0.00302
   D22        3.12751  -0.00015   0.00000  -0.00084  -0.00088   3.12663
   D23        3.13807   0.00085   0.00000   0.00237   0.00237   3.14044
   D24        0.03350  -0.00045   0.00000  -0.00105  -0.00110   0.03240
   D25       -3.13907  -0.00140   0.00000  -0.00369  -0.00365   3.14046
   D26       -0.15736   0.00289   0.00000   0.01298   0.01294  -0.14441
   D27       -0.03754   0.00004   0.00000   0.00007   0.00014  -0.03740
   D28        2.94417   0.00433   0.00000   0.01673   0.01674   2.96092
   D29       -0.02159   0.00123   0.00000   0.00244   0.00243  -0.01916
   D30       -2.61575  -0.00766   0.00000  -0.02689  -0.02692  -2.64266
   D31        0.00334  -0.00099   0.00000  -0.00233  -0.00228   0.00106
   D32       -2.68801  -0.01025   0.00000  -0.03069  -0.03032  -2.71833
   D33        2.68607   0.00825   0.00000   0.02676   0.02652   2.71259
   D34       -0.00528  -0.00101   0.00000  -0.00160  -0.00152  -0.00680
   D35        2.61259   0.00565   0.00000   0.02525   0.02550   2.63809
   D36       -0.24724  -0.00082   0.00000  -0.00099  -0.00087  -0.24811
   D37        0.01955   0.00091   0.00000   0.00148   0.00142   0.02097
   D38       -2.84028  -0.00556   0.00000  -0.02475  -0.02495  -2.86523
   D39        0.02270   0.00063   0.00000   0.00141   0.00135   0.02405
   D40       -2.96032  -0.00256   0.00000  -0.01303  -0.01321  -2.97353
   D41        2.62792   0.00446   0.00000   0.02286   0.02314   2.65106
   D42       -0.35509   0.00127   0.00000   0.00842   0.00857  -0.34652
   D43       -0.00801   0.00093   0.00000   0.00127   0.00123  -0.00678
   D44       -2.61342  -0.00799   0.00000  -0.02699  -0.02695  -2.64037
   D45        0.01924  -0.00029   0.00000  -0.00028  -0.00029   0.01895
   D46        2.97142   0.00601   0.00000   0.02341   0.02328   2.99469
   D47       -0.02550  -0.00017   0.00000  -0.00047  -0.00042  -0.02592
   D48        2.83881   0.00689   0.00000   0.02680   0.02685   2.86566
   D49       -2.97340  -0.00555   0.00000  -0.02255  -0.02262  -2.99602
   D50       -0.10909   0.00151   0.00000   0.00473   0.00465  -0.10444
         Item               Value     Threshold  Converged?
 Maximum Force            0.110611     0.000450     NO 
 RMS     Force            0.021992     0.000300     NO 
 Maximum Displacement     0.424560     0.001800     NO 
 RMS     Displacement     0.057630     0.001200     NO 
 Predicted change in Energy=-5.530998D-02
 GradGradGradGradGradGradGradGradGradGradGradGradGradGradGradGradGradGrad

                          Input orientation:                          
 ---------------------------------------------------------------------
 Center     Atomic      Atomic             Coordinates (Angstroms)
 Number     Number       Type             X           Y           Z
 ---------------------------------------------------------------------
      1          6           0       -4.204769   -1.341087   -0.202159
      2          6           0       -2.888436   -0.969380   -0.599008
      3          6           0       -1.962572   -2.040193   -0.614425
      4          6           0       -4.306321   -2.706435    0.097253
      5          1           0       -5.040713   -0.661572   -0.135150
      6         16           0       -2.799362   -3.523513   -0.113897
      7          1           0       -5.210157   -3.209456    0.406191
      8          6           0       -0.558504   -2.108040   -0.973750
      9         16           0       -0.011960   -2.947702   -2.441284
     10          6           0        1.642273   -2.572044   -2.124691
     11          6           0        1.785162   -1.801932   -0.942599
     12          6           0        0.545345   -1.522877   -0.299720
     13          1           0        0.438623   -0.830482    0.521935
     14         16           0        3.244798   -0.872373   -0.959089
     15          6           0        3.683823   -1.507893   -2.531772
     16          6           0        2.717576   -2.394429   -3.041359
     17          1           0        4.521334   -1.118634   -3.092584
     18          1           0        2.687387   -2.688020   -4.084657
     19          8           0       -2.358739    0.395730   -0.722832
     20          1           0       -2.943786    1.295332   -0.764404
 ---------------------------------------------------------------------
                    Distance matrix (angstroms):
                    1          2          3          4          5
     1  C    0.000000
     2  C    1.424215   0.000000
     3  C    2.384567   1.415663   0.000000
     4  C    1.401476   2.347879   2.538409   0.000000
     5  H    1.079367   2.223108   3.406648   2.185133   0.000000
     6  S    2.597296   2.601319   1.775101   1.727173   3.635219
     7  H    2.207193   3.379165   3.599395   1.079534   2.610264
     8  C    3.805104   2.620222   1.450905   3.943508   4.783902
     9  S    5.017424   3.947386   2.822389   4.994389   5.986068
    10  C    6.276886   5.042179   3.944450   6.351446   7.229833
    11  C    6.053091   4.759593   3.769613   6.245445   6.967422
    12  C    4.754593   3.490958   2.579981   5.009696   5.654465
    13  H    4.727169   3.513564   2.918982   5.119966   5.521179
    14  S    7.502579   6.144561   5.347832   7.842133   8.329046
    15  C    8.227078   6.871693   5.986764   8.496510   9.087221
    16  C    7.555756   6.278791   5.283870   7.699569   8.464036
    17  H    9.195048   7.819520   7.002255   9.519646  10.019385
    18  H    8.024327   6.796563   5.838177   8.148660   8.912274
    19  O    2.587559   1.469503   2.470308   3.753538   2.942150
    20  H    2.976055   2.271419   3.480086   4.314290   2.936416
                    6          7          8          9         10
     6  S    0.000000
     7  H    2.486173   0.000000
     8  C    2.786459   4.975463   0.000000
     9  S    3.676670   5.932780   1.776908   0.000000
    10  C    4.967566   7.332630   2.526537   1.725641   0.000000
    11  C    4.966734   7.261877   2.363778   2.605474   1.418038
    12  C    3.901812   6.038929   1.419583   2.631922   2.373715
    13  H    4.259254   6.130387   2.205332   3.669647   3.389165
    14  S    6.653928   8.877625   3.999025   4.136468   2.610670
    15  C    7.206978   9.519970   4.559051   3.967373   2.337960
    16  C    6.346768   8.683250   3.884550   2.848959   1.424115
    17  H    8.261271  10.550587   5.592239   4.931575   3.367225
    18  H    6.824177   9.100044   4.533203   3.170896   2.224225
    19  O    3.990666   4.733144   3.093973   4.431589   5.175035
    20  H    4.864698   5.176857   4.161290   5.423179   6.151335
                   11         12         13         14         15
    11  C    0.000000
    12  C    1.424188   0.000000
    13  H    2.213987   1.079776   0.000000
    14  S    1.730575   2.853940   3.173295   0.000000
    15  C    2.493360   3.851276   4.507253   1.752131   0.000000
    16  C    2.371759   3.604827   4.509614   2.632578   1.406861
    17  H    3.546261   4.875653   5.460430   2.498397   1.080489
    18  H    3.386988   4.502405   5.452345   3.657384   2.190214
    19  O    4.695736   3.506249   3.298223   5.750089   6.588520
    20  H    5.655771   4.509132   4.196957   6.560138   7.409916
                   16         17         18         19         20
    16  C    0.000000
    17  H    2.209936   0.000000
    18  H    1.084240   2.609702   0.000000
    19  O    6.239353   7.432659   6.802555   0.000000
    20  H    7.130910   8.183866   7.655147   1.073914   0.000000
 Stoichiometry    C10H6OS3
 Framework group  C1[X(C10H6OS3)]
 Deg. of freedom    54
 Full point group                 C1      NOp   1
 Largest Abelian subgroup         C1      NOp   1
 Largest concise Abelian subgroup C1      NOp   1
                         Standard orientation:                         
 ---------------------------------------------------------------------
 Center     Atomic      Atomic             Coordinates (Angstroms)
 Number     Number       Type             X           Y           Z
 ---------------------------------------------------------------------
      1          6           0        3.938178    0.795027    0.393244
      2          6           0        2.540517    1.030604    0.532654
      3          6           0        1.722628    0.039755   -0.061802
      4          6           0        4.212793   -0.382058   -0.316118
      5          1           0        4.711299    1.438919    0.784037
      6         16           0        2.766085   -1.192066   -0.799906
      7          1           0        5.200010   -0.763319   -0.529273
      8          6           0        0.282323   -0.121791   -0.129243
      9         16           0       -0.553604   -1.409495    0.765433
     10          6           0       -2.097286   -0.915000    0.173522
     11          6           0       -1.993445    0.221435   -0.668242
     12          6           0       -0.655580    0.682918   -0.827810
     13          1           0       -0.396250    1.616055   -1.305220
     14         16           0       -3.474522    1.115122   -0.719464
     15          6           0       -4.248389   -0.020016    0.367989
     16          6           0       -3.379394   -1.047156    0.779192
     17          1           0       -5.226842    0.165566    0.787091
     18          1           0       -3.592142   -1.686481    1.628651
     19          8           0        1.897239    2.276978    0.971042
     20          1           0        2.384599    3.094143    1.469051
 ---------------------------------------------------------------------
 Rotational constants (GHZ):           1.2345031           0.2695479           0.2444442
 Standard basis: 6-311+G(d,p) (5D, 7F)
 There are   382 symmetry adapted cartesian basis functions of A   symmetry.
 There are   368 symmetry adapted basis functions of A   symmetry.
   368 basis functions,   594 primitive gaussians,   382 cartesian basis functions
    61 alpha electrons       61 beta electrons
       nuclear repulsion energy      1115.0255073467 Hartrees.
 NAtoms=   20 NActive=   20 NUniq=   20 SFac= 1.00D+00 NAtFMM=   60 NAOKFM=F Big=F
 Integral buffers will be    131072 words long.
 Raffenetti 2 integral format.
 Two-electron integral symmetry is turned on.
 Nuclear repulsion after empirical dispersion term =     1115.0152982121 Hartrees.
 One-electron integrals computed using PRISM.
 NBasis=   368 RedAO= T EigKep=  2.59D-06  NBF=   368
 NBsUse=   367 1.00D-06 EigRej=  5.27D-07 NBFU=   367
 Initial guess from the checkpoint file:  "/tmp/pbs.4762174[65].pbs/Gau-3205072.chk"
 B after Tr=    -0.000000   -0.000000    0.000000
         Rot=    0.999945   -0.010465    0.000931   -0.000448 Ang=  -1.21 deg.
 ExpMin= 4.05D-02 ExpMax= 9.34D+04 ExpMxC= 3.17D+03 IAcc=3 IRadAn=         5 AccDes= 0.00D+00
 Harris functional with IExCor= 4639 and IRadAn=       5 diagonalized for initial guess.
 HarFok:  IExCor= 4639 AccDes= 0.00D+00 IRadAn=         5 IDoV= 1 UseB2=F ITyADJ=14
 ICtDFT=  3500011 ScaDFX=  1.000000  1.000000  1.000000  1.000000
 FoFCou: FMM=F IPFlag=           0 FMFlag=      100000 FMFlg1=           0
         NFxFlg=           0 DoJE=T BraDBF=F KetDBF=T FulRan=T
         wScrn=  0.000000 ICntrl=       500 IOpCl=  0 I1Cent=   200000004 NGrid=           0
         NMat0=    1 NMatS0=      1 NMatT0=    0 NMatD0=    1 NMtDS0=    0 NMtDT0=    0
 Petite list used in FoFCou.
 Requested convergence on RMS density matrix=1.00D-08 within 128 cycles.
 Requested convergence on MAX density matrix=1.00D-06.
 Requested convergence on             energy=1.00D-06.
 No special actions if energy rises.
 SCF Done:  E(RwB97XD) =  -1654.35688816     A.U. after   15 cycles
            NFock= 15  Conv=0.67D-08     -V/T= 2.0026
 Calling FoFJK, ICntrl=      2127 FMM=F ISym2X=0 I1Cent= 0 IOpClX= 0 NMat=1 NMatS=1 NMatT=0.
 ***** Axes restored to original set *****
 -------------------------------------------------------------------
 Center     Atomic                   Forces (Hartrees/Bohr)
 Number     Number              X              Y              Z
 -------------------------------------------------------------------
      1        6           0.005037092   -0.028452118    0.004358322
      2        6           0.034301628    0.034224207    0.009797330
      3        6          -0.036231733    0.009624933    0.001476172
      4        6           0.010384501    0.033833492   -0.012047761
      5        1          -0.000135206    0.001807554    0.000578878
      6       16          -0.003646558    0.017617622   -0.004458048
      7        1           0.002068088   -0.003112950    0.000092780
      8        6           0.045608953    0.019622401    0.014311857
      9       16          -0.005970292   -0.002279893    0.013762772
     10        6           0.004151230    0.024522121    0.011431784
     11        6          -0.017142956   -0.003217062   -0.022972006
     12        6          -0.028910422   -0.018442664   -0.022381540
     13        1          -0.003054661   -0.003499713    0.003795336
     14       16           0.008385109   -0.009290247   -0.007786802
     15        6          -0.034226456   -0.022503869   -0.011196556
     16        6           0.023312432    0.029704821    0.013339974
     17        1           0.003497060   -0.001654830    0.005165020
     18        1           0.004512085   -0.005760369    0.003650749
     19        8          -0.038162353    0.011546114   -0.004526942
     20        1           0.026222461   -0.084289550    0.003608678
 -------------------------------------------------------------------
 Cartesian Forces:  Max     0.084289550 RMS     0.020739204

 GradGradGradGradGradGradGradGradGradGradGradGradGradGradGradGradGradGrad
 Berny optimization.
 Using GEDIIS/GDIIS optimizer.
 FormGI is forming the generalized inverse of G from B-inverse, IUseBI=4.
 Internal  Forces:  Max     0.085033049 RMS     0.015086955
 Search for a local minimum.
 Step number   2 out of a maximum of  116
 All quantities printed in internal units (Hartrees-Bohrs-Radians)
 Mixed Optimization -- RFO/linear search
 Update second derivatives using D2CorX and points    1    2
 DE= -5.87D-02 DEPred=-5.53D-02 R= 1.06D+00
 TightC=F SS=  1.41D+00  RLast= 3.14D-01 DXNew= 5.0454D-01 9.4247D-01
 Trust test= 1.06D+00 RLast= 3.14D-01 DXMaxT set to 5.05D-01
 ITU=  1  0
 Use linear search instead of GDIIS.
     Eigenvalues ---    0.00230   0.00995   0.01053   0.01219   0.01272
     Eigenvalues ---    0.01295   0.01345   0.01403   0.01460   0.01493
     Eigenvalues ---    0.01499   0.01592   0.01593   0.01738   0.02127
     Eigenvalues ---    0.02513   0.14631   0.15261   0.15754   0.15823
     Eigenvalues ---    0.15999   0.16021   0.18293   0.20959   0.22456
     Eigenvalues ---    0.22540   0.23393   0.24114   0.24323   0.24974
     Eigenvalues ---    0.25012   0.25527   0.26242   0.26623   0.28486
     Eigenvalues ---    0.28537   0.30898   0.31258   0.31572   0.34858
     Eigenvalues ---    0.35204   0.35855   0.36005   0.36076   0.36140
     Eigenvalues ---    0.36184   0.36413   0.37560   0.38170   0.39296
     Eigenvalues ---    0.39651   0.40506   0.432271000.000001000.00000
     Eigenvalues --- 1000.000001000.000001000.000001000.000001000.00000
     Eigenvalues --- 1000.000001000.000001000.000001000.000001000.00000
     Eigenvalues --- 1000.000001000.000001000.000001000.000001000.00000
     Eigenvalues --- 1000.000001000.000001000.000001000.000001000.00000
     Eigenvalues --- 1000.000001000.000001000.000001000.000001000.00000
     Eigenvalues --- 1000.000001000.000001000.000001000.000001000.00000
     Eigenvalues --- 1000.000001000.000001000.000001000.000001000.00000
     Eigenvalues --- 1000.000001000.000001000.000001000.000001000.00000
     Eigenvalues --- 1000.000001000.000001000.000001000.000001000.00000
     Eigenvalues --- 1000.000001000.000001000.000001000.000001000.00000
     Eigenvalues --- 1000.00000
 RFO step:  Lambda=-1.01087335D-02 EMin= 2.30056279D-03
 Quartic linear search produced a step of  1.48887.
 Iteration  1 RMS(Cart)=  0.08855199 RMS(Int)=  0.01864426
 Iteration  2 RMS(Cart)=  0.02249372 RMS(Int)=  0.00101063
 Iteration  3 RMS(Cart)=  0.00038672 RMS(Int)=  0.00095999
 Iteration  4 RMS(Cart)=  0.00000058 RMS(Int)=  0.00095999
 Iteration  1 RMS(Cart)=  0.00001291 RMS(Int)=  0.00000543
 Iteration  2 RMS(Cart)=  0.00000705 RMS(Int)=  0.00000606
 Iteration  3 RMS(Cart)=  0.00000385 RMS(Int)=  0.00000685
 Iteration  4 RMS(Cart)=  0.00000211 RMS(Int)=  0.00000737
 Iteration  5 RMS(Cart)=  0.00000115 RMS(Int)=  0.00000767
 Iteration  6 RMS(Cart)=  0.00000063 RMS(Int)=  0.00000784
 Variable       Old X    -DE/DX   Delta X   Delta X   Delta X     New X
                                 (Linear)    (Quad)   (Total)
    R1        2.69138  -0.00963  -0.04138   0.03870  -0.00232   2.68905
    R2        2.64841  -0.03496  -0.09753   0.02558  -0.07209   2.57631
    R3        2.03971   0.00128   0.00265   0.00185   0.00450   2.04421
    R4        2.67522  -0.04304  -0.12484   0.02873  -0.09568   2.57953
    R5        2.77696  -0.07180  -0.19378  -0.07074  -0.26452   2.51244
    R6        3.35445  -0.01736  -0.06153   0.01975  -0.04183   3.31263
    R7        2.74181  -0.00046  -0.01150   0.02555   0.01405   2.75587
    R8        3.26388  -0.01066  -0.03399   0.01205  -0.02242   3.24147
    R9        2.04002  -0.00025  -0.00105   0.00094  -0.00011   2.03991
   R10        3.35787  -0.01184  -0.03730   0.00599  -0.03216   3.32571
   R11        2.68262  -0.04643  -0.12663   0.01060  -0.11655   2.56607
   R12        3.26099  -0.00144  -0.01156   0.02115   0.00981   3.27079
   R13        2.67970  -0.02380  -0.06397   0.00442  -0.05791   2.62179
   R14        2.69119   0.00020  -0.00612   0.01217   0.00657   2.69775
   R15        2.69133  -0.00420  -0.02128   0.02239   0.00155   2.69288
   R16        3.27031  -0.00060  -0.00714   0.01652   0.00943   3.27974
   R17        2.04048   0.00095   0.00274  -0.00058   0.00216   2.04264
   R18        3.31105  -0.01077  -0.03458   0.01028  -0.02510   3.28595
   R19        2.65858  -0.04030  -0.10797   0.01454  -0.09380   2.56478
   R20        2.04183  -0.00057  -0.00187   0.00091  -0.00097   2.04086
   R21        2.04892  -0.00208  -0.00680   0.00300  -0.00380   2.04512
   R22        2.02940  -0.08503  -0.22677  -0.09684  -0.32361   1.70579
    A1        1.96142  -0.00194  -0.01308   0.00832  -0.00420   1.95722
    A2        2.17585  -0.00016   0.00379  -0.01093  -0.00744   2.16841
    A3        2.14592   0.00210   0.00930   0.00261   0.01162   2.15754
    A4        1.99335   0.00606   0.03198  -0.03655  -0.00544   1.98792
    A5        2.21315  -0.00395  -0.00662  -0.00596  -0.01532   2.19784
    A6        2.05557  -0.00128  -0.02061   0.06009   0.03711   2.09267
    A7        1.89726   0.00027  -0.01063   0.03161   0.02174   1.91900
    A8        2.30631  -0.00896  -0.01876  -0.03058  -0.04974   2.25658
    A9        2.07938   0.00869   0.02928  -0.00075   0.02812   2.10750
   A10        1.95146   0.00007  -0.00287   0.01044   0.00737   1.95883
   A11        2.18433   0.00377   0.01269   0.01053   0.02331   2.20763
   A12        2.14725  -0.00384  -0.00983  -0.02109  -0.03082   2.11643
   A13        1.62128  -0.00446  -0.00539  -0.01390  -0.01971   1.60157
   A14        2.12267  -0.00406  -0.00981  -0.00984  -0.01963   2.10304
   A15        2.23397  -0.00275  -0.01014   0.00349  -0.00662   2.22735
   A16        1.92597   0.00686   0.02014   0.00641   0.02649   1.95246
   A17        1.61127  -0.00488  -0.01216  -0.00652  -0.01801   1.59326
   A18        1.94739  -0.00622  -0.02061   0.01045  -0.01126   1.93613
   A19        2.25607   0.00640   0.02675   0.01753   0.04118   2.29724
   A20        1.97442   0.00305   0.01303  -0.00807   0.00472   1.97915
   A21        1.97685   0.00347   0.01514  -0.01034   0.00410   1.98095
   A22        1.94847  -0.00731  -0.02600   0.01675  -0.01047   1.93800
   A23        2.25661   0.00694   0.02873   0.01751   0.04300   2.29961
   A24        1.96257   0.00080  -0.00246   0.00096  -0.00065   1.96192
   A25        2.15169  -0.00339  -0.01200   0.00577  -0.00706   2.14463
   A26        2.15937   0.00306   0.01770  -0.00463   0.01221   2.17158
   A27        1.59586  -0.00078   0.00344  -0.01563  -0.01137   1.58449
   A28        1.96231   0.00248   0.00326   0.01394   0.01662   1.97894
   A29        2.12872  -0.00469  -0.01124  -0.01710  -0.02960   2.09912
   A30        2.17898   0.00307   0.01370   0.00932   0.02195   2.20094
   A31        1.94339   0.00256   0.00626  -0.00633   0.00073   1.94412
   A32        2.17071   0.00009   0.00775  -0.00487   0.00121   2.17192
   A33        2.13921  -0.00116  -0.00391   0.01702   0.01154   2.15075
   A34        2.19576  -0.04856  -0.18772  -0.04674  -0.23446   1.96130
    D1        0.00310  -0.00043  -0.00556   0.02546   0.01979   0.02289
    D2       -2.91248  -0.00479  -0.02761  -0.07463  -0.10067  -3.01315
    D3       -3.13753   0.00076   0.00296   0.02327   0.02577  -3.11176
    D4        0.23007  -0.00361  -0.01909  -0.07682  -0.09469   0.13539
    D5       -0.00399   0.00038   0.00405  -0.02006  -0.01573  -0.01972
    D6       -3.12714   0.00050   0.00455  -0.01267  -0.00811  -3.13525
    D7        3.13666  -0.00078  -0.00428  -0.01792  -0.02168   3.11497
    D8        0.01351  -0.00066  -0.00378  -0.01054  -0.01407  -0.00055
    D9       -0.00080   0.00029   0.00459  -0.01879  -0.01440  -0.01520
   D10        3.11682   0.00033  -0.00118  -0.00424  -0.00591   3.11091
   D11        2.93658   0.00376   0.02578   0.06388   0.09123   3.02782
   D12       -0.22898   0.00379   0.02001   0.07843   0.09972  -0.12926
   D13       -0.27692   0.00142   0.00482   0.06207   0.06722  -0.20970
   D14        3.09778  -0.00390  -0.02435  -0.02986  -0.05454   3.04324
   D15       -0.00125  -0.00006  -0.00195   0.00612   0.00463   0.00338
   D16       -3.12250   0.00017   0.00351  -0.00568  -0.00178  -3.12428
   D17       -1.91962  -0.00156  -0.00000   0.00000   0.00000  -1.91961
   D18        1.18205   0.00021   0.00682   0.00249   0.00954   1.19159
   D19        1.19598  -0.00164  -0.00669   0.01607   0.00906   1.20505
   D20       -1.98554   0.00013   0.00013   0.01856   0.01860  -1.96693
   D21        0.00302  -0.00017  -0.00109   0.00791   0.00657   0.00960
   D22        3.12663  -0.00020  -0.00131   0.00109   0.00005   3.12668
   D23        3.14044   0.00068   0.00353  -0.01820  -0.01483   3.12560
   D24        0.03240  -0.00065  -0.00163  -0.02030  -0.02246   0.00995
   D25        3.14046  -0.00097  -0.00544   0.02395   0.01864  -3.12409
   D26       -0.14441   0.00285   0.01927   0.03917   0.05833  -0.08608
   D27       -0.03740   0.00046   0.00021   0.02591   0.02669  -0.01071
   D28        2.96092   0.00428   0.02493   0.04112   0.06638   3.02730
   D29       -0.01916   0.00097   0.00361   0.00937   0.01274  -0.00642
   D30       -2.64266  -0.00661  -0.04008  -0.03345  -0.07450  -2.71717
   D31        0.00106  -0.00059  -0.00340   0.00403   0.00062   0.00168
   D32       -2.71833  -0.00850  -0.04515  -0.04716  -0.08942  -2.80775
   D33        2.71259   0.00731   0.03949   0.04664   0.08358   2.79617
   D34       -0.00680  -0.00060  -0.00226  -0.00456  -0.00646  -0.01326
   D35        2.63809   0.00586   0.03797   0.03322   0.07259   2.71069
   D36       -0.24811  -0.00027  -0.00129   0.00626   0.00600  -0.24211
   D37        0.02097   0.00035   0.00211  -0.01462  -0.01289   0.00808
   D38       -2.86523  -0.00578  -0.03715  -0.04157  -0.07949  -2.94472
   D39        0.02405   0.00009   0.00201  -0.01986  -0.01810   0.00595
   D40       -2.97353  -0.00313  -0.01967  -0.03615  -0.05665  -3.03018
   D41        2.65106   0.00519   0.03445   0.04023   0.07622   2.72728
   D42       -0.34652   0.00197   0.01277   0.02394   0.03767  -0.30884
   D43       -0.00678   0.00071   0.00183   0.01681   0.01819   0.01141
   D44       -2.64037  -0.00675  -0.04013  -0.03618  -0.07733  -2.71770
   D45        0.01895  -0.00044  -0.00043  -0.02533  -0.02601  -0.00707
   D46        2.99469   0.00534   0.03466   0.01433   0.04740   3.04209
   D47       -0.02592   0.00021  -0.00062   0.02692   0.02677   0.00085
   D48        2.86566   0.00640   0.03998   0.04966   0.09068   2.95635
   D49       -2.99602  -0.00490  -0.03367  -0.01114  -0.04589  -3.04191
   D50       -0.10444   0.00130   0.00692   0.01160   0.01802  -0.08642
         Item               Value     Threshold  Converged?
 Maximum Force            0.085033     0.000450     NO 
 RMS     Force            0.015157     0.000300     NO 
 Maximum Displacement     0.779542     0.001800     NO 
 RMS     Displacement     0.100920     0.001200     NO 
 Predicted change in Energy=-5.947909D-02
 GradGradGradGradGradGradGradGradGradGradGradGradGradGradGradGradGradGrad

                          Input orientation:                          
 ---------------------------------------------------------------------
 Center     Atomic      Atomic             Coordinates (Angstroms)
 Number     Number       Type             X           Y           Z
 ---------------------------------------------------------------------
      1          6           0       -4.143386   -1.291912   -0.180837
      2          6           0       -2.815148   -0.960308   -0.569055
      3          6           0       -1.964194   -2.027291   -0.596038
      4          6           0       -4.277451   -2.616578    0.112323
      5          1           0       -4.957652   -0.581654   -0.129042
      6         16           0       -2.812321   -3.481287   -0.106684
      7          1           0       -5.181690   -3.116561    0.424792
      8          6           0       -0.556595   -2.076633   -0.974177
      9         16           0       -0.058425   -2.878496   -2.459454
     10          6           0        1.599332   -2.476075   -2.166761
     11          6           0        1.734073   -1.756378   -0.988314
     12          6           0        0.497971   -1.529494   -0.316578
     13          1           0        0.384176   -0.907716    0.560253
     14         16           0        3.244746   -0.902868   -0.948742
     15          6           0        3.658028   -1.512912   -2.523747
     16          6           0        2.709568   -2.327542   -3.051816
     17          1           0        4.551791   -1.169421   -3.023301
     18          1           0        2.720456   -2.660870   -4.081376
     19          8           0       -2.347146    0.266180   -0.779617
     20          1           0       -3.005134    0.882816   -0.819830
 ---------------------------------------------------------------------
                    Distance matrix (angstroms):
                    1          2          3          4          5
     1  C    0.000000
     2  C    1.422986   0.000000
     3  C    2.337104   1.365029   0.000000
     4  C    1.363326   2.312107   2.490019   0.000000
     5  H    1.081748   2.219755   3.356895   2.159132   0.000000
     6  S    2.563317   2.563031   1.752966   1.715311   3.607051
     7  H    2.184996   3.352265   3.546955   1.079476   2.604358
     8  C    3.756361   2.551739   1.458341   3.913668   4.724248
     9  S    4.939256   3.853904   2.798003   4.948011   5.891411
    10  C    6.190714   4.933340   3.920114   6.304803   7.122862
    11  C    5.950821   4.637340   3.728867   6.171691   6.848175
    12  C    4.649415   3.371124   2.527480   4.916336   5.540522
    13  H    4.603872   3.393196   2.846981   4.985140   5.395977
    14  S    7.438113   6.072049   5.340578   7.787561   8.249510
    15  C    8.148627   6.784408   5.965737   8.434380   8.990650
    16  C    7.501869   6.209342   5.288199   7.675530   8.389100
    17  H    9.148809   7.767808   7.006112   9.480608   9.957495
    18  H    8.012526   6.772830   5.873239   8.158417   8.882422
    19  O    2.452074   1.329524   2.332458   3.582168   2.820782
    20  H    2.536410   1.869783   3.098768   3.838420   2.536570
                    6          7          8          9         10
     6  S    0.000000
     7  H    2.455484   0.000000
     8  C    2.795335   4.942679   0.000000
     9  S    3.671896   5.884165   1.759888   0.000000
    10  C    4.971624   7.287567   2.495962   1.730830   0.000000
    11  C    4.941890   7.188515   2.312990   2.576131   1.387391
    12  C    3.848582   5.943649   1.357905   2.592548   2.352061
    13  H    4.157603   5.989676   2.146135   3.632974   3.372381
    14  S    6.636668   8.819970   3.978513   4.134767   2.581847
    15  C    7.182068   9.455485   4.525703   3.959922   2.300728
    16  C    6.363662   8.659176   3.879093   2.883788   1.427589
    17  H    8.251153  10.508157   5.578311   4.949036   3.340362
    18  H    6.861696   9.108080   4.553578   3.224930   2.226392
    19  O    3.835718   4.574733   2.955114   4.236635   5.001881
    20  H    4.426189   4.720329   3.844152   5.051627   5.856405
                   11         12         13         14         15
    11  C    0.000000
    12  C    1.425011   0.000000
    13  H    2.222726   1.080920   0.000000
    14  S    1.735563   2.887398   3.234184   0.000000
    15  C    2.473546   3.854586   4.538218   1.738849   0.000000
    16  C    2.352841   3.606879   4.524423   2.595965   1.357223
    17  H    3.524943   4.887685   5.502669   2.466418   1.079978
    18  H    3.370176   4.515879   5.484202   3.630269   2.150130
    19  O    4.559675   3.396106   3.260890   5.715289   6.501482
    20  H    5.427137   4.283018   4.074071   6.501252   7.282896
[...]
 Center     Atomic      Atomic             Coordinates (Angstroms)
 Number     Number       Type             X           Y           Z
 ---------------------------------------------------------------------
      1          6           0        3.923040    0.755865    0.284910
      2          6           0        2.527455    0.979459    0.475977
      3          6           0        1.737092    0.025398   -0.106337
      4          6           0        4.167689   -0.372897   -0.433742
      5          1           0        4.699169    1.406365    0.669156
      6         16           0        2.722369   -1.169751   -0.898244
      7          1           0        5.126974   -0.775575   -0.721385
      8          6           0        0.280094   -0.057290   -0.077904
      9         16           0       -0.517976   -1.320993    0.842955
     10          6           0       -2.072727   -0.688845    0.426934
     11          6           0       -1.951003    0.440957   -0.359058
     12          6           0       -0.607662    0.803534   -0.650806
     13          1           0       -0.298843    1.650803   -1.246508
     14         16           0       -3.508005    1.074712   -0.774182
     15          6           0       -4.291026   -0.194489    0.116334
     16          6           0       -3.421080   -1.059671    0.701193
     17          1           0       -5.369709   -0.223109    0.155483
     18          1           0       -3.726709   -1.909565    1.294908
     19          8           0        1.997079    2.023672    1.160041
     20          1           0        2.699053    2.526091    1.574561
 ---------------------------------------------------------------------
 Rotational constants (GHZ):           1.3160188           0.2675194           0.2478320

 **********************************************************************

            Population analysis using the SCF Density.

 **********************************************************************

 Orbital symmetries:
       Occupied  (A) (A) (A) (A) (A) (A) (A) (A) (A) (A) (A) (A)
                 (A) (A) (A) (A) (A) (A) (A) (A) (A) (A) (A) (A)
                 (A) (A) (A) (A) (A) (A) (A) (A) (A) (A) (A) (A)
                 (A) (A) (A) (A) (A) (A) (A) (A) (A) (A) (A) (A)
                 (A) (A) (A) (A) (A) (A) (A) (A) (A) (A) (A) (A)
                 (A)
       Virtual   (A) (A) (A) (A) (A) (A) (A) (A) (A) (A) (A) (A)
                 (A) (A) (A) (A) (A) (A) (A) (A) (A) (A) (A) (A)
                 (A) (A) (A) (A) (A) (A) (A) (A) (A) (A) (A) (A)
                 (A) (A) (A) (A) (A) (A) (A) (A) (A) (A) (A) (A)
                 (A) (A) (A) (A) (A) (A) (A) (A) (A) (A) (A) (A)
                 (A) (A) (A) (A) (A) (A) (A) (A) (A) (A) (A) (A)
                 (A) (A) (A) (A) (A) (A) (A) (A) (A) (A) (A) (A)
                 (A) (A) (A) (A) (A) (A) (A) (A) (A) (A) (A) (A)
                 (A) (A) (A) (A) (A) (A) (A) (A) (A) (A) (A) (A)
                 (A) (A) (A) (A) (A) (A) (A) (A) (A) (A) (A) (A)
                 (A) (A) (A) (A) (A) (A) (A) (A) (A) (A) (A) (A)
                 (A) (A) (A) (A) (A) (A) (A) (A) (A) (A) (A) (A)
                 (A) (A) (A) (A) (A) (A) (A) (A) (A) (A) (A) (A)
                 (A) (A) (A) (A) (A) (A) (A) (A) (A) (A) (A) (A)
                 (A) (A) (A) (A) (A) (A) (A) (A) (A) (A) (A) (A)
                 (A) (A) (A) (A) (A) (A) (A) (A) (A) (A) (A) (A)
                 (A) (A) (A) (A) (A) (A) (A) (A) (A) (A) (A) (A)
                 (A) (A) (A) (A) (A) (A) (A) (A) (A) (A) (A) (A)
                 (A) (A) (A) (A) (A) (A) (A) (A) (A) (A) (A) (A)
                 (A) (A) (A) (A) (A) (A) (A) (A) (A) (A) (A) (A)
                 (A) (A) (A) (A) (A) (A) (A) (A) (A) (A) (A) (A)
                 (A) (A) (A) (A) (A) (A) (A) (A) (A) (A) (A) (A)
                 (A) (A) (A) (A) (A) (A) (A) (A) (A) (A) (A) (A)
                 (A) (A) (A) (A) (A) (A) (A) (A) (A) (A) (A) (A)
                 (A) (A) (A) (A) (A) (A) (A) (A) (A) (A) (A) (A)
                 (A) (A) (A) (A) (A) (A)
 The electronic state is 1-A.
 Alpha  occ. eigenvalues --  -89.05146 -89.04688 -89.04483 -19.29028 -10.36073
 Alpha  occ. eigenvalues --  -10.33149 -10.32701 -10.32201 -10.31981 -10.31978
 Alpha  occ. eigenvalues --  -10.31902 -10.30318 -10.30152 -10.30002  -8.09207
 Alpha  occ. eigenvalues --   -8.08734  -8.08526  -6.04041  -6.03661  -6.03582
 Alpha  occ. eigenvalues --   -6.03378  -6.03302  -6.03210  -6.03008  -6.02797
 Alpha  occ. eigenvalues --   -6.02576  -1.18185  -1.01744  -0.99652  -0.94963
 Alpha  occ. eigenvalues --   -0.86881  -0.85929  -0.83906  -0.80609  -0.79844
 Alpha  occ. eigenvalues --   -0.70901  -0.70065  -0.66176  -0.64793  -0.62899
 Alpha  occ. eigenvalues --   -0.60707  -0.58061  -0.57011  -0.53598  -0.52547
 Alpha  occ. eigenvalues --   -0.51840  -0.49958  -0.49458  -0.47469  -0.46977
 Alpha  occ. eigenvalues --   -0.45819  -0.44854  -0.44310  -0.44019  -0.42005
 Alpha  occ. eigenvalues --   -0.41665  -0.36462  -0.33414  -0.31322  -0.30213
 Alpha  occ. eigenvalues --   -0.28530
 Alpha virt. eigenvalues --    0.02238   0.04113   0.04995   0.06069   0.06215
 Alpha virt. eigenvalues --    0.06741   0.07402   0.07570   0.08108   0.09109
 Alpha virt. eigenvalues --    0.09313   0.09398   0.09863   0.10266   0.10770
 Alpha virt. eigenvalues --    0.11237   0.11528   0.11854   0.12314   0.12511
 Alpha virt. eigenvalues --    0.13526   0.13832   0.14372   0.14873   0.15401
 Alpha virt. eigenvalues --    0.15613   0.16128   0.17054   0.17617   0.17933
 Alpha virt. eigenvalues --    0.18063   0.18668   0.19078   0.19483   0.19866
 Alpha virt. eigenvalues --    0.20172   0.20830   0.20932   0.21729   0.21818
 Alpha virt. eigenvalues --    0.22089   0.22528   0.22984   0.23103   0.23618
 Alpha virt. eigenvalues --    0.24079   0.24502   0.25328   0.25392   0.25471
 Alpha virt. eigenvalues --    0.26222   0.26804   0.26949   0.27545   0.27710
 Alpha virt. eigenvalues --    0.28195   0.28698   0.29039   0.29579   0.30617
 Alpha virt. eigenvalues --    0.30842   0.31592   0.31957   0.32191   0.32621
 Alpha virt. eigenvalues --    0.33532   0.34416   0.34709   0.35333   0.36141
 Alpha virt. eigenvalues --    0.37708   0.38372   0.39173   0.40253   0.40449
 Alpha virt. eigenvalues --    0.41505   0.41645   0.42372   0.43009   0.44272
 Alpha virt. eigenvalues --    0.44814   0.45747   0.47613   0.47964   0.49374
 Alpha virt. eigenvalues --    0.50760   0.52256   0.53092   0.54298   0.54376
 Alpha virt. eigenvalues --    0.55708   0.57776   0.58730   0.60549   0.61575
 Alpha virt. eigenvalues --    0.62680   0.63483   0.63733   0.64247   0.65141
 Alpha virt. eigenvalues --    0.67012   0.67729   0.67855   0.68687   0.70276
 Alpha virt. eigenvalues --    0.71171   0.71340   0.72215   0.72965   0.74599
 Alpha virt. eigenvalues --    0.74855   0.78537   0.79009   0.79372   0.79611
 Alpha virt. eigenvalues --    0.80937   0.81591   0.81994   0.82525   0.83791
 Alpha virt. eigenvalues --    0.85379   0.86212   0.86793   0.87565   0.88243
 Alpha virt. eigenvalues --    0.89175   0.89865   0.90893   0.91415   0.92274
 Alpha virt. eigenvalues --    0.92450   0.93814   0.94156   0.95168   0.95526
 Alpha virt. eigenvalues --    0.96132   0.97569   0.99074   0.99708   1.03038
 Alpha virt. eigenvalues --    1.03258   1.04474   1.05699   1.06313   1.07123
 Alpha virt. eigenvalues --    1.08784   1.10680   1.11586   1.12175   1.12673
 Alpha virt. eigenvalues --    1.14163   1.15370   1.16135   1.16510   1.17663
 Alpha virt. eigenvalues --    1.20428   1.21580   1.23196   1.24396   1.25959
 Alpha virt. eigenvalues --    1.27843   1.30648   1.35044   1.38676   1.40342
 Alpha virt. eigenvalues --    1.43463   1.44019   1.44675   1.46927   1.49184
 Alpha virt. eigenvalues --    1.51244   1.56858   1.58736   1.60311   1.62873
 Alpha virt. eigenvalues --    1.65179   1.66106   1.67793   1.68034   1.69584
 Alpha virt. eigenvalues --    1.70682   1.72281   1.74540   1.77158   1.78173
 Alpha virt. eigenvalues --    1.79783   1.81813   1.82462   1.82820   1.83869
 Alpha virt. eigenvalues --    1.85602   1.86617   1.87829   1.88572   1.91250
 Alpha virt. eigenvalues --    1.93102   1.94615   1.95914   1.98086   1.99204
 Alpha virt. eigenvalues --    2.00796   2.01354   2.03327   2.05830   2.06784
 Alpha virt. eigenvalues --    2.08683   2.09209   2.12155   2.12855   2.14786
 Alpha virt. eigenvalues --    2.15964   2.17544   2.18088   2.18923   2.20100
 Alpha virt. eigenvalues --    2.21759   2.23042   2.23615   2.26155   2.27575
 Alpha virt. eigenvalues --    2.28553   2.29275   2.37683   2.42304   2.46731
 Alpha virt. eigenvalues --    2.51066   2.51213   2.55112   2.59921   2.62979
 Alpha virt. eigenvalues --    2.66114   2.68933   2.72350   2.73330   2.79709
 Alpha virt. eigenvalues --    2.80197   2.80793   2.81674   2.82329   2.83354
 Alpha virt. eigenvalues --    2.84133   2.87795   2.88548   2.93664   2.97932
 Alpha virt. eigenvalues --    3.00507   3.03836   3.05747   3.07687   3.08786
 Alpha virt. eigenvalues --    3.12952   3.17302   3.17997   3.22980   3.23452
 Alpha virt. eigenvalues --    3.27436   3.27853   3.31263   3.39494   3.40740
 Alpha virt. eigenvalues --    3.41268   3.44305   3.47238   3.54618   3.57790
 Alpha virt. eigenvalues --    3.58887   3.63023   3.68141   3.80809   3.98100
 Alpha virt. eigenvalues --    4.04393   4.08358   4.15728   4.21299   4.30492
 Alpha virt. eigenvalues --    4.45905   4.60557   5.12633   5.57440   5.86213
 Alpha virt. eigenvalues --    8.09675   8.10956   8.12263  17.42669  17.44131
 Alpha virt. eigenvalues --   17.45357  17.60048  17.60896  17.64683  17.66554
 Alpha virt. eigenvalues --   17.68711  17.71489  23.60584  23.76529  23.90852
 Alpha virt. eigenvalues --   23.94187  23.99174  24.17733  24.21033  24.28702
 Alpha virt. eigenvalues --   24.28943  24.30505  50.08501 189.34509 189.36056
 Alpha virt. eigenvalues --  189.37632
          Condensed to atoms (all electrons):
               1          2          3          4          5          6
     1  C    8.302077  -2.987939   0.595546  -0.776706   0.400052   0.586389
     2  C   -2.987939  13.739587  -3.089142   1.870691  -0.053724  -1.868418
     3  C    0.595546  -3.089142  10.275433  -1.135661  -0.011943   0.058744
     4  C   -0.776706   1.870691  -1.135661   6.313628   0.034454  -0.139913
     5  H    0.400052  -0.053724  -0.011943   0.034454   0.498309  -0.000716
     6  S    0.586389  -1.868418   0.058744  -0.139913  -0.000716  17.207968
     7  H    0.025883  -0.031602   0.031485   0.370861  -0.003729  -0.025317
     8  C    0.176870  -1.096264   1.000323  -0.227865  -0.007108   0.052318
     9  S   -0.074656   0.161180   0.720093   0.074797  -0.000218  -0.054011
    10  C    0.034964  -0.154360  -1.184313  -0.017223  -0.000157   0.126649
    11  C   -0.181552  -0.506277   1.640123   0.025709  -0.000182  -0.055599
    12  C    0.244943   0.032792  -2.998577  -0.191325   0.000655   0.334551
    13  H   -0.002011   0.015774   0.038424   0.003554  -0.000003  -0.011341
    14  S   -0.010690  -0.026276   0.011378   0.002762  -0.000002   0.002883
    15  C    0.000331  -0.026099   0.012209  -0.000849  -0.000000   0.002331
    16  C   -0.020173   0.022612  -0.211782   0.007188  -0.000014  -0.010116
    17  H   -0.000001  -0.000001  -0.000054  -0.000000   0.000000   0.000003
    18  H    0.000005  -0.000137  -0.000455  -0.000003   0.000000   0.000039
    19  O    0.082839   0.059129  -0.081750  -0.033022  -0.005069   0.038462
    20  H   -0.189162   0.167177   0.027090   0.006187   0.002973  -0.019094
               7          8          9         10         11         12
     1  C    0.025883   0.176870  -0.074656   0.034964  -0.181552   0.244943
     2  C   -0.031602  -1.096264   0.161180  -0.154360  -0.506277   0.032792
     3  C    0.031485   1.000323   0.720093  -1.184313   1.640123  -2.998577
     4  C    0.370861  -0.227865   0.074797  -0.017223   0.025709  -0.191325
     5  H   -0.003729  -0.007108  -0.000218  -0.000157  -0.000182   0.000655
     6  S   -0.025317   0.052318  -0.054011   0.126649  -0.055599   0.334551
     7  H    0.446093  -0.002464  -0.000441  -0.000153   0.000013  -0.000264
     8  C   -0.002464  11.264150   1.561951  -1.149620   3.653732  -6.405615
     9  S   -0.000441   1.561951  18.663451  -0.240051   2.691813  -4.921028
    10  C   -0.000153  -1.149620  -0.240051  19.189863  -4.828394   1.004256
    11  C    0.000013   3.653732   2.691813  -4.828394  19.639621 -12.834590
    12  C   -0.000264  -6.405615  -4.921028   1.004256 -12.834590  26.646951
    13  H    0.000000   0.069265   0.017849  -0.065272   0.108331   0.177847
    14  S   -0.000002  -0.786555   0.195916   0.304316  -0.653300  -0.447769
    15  C   -0.000000   0.179015   0.334597   1.621831  -0.083334  -1.149541
    16  C   -0.000010  -2.402898  -2.553099  -8.893814  -2.216691   5.811295
    17  H    0.000000   0.002634  -0.001501  -0.016794   0.029117   0.009642
    18  H    0.000000  -0.007411   0.017724   0.020066  -0.049264  -0.002566
    19  O   -0.000288  -0.038869  -0.036866   0.030728  -0.038046   0.068822
    20  H   -0.000012   0.018181   0.003726   0.001255   0.006630  -0.005416
              13         14         15         16         17         18
     1  C   -0.002011  -0.010690   0.000331  -0.020173  -0.000001   0.000005
     2  C    0.015774  -0.026276  -0.026099   0.022612  -0.000001  -0.000137
     3  C    0.038424   0.011378   0.012209  -0.211782  -0.000054  -0.000455
     4  C    0.003554   0.002762  -0.000849   0.007188  -0.000000  -0.000003
     5  H   -0.000003  -0.000002  -0.000000  -0.000014   0.000000   0.000000
     6  S   -0.011341   0.002883   0.002331  -0.010116   0.000003   0.000039
     7  H    0.000000  -0.000002  -0.000000  -0.000010   0.000000   0.000000
     8  C    0.069265  -0.786555   0.179015  -2.402898   0.002634  -0.007411
     9  S    0.017849   0.195916   0.334597  -2.553099  -0.001501   0.017724
    10  C   -0.065272   0.304316   1.621831  -8.893814  -0.016794   0.020066
    11  C    0.108331  -0.653300  -0.083334  -2.216691   0.029117  -0.049264
    12  C    0.177847  -0.447769  -1.149541   5.811295   0.009642  -0.002566
    13  H    0.482066   0.007369   0.002540  -0.004754  -0.000005   0.000003
    14  S    0.007369  17.492589   0.424187  -0.047149  -0.043449   0.008346
    15  C    0.002540   0.424187   5.955367  -1.470304   0.374705   0.028746
    16  C   -0.004754  -0.047149  -1.470304  17.404701   0.013392   0.345290
    17  H   -0.000005  -0.043449   0.374705   0.013392   0.443965  -0.003704
    18  H    0.000003   0.008346   0.028746   0.345290  -0.003704   0.482107
    19  O   -0.000705  -0.000860   0.000220   0.004142  -0.000000  -0.000000
    20  H    0.000188  -0.000001   0.000031   0.000507  -0.000000  -0.000000
              19         20
     1  C    0.082839  -0.189162
     2  C    0.059129   0.167177
     3  C   -0.081750   0.027090
     4  C   -0.033022   0.006187
     5  H   -0.005069   0.002973
     6  S    0.038462  -0.019094
     7  H   -0.000288  -0.000012
     8  C   -0.038869   0.018181
     9  S   -0.036866   0.003726
    10  C    0.030728   0.001255
    11  C   -0.038046   0.006630
    12  C    0.068822  -0.005416
    13  H   -0.000705   0.000188
    14  S   -0.000860  -0.000001
    15  C    0.000220   0.000031
    16  C    0.004142   0.000507
    17  H   -0.000000  -0.000000
    18  H   -0.000000  -0.000000
    19  O    7.963979   0.219402
    20  H    0.219402   0.492941
 Mulliken charges:
               1
     1  C   -0.207007
     2  C   -0.228704
     3  C    0.302828
     4  C   -0.187263
     5  H    0.146422
     6  S   -0.225815
     7  H    0.189946
     8  C    0.146230
     9  S   -0.561225
    10  C    0.216223
    11  C   -0.347862
    12  C    0.624936
    13  H    0.160880
    14  S   -0.433692
    15  C   -0.205984
    16  C    0.221675
    17  H    0.192051
    18  H    0.161213
    19  O   -0.232247
    20  H    0.267394
 Sum of Mulliken charges =  -0.00000
 Mulliken charges with hydrogens summed into heavy atoms:
               1
     1  C   -0.060586
     2  C   -0.228704
     3  C    0.302828
     4  C    0.002683
     6  S   -0.225815
     8  C    0.146230
     9  S   -0.561225
    10  C    0.216223
    11  C   -0.347862
    12  C    0.785816
    14  S   -0.433692
    15  C   -0.013932
    16  C    0.382889
    19  O    0.035148
 Electronic spatial extent (au):  <R**2>=           4271.9628
 Charge=             -0.0000 electrons
 Dipole moment (field-independent basis, Debye):
    X=              1.9762    Y=              0.9005    Z=              0.6622  Tot=              2.2704
 Quadrupole moment (field-independent basis, Debye-Ang):
   XX=            -77.8675   YY=            -97.5040   ZZ=           -102.9661
   XY=              8.0894   XZ=              1.0601   YZ=              0.4498
 Traceless Quadrupole moment (field-independent basis, Debye-Ang):
   XX=             14.9117   YY=             -4.7248   ZZ=            -10.1869
   XY=              8.0894   XZ=              1.0601   YZ=              0.4498
 Octapole moment (field-independent basis, Debye-Ang**2):
  XXX=             38.2292  YYY=             19.1561  ZZZ=              8.4733  XYY=             19.2995
  XXY=              8.6111  XXZ=             19.7343  XZZ=              9.8843  YZZ=              7.5506
  YYZ=             10.9800  XYZ=             26.4428
 Hexadecapole moment (field-independent basis, Debye-Ang**3):
 XXXX=          -3963.7061 YYYY=           -737.9297 ZZZZ=           -419.7317 XXXY=             97.2598
 XXXZ=             -8.2255 YYYX=             73.6160 YYYZ=             25.8429 ZZZX=             23.6298
 ZZZY=             17.4741 XXYY=           -843.4729 XXZZ=           -870.0843 YYZZ=           -169.6136
 XXYZ=             49.0035 YYXZ=             24.9787 ZZXY=             29.3493
 N-N= 1.128513544106D+03 E-N=-6.168887167379D+03  KE= 1.651135540872D+03
 Unable to Open any file for archive entry.
 1\1\GINC-CX3-6-23\FOpt\RwB97XD\6-311+G(d,p)\C10H6O1S3\NS5018\25-Oct-20
 21\0\\# opt=modredundant wb97xd/6-311+g(d,p)\\pBTTT_-110.pdb\\0,1\C,-4
 .1507357341,-1.3443987433,-0.0807512335\C,-2.8464029615,-0.963286263,-
 0.5139091944\C,-1.9739424928,-2.0139545391,-0.6082848187\C,-4.24742425
 78,-2.6835518194,0.1377422725\H,-4.9708216321,-0.6501718785,0.05592686
 97\S,-2.7679169829,-3.4962739457,-0.1626354068\H,-5.113898519,-3.23616
 25261,0.4678320874\C,-0.5812426188,-1.9737493942,-1.0433225022\S,-0.11
 16582329,-2.6833741715,-2.5788253245\C,1.5244311898,-2.1711314239,-2.3
 535385983\C,1.6649837655,-1.4792367135,-1.1658608735\C,0.4637660326,-1
 .3661865064,-0.413903329\H,0.3612161567,-0.8653602248,0.5383316359\S,3
 .3030782946,-0.9650048613,-0.9412673629\C,3.7659185269,-1.6932362824,-
 2.4487389932\C,2.7347220554,-2.2985458944,-3.0949900162\H,4.7936841291
 ,-1.6263967633,-2.7729914039\H,2.8346052573,-2.8028025115,-4.045765587
 \O,-2.4690600348,0.3051140551,-0.8112212483\H,-3.2323019413,0.88271040
 73,-0.7818269731\\Version=ES64L-G16RevC.01\State=1-A\HF=-1654.4105273\
 RMSD=1.631e-09\RMSF=2.963e-04\Dipole=-0.802034,0.3740906,0.1212853\Qua
 drupole=9.6335178,-4.7043984,-4.9291194,-4.2104093,-6.3511241,2.351632
 3\PG=C01 [X(C10H6O1S3)]\\@
 The archive entry for this job was punched.


 BUT 'GLORY' DOESN'T MEAN 'A NICE KNOCK DOWN ARGUMENT', ALICE OBJECTED.
 WHEN I USE A WORD, HUMPTY DUMPTY SAID, IN A RATHER SCORNFUL TONE,
 IT MEANS JUST WHAT I CHOOSE IT TO MEAN....
 NEITHER MORE NOR LESS....
 THE QUESTION IS, SAID ALICE,
 WHETHER YOU CAN MAKE WORDS MEAN SO MANY DIFFERENT THINGS...
 THE QUESTION IS, SAID HUMPTY DUMPTY,
 WHICH IS TO BE MASTER....
 THAT IS ALL.....

 ALICE THROUGH THE LOOKING GLASS
 Job cpu time:       0 days  2 hours 44 minutes 36.3 seconds.
 Elapsed time:       0 days  0 hours 20 minutes 43.2 seconds.
 File lengths (MBytes):  RWF=     86 Int=      0 D2E=      0 Chk=     11 Scr=      1
 Normal termination of Gaussian 16 at Mon Oct 25 23:46:23 2021.
