 Entering Gaussian System, Link 0=g16
 Input=pBTTT_-85.gjf
 Output=pBTTT_-85.log
 Initial command:
 /apps/gaussian/g16-c01-avx/g16/l1.exe "/tmp/pbs.4762174[90].pbs/Gau-3599708.inp" -scrdir="/tmp/pbs.4762174[90].pbs/"
 Entering Link 1 = /apps/gaussian/g16-c01-avx/g16/l1.exe PID=   3599709.
  
 Copyright (c) 1988-2019, Gaussian, Inc.  All Rights Reserved.
  
 This is part of the Gaussian(R) 16 program.  It is based on
 the Gaussian(R) 09 system (copyright 2009, Gaussian, Inc.),
 the Gaussian(R) 03 system (copyright 2003, Gaussian, Inc.),
 the Gaussian(R) 98 system (copyright 1998, Gaussian, Inc.),
 the Gaussian(R) 94 system (copyright 1995, Gaussian, Inc.),
 the Gaussian 92(TM) system (copyright 1992, Gaussian, Inc.),
 the Gaussian 90(TM) system (copyright 1990, Gaussian, Inc.),
 the Gaussian 88(TM) system (copyright 1988, Gaussian, Inc.),
 the Gaussian 86(TM) system (copyright 1986, Carnegie Mellon
 University), and the Gaussian 82(TM) system (copyright 1983,
 Carnegie Mellon University). Gaussian is a federally registered
 trademark of Gaussian, Inc.
  
 This software contains proprietary and confidential information,
 including trade secrets, belonging to Gaussian, Inc.
  
 This software is provided under written license and may be
 used, copied, transmitted, or stored only in accord with that
 written license.
  
 The following legend is applicable only to US Government
 contracts under FAR:
  
                    RESTRICTED RIGHTS LEGEND
  
 Use, reproduction and disclosure by the US Government is
 subject to restrictions as set forth in subparagraphs (a)
 and (c) of the Commercial Computer Software - Restricted
 Rights clause in FAR 52.227-19.
  
 Gaussian, Inc.
 340 Quinnipiac St., Bldg. 40, Wallingford CT 06492
  
  
 ---------------------------------------------------------------
 Warning -- This program may not be used in any manner that
 competes with the business of Gaussian, Inc. or will provide
 assistance to any competitor of Gaussian, Inc.  The licensee
 of this program is prohibited from giving any competitor of
 Gaussian, Inc. access to this program.  By using this program,
 the user acknowledges that Gaussian, Inc. is engaged in the
 business of creating and licensing software in the field of
 computational chemistry and represents and warrants to the
 licensee that it is not a competitor of Gaussian, Inc. and that
 it will not use this program in any manner prohibited above.
 ---------------------------------------------------------------
  

 Cite this work as:
 Gaussian 16, Revision C.01,
 M. J. Frisch, G. W. Trucks, H. B. Schlegel, G. E. Scuseria, 
 M. A. Robb, J. R. Cheeseman, G. Scalmani, V. Barone, 
 G. A. Petersson, H. Nakatsuji, X. Li, M. Caricato, A. V. Marenich, 
 J. Bloino, B. G. Janesko, R. Gomperts, B. Mennucci, H. P. Hratchian, 
 J. V. Ortiz, A. F. Izmaylov, J. L. Sonnenberg, D. Williams-Young, 
 F. Ding, F. Lipparini, F. Egidi, J. Goings, B. Peng, A. Petrone, 
 T. Henderson, D. Ranasinghe, V. G. Zakrzewski, J. Gao, N. Rega, 
 G. Zheng, W. Liang, M. Hada, M. Ehara, K. Toyota, R. Fukuda, 
 J. Hasegawa, M. Ishida, T. Nakajima, Y. Honda, O. Kitao, H. Nakai, 
 T. Vreven, K. Throssell, J. A. Montgomery, Jr., J. E. Peralta, 
 F. Ogliaro, M. J. Bearpark, J. J. Heyd, E. N. Brothers, K. N. Kudin, 
 V. N. Staroverov, T. A. Keith, R. Kobayashi, J. Normand, 
 K. Raghavachari, A. P. Rendell, J. C. Burant, S. S. Iyengar, 
 J. Tomasi, M. Cossi, J. M. Millam, M. Klene, C. Adamo, R. Cammi, 
 J. W. Ochterski, R. L. Martin, K. Morokuma, O. Farkas, 
 J. B. Foresman, and D. J. Fox, Gaussian, Inc., Wallingford CT, 2019.
 
 ******************************************
 Gaussian 16:  ES64L-G16RevC.01  3-Jul-2019
                25-Oct-2021 
 ******************************************
 %mem=10GB
 %nprocshared=8
 Will use up to    8 processors via shared memory.
 --------------------------------------
 # opt=modredundant wb97xd/6-311+g(d,p)
 --------------------------------------
 1/18=120,19=15,26=3,38=1/1,3;
 2/9=110,12=2,17=6,18=5,40=1/2;
 3/5=4,6=6,7=111,11=2,25=1,30=1,71=1,74=-58/1,2,3;
 4//1;
 5/5=2,38=5/2;
 6/7=2,8=2,9=2,10=2,28=1/1;
 7//1,2,3,16;
 1/18=20,19=15,26=3/3(2);
 2/9=110/2;
 99//99;
 2/9=110/2;
 3/5=4,6=6,7=111,11=2,25=1,30=1,71=1,74=-58/1,2,3;
 4/5=5,16=3,69=1/1;
 5/5=2,38=5/2;
 7//1,2,3,16;
 1/18=20,19=15,26=3/3(-5);
 2/9=110/2;
 6/7=2,8=2,9=2,10=2,19=2,28=1/1;
 99/9=1/99;
 -------------
 pBTTT_-85.pdb
 -------------
 Symbolic Z-matrix:
 Charge =  0 Multiplicity = 1
 C                    -4.25     -1.36     -0.21 
 C                    -2.93     -0.95     -0.61 
 C                    -1.97     -2.05     -0.62 
 C                    -4.33     -2.76      0.1 
 H                    -5.1      -0.7      -0.14 
 S                    -2.8      -3.56     -0.11 
 H                    -5.23     -3.27      0.41 
 C                    -0.56     -2.13     -0.97 
 S                    -0.014    -2.366    -2.658 
 C                     1.657    -2.34     -2.211 
 C                     1.843    -2.128    -0.798 
 C                     0.604    -1.991    -0.092 
 H                     0.545    -1.667     0.935 
 S                     3.372    -1.402    -0.427 
 C                     3.816    -1.372    -2.135 
 C                     2.771    -1.898    -2.983 
 H                     4.688    -0.845    -2.498 
 H                     2.736    -1.716    -4.054 
 O                    -2.4       0.49     -0.72 
 H                    -2.92      1.52     -0.76 
 
 Add virtual bond connecting atoms H20        and O19        Dist= 2.18D+00.
 The following ModRedundant input section has been read:
 D       2       3       8       9 F                                           
 

 GradGradGradGradGradGradGradGradGradGradGradGradGradGradGradGradGradGrad
 Berny optimization.
 Initialization pass.
                           ----------------------------
                           !    Initial Parameters    !
                           ! (Angstroms and Degrees)  !
 --------------------------                            --------------------------
 ! Name  Definition              Value          Derivative Info.                !
 --------------------------------------------------------------------------------
 ! R1    R(1,2)                  1.4389         estimate D2E/DX2                !
 ! R2    R(1,4)                  1.4361         estimate D2E/DX2                !
 ! R3    R(1,5)                  1.0784         estimate D2E/DX2                !
 ! R4    R(2,3)                  1.46           estimate D2E/DX2                !
 ! R5    R(2,19)                 1.5384         estimate D2E/DX2                !
 ! R6    R(3,6)                  1.797          estimate D2E/DX2                !
 ! R7    R(3,8)                  1.455          estimate D2E/DX2                !
 ! R8    R(4,6)                  1.7393         estimate D2E/DX2                !
 ! R9    R(4,7)                  1.0799         estimate D2E/DX2                !
 ! R10   R(8,9)                  1.7897         estimate D2E/DX2                !
 ! R11   R(8,12)                 1.4646         estimate D2E/DX2                !
 ! R12   R(9,10)                 1.7299         estimate D2E/DX2                !
 ! R13   R(10,11)                1.4409         estimate D2E/DX2                !
 ! R14   R(10,16)                1.4256         estimate D2E/DX2                !
 ! R15   R(11,12)                1.4326         estimate D2E/DX2                !
 ! R16   R(11,14)                1.7328         estimate D2E/DX2                !
 ! R17   R(12,13)                1.0785         estimate D2E/DX2                !
 ! R18   R(14,15)                1.765          estimate D2E/DX2                !
 ! R19   R(15,16)                1.4449         estimate D2E/DX2                !
 ! R20   R(15,17)                1.0816         estimate D2E/DX2                !
 ! R21   R(16,18)                1.0869         estimate D2E/DX2                !
 ! R22   R(19,20)                1.1545         estimate D2E/DX2                !
 ! A1    A(2,1,4)              112.8843         estimate D2E/DX2                !
 ! A2    A(2,1,5)              124.5209         estimate D2E/DX2                !
 ! A3    A(4,1,5)              122.5942         estimate D2E/DX2                !
 ! A4    A(1,2,3)              112.9799         estimate D2E/DX2                !
 ! A5    A(1,2,19)             127.059          estimate D2E/DX2                !
 ! A6    A(3,2,19)             118.5686         estimate D2E/DX2                !
 ! A7    A(2,3,6)              109.1138         estimate D2E/DX2                !
 ! A8    A(2,3,8)              132.8639         estimate D2E/DX2                !
 ! A9    A(6,3,8)              118.0132         estimate D2E/DX2                !
 ! A10   A(1,4,6)              111.9209         estimate D2E/DX2                !
 ! A11   A(1,4,7)              124.6643         estimate D2E/DX2                !
 ! A12   A(6,4,7)              123.4062         estimate D2E/DX2                !
 ! A13   A(3,6,4)               93.0997         estimate D2E/DX2                !
 ! A14   A(3,8,9)              121.9897         estimate D2E/DX2                !
 ! A15   A(3,8,12)             128.3709         estimate D2E/DX2                !
 ! A16   A(9,8,12)             109.6003         estimate D2E/DX2                !
 ! A17   A(8,9,10)              92.8083         estimate D2E/DX2                !
 ! A18   A(9,10,11)            112.3518         estimate D2E/DX2                !
 ! A19   A(9,10,16)            128.2819         estimate D2E/DX2                !
 ! A20   A(11,10,16)           112.6164         estimate D2E/DX2                !
 ! A21   A(10,11,12)           112.6876         estimate D2E/DX2                !
 ! A22   A(10,11,14)           112.6758         estimate D2E/DX2                !
 ! A23   A(12,11,14)           128.1388         estimate D2E/DX2                !
 ! A24   A(8,12,11)            112.51           estimate D2E/DX2                !
 ! A25   A(8,12,13)            123.7711         estimate D2E/DX2                !
 ! A26   A(11,12,13)           123.0463         estimate D2E/DX2                !
 ! A27   A(11,14,15)            91.255          estimate D2E/DX2                !
 ! A28   A(14,15,16)           112.3216         estimate D2E/DX2                !
 ! A29   A(14,15,17)           122.4019         estimate D2E/DX2                !
 ! A30   A(16,15,17)           124.2962         estimate D2E/DX2                !
 ! A31   A(10,16,15)           111.1123         estimate D2E/DX2                !
 ! A32   A(10,16,18)           124.0798         estimate D2E/DX2                !
 ! A33   A(15,16,18)           122.7259         estimate D2E/DX2                !
 ! A34   A(2,19,20)            133.0318         estimate D2E/DX2                !
 ! D1    D(4,1,2,3)              0.3915         estimate D2E/DX2                !
 ! D2    D(4,1,2,19)          -165.8104         estimate D2E/DX2                !
 ! D3    D(5,1,2,3)           -179.8811         estimate D2E/DX2                !
 ! D4    D(5,1,2,19)            13.9169         estimate D2E/DX2                !
 ! D5    D(2,1,4,6)             -0.3845         estimate D2E/DX2                !
 ! D6    D(2,1,4,7)           -179.3471         estimate D2E/DX2                !
 ! D7    D(5,1,4,6)            179.8822         estimate D2E/DX2                !
 ! D8    D(5,1,4,7)              0.9196         estimate D2E/DX2                !
 ! D9    D(1,2,3,6)             -0.2224         estimate D2E/DX2                !
 ! D10   D(1,2,3,8)            178.6265         estimate D2E/DX2                !
 ! D11   D(19,2,3,6)           167.2616         estimate D2E/DX2                !
 ! D12   D(19,2,3,8)           -13.8895         estimate D2E/DX2                !
 ! D13   D(1,2,19,20)          -16.0519         estimate D2E/DX2                !
 ! D14   D(3,2,19,20)          178.4264         estimate D2E/DX2                !
 ! D15   D(2,3,6,4)              0.0033         estimate D2E/DX2                !
 ! D16   D(8,3,6,4)           -179.041          estimate D2E/DX2                !
 ! D17   D(2,3,8,9)            -85.0185         Frozen                          !
 ! D18   D(2,3,8,12)            92.4617         estimate D2E/DX2                !
 ! D19   D(6,3,8,9)             93.7494         estimate D2E/DX2                !
 ! D20   D(6,3,8,12)           -88.7703         estimate D2E/DX2                !
 ! D21   D(1,4,6,3)              0.2153         estimate D2E/DX2                !
 ! D22   D(7,4,6,3)            179.1932         estimate D2E/DX2                !
 ! D23   D(3,8,9,10)           179.77           estimate D2E/DX2                !
 ! D24   D(12,8,9,10)            1.8668         estimate D2E/DX2                !
 ! D25   D(3,8,12,11)         -179.8589         estimate D2E/DX2                !
 ! D26   D(3,8,12,13)           -9.0231         estimate D2E/DX2                !
 ! D27   D(9,8,12,11)           -2.1273         estimate D2E/DX2                !
 ! D28   D(9,8,12,13)          168.7084         estimate D2E/DX2                !
 ! D29   D(8,9,10,11)           -1.1665         estimate D2E/DX2                !
 ! D30   D(8,9,10,16)         -149.8407         estimate D2E/DX2                !
 ! D31   D(9,10,11,12)           0.1222         estimate D2E/DX2                !
 ! D32   D(9,10,11,14)        -154.05           estimate D2E/DX2                !
 ! D33   D(16,10,11,12)        153.8838         estimate D2E/DX2                !
 ! D34   D(16,10,11,14)         -0.2884         estimate D2E/DX2                !
 ! D35   D(9,10,16,15)         149.745          estimate D2E/DX2                !
 ! D36   D(9,10,16,18)         -14.1814         estimate D2E/DX2                !
 ! D37   D(11,10,16,15)          1.1375         estimate D2E/DX2                !
 ! D38   D(11,10,16,18)       -162.7889         estimate D2E/DX2                !
 ! D39   D(10,11,12,8)           1.3279         estimate D2E/DX2                !
 ! D40   D(10,11,12,13)       -169.5847         estimate D2E/DX2                !
 ! D41   D(14,11,12,8)         150.5906         estimate D2E/DX2                !
 ! D42   D(14,11,12,13)        -20.322          estimate D2E/DX2                !
 ! D43   D(10,11,14,15)         -0.4905         estimate D2E/DX2                !
 ! D44   D(12,11,14,15)       -149.7561         estimate D2E/DX2                !
 ! D45   D(11,14,15,16)          1.1437         estimate D2E/DX2                !
 ! D46   D(11,14,15,17)        170.2588         estimate D2E/DX2                !
 ! D47   D(14,15,16,10)         -1.5022         estimate D2E/DX2                !
 ! D48   D(14,15,16,18)        162.6793         estimate D2E/DX2                !
 ! D49   D(17,15,16,10)       -170.3748         estimate D2E/DX2                !
 ! D50   D(17,15,16,18)         -6.1933         estimate D2E/DX2                !
 --------------------------------------------------------------------------------
 Trust Radius=3.00D-01 FncErr=1.00D-07 GrdErr=1.00D-06 EigMax=2.50D+02 EigMin=1.00D-04
 Number of steps in this run=    116 maximum allowed number of steps=    120.
 GradGradGradGradGradGradGradGradGradGradGradGradGradGradGradGradGradGrad

                          Input orientation:                          
 ---------------------------------------------------------------------
 Center     Atomic      Atomic             Coordinates (Angstroms)
 Number     Number       Type             X           Y           Z
 ---------------------------------------------------------------------
      1          6           0       -4.250000   -1.360000   -0.210000
      2          6           0       -2.930000   -0.950000   -0.610000
      3          6           0       -1.970000   -2.050000   -0.620000
      4          6           0       -4.330000   -2.760000    0.100000
      5          1           0       -5.100000   -0.700000   -0.140000
      6         16           0       -2.800000   -3.560000   -0.110000
      7          1           0       -5.230000   -3.270000    0.410000
      8          6           0       -0.560000   -2.130000   -0.970000
      9         16           0       -0.014000   -2.366000   -2.658000
     10          6           0        1.657000   -2.340000   -2.211000
     11          6           0        1.843000   -2.128000   -0.798000
     12          6           0        0.604000   -1.991000   -0.092000
     13          1           0        0.545000   -1.667000    0.935000
     14         16           0        3.372000   -1.402000   -0.427000
     15          6           0        3.816000   -1.372000   -2.135000
     16          6           0        2.771000   -1.898000   -2.983000
     17          1           0        4.688000   -0.845000   -2.498000
     18          1           0        2.736000   -1.716000   -4.054000
     19          8           0       -2.400000    0.490000   -0.720000
     20          1           0       -2.920000    1.520000   -0.760000
 ---------------------------------------------------------------------
                    Distance matrix (angstroms):
                    1          2          3          4          5
     1  C    0.000000
     2  C    1.438923   0.000000
     3  C    2.417147   1.460034   0.000000
     4  C    1.436141   2.395871   2.567509   0.000000
     5  H    1.078425   2.234346   3.442354   2.212261   0.000000
     6  S    2.636759   2.660639   1.796970   1.739253   3.670218
     7  H    2.234480   3.422397   3.630000   1.079907   2.631406
     8  C    3.845335   2.671872   1.454991   3.969219   4.831708
     9  S    4.994841   3.834373   2.842400   5.137086   5.914666
    10  C    6.313244   5.053303   3.971210   6.431274   7.255046
    11  C    6.169296   4.919813   3.817949   6.269909   7.118806
    12  C    4.896264   3.720371   2.628258   4.997257   5.848470
    13  H    4.939362   3.869979   2.981600   5.065323   5.827241
    14  S    7.625204   6.320838   5.384619   7.838539   8.505878
    15  C    8.292534   6.929085   6.019361   8.560320   9.161150
    16  C    7.567920   6.247498   5.299430   7.789232   8.454022
    17  H    9.240563   7.849171   7.021956   9.578160  10.069068
    18  H    7.981683   6.674687   5.835268   8.262809   8.817854
    19  O    2.665539   1.538376   2.578081   3.867790   3.007075
    20  H    3.219596   2.474571   3.696891   4.587603   3.172570
                    6          7          8          9         10
     6  S    0.000000
     7  H    2.501879   0.000000
     8  C    2.793224   5.001290   0.000000
     9  S    3.959765   6.118537   1.789736   0.000000
    10  C    5.076165   7.427335   2.549367   1.729950   0.000000
    11  C    4.907282   7.265725   2.409149   2.639070   1.440871
    12  C    3.748240   5.993613   1.464616   2.665878   2.391813
    13  H    3.983026   6.016299   2.250426   3.702800   3.403937
    14  S    6.546070   8.842194   4.035524   4.167932   2.646455
    15  C    7.256681   9.586947   4.591423   3.991299   2.367294
    16  C    6.484783   8.798343   3.898917   2.842688   1.425603
    17  H    8.315282  10.616205   5.614937   4.944476   3.391807
    18  H    7.042923   9.262795   4.532777   3.151796   2.224919
    19  O    4.115167   4.839773   3.211308   4.195900   5.166356
    20  H    5.122821   5.445099   4.351574   5.210397   6.160676
                   11         12         13         14         15
    11  C    0.000000
    12  C    1.432594   0.000000
    13  H    2.213733   1.078511   0.000000
    14  S    1.732789   2.849732   3.149158   0.000000
    15  C    2.500367   3.856677   4.495705   1.765021   0.000000
    16  C    2.385018   3.614197   4.512113   2.672144   1.444924
    17  H    3.553887   4.876598   5.442942   2.516177   1.081611
    18  H    3.401283   4.507604   5.449129   3.695703   2.228743
    19  O    4.986287   3.946360   4.008079   6.081241   6.641380
    20  H    5.999626   5.019155   5.003621   6.945375   7.458417
                   16         17         18         19         20
    16  C    0.000000
    17  H    2.240295   0.000000
    18  H    1.086918   2.643876   0.000000
    19  O    6.128862   7.428543   6.508494   0.000000
    20  H    7.000852   8.154479   7.301539   1.154513   0.000000
 Stoichiometry    C10H6OS3
 Framework group  C1[X(C10H6OS3)]
 Deg. of freedom    54
 Full point group                 C1      NOp   1
 Largest Abelian subgroup         C1      NOp   1
 Largest concise Abelian subgroup C1      NOp   1
                         Standard orientation:                         
 ---------------------------------------------------------------------
 Center     Atomic      Atomic             Coordinates (Angstroms)
 Number     Number       Type             X           Y           Z
 ---------------------------------------------------------------------
      1          6           0        4.000092    0.790210    0.169004
      2          6           0        2.603304    1.081656    0.354864
      3          6           0        1.731962   -0.011579   -0.066208
      4          6           0        4.228802   -0.509117   -0.398392
      5          1           0        4.803646    1.464686    0.418771
      6         16           0        2.741071   -1.362274   -0.687837
      7          1           0        5.203133   -0.924894   -0.608174
      8          6           0        0.288005   -0.189514   -0.048146
      9         16           0       -0.575087   -0.791554    1.399533
     10          6           0       -2.118045   -0.699642    0.622644
     11          6           0       -2.024710   -0.192864   -0.722931
     12          6           0       -0.678741    0.114077   -1.105660
     13          1           0       -0.431781    0.651758   -2.007378
     14         16           0       -3.488097    0.568848   -1.252887
     15          6           0       -4.272205    0.224080    0.290359
     16          6           0       -3.391465   -0.453103    1.214223
     17          1           0       -5.231054    0.645585    0.560220
     18          1           0       -3.587121   -0.504421    2.282153
     19          8           0        1.973261    2.455036    0.643784
     20          1           0        2.408896    3.461463    1.004653
 ---------------------------------------------------------------------
 Rotational constants (GHZ):           1.1735706           0.2547963           0.2493587
 Standard basis: 6-311+G(d,p) (5D, 7F)
 There are   382 symmetry adapted cartesian basis functions of A   symmetry.
 There are   368 symmetry adapted basis functions of A   symmetry.
   368 basis functions,   594 primitive gaussians,   382 cartesian basis functions
    61 alpha electrons       61 beta electrons
       nuclear repulsion energy      1100.3413025406 Hartrees.
 NAtoms=   20 NActive=   20 NUniq=   20 SFac= 1.00D+00 NAtFMM=   60 NAOKFM=F Big=F
 Integral buffers will be    131072 words long.
 Raffenetti 2 integral format.
 Two-electron integral symmetry is turned on.
 Nuclear repulsion after empirical dispersion term =     1100.3312877327 Hartrees.
 One-electron integrals computed using PRISM.
 NBasis=   368 RedAO= T EigKep=  3.92D-06  NBF=   368
 NBsUse=   367 1.00D-06 EigRej=  5.65D-07 NBFU=   367
 ExpMin= 4.05D-02 ExpMax= 9.34D+04 ExpMxC= 3.17D+03 IAcc=3 IRadAn=         5 AccDes= 0.00D+00
 Harris functional with IExCor= 4639 and IRadAn=       5 diagonalized for initial guess.
 HarFok:  IExCor= 4639 AccDes= 0.00D+00 IRadAn=         5 IDoV= 1 UseB2=F ITyADJ=14
 ICtDFT=  3500011 ScaDFX=  1.000000  1.000000  1.000000  1.000000
 FoFCou: FMM=F IPFlag=           0 FMFlag=      100000 FMFlg1=           0
         NFxFlg=           0 DoJE=T BraDBF=F KetDBF=T FulRan=T
         wScrn=  0.000000 ICntrl=       500 IOpCl=  0 I1Cent=   200000004 NGrid=           0
         NMat0=    1 NMatS0=      1 NMatT0=    0 NMatD0=    1 NMtDS0=    0 NMtDT0=    0
 Petite list used in FoFCou.
 Requested convergence on RMS density matrix=1.00D-08 within 128 cycles.
 Requested convergence on MAX density matrix=1.00D-06.
 Requested convergence on             energy=1.00D-06.
 No special actions if energy rises.
 SCF Done:  E(RwB97XD) =  -1654.29800771     A.U. after   17 cycles
            NFock= 17  Conv=0.96D-08     -V/T= 2.0030

 **********************************************************************

            Population analysis using the SCF Density.

 **********************************************************************

 Orbital symmetries:
       Occupied  (A) (A) (A) (A) (A) (A) (A) (A) (A) (A) (A) (A)
                 (A) (A) (A) (A) (A) (A) (A) (A) (A) (A) (A) (A)
                 (A) (A) (A) (A) (A) (A) (A) (A) (A) (A) (A) (A)
                 (A) (A) (A) (A) (A) (A) (A) (A) (A) (A) (A) (A)
                 (A) (A) (A) (A) (A) (A) (A) (A) (A) (A) (A) (A)
                 (A)
       Virtual   (A) (A) (A) (A) (A) (A) (A) (A) (A) (A) (A) (A)
                 (A) (A) (A) (A) (A) (A) (A) (A) (A) (A) (A) (A)
                 (A) (A) (A) (A) (A) (A) (A) (A) (A) (A) (A) (A)
                 (A) (A) (A) (A) (A) (A) (A) (A) (A) (A) (A) (A)
                 (A) (A) (A) (A) (A) (A) (A) (A) (A) (A) (A) (A)
                 (A) (A) (A) (A) (A) (A) (A) (A) (A) (A) (A) (A)
                 (A) (A) (A) (A) (A) (A) (A) (A) (A) (A) (A) (A)
                 (A) (A) (A) (A) (A) (A) (A) (A) (A) (A) (A) (A)
                 (A) (A) (A) (A) (A) (A) (A) (A) (A) (A) (A) (A)
                 (A) (A) (A) (A) (A) (A) (A) (A) (A) (A) (A) (A)
                 (A) (A) (A) (A) (A) (A) (A) (A) (A) (A) (A) (A)
                 (A) (A) (A) (A) (A) (A) (A) (A) (A) (A) (A) (A)
                 (A) (A) (A) (A) (A) (A) (A) (A) (A) (A) (A) (A)
                 (A) (A) (A) (A) (A) (A) (A) (A) (A) (A) (A) (A)
                 (A) (A) (A) (A) (A) (A) (A) (A) (A) (A) (A) (A)
                 (A) (A) (A) (A) (A) (A) (A) (A) (A) (A) (A) (A)
                 (A) (A) (A) (A) (A) (A) (A) (A) (A) (A) (A) (A)
                 (A) (A) (A) (A) (A) (A) (A) (A) (A) (A) (A) (A)
                 (A) (A) (A) (A) (A) (A) (A) (A) (A) (A) (A) (A)
                 (A) (A) (A) (A) (A) (A) (A) (A) (A) (A) (A) (A)
                 (A) (A) (A) (A) (A) (A) (A) (A) (A) (A) (A) (A)
                 (A) (A) (A) (A) (A) (A) (A) (A) (A) (A) (A) (A)
                 (A) (A) (A) (A) (A) (A) (A) (A) (A) (A) (A) (A)
                 (A) (A) (A) (A) (A) (A) (A) (A) (A) (A) (A) (A)
                 (A) (A) (A) (A) (A) (A) (A) (A) (A) (A) (A) (A)
                 (A) (A) (A) (A) (A) (A)
 The electronic state is 1-A.
 Alpha  occ. eigenvalues --  -89.06357 -89.05608 -89.05143 -19.28204 -10.39126
 Alpha  occ. eigenvalues --  -10.34906 -10.34773 -10.34034 -10.33461 -10.33175
 Alpha  occ. eigenvalues --  -10.33096 -10.31745 -10.31704 -10.31450  -8.10208
 Alpha  occ. eigenvalues --   -8.09551  -8.09080  -6.05044  -6.04675  -6.04403
 Alpha  occ. eigenvalues --   -6.04328  -6.04039  -6.03937  -6.03618  -6.03565
 Alpha  occ. eigenvalues --   -6.03141  -1.07938  -1.00379  -0.97668  -0.93270
 Alpha  occ. eigenvalues --   -0.86961  -0.84967  -0.83532  -0.80267  -0.78172
 Alpha  occ. eigenvalues --   -0.70847  -0.66994  -0.66444  -0.62744  -0.62100
 Alpha  occ. eigenvalues --   -0.60015  -0.57512  -0.54124  -0.52853  -0.51114
 Alpha  occ. eigenvalues --   -0.50396  -0.49115  -0.47627  -0.47513  -0.46698
 Alpha  occ. eigenvalues --   -0.45030  -0.44273  -0.42501  -0.42090  -0.41560
 Alpha  occ. eigenvalues --   -0.40946  -0.36561  -0.33069  -0.30745  -0.30509
 Alpha  occ. eigenvalues --   -0.28135
 Alpha virt. eigenvalues --    0.00319   0.01648   0.02612   0.05447   0.05907
 Alpha virt. eigenvalues --    0.06174   0.06549   0.07327   0.07691   0.08181
 Alpha virt. eigenvalues --    0.08465   0.09298   0.09353   0.09677   0.09905
 Alpha virt. eigenvalues --    0.10470   0.10785   0.11223   0.11923   0.12376
 Alpha virt. eigenvalues --    0.12669   0.13766   0.13977   0.14484   0.14706
 Alpha virt. eigenvalues --    0.15153   0.15249   0.16470   0.17014   0.17561
 Alpha virt. eigenvalues --    0.17837   0.18123   0.18674   0.18810   0.19190
 Alpha virt. eigenvalues --    0.19684   0.20383   0.20749   0.21160   0.21407
 Alpha virt. eigenvalues --    0.21818   0.22107   0.22907   0.23056   0.23607
 Alpha virt. eigenvalues --    0.23894   0.24384   0.24514   0.25620   0.25646
 Alpha virt. eigenvalues --    0.25951   0.26518   0.26677   0.26828   0.27522
 Alpha virt. eigenvalues --    0.27990   0.28106   0.28208   0.28442   0.28726
 Alpha virt. eigenvalues --    0.29118   0.29966   0.30444   0.31334   0.31895
 Alpha virt. eigenvalues --    0.32044   0.32929   0.33358   0.33714   0.34814
 Alpha virt. eigenvalues --    0.35032   0.35709   0.36836   0.37764   0.38838
 Alpha virt. eigenvalues --    0.40221   0.40299   0.40602   0.41704   0.42113
 Alpha virt. eigenvalues --    0.43797   0.44710   0.45001   0.45571   0.46961
 Alpha virt. eigenvalues --    0.48923   0.50509   0.51063   0.51261   0.52482
 Alpha virt. eigenvalues --    0.52731   0.53755   0.55536   0.57597   0.60603
 Alpha virt. eigenvalues --    0.61951   0.62912   0.63691   0.63972   0.64717
 Alpha virt. eigenvalues --    0.65345   0.67079   0.67253   0.67551   0.69149
 Alpha virt. eigenvalues --    0.69648   0.70633   0.71859   0.72033   0.73149
 Alpha virt. eigenvalues --    0.74619   0.75871   0.76654   0.77209   0.77921
 Alpha virt. eigenvalues --    0.78596   0.79153   0.80068   0.80628   0.80824
 Alpha virt. eigenvalues --    0.81738   0.82892   0.83401   0.84233   0.85568
 Alpha virt. eigenvalues --    0.86084   0.86393   0.88658   0.89203   0.89799
 Alpha virt. eigenvalues --    0.90364   0.90914   0.91815   0.93169   0.94524
 Alpha virt. eigenvalues --    0.95238   0.96737   0.97867   0.99325   1.00636
 Alpha virt. eigenvalues --    1.01230   1.02412   1.02609   1.02948   1.03971
 Alpha virt. eigenvalues --    1.05687   1.06844   1.08864   1.09421   1.10226
 Alpha virt. eigenvalues --    1.10791   1.11983   1.13496   1.14688   1.16403
 Alpha virt. eigenvalues --    1.19388   1.21537   1.22744   1.23780   1.27072
 Alpha virt. eigenvalues --    1.29823   1.32668   1.33747   1.37374   1.40037
 Alpha virt. eigenvalues --    1.41978   1.43700   1.46629   1.48661   1.49700
 Alpha virt. eigenvalues --    1.51688   1.55969   1.56109   1.58865   1.61226
 Alpha virt. eigenvalues --    1.61787   1.62676   1.63832   1.66177   1.67383
 Alpha virt. eigenvalues --    1.69894   1.70511   1.71194   1.73285   1.75209
 Alpha virt. eigenvalues --    1.76300   1.77272   1.78185   1.79034   1.80381
 Alpha virt. eigenvalues --    1.82344   1.82503   1.85878   1.86255   1.87882
 Alpha virt. eigenvalues --    1.89308   1.89667   1.91418   1.93436   1.94109
 Alpha virt. eigenvalues --    1.95737   1.97163   1.98516   2.00325   2.02164
 Alpha virt. eigenvalues --    2.02915   2.03843   2.05992   2.08358   2.09244
 Alpha virt. eigenvalues --    2.10623   2.11996   2.12592   2.14201   2.15014
 Alpha virt. eigenvalues --    2.17691   2.19058   2.19816   2.20776   2.22004
 Alpha virt. eigenvalues --    2.23112   2.26460   2.33778   2.35433   2.42633
 Alpha virt. eigenvalues --    2.43727   2.45867   2.47683   2.54669   2.56972
 Alpha virt. eigenvalues --    2.58795   2.62021   2.64887   2.67307   2.74501
 Alpha virt. eigenvalues --    2.77755   2.77965   2.79545   2.80497   2.81836
 Alpha virt. eigenvalues --    2.83749   2.85119   2.86115   2.86717   2.89857
 Alpha virt. eigenvalues --    2.93989   2.96262   2.98939   3.00572   3.03341
 Alpha virt. eigenvalues --    3.05165   3.07656   3.08502   3.11745   3.13469
 Alpha virt. eigenvalues --    3.13850   3.15445   3.17849   3.22992   3.30635
 Alpha virt. eigenvalues --    3.33368   3.33806   3.36489   3.42923   3.46654
 Alpha virt. eigenvalues --    3.50009   3.56332   3.65215   3.73019   3.81854
 Alpha virt. eigenvalues --    4.00325   4.04535   4.10964   4.14535   4.23039
 Alpha virt. eigenvalues --    4.40317   4.51654   5.13972   5.31240   5.55553
 Alpha virt. eigenvalues --    8.04116   8.05495   8.08042  17.42468  17.43010
 Alpha virt. eigenvalues --   17.45324  17.56534  17.57818  17.61023  17.61367
 Alpha virt. eigenvalues --   17.63355  17.65656  23.57960  23.71464  23.84836
 Alpha virt. eigenvalues --   23.90386  23.92641  23.98331  23.99671  24.07337
 Alpha virt. eigenvalues --   24.08445  24.09448  50.00195 189.28381 189.29787
 Alpha virt. eigenvalues --  189.32898
          Condensed to atoms (all electrons):
               1          2          3          4          5          6
     1  C    7.648221  -2.170272   0.460753  -0.178609   0.440567   0.291343
     2  C   -2.170272  12.868989  -3.844234   1.169347  -0.084672  -1.296295
     3  C    0.460753  -3.844234   9.936357  -1.004635   0.023889   0.377801
     4  C   -0.178609   1.169347  -1.004635   5.875634  -0.015266  -0.099814
     5  H    0.440567  -0.084672   0.023889  -0.015266   0.479266   0.001155
     6  S    0.291343  -1.296295   0.377801  -0.099814   0.001155  16.844877
     7  H    0.026047  -0.051668   0.027410   0.379948  -0.003016  -0.012074
     8  C    0.047878  -1.148692   0.833333  -0.099213  -0.005253  -0.078954
     9  S   -0.005681  -0.162528   0.328454   0.004427   0.000067   0.120403
    10  C    0.055822   0.301648  -0.710514   0.005279  -0.000009  -0.109318
    11  C   -0.172800  -0.441712   0.740904   0.030511  -0.000140   0.155937
    12  C   -0.019988   0.159250  -1.108614  -0.016149  -0.000116   0.026167
    13  H    0.001252  -0.000801   0.030252   0.000433  -0.000001  -0.000678
    14  S   -0.016836   0.015428   0.011488   0.003675  -0.000003   0.000716
    15  C    0.001466  -0.004651  -0.010699  -0.000515   0.000001  -0.000529
    16  C   -0.004291   0.158783  -0.015367   0.008036  -0.000010  -0.050327
    17  H   -0.000003  -0.000084  -0.000088  -0.000000   0.000000   0.000006
    18  H   -0.000016  -0.000540  -0.000222  -0.000007   0.000000   0.000120
    19  O   -0.185869   0.577244  -0.185393   0.019777  -0.002431   0.013261
    20  H   -0.049985  -0.045925   0.067114  -0.003376   0.000003  -0.009339
               7          8          9         10         11         12
     1  C    0.026047   0.047878  -0.005681   0.055822  -0.172800  -0.019988
     2  C   -0.051668  -1.148692  -0.162528   0.301648  -0.441712   0.159250
     3  C    0.027410   0.833333   0.328454  -0.710514   0.740904  -1.108614
     4  C    0.379948  -0.099213   0.004427   0.005279   0.030511  -0.016149
     5  H   -0.003016  -0.005253   0.000067  -0.000009  -0.000140  -0.000116
     6  S   -0.012074  -0.078954   0.120403  -0.109318   0.155937   0.026167
     7  H    0.440272  -0.002714  -0.000355  -0.000032  -0.000157  -0.000386
     8  C   -0.002714   8.202203   0.255992  -0.818945   0.860790  -1.969231
     9  S   -0.000355   0.255992  17.595534  -1.463219   2.151371  -2.334052
    10  C   -0.000032  -0.818945  -1.463219  13.369858  -6.118690   2.899235
    11  C   -0.000157   0.860790   2.151371  -6.118690  16.147899  -6.130875
    12  C   -0.000386  -1.969231  -2.334052   2.899235  -6.130875  13.787057
    13  H    0.000001   0.085333   0.010996  -0.043673   0.045525   0.232034
    14  S   -0.000004  -0.294965   0.183108   0.340086  -0.646127  -0.048383
    15  C   -0.000000   0.083869   0.003781   0.720156  -0.454315  -0.170389
    16  C   -0.000011  -0.234937  -0.400877  -2.786599  -0.324998   0.888635
    17  H   -0.000000  -0.001862   0.001672  -0.007623   0.013854   0.007121
    18  H    0.000000   0.005068   0.011236   0.018622  -0.019229  -0.005054
    19  O   -0.000131  -0.050832   0.002881   0.011378   0.007414  -0.019281
    20  H   -0.000011   0.019895   0.004819  -0.001707   0.004770  -0.001342
              13         14         15         16         17         18
     1  C    0.001252  -0.016836   0.001466  -0.004291  -0.000003  -0.000016
     2  C   -0.000801   0.015428  -0.004651   0.158783  -0.000084  -0.000540
     3  C    0.030252   0.011488  -0.010699  -0.015367  -0.000088  -0.000222
     4  C    0.000433   0.003675  -0.000515   0.008036  -0.000000  -0.000007
     5  H   -0.000001  -0.000003   0.000001  -0.000010   0.000000   0.000000
     6  S   -0.000678   0.000716  -0.000529  -0.050327   0.000006   0.000120
     7  H    0.000001  -0.000004  -0.000000  -0.000011  -0.000000   0.000000
     8  C    0.085333  -0.294965   0.083869  -0.234937  -0.001862   0.005068
     9  S    0.010996   0.183108   0.003781  -0.400877   0.001672   0.011236
    10  C   -0.043673   0.340086   0.720156  -2.786599  -0.007623   0.018622
    11  C    0.045525  -0.646127  -0.454315  -0.324998   0.013854  -0.019229
    12  C    0.232034  -0.048383  -0.170389   0.888635   0.007121  -0.005054
    13  H    0.470027   0.003898   0.000127  -0.006747  -0.000003   0.000008
    14  S    0.003898  16.595852   0.384575  -0.313271  -0.024814  -0.000046
    15  C    0.000127   0.384575   5.594352  -0.215006   0.379872   0.013713
    16  C   -0.006747  -0.313271  -0.215006   9.208802  -0.005722   0.334514
    17  H   -0.000003  -0.024814   0.379872  -0.005722   0.439496  -0.002568
    18  H    0.000008  -0.000046   0.013713   0.334514  -0.002568   0.475024
    19  O   -0.000253   0.000294   0.000312  -0.005581   0.000001   0.000000
    20  H   -0.000028   0.000180  -0.000008   0.000035   0.000000  -0.000000
              19         20
     1  C   -0.185869  -0.049985
     2  C    0.577244  -0.045925
     3  C   -0.185393   0.067114
     4  C    0.019777  -0.003376
     5  H   -0.002431   0.000003
     6  S    0.013261  -0.009339
     7  H   -0.000131  -0.000011
     8  C   -0.050832   0.019895
     9  S    0.002881   0.004819
    10  C    0.011378  -0.001707
    11  C    0.007414   0.004770
    12  C   -0.019281  -0.001342
    13  H   -0.000253  -0.000028
    14  S    0.000294   0.000180
    15  C    0.000312  -0.000008
    16  C   -0.005581   0.000035
    17  H    0.000001   0.000000
    18  H    0.000000  -0.000000
    19  O    7.990554   0.226466
    20  H    0.226466   0.474218
 Mulliken charges:
               1
     1  C   -0.168998
     2  C    0.001387
     3  C    0.042010
     4  C   -0.079483
     5  H    0.165968
     6  S   -0.174457
     7  H    0.196880
     8  C    0.311238
     9  S   -0.308030
    10  C    0.338244
    11  C    0.150067
    12  C   -0.175637
    13  H    0.172299
    14  S   -0.194848
    15  C   -0.326110
    16  C   -0.235060
    17  H    0.200744
    18  H    0.169377
    19  O   -0.399812
    20  H    0.314221
 Sum of Mulliken charges =  -0.00000
 Mulliken charges with hydrogens summed into heavy atoms:
               1
     1  C   -0.003030
     2  C    0.001387
     3  C    0.042010
     4  C    0.117397
     6  S   -0.174457
     8  C    0.311238
     9  S   -0.308030
    10  C    0.338244
    11  C    0.150067
    12  C   -0.003338
    14  S   -0.194848
    15  C   -0.125366
    16  C   -0.065684
    19  O   -0.085591
 Electronic spatial extent (au):  <R**2>=           4392.2143
 Charge=             -0.0000 electrons
 Dipole moment (field-independent basis, Debye):
    X=              1.8393    Y=              1.9565    Z=              0.6472  Tot=              2.7622
 Quadrupole moment (field-independent basis, Debye-Ang):
   XX=            -80.7213   YY=            -97.1989   ZZ=           -100.5488
   XY=              1.6955   XZ=             -2.9028   YZ=              2.3517
 Traceless Quadrupole moment (field-independent basis, Debye-Ang):
   XX=             12.1017   YY=             -4.3759   ZZ=             -7.7258
   XY=              1.6955   XZ=             -2.9028   YZ=              2.3517
 Octapole moment (field-independent basis, Debye-Ang**2):
  XXX=             54.7068  YYY=             52.0488  ZZZ=              5.9287  XYY=             40.5633
  XXY=             36.8555  XXZ=             20.6249  XZZ=            -10.3371  YZZ=              6.9619
  YYZ=             12.4173  XYZ=             18.7085
 Hexadecapole moment (field-independent basis, Debye-Ang**3):
 XXXX=          -4121.3574 YYYY=           -524.7006 ZZZZ=           -598.4240 XXXY=            -71.5662
 XXXZ=            -85.5986 YYYX=            117.7674 YYYZ=             72.4713 ZZZX=            -15.9154
 ZZZY=             -6.7441 XXYY=           -831.2620 XXZZ=           -909.2469 YYZZ=           -207.4587
 XXYZ=             55.0815 YYXZ=             40.7324 ZZXY=              9.6325
 N-N= 1.100331287733D+03 E-N=-6.110945983428D+03  KE= 1.649269257068D+03
 Calling FoFJK, ICntrl=      2127 FMM=F ISym2X=0 I1Cent= 0 IOpClX= 0 NMat=1 NMatS=1 NMatT=0.
 ***** Axes restored to original set *****
 -------------------------------------------------------------------
 Center     Atomic                   Forces (Hartrees/Bohr)
 Number     Number              X              Y              Z
 -------------------------------------------------------------------
      1        6           0.016493802   -0.044555131    0.005491314
      2        6           0.034718824    0.021696396    0.012688602
      3        6          -0.047294525    0.025712982    0.004550911
      4        6           0.018779710    0.054523385   -0.018351164
      5        1          -0.000508629    0.001812588    0.000696761
      6       16          -0.007711873    0.033191522   -0.006906477
      7        1           0.002346362   -0.002818397    0.000280358
      8        6           0.066490467    0.012342197    0.028644210
      9       16          -0.005110646   -0.006232492    0.019963089
     10        6           0.010651461    0.022506229    0.030030582
     11        6          -0.030241752    0.006474226   -0.029034621
     12        6          -0.041897315   -0.009126216   -0.048334295
     13        1          -0.005234584   -0.004075600    0.003024936
     14       16           0.006633906   -0.008051703   -0.021539615
     15        6          -0.054051931   -0.020975740   -0.029467645
     16        6           0.039341888    0.027998099    0.040658539
     17        1           0.003063839   -0.004716038    0.004627783
     18        1           0.005309165   -0.007295914    0.002716463
     19        8          -0.035411215    0.013408361   -0.003783618
     20        1           0.023633047   -0.111818754    0.004043887
 -------------------------------------------------------------------
 Cartesian Forces:  Max     0.111818754 RMS     0.028517288

 GradGradGradGradGradGradGradGradGradGradGradGradGradGradGradGradGradGrad
 Berny optimization.
 FormGI is forming the generalized inverse of G from B-inverse, IUseBI=4.
 Internal  Forces:  Max     0.110544032 RMS     0.021914620
 Search for a local minimum.
 Step number   1 out of a maximum of  116
 All quantities printed in internal units (Hartrees-Bohrs-Radians)
 Mixed Optimization -- RFO/linear search
 Second derivative matrix not updated -- first step.
 ITU=  0
     Eigenvalues ---    0.00230   0.00994   0.01058   0.01222   0.01273
     Eigenvalues ---    0.01298   0.01362   0.01422   0.01458   0.01492
     Eigenvalues ---    0.01500   0.01592   0.01597   0.01772   0.02202
     Eigenvalues ---    0.02656   0.15085   0.15687   0.15738   0.15997
     Eigenvalues ---    0.16000   0.16000   0.17986   0.22442   0.22526
     Eigenvalues ---    0.23317   0.23978   0.24118   0.24633   0.24978
     Eigenvalues ---    0.24995   0.26145   0.26591   0.28307   0.28398
     Eigenvalues ---    0.28663   0.30910   0.31278   0.31579   0.34814
     Eigenvalues ---    0.35171   0.35800   0.35872   0.36006   0.36175
     Eigenvalues ---    0.36185   0.36315   0.37598   0.38290   0.38435
     Eigenvalues ---    0.39456   0.39701   0.406851000.000001000.00000
     Eigenvalues --- 1000.000001000.000001000.000001000.000001000.00000
     Eigenvalues --- 1000.000001000.000001000.000001000.000001000.00000
     Eigenvalues --- 1000.000001000.000001000.000001000.000001000.00000
     Eigenvalues --- 1000.000001000.000001000.000001000.000001000.00000
     Eigenvalues --- 1000.000001000.000001000.000001000.000001000.00000
     Eigenvalues --- 1000.000001000.000001000.000001000.000001000.00000
     Eigenvalues --- 1000.000001000.000001000.000001000.000001000.00000
     Eigenvalues --- 1000.000001000.000001000.000001000.000001000.00000
     Eigenvalues --- 1000.000001000.000001000.000001000.000001000.00000
     Eigenvalues --- 1000.000001000.000001000.000001000.000001000.00000
     Eigenvalues --- 1000.00000
 RFO step:  Lambda=-1.22645192D-01 EMin= 2.30000000D-03
 Linear search not attempted -- first point.
 Maximum step size (   0.300) exceeded in Quadratic search.
    -- Step size scaled by   0.558
 Iteration  1 RMS(Cart)=  0.05715636 RMS(Int)=  0.00168011
 Iteration  2 RMS(Cart)=  0.00193642 RMS(Int)=  0.00010085
 Iteration  3 RMS(Cart)=  0.00001169 RMS(Int)=  0.00010052
 Iteration  4 RMS(Cart)=  0.00000000 RMS(Int)=  0.00010052
 Iteration  1 RMS(Cart)=  0.00000056 RMS(Int)=  0.00000024
 Variable       Old X    -DE/DX   Delta X   Delta X   Delta X     New X
                                 (Linear)    (Quad)   (Total)
    R1        2.71917  -0.02473   0.00000  -0.02781  -0.02773   2.69144
    R2        2.71391  -0.06068   0.00000  -0.06509  -0.06508   2.64884
    R3        2.03793   0.00156   0.00000   0.00179   0.00179   2.03972
    R4        2.75906  -0.07352   0.00000  -0.08390  -0.08385   2.67521
    R5        2.90711  -0.09619   0.00000  -0.13115  -0.13115   2.77596
    R6        3.39578  -0.02947   0.00000  -0.04135  -0.04140   3.35439
    R7        2.74954  -0.00569   0.00000  -0.00636  -0.00636   2.74317
    R8        3.28671  -0.01925   0.00000  -0.02341  -0.02348   3.26323
    R9        2.04073  -0.00054   0.00000  -0.00063  -0.00063   2.04010
   R10        3.38211  -0.01842   0.00000  -0.02484  -0.02491   3.35720
   R11        2.76772  -0.07398   0.00000  -0.08512  -0.08514   2.68258
   R12        3.26913  -0.00715   0.00000  -0.00810  -0.00810   3.26103
   R13        2.72285  -0.03913   0.00000  -0.04317  -0.04302   2.67983
   R14        2.69400  -0.00218   0.00000  -0.00330  -0.00322   2.69078
   R15        2.70721  -0.01312   0.00000  -0.01503  -0.01498   2.69223
   R16        3.27450  -0.00449   0.00000  -0.00463  -0.00465   3.26985
   R17        2.03809   0.00194   0.00000   0.00224   0.00224   2.04033
   R18        3.33541  -0.01793   0.00000  -0.02333  -0.02343   3.31198
   R19        2.73051  -0.06578   0.00000  -0.07224  -0.07226   2.65825
   R20        2.04395  -0.00138   0.00000  -0.00160  -0.00160   2.04235
   R21        2.05398  -0.00407   0.00000  -0.00479  -0.00479   2.04919
   R22        2.18171  -0.11054   0.00000  -0.15204  -0.15204   2.02967
    A1        1.97020  -0.00391   0.00000  -0.00917  -0.00906   1.96114
    A2        2.17330   0.00104   0.00000   0.00278   0.00273   2.17603
    A3        2.13967   0.00287   0.00000   0.00640   0.00634   2.14602
    A4        1.97187   0.01550   0.00000   0.02138   0.02150   1.99337
    A5        2.21760  -0.00423   0.00000  -0.00431  -0.00442   2.21318
    A6        2.06941  -0.01041   0.00000  -0.01374  -0.01387   2.05555
    A7        1.90440  -0.00495   0.00000  -0.00714  -0.00712   1.89728
    A8        2.31891  -0.00756   0.00000  -0.01147  -0.01149   2.30743
    A9        2.05972   0.01250   0.00000   0.01857   0.01856   2.07827
   A10        1.95339  -0.00132   0.00000  -0.00170  -0.00174   1.95165
   A11        2.17580   0.00436   0.00000   0.00816   0.00818   2.18398
   A12        2.15384  -0.00304   0.00000  -0.00647  -0.00645   2.14740
   A13        1.62490  -0.00532   0.00000  -0.00336  -0.00357   1.62133
   A14        2.12912  -0.00472   0.00000  -0.00682  -0.00684   2.12228
   A15        2.24049  -0.00424   0.00000  -0.00610  -0.00612   2.23437
   A16        1.91289   0.00902   0.00000   0.01317   0.01320   1.92608
   A17        1.61981  -0.00716   0.00000  -0.00824  -0.00819   1.61162
   A18        1.96091  -0.01045   0.00000  -0.01344  -0.01365   1.94726
   A19        2.23894   0.00862   0.00000   0.01872   0.01845   2.25740
   A20        1.96553   0.00564   0.00000   0.00823   0.00828   1.97381
   A21        1.96677   0.00728   0.00000   0.00989   0.00990   1.97667
   A22        1.96656  -0.01295   0.00000  -0.01708  -0.01721   1.94935
   A23        2.23644   0.00914   0.00000   0.01920   0.01896   2.25541
   A24        1.96367   0.00134   0.00000  -0.00128  -0.00117   1.96250
   A25        2.16021  -0.00523   0.00000  -0.00780  -0.00791   2.15230
   A26        2.14756   0.00446   0.00000   0.01137   0.01126   2.15882
   A27        1.59270   0.00057   0.00000   0.00245   0.00246   1.59516
   A28        1.96038   0.00199   0.00000   0.00210   0.00206   1.96244
   A29        2.13632  -0.00470   0.00000  -0.00747  -0.00760   2.12872
   A30        2.16938   0.00378   0.00000   0.00950   0.00941   2.17879
   A31        1.93928   0.00475   0.00000   0.00430   0.00440   1.94368
   A32        2.16560   0.00043   0.00000   0.00522   0.00501   2.17061
   A33        2.14197  -0.00334   0.00000  -0.00244  -0.00267   2.13930
   A34        2.32184  -0.06381   0.00000  -0.12598  -0.12598   2.19586
    D1        0.00683  -0.00084   0.00000  -0.00299  -0.00298   0.00385
    D2       -2.89394  -0.00397   0.00000  -0.01783  -0.01789  -2.91183
    D3       -3.13952   0.00022   0.00000   0.00143   0.00144  -3.13808
    D4        0.24290  -0.00292   0.00000  -0.01340  -0.01347   0.22942
    D5       -0.00671   0.00041   0.00000   0.00109   0.00103  -0.00568
    D6       -3.13020   0.00043   0.00000   0.00162   0.00160  -3.12860
    D7        3.13954  -0.00061   0.00000  -0.00323  -0.00328   3.13625
    D8        0.01605  -0.00059   0.00000  -0.00270  -0.00272   0.01333
    D9       -0.00388   0.00097   0.00000   0.00358   0.00356  -0.00032
   D10        3.11762   0.00039   0.00000   0.00082   0.00085   3.11847
   D11        2.91927   0.00435   0.00000   0.01793   0.01790   2.93716
   D12       -0.24242   0.00377   0.00000   0.01517   0.01518  -0.22724
   D13       -0.28016   0.00187   0.00000   0.00387   0.00378  -0.27638
   D14        3.11413  -0.00459   0.00000  -0.01600  -0.01591   3.09821
   D15        0.00006  -0.00064   0.00000  -0.00255  -0.00253  -0.00247
   D16       -3.12486   0.00007   0.00000   0.00008   0.00012  -3.12473
   D17       -1.48385  -0.00017   0.00000   0.00000   0.00000  -1.48385
   D18        1.61376   0.00209   0.00000   0.00870   0.00870   1.62246
   D19        1.63624  -0.00097   0.00000  -0.00322  -0.00321   1.63302
   D20       -1.54933   0.00130   0.00000   0.00548   0.00548  -1.54386
   D21        0.00376   0.00018   0.00000   0.00095   0.00095   0.00470
   D22        3.12751   0.00025   0.00000   0.00060   0.00057   3.12808
   D23        3.13758   0.00091   0.00000   0.00389   0.00390   3.14147
   D24        0.03258  -0.00073   0.00000  -0.00300  -0.00305   0.02953
   D25       -3.13913  -0.00165   0.00000  -0.00604  -0.00601   3.13804
   D26       -0.15748   0.00267   0.00000   0.01057   0.01053  -0.14695
   D27       -0.03713   0.00014   0.00000   0.00143   0.00153  -0.03560
   D28        2.94452   0.00447   0.00000   0.01805   0.01807   2.96259
   D29       -0.02036   0.00160   0.00000   0.00446   0.00443  -0.01593
   D30       -2.61521  -0.00728   0.00000  -0.02526  -0.02530  -2.64052
   D31        0.00213  -0.00137   0.00000  -0.00392  -0.00388  -0.00174
   D32       -2.68868  -0.01042   0.00000  -0.03152  -0.03116  -2.71984
   D33        2.68578   0.00801   0.00000   0.02574   0.02550   2.71128
   D34       -0.00503  -0.00103   0.00000  -0.00186  -0.00179  -0.00682
   D35        2.61354   0.00574   0.00000   0.02582   0.02608   2.63962
   D36       -0.24751  -0.00072   0.00000  -0.00041  -0.00029  -0.24780
   D37        0.01985   0.00089   0.00000   0.00148   0.00143   0.02128
   D38       -2.84120  -0.00557   0.00000  -0.02474  -0.02494  -2.86614
   D39        0.02318   0.00082   0.00000   0.00152   0.00147   0.02465
   D40       -2.95981  -0.00244   0.00000  -0.01293  -0.01311  -2.97292
   D41        2.62830   0.00445   0.00000   0.02222   0.02249   2.65079
   D42       -0.35469   0.00118   0.00000   0.00777   0.00791  -0.34678
   D43       -0.00856   0.00097   0.00000   0.00162   0.00158  -0.00698
   D44       -2.61374  -0.00768   0.00000  -0.02578  -0.02574  -2.63947
   D45        0.01996  -0.00033   0.00000  -0.00062  -0.00063   0.01933
   D46        2.97158   0.00600   0.00000   0.02324   0.02310   2.99468
   D47       -0.02622  -0.00013   0.00000  -0.00022  -0.00017  -0.02638
   D48        2.83929   0.00691   0.00000   0.02701   0.02707   2.86636
   D49       -2.97360  -0.00551   0.00000  -0.02242  -0.02250  -2.99610
   D50       -0.10809   0.00153   0.00000   0.00481   0.00473  -0.10336
         Item               Value     Threshold  Converged?
 Maximum Force            0.110544     0.000450     NO 
 RMS     Force            0.022019     0.000300     NO 
 Maximum Displacement     0.425765     0.001800     NO 
 RMS     Displacement     0.057161     0.001200     NO 
 Predicted change in Energy=-5.539730D-02
 GradGradGradGradGradGradGradGradGradGradGradGradGradGradGradGradGradGrad

                          Input orientation:                          
 ---------------------------------------------------------------------
 Center     Atomic      Atomic             Coordinates (Angstroms)
 Number     Number       Type             X           Y           Z
 ---------------------------------------------------------------------
      1          6           0       -4.207217   -1.344684   -0.204627
      2          6           0       -2.891102   -0.969528   -0.599071
      3          6           0       -1.962329   -2.037844   -0.612499
      4          6           0       -4.305090   -2.710311    0.095798
      5          1           0       -5.045111   -0.667446   -0.138831
      6         16           0       -2.796209   -3.523447   -0.114019
      7          1           0       -5.207905   -3.215369    0.404541
      8          6           0       -0.556256   -2.103234   -0.967315
      9         16           0       -0.030094   -2.324320   -2.649701
     10          6           0        1.637452   -2.292073   -2.206796
     11          6           0        1.802729   -2.096249   -0.812034
     12          6           0        0.568551   -1.971163   -0.111442
     13          1           0        0.494760   -1.669622    0.922661
     14         16           0        3.346022   -1.407069   -0.441473
     15          6           0        3.790652   -1.384093   -2.136603
     16          6           0        2.765393   -1.871499   -2.967293
     17          1           0        4.687303   -0.892412   -2.486338
     18          1           0        2.753848   -1.705799   -4.038881
     19          8           0       -2.365025    0.396467   -0.722275
     20          1           0       -2.952370    1.294695   -0.764802
 ---------------------------------------------------------------------
                    Distance matrix (angstroms):
                    1          2          3          4          5
     1  C    0.000000
     2  C    1.424249   0.000000
     3  C    2.384608   1.415662   0.000000
     4  C    1.401703   2.347877   2.538193   0.000000
     5  H    1.079373   2.223247   3.406742   2.185401   0.000000
     6  S    2.597337   2.601303   1.775064   1.726827   3.635232
     7  H    2.207243   3.379144   3.599264   1.079575   2.610300
     8  C    3.806128   2.621526   1.451624   3.943667   4.785153
     9  S    4.938262   3.771725   2.822374   5.095325   5.848084
    10  C    6.250311   4.984146   3.945230   6.386756   7.181402
    11  C    6.087138   4.831864   3.770794   6.205375   7.027631
    12  C    4.817585   3.634592   2.580864   4.933727   5.763127
    13  H    4.846127   3.777547   2.920546   4.980491   5.728986
    14  S    7.557209   6.254438   5.348431   7.779885   8.429101
    15  C    8.228000   6.868894   5.987242   8.501970   9.087099
    16  C    7.518454   6.198223   5.284324   7.750991   8.393683
    17  H    9.193652   7.810246   7.002920   9.530756  10.014054
    18  H    7.955397   6.651305   5.838894   8.242161   8.781362
    19  O    2.587129   1.468972   2.469835   3.753021   2.941969
    20  H    2.975695   2.271107   3.479827   4.313996   2.936222
                    6          7          8          9         10
     6  S    0.000000
     7  H    2.485979   0.000000
     8  C    2.786129   4.975608   0.000000
     9  S    3.939414   6.077178   1.776554   0.000000
    10  C    5.055032   7.384475   2.526722   1.725663   0.000000
    11  C    4.865630   7.202880   2.364101   2.605432   1.418106
    12  C    3.705564   5.931420   1.419561   2.631701   2.374034
    13  H    3.916867   5.931119   2.205598   3.669587   3.389202
    14  S    6.504866   8.783812   3.998615   4.137122   2.611285
    15  C    7.214875   9.528117   4.558509   3.968046   2.337868
    16  C    6.465410   8.760636   3.884194   2.849677   1.423900
    17  H    8.279686  10.567329   5.591818   4.932634   3.367311
    18  H    7.036443   9.241879   4.533129   3.172180   2.224094
    19  O    3.990190   4.732551   3.095189   4.070571   5.044984
    20  H    4.864401   5.176435   4.162727   5.018945   6.000893
                   11         12         13         14         15
    11  C    0.000000
    12  C    1.424665   0.000000
    13  H    2.214037   1.079695   0.000000
    14  S    1.730328   2.853325   3.171670   0.000000
    15  C    2.492686   3.850696   4.505943   1.752624   0.000000
    16  C    2.371155   3.604433   4.508689   2.632982   1.406687
    17  H    3.545882   4.875238   5.459189   2.499076   1.080763
    18  H    3.386683   4.502302   5.451760   3.658040   2.190233
    19  O    4.857145   3.818987   3.892673   5.995635   6.562246
    20  H    5.840523   4.846607   4.849476   6.861036   7.384178
                   16         17         18         19         20
    16  C    0.000000
    17  H    2.209902   0.000000
    18  H    1.084385   2.609643   0.000000
    19  O    6.041934   7.382984   6.451532   0.000000
    20  H    6.896997   8.130912   7.230732   1.074056   0.000000
 Stoichiometry    C10H6OS3
 Framework group  C1[X(C10H6OS3)]
 Deg. of freedom    54
 Full point group                 C1      NOp   1
 Largest Abelian subgroup         C1      NOp   1
 Largest concise Abelian subgroup C1      NOp   1
                         Standard orientation:                         
 ---------------------------------------------------------------------
 Center     Atomic      Atomic             Coordinates (Angstroms)
 Number     Number       Type             X           Y           Z
 ---------------------------------------------------------------------
      1          6           0        3.955654    0.785926    0.207196
      2          6           0        2.565377    1.034621    0.390949
      3          6           0        1.723444   -0.005019   -0.072082
      4          6           0        4.199788   -0.450578   -0.406179
      5          1           0        4.744446    1.461775    0.500593
      6         16           0        2.734715   -1.299962   -0.743875
      7          1           0        5.177053   -0.849907   -0.631945
      8          6           0        0.281425   -0.171182   -0.058501
      9         16           0       -0.565954   -0.833651    1.355441
     10          6           0       -2.104603   -0.695932    0.586348
     11          6           0       -1.990157   -0.138514   -0.712579
     12          6           0       -0.648299    0.175744   -1.073591
     13          1           0       -0.381658    0.741049   -1.953974
     14         16           0       -3.464047    0.614259   -1.217571
     15          6           0       -4.249913    0.184267    0.288820
     16          6           0       -3.389675   -0.499248    1.167208
     17          1           0       -5.228783    0.559873    0.551082
     18          1           0       -3.610336   -0.623416    2.221618
     19          8           0        1.939757    2.315686    0.744999
     20          1           0        2.447542    3.174291    1.143182
 ---------------------------------------------------------------------
 Rotational constants (GHZ):           1.2305736           0.2585635           0.2544165
 Standard basis: 6-311+G(d,p) (5D, 7F)
 There are   382 symmetry adapted cartesian basis functions of A   symmetry.
 There are   368 symmetry adapted basis functions of A   symmetry.
   368 basis functions,   594 primitive gaussians,   382 cartesian basis functions
    61 alpha electrons       61 beta electrons
       nuclear repulsion energy      1114.1301549390 Hartrees.
 NAtoms=   20 NActive=   20 NUniq=   20 SFac= 1.00D+00 NAtFMM=   60 NAOKFM=F Big=F
 Integral buffers will be    131072 words long.
 Raffenetti 2 integral format.
 Two-electron integral symmetry is turned on.
 Nuclear repulsion after empirical dispersion term =     1114.1199609874 Hartrees.
 One-electron integrals computed using PRISM.
 NBasis=   368 RedAO= T EigKep=  3.13D-06  NBF=   368
 NBsUse=   367 1.00D-06 EigRej=  4.93D-07 NBFU=   367
 Initial guess from the checkpoint file:  "/tmp/pbs.4762174[90].pbs/Gau-3599709.chk"
 B after Tr=     0.000000   -0.000000   -0.000000
         Rot=    0.999702   -0.024376    0.000785   -0.000645 Ang=  -2.80 deg.
 ExpMin= 4.05D-02 ExpMax= 9.34D+04 ExpMxC= 3.17D+03 IAcc=3 IRadAn=         5 AccDes= 0.00D+00
 Harris functional with IExCor= 4639 and IRadAn=       5 diagonalized for initial guess.
 HarFok:  IExCor= 4639 AccDes= 0.00D+00 IRadAn=         5 IDoV= 1 UseB2=F ITyADJ=14
 ICtDFT=  3500011 ScaDFX=  1.000000  1.000000  1.000000  1.000000
 FoFCou: FMM=F IPFlag=           0 FMFlag=      100000 FMFlg1=           0
         NFxFlg=           0 DoJE=T BraDBF=F KetDBF=T FulRan=T
         wScrn=  0.000000 ICntrl=       500 IOpCl=  0 I1Cent=   200000004 NGrid=           0
         NMat0=    1 NMatS0=      1 NMatT0=    0 NMatD0=    1 NMtDS0=    0 NMtDT0=    0
 Petite list used in FoFCou.
 Requested convergence on RMS density matrix=1.00D-08 within 128 cycles.
 Requested convergence on MAX density matrix=1.00D-06.
 Requested convergence on             energy=1.00D-06.
 No special actions if energy rises.
 SCF Done:  E(RwB97XD) =  -1654.35678044     A.U. after   15 cycles
            NFock= 15  Conv=0.57D-08     -V/T= 2.0026
 Calling FoFJK, ICntrl=      2127 FMM=F ISym2X=0 I1Cent= 0 IOpClX= 0 NMat=1 NMatS=1 NMatT=0.
 ***** Axes restored to original set *****
 -------------------------------------------------------------------
 Center     Atomic                   Forces (Hartrees/Bohr)
 Number     Number              X              Y              Z
 -------------------------------------------------------------------
      1        6           0.004866903   -0.028341214    0.003894355
      2        6           0.033953257    0.034469151    0.008601632
      3        6          -0.036561322    0.010161452    0.002972951
      4        6           0.010838465    0.033541730   -0.011932882
      5        1          -0.000125772    0.001814453    0.000668170
      6       16          -0.003753609    0.017709333   -0.004400116
      7        1           0.002069971   -0.002992004    0.000397633
      8        6           0.046367513    0.009046327    0.018184925
      9       16          -0.006561941   -0.006789008    0.011592573
     10        6           0.005266448    0.017262413    0.020495378
     11        6          -0.016449878    0.007627326   -0.021767393
     12        6          -0.029456107   -0.005669638   -0.028654861
     13        1          -0.003442605   -0.004211411    0.002208906
     14       16           0.007881378   -0.006119188   -0.011144595
     15        6          -0.035597993   -0.011902369   -0.019445489
     16        6           0.025932712    0.019142480    0.024265784
     17        1           0.002937288   -0.004046245    0.004119145
     18        1           0.003731056   -0.007200348    0.001056273
     19        8          -0.038338123    0.010752896   -0.004947449
     20        1           0.026442359   -0.084256135    0.003835058
 -------------------------------------------------------------------
 Cartesian Forces:  Max     0.084256135 RMS     0.020702271

 GradGradGradGradGradGradGradGradGradGradGradGradGradGradGradGradGradGrad
 Berny optimization.
 Using GEDIIS/GDIIS optimizer.
 FormGI is forming the generalized inverse of G from B-inverse, IUseBI=4.
 Internal  Forces:  Max     0.085075127 RMS     0.015124443
 Search for a local minimum.
 Step number   2 out of a maximum of  116
 All quantities printed in internal units (Hartrees-Bohrs-Radians)
 Mixed Optimization -- RFO/linear search
 Update second derivatives using D2CorX and points    1    2
 DE= -5.88D-02 DEPred=-5.54D-02 R= 1.06D+00
 TightC=F SS=  1.41D+00  RLast= 3.14D-01 DXNew= 5.0454D-01 9.4250D-01
 Trust test= 1.06D+00 RLast= 3.14D-01 DXMaxT set to 5.05D-01
 ITU=  1  0
 Use linear search instead of GDIIS.
     Eigenvalues ---    0.00230   0.00995   0.01054   0.01219   0.01271
     Eigenvalues ---    0.01294   0.01346   0.01404   0.01460   0.01487
     Eigenvalues ---    0.01498   0.01592   0.01594   0.01743   0.02127
     Eigenvalues ---    0.02512   0.14628   0.15268   0.15753   0.15822
     Eigenvalues ---    0.15999   0.16021   0.18292   0.20933   0.22456
     Eigenvalues ---    0.22541   0.23390   0.24116   0.24317   0.24977
     Eigenvalues ---    0.25008   0.25533   0.26243   0.26652   0.28439
     Eigenvalues ---    0.28535   0.30900   0.31285   0.31556   0.34853
     Eigenvalues ---    0.35174   0.35800   0.36005   0.36071   0.36175
     Eigenvalues ---    0.36184   0.36424   0.37565   0.38187   0.39296
     Eigenvalues ---    0.39552   0.40595   0.431881000.000001000.00000
     Eigenvalues --- 1000.000001000.000001000.000001000.000001000.00000
     Eigenvalues --- 1000.000001000.000001000.000001000.000001000.00000
     Eigenvalues --- 1000.000001000.000001000.000001000.000001000.00000
     Eigenvalues --- 1000.000001000.000001000.000001000.000001000.00000
     Eigenvalues --- 1000.000001000.000001000.000001000.000001000.00000
     Eigenvalues --- 1000.000001000.000001000.000001000.000001000.00000
     Eigenvalues --- 1000.000001000.000001000.000001000.000001000.00000
     Eigenvalues --- 1000.000001000.000001000.000001000.000001000.00000
     Eigenvalues --- 1000.000001000.000001000.000001000.000001000.00000
     Eigenvalues --- 1000.000001000.000001000.000001000.000001000.00000
     Eigenvalues --- 1000.00000
 RFO step:  Lambda=-9.90574024D-03 EMin= 2.30061210D-03
 Quartic linear search produced a step of  1.48798.
 Iteration  1 RMS(Cart)=  0.08629328 RMS(Int)=  0.01858470
 Iteration  2 RMS(Cart)=  0.02244028 RMS(Int)=  0.00095543
 Iteration  3 RMS(Cart)=  0.00033991 RMS(Int)=  0.00091113
 Iteration  4 RMS(Cart)=  0.00000046 RMS(Int)=  0.00091113
 Iteration  1 RMS(Cart)=  0.00001908 RMS(Int)=  0.00000837
 Iteration  2 RMS(Cart)=  0.00001043 RMS(Int)=  0.00000934
 Iteration  3 RMS(Cart)=  0.00000570 RMS(Int)=  0.00001056
 Iteration  4 RMS(Cart)=  0.00000311 RMS(Int)=  0.00001136
 Iteration  5 RMS(Cart)=  0.00000170 RMS(Int)=  0.00001183
 Iteration  6 RMS(Cart)=  0.00000093 RMS(Int)=  0.00001209
 Variable       Old X    -DE/DX   Delta X   Delta X   Delta X     New X
                                 (Linear)    (Quad)   (Total)
    R1        2.69144  -0.00963  -0.04126   0.03882  -0.00210   2.68934
    R2        2.64884  -0.03481  -0.09683   0.02560  -0.07136   2.57747
    R3        2.03972   0.00128   0.00267   0.00178   0.00444   2.04416
    R4        2.67521  -0.04322  -0.12477   0.02846  -0.09591   2.57930
    R5        2.77596  -0.07252  -0.19515  -0.07108  -0.26624   2.50972
    R6        3.35439  -0.01743  -0.06160   0.01987  -0.04178   3.31260
    R7        2.74317   0.00004  -0.00947   0.02383   0.01436   2.75753
    R8        3.26323  -0.01097  -0.03494   0.01244  -0.02294   3.24029
    R9        2.04010  -0.00022  -0.00094   0.00091  -0.00003   2.04007
   R10        3.35720  -0.01178  -0.03707   0.00622  -0.03166   3.32555
   R11        2.68258  -0.04656  -0.12669   0.01088  -0.11632   2.56626
   R12        3.26103  -0.00165  -0.01205   0.02106   0.00922   3.27025
   R13        2.67983  -0.02381  -0.06401   0.00507  -0.05736   2.62247
   R14        2.69078   0.00070  -0.00479   0.01198   0.00770   2.69848
   R15        2.69223  -0.00455  -0.02230   0.02296   0.00108   2.69331
   R16        3.26985  -0.00053  -0.00692   0.01653   0.00965   3.27950
   R17        2.04033   0.00117   0.00333  -0.00057   0.00276   2.04309
   R18        3.31198  -0.01096  -0.03486   0.00962  -0.02602   3.28596
   R19        2.65825  -0.04026  -0.10752   0.01470  -0.09318   2.56507
   R20        2.04235  -0.00074  -0.00239   0.00108  -0.00131   2.04104
   R21        2.04919  -0.00218  -0.00712   0.00318  -0.00395   2.04524
   R22        2.02967  -0.08508  -0.22623  -0.09648  -0.32271   1.70696
    A1        1.96114  -0.00205  -0.01348   0.00864  -0.00433   1.95681
    A2        2.17603  -0.00009   0.00406  -0.01111  -0.00734   2.16869
    A3        2.14602   0.00215   0.00944   0.00247   0.01163   2.15765
    A4        1.99337   0.00604   0.03199  -0.03729  -0.00608   1.98729
    A5        2.21318  -0.00378  -0.00658  -0.00486  -0.01394   2.19924
    A6        2.05555  -0.00144  -0.02063   0.05863   0.03584   2.09138
    A7        1.89728   0.00035  -0.01059   0.03253   0.02263   1.91991
    A8        2.30743  -0.00854  -0.01709  -0.03120  -0.04866   2.25876
    A9        2.07827   0.00818   0.02761  -0.00107   0.02617   2.10444
   A10        1.95165   0.00015  -0.00259   0.01060   0.00783   1.95948
   A11        2.18398   0.00364   0.01217   0.01038   0.02264   2.20662
   A12        2.14740  -0.00380  -0.00959  -0.02102  -0.03052   2.11687
   A13        1.62133  -0.00449  -0.00531  -0.01451  -0.02022   1.60111
   A14        2.12228  -0.00423  -0.01018  -0.01015  -0.02034   2.10194
   A15        2.23437  -0.00243  -0.00911   0.00385  -0.00526   2.22912
   A16        1.92608   0.00672   0.01964   0.00637   0.02590   1.95199
   A17        1.61162  -0.00489  -0.01218  -0.00626  -0.01777   1.59385
   A18        1.94726  -0.00618  -0.02031   0.01018  -0.01126   1.93601
   A19        2.25740   0.00659   0.02746   0.01703   0.04152   2.29892
   A20        1.97381   0.00284   0.01232  -0.00812   0.00393   1.97774
   A21        1.97667   0.00339   0.01473  -0.01019   0.00391   1.98058
   A22        1.94935  -0.00724  -0.02561   0.01660  -0.01012   1.93923
   A23        2.25541   0.00687   0.02821   0.01693   0.04201   2.29742
   A24        1.96250   0.00099  -0.00174   0.00074  -0.00018   1.96231
   A25        2.15230  -0.00335  -0.01177   0.00554  -0.00701   2.14530
   A26        2.15882   0.00283   0.01676  -0.00455   0.01141   2.17023
   A27        1.59516  -0.00068   0.00366  -0.01559  -0.01115   1.58401
   A28        1.96244   0.00246   0.00307   0.01421   0.01676   1.97921
   A29        2.12872  -0.00472  -0.01130  -0.01736  -0.02986   2.09886
   A30        2.17879   0.00313   0.01401   0.00880   0.02181   2.20060
   A31        1.94368   0.00263   0.00655  -0.00648   0.00086   1.94453
   A32        2.17061   0.00004   0.00746  -0.00498   0.00085   2.17146
   A33        2.13930  -0.00118  -0.00397   0.01699   0.01150   2.15080
   A34        2.19586  -0.04861  -0.18746  -0.04567  -0.23312   1.96274
    D1        0.00385  -0.00044  -0.00444   0.02017   0.01562   0.01947
    D2       -2.91183  -0.00474  -0.02662  -0.07385  -0.09908  -3.01091
    D3       -3.13808   0.00057   0.00214   0.02306   0.02476  -3.11333
    D4        0.22942  -0.00373  -0.02005  -0.07096  -0.08994   0.13948
    D5       -0.00568   0.00010   0.00154  -0.00893  -0.00712  -0.01280
    D6       -3.12860   0.00031   0.00238  -0.00634  -0.00396  -3.13256
    D7        3.13625  -0.00089  -0.00489  -0.01176  -0.01619   3.12006
    D8        0.01333  -0.00069  -0.00404  -0.00916  -0.01303   0.00031
    D9       -0.00032   0.00059   0.00530  -0.02156  -0.01647  -0.01679
   D10        3.11847   0.00034   0.00126  -0.00740  -0.00661   3.11186
   D11        2.93716   0.00403   0.02663   0.05596   0.08397   3.02113
   D12       -0.22724   0.00378   0.02258   0.07013   0.09383  -0.13341
   D13       -0.27638   0.00154   0.00563   0.07058   0.07654  -0.19984
   D14        3.09821  -0.00373  -0.02368  -0.01519  -0.03920   3.05902
   D15       -0.00247  -0.00043  -0.00376   0.01381   0.01047   0.00800
   D16       -3.12473   0.00002   0.00018   0.00234   0.00276  -3.12198
   D17       -1.48385  -0.00033   0.00000   0.00000   0.00000  -1.48385
   D18        1.62246   0.00177   0.01294   0.00266   0.01574   1.63819
   D19        1.63302  -0.00071  -0.00478   0.01564   0.01059   1.64361
   D20       -1.54386   0.00139   0.00815   0.01830   0.02633  -1.51753
   D21        0.00470   0.00021   0.00141  -0.00299  -0.00177   0.00293
   D22        3.12808   0.00010   0.00085  -0.00514  -0.00411   3.12397
   D23        3.14147   0.00076   0.00580  -0.01530  -0.00964   3.13183
   D24        0.02953  -0.00087  -0.00454  -0.01755  -0.02263   0.00690
   D25        3.13804  -0.00120  -0.00894   0.02214   0.01325  -3.13189
   D26       -0.14695   0.00262   0.01567   0.03458   0.05008  -0.09687
   D27       -0.03560   0.00054   0.00227   0.02427   0.02715  -0.00845
   D28        2.96259   0.00436   0.02689   0.03672   0.06398   3.02657
   D29       -0.01593   0.00125   0.00659   0.00623   0.01252  -0.00341
   D30       -2.64052  -0.00633  -0.03765  -0.03489  -0.07360  -2.71412
   D31       -0.00174  -0.00090  -0.00577   0.00683   0.00108  -0.00067
   D32       -2.71984  -0.00861  -0.04637  -0.04298  -0.08654  -2.80638
   D33        2.71128   0.00711   0.03794   0.04783   0.08328   2.79455
   D34       -0.00682  -0.00061  -0.00266  -0.00198  -0.00434  -0.01116
   D35        2.63962   0.00593   0.03881   0.03130   0.07153   2.71115
   D36       -0.24780  -0.00020  -0.00042   0.00548   0.00608  -0.24172
   D37        0.02128   0.00034   0.00213  -0.01474  -0.01296   0.00832
   D38       -2.86614  -0.00578  -0.03710  -0.04056  -0.07841  -2.94455
   D39        0.02465   0.00024   0.00219  -0.02056  -0.01865   0.00599
   D40       -2.97292  -0.00300  -0.01951  -0.03403  -0.05432  -3.02724
   D41        2.65079   0.00513   0.03346   0.03796   0.07283   2.72361
   D42       -0.34678   0.00189   0.01177   0.02449   0.03716  -0.30962
   D43       -0.00698   0.00073   0.00236   0.01351   0.01548   0.00850
   D44       -2.63947  -0.00651  -0.03830  -0.03801  -0.07722  -2.71670
   D45        0.01933  -0.00045  -0.00094  -0.02203  -0.02323  -0.00391
   D46        2.99468   0.00533   0.03438   0.01426   0.04710   3.04178
   D47       -0.02638   0.00022  -0.00025   0.02453   0.02472  -0.00166
   D48        2.86636   0.00641   0.04027   0.04617   0.08748   2.95383
   D49       -2.99610  -0.00488  -0.03348  -0.01007  -0.04462  -3.04072
   D50       -0.10336   0.00131   0.00705   0.01156   0.01814  -0.08522
         Item               Value     Threshold  Converged?
 Maximum Force            0.085075     0.000450     NO 
 RMS     Force            0.015196     0.000300     NO 
 Maximum Displacement     0.775130     0.001800     NO 
 RMS     Displacement     0.098925     0.001200     NO 
 Predicted change in Energy=-5.945276D-02
 GradGradGradGradGradGradGradGradGradGradGradGradGradGradGradGradGradGrad

                          Input orientation:                          
 ---------------------------------------------------------------------
 Center     Atomic      Atomic             Coordinates (Angstroms)
 Number     Number       Type             X           Y           Z
 ---------------------------------------------------------------------
      1          6           0       -4.150360   -1.302222   -0.188745
      2          6           0       -2.822097   -0.959793   -0.567927
      3          6           0       -1.962882   -2.020130   -0.588132
      4          6           0       -4.275983   -2.629289    0.100117
      5          1           0       -4.970675   -0.598672   -0.141600
      6         16           0       -2.801283   -3.480634   -0.101447
      7          1           0       -5.179326   -3.136658    0.403428
      8          6           0       -0.551117   -2.061861   -0.954882
      9         16           0       -0.072534   -2.239507   -2.639016
     10          6           0        1.603148   -2.181526   -2.210637
     11          6           0        1.759371   -2.028640   -0.840207
     12          6           0        0.524387   -1.957039   -0.132399
     13          1           0        0.437922   -1.737992    0.922797
     14         16           0        3.345532   -1.440006   -0.453761
     15          6           0        3.765301   -1.395964   -2.140614
     16          6           0        2.762365   -1.809038   -2.956681
     17          1           0        4.711126   -0.980160   -2.455377
     18          1           0        2.785277   -1.689167   -4.032075
     19          8           0       -2.360053    0.268784   -0.770234
     20          1           0       -3.020119    0.884514   -0.803608
 ---------------------------------------------------------------------
                    Distance matrix (angstroms):
                    1          2          3          4          5
     1  C    0.000000
     2  C    1.423137   0.000000
     3  C    2.336655   1.364908   0.000000
     4  C    1.363939   2.312420   2.489015   0.000000
     5  H    1.081723   2.220034   3.356599   2.159730   0.000000
     6  S    2.563807   2.563723   1.752955   1.714689   3.607435
     7  H    2.185084   3.352432   3.546172   1.079560   2.604220
     8  C    3.757467   2.553749   1.459221   3.912751   4.725975
     9  S    4.848814   3.672489   2.797797   5.032272   5.737701
    10  C    6.161499   4.875851   3.921115   6.332792   7.071173
    11  C    5.989742   4.712369   3.730789   6.137629   6.915663
    12  C    4.720722   3.518969   2.529463   4.852787   5.660473
    13  H    4.741071   3.668184   2.850678   4.867455   5.628847
    14  S    7.501841   6.187349   5.341710   7.733607   8.364484
    15  C    8.153297   6.786560   5.967568   8.438259   8.997167
    16  C    7.463517   6.132991   5.289853   7.717199   8.318027
    17  H    9.152446   7.766101   7.007890   9.487798   9.961745
    18  H    7.938764   6.631361   5.874972   8.235304   8.745272
    19  O    2.451813   1.328086   2.330243   3.581497   2.821880
    20  H    2.537186   1.869820   3.098570   3.839365   2.538260
                    6          7          8          9         10
     6  S    0.000000
     7  H    2.455261   0.000000
     8  C    2.793656   4.941711   0.000000
     9  S    3.927559   6.011711   1.759803   0.000000
    10  C    5.053254   7.331273   2.496417   1.730543   0.000000
    11  C    4.842894   7.135815   2.313571   2.576054   1.387753
    12  C    3.658194   5.849013   1.358005   2.592148   2.352274
    13  H    3.818157   5.812012   2.146804   3.632986   3.372370
    14  S    6.486264   8.734221   3.977651   4.134938   2.583093
    15  C    7.184989   9.460894   4.525577   3.960927   2.301503
    16  C    6.473080   8.724870   3.879469   2.884937   1.427975
    17  H    8.260124  10.518759   5.577882   4.950058   3.341064
    18  H    7.061787   9.230591   4.554069   3.226542   2.226540
    19  O    3.834070   4.574146   2.956053   3.875128   4.877063
    20  H    4.426673   4.721115   3.847074   4.670812   5.723192
                   11         12         13         14         15
    11  C    0.000000
    12  C    1.425239   0.000000
    13  H    2.222361   1.081154   0.000000
    14  S    1.735436   2.886080   3.230774   0.000000
    15  C    2.472870   3.853733   4.535738   1.738855   0.000000
    16  C    2.352378   3.606524   4.523099   2.596320   1.357378
    17  H    3.524335   4.886645   5.499694   2.466327   1.080071
    18  H    3.369828   4.515623   5.482993   3.630468   2.150357
    19  O    4.717278   3.698800   3.836948   5.964379   6.493788
    20  H    5.597440   4.592219   4.670767   6.785816   7.282176
[...]
    20  H    7.012221   8.727850   7.511887   0.957517   0.000000
 Stoichiometry    C10H6OS3
 Framework group  C1[X(C10H6OS3)]
 Deg. of freedom    54
 Full point group                 C1      NOp   1
 Largest Abelian subgroup         C1      NOp   1
 Largest concise Abelian subgroup C1      NOp   1
                         Standard orientation:                         
 ---------------------------------------------------------------------
 Center     Atomic      Atomic             Coordinates (Angstroms)
 Number     Number       Type             X           Y           Z
 ---------------------------------------------------------------------
      1          6           0        3.962738    0.387027   -0.549416
      2          6           0        2.586459    0.724521   -0.712396
      3          6           0        1.737213   -0.101583   -0.027931
      4          6           0        4.132653   -0.692231    0.261398
      5          1           0        4.778340    0.923783   -1.018307
      6         16           0        2.640596   -1.311807    0.834535
      7          1           0        5.062447   -1.159071    0.549183
      8          6           0        0.277005   -0.044006    0.020932
      9         16           0       -0.523371    1.011526    1.170750
     10          6           0       -2.076806    0.506999    0.604883
     11          6           0       -1.953986   -0.424478   -0.408336
     12          6           0       -0.609347   -0.743476   -0.742446
     13          1           0       -0.299007   -1.442068   -1.506940
     14         16           0       -3.510177   -0.927847   -0.977571
     15          6           0       -4.294658    0.125624    0.158966
     16          6           0       -3.426220    0.827525    0.933593
     17          1           0       -5.373491    0.162897    0.185100
     18          1           0       -3.733340    1.531082    1.694432
     19          8           0        2.122815    1.749870   -1.468325
     20          1           0        2.859467    2.238918   -1.835767
 ---------------------------------------------------------------------
 Rotational constants (GHZ):           1.3109271           0.2593846           0.2548048

 **********************************************************************

            Population analysis using the SCF Density.

 **********************************************************************

 Orbital symmetries:
       Occupied  (A) (A) (A) (A) (A) (A) (A) (A) (A) (A) (A) (A)
                 (A) (A) (A) (A) (A) (A) (A) (A) (A) (A) (A) (A)
                 (A) (A) (A) (A) (A) (A) (A) (A) (A) (A) (A) (A)
                 (A) (A) (A) (A) (A) (A) (A) (A) (A) (A) (A) (A)
                 (A) (A) (A) (A) (A) (A) (A) (A) (A) (A) (A) (A)
                 (A)
       Virtual   (A) (A) (A) (A) (A) (A) (A) (A) (A) (A) (A) (A)
                 (A) (A) (A) (A) (A) (A) (A) (A) (A) (A) (A) (A)
                 (A) (A) (A) (A) (A) (A) (A) (A) (A) (A) (A) (A)
                 (A) (A) (A) (A) (A) (A) (A) (A) (A) (A) (A) (A)
                 (A) (A) (A) (A) (A) (A) (A) (A) (A) (A) (A) (A)
                 (A) (A) (A) (A) (A) (A) (A) (A) (A) (A) (A) (A)
                 (A) (A) (A) (A) (A) (A) (A) (A) (A) (A) (A) (A)
                 (A) (A) (A) (A) (A) (A) (A) (A) (A) (A) (A) (A)
                 (A) (A) (A) (A) (A) (A) (A) (A) (A) (A) (A) (A)
                 (A) (A) (A) (A) (A) (A) (A) (A) (A) (A) (A) (A)
                 (A) (A) (A) (A) (A) (A) (A) (A) (A) (A) (A) (A)
                 (A) (A) (A) (A) (A) (A) (A) (A) (A) (A) (A) (A)
                 (A) (A) (A) (A) (A) (A) (A) (A) (A) (A) (A) (A)
                 (A) (A) (A) (A) (A) (A) (A) (A) (A) (A) (A) (A)
                 (A) (A) (A) (A) (A) (A) (A) (A) (A) (A) (A) (A)
                 (A) (A) (A) (A) (A) (A) (A) (A) (A) (A) (A) (A)
                 (A) (A) (A) (A) (A) (A) (A) (A) (A) (A) (A) (A)
                 (A) (A) (A) (A) (A) (A) (A) (A) (A) (A) (A) (A)
                 (A) (A) (A) (A) (A) (A) (A) (A) (A) (A) (A) (A)
                 (A) (A) (A) (A) (A) (A) (A) (A) (A) (A) (A) (A)
                 (A) (A) (A) (A) (A) (A) (A) (A) (A) (A) (A) (A)
                 (A) (A) (A) (A) (A) (A) (A) (A) (A) (A) (A) (A)
                 (A) (A) (A) (A) (A) (A) (A) (A) (A) (A) (A) (A)
                 (A) (A) (A) (A) (A) (A) (A) (A) (A) (A) (A) (A)
                 (A) (A) (A) (A) (A) (A) (A) (A) (A) (A) (A) (A)
                 (A) (A) (A) (A) (A) (A)
 The electronic state is 1-A.
 Alpha  occ. eigenvalues --  -89.05118 -89.04705 -89.04414 -19.28989 -10.36045
 Alpha  occ. eigenvalues --  -10.33148 -10.32675 -10.32108 -10.32010 -10.31983
 Alpha  occ. eigenvalues --  -10.31903 -10.30284 -10.30155 -10.30111  -8.09176
 Alpha  occ. eigenvalues --   -8.08751  -8.08456  -6.04010  -6.03629  -6.03599
 Alpha  occ. eigenvalues --   -6.03307  -6.03272  -6.03227  -6.02935  -6.02813
 Alpha  occ. eigenvalues --   -6.02508  -1.18162  -1.01742  -0.99617  -0.94963
 Alpha  occ. eigenvalues --   -0.86844  -0.85911  -0.83862  -0.80617  -0.79871
 Alpha  occ. eigenvalues --   -0.70866  -0.70037  -0.66211  -0.64775  -0.62818
 Alpha  occ. eigenvalues --   -0.60763  -0.58101  -0.56963  -0.53542  -0.52518
 Alpha  occ. eigenvalues --   -0.51858  -0.49851  -0.49655  -0.47366  -0.47004
 Alpha  occ. eigenvalues --   -0.45782  -0.44928  -0.44296  -0.44002  -0.41880
 Alpha  occ. eigenvalues --   -0.41660  -0.36441  -0.33242  -0.30508  -0.30422
 Alpha  occ. eigenvalues --   -0.29210
 Alpha virt. eigenvalues --    0.02664   0.03786   0.05001   0.05985   0.06209
 Alpha virt. eigenvalues --    0.06616   0.07383   0.07469   0.08053   0.09042
 Alpha virt. eigenvalues --    0.09241   0.09499   0.09875   0.10299   0.10863
 Alpha virt. eigenvalues --    0.10996   0.11276   0.11964   0.12249   0.12379
 Alpha virt. eigenvalues --    0.13693   0.14467   0.14620   0.14801   0.15011
 Alpha virt. eigenvalues --    0.15349   0.16078   0.16840   0.17433   0.17984
 Alpha virt. eigenvalues --    0.18399   0.18511   0.19125   0.19314   0.19940
 Alpha virt. eigenvalues --    0.20224   0.20655   0.21131   0.21491   0.21686
 Alpha virt. eigenvalues --    0.21797   0.22354   0.23214   0.23454   0.23635
 Alpha virt. eigenvalues --    0.24127   0.24613   0.25182   0.25382   0.25601
 Alpha virt. eigenvalues --    0.26211   0.26809   0.27126   0.27384   0.27534
 Alpha virt. eigenvalues --    0.27987   0.28624   0.29287   0.29560   0.30709
 Alpha virt. eigenvalues --    0.30826   0.31381   0.31541   0.31744   0.33224
 Alpha virt. eigenvalues --    0.33814   0.34308   0.35255   0.36184   0.36323
 Alpha virt. eigenvalues --    0.37522   0.37803   0.38882   0.39885   0.40470
 Alpha virt. eigenvalues --    0.40859   0.41913   0.42673   0.43034   0.43627
 Alpha virt. eigenvalues --    0.44434   0.46085   0.47545   0.49019   0.50579
 Alpha virt. eigenvalues --    0.50943   0.52501   0.53480   0.54335   0.54998
 Alpha virt. eigenvalues --    0.56057   0.57645   0.58042   0.60730   0.61024
 Alpha virt. eigenvalues --    0.63544   0.64127   0.64351   0.64727   0.66510
 Alpha virt. eigenvalues --    0.67184   0.67644   0.67755   0.69494   0.69638
 Alpha virt. eigenvalues --    0.70520   0.71726   0.72187   0.73441   0.74489
 Alpha virt. eigenvalues --    0.74945   0.77523   0.78864   0.79134   0.80232
 Alpha virt. eigenvalues --    0.80999   0.81760   0.81919   0.82548   0.83719
 Alpha virt. eigenvalues --    0.84860   0.85763   0.87063   0.87649   0.88131
 Alpha virt. eigenvalues --    0.89454   0.90086   0.91140   0.91421   0.91794
 Alpha virt. eigenvalues --    0.92389   0.93416   0.94030   0.94716   0.95112
 Alpha virt. eigenvalues --    0.97057   0.98007   0.99057   1.00419   1.01958
 Alpha virt. eigenvalues --    1.02974   1.04634   1.05541   1.05867   1.07236
 Alpha virt. eigenvalues --    1.09438   1.10756   1.11934   1.12493   1.13651
 Alpha virt. eigenvalues --    1.14273   1.15512   1.15880   1.17395   1.18811
 Alpha virt. eigenvalues --    1.19727   1.21466   1.23192   1.25404   1.27157
 Alpha virt. eigenvalues --    1.28118   1.29789   1.33045   1.37989   1.39063
 Alpha virt. eigenvalues --    1.43479   1.43803   1.45141   1.46513   1.49068
 Alpha virt. eigenvalues --    1.52044   1.55873   1.58746   1.60536   1.63549
 Alpha virt. eigenvalues --    1.65282   1.66668   1.68487   1.68986   1.69466
 Alpha virt. eigenvalues --    1.71812   1.72618   1.74051   1.77096   1.78310
 Alpha virt. eigenvalues --    1.80495   1.81289   1.82029   1.82930   1.84008
 Alpha virt. eigenvalues --    1.86350   1.86807   1.87609   1.88666   1.90587
 Alpha virt. eigenvalues --    1.93453   1.94683   1.96653   1.97720   1.98909
 Alpha virt. eigenvalues --    2.00354   2.01765   2.03332   2.06058   2.06924
 Alpha virt. eigenvalues --    2.08911   2.09206   2.11350   2.13486   2.15069
 Alpha virt. eigenvalues --    2.15693   2.17478   2.18203   2.18811   2.19828
 Alpha virt. eigenvalues --    2.21050   2.22932   2.24289   2.25985   2.26885
 Alpha virt. eigenvalues --    2.28614   2.29233   2.37647   2.42647   2.47248
 Alpha virt. eigenvalues --    2.51082   2.52529   2.53817   2.60170   2.63097
 Alpha virt. eigenvalues --    2.66039   2.68202   2.72418   2.73152   2.79587
 Alpha virt. eigenvalues --    2.80117   2.80920   2.81505   2.82324   2.83477
 Alpha virt. eigenvalues --    2.84754   2.87985   2.88984   2.94300   2.98545
 Alpha virt. eigenvalues --    3.00797   3.02839   3.06037   3.07834   3.08613
 Alpha virt. eigenvalues --    3.13319   3.17281   3.18127   3.22698   3.23259
 Alpha virt. eigenvalues --    3.27296   3.27946   3.30965   3.40592   3.41267
 Alpha virt. eigenvalues --    3.41995   3.42863   3.47483   3.54699   3.57665
 Alpha virt. eigenvalues --    3.58522   3.62931   3.68628   3.81210   3.98086
 Alpha virt. eigenvalues --    4.04430   4.08689   4.15859   4.21557   4.30506
 Alpha virt. eigenvalues --    4.45745   4.59231   5.12592   5.58143   5.86268
 Alpha virt. eigenvalues --    8.09385   8.10919   8.12338  17.42677  17.43832
 Alpha virt. eigenvalues --   17.45438  17.60228  17.60907  17.64652  17.66364
 Alpha virt. eigenvalues --   17.68836  17.71473  23.60784  23.76538  23.90716
 Alpha virt. eigenvalues --   23.94096  23.99152  24.17616  24.21062  24.28829
 Alpha virt. eigenvalues --   24.29436  24.30699  50.08395 189.33998 189.36023
 Alpha virt. eigenvalues --  189.37861
          Condensed to atoms (all electrons):
               1          2          3          4          5          6
     1  C    8.663783  -3.031935   0.496005  -0.703196   0.401782   0.534670
     2  C   -3.031935  13.579370  -2.990434   1.742845  -0.051844  -1.567747
     3  C    0.496005  -2.990434   9.998428  -1.118000  -0.012444   0.313188
     4  C   -0.703196   1.742845  -1.118000   6.267555   0.035286  -0.086816
     5  H    0.401782  -0.051844  -0.012444   0.035286   0.498545  -0.000496
     6  S    0.534670  -1.567747   0.313188  -0.086816  -0.000496  16.795937
     7  H    0.033326  -0.042588   0.030291   0.364697  -0.003734  -0.019413
     8  C    0.236657  -1.351889   1.306182  -0.317081  -0.010541  -0.019681
     9  S   -0.153088   0.325107   0.635702   0.059738   0.000031  -0.007064
    10  C    0.024231  -0.094953  -1.423295  -0.013391  -0.000445   0.011892
    11  C   -0.248769  -0.073613   1.554549   0.096161   0.000316   0.063232
    12  C   -0.029065  -0.066166  -2.978269  -0.077671  -0.000803   0.066892
    13  H    0.002014  -0.002567   0.056286   0.002297   0.000001  -0.002681
    14  S   -0.012407  -0.010828   0.001390   0.003823  -0.000002  -0.001680
    15  C   -0.003660  -0.002576   0.010638   0.000939   0.000001  -0.002890
    16  C    0.000980  -0.114765  -0.216707  -0.001142  -0.000032   0.021358
    17  H    0.000001  -0.000007  -0.000079  -0.000000   0.000000   0.000010
    18  H   -0.000014  -0.000067  -0.000561   0.000003   0.000000  -0.000027
    19  O    0.120810  -0.021134   0.036111  -0.038939  -0.005037   0.047506
    20  H   -0.224092   0.223550  -0.020090   0.016678   0.003251  -0.021475
               7          8          9         10         11         12
     1  C    0.033326   0.236657  -0.153088   0.024231  -0.248769  -0.029065
     2  C   -0.042588  -1.351889   0.325107  -0.094953  -0.073613  -0.066166
     3  C    0.030291   1.306182   0.635702  -1.423295   1.554549  -2.978269
     4  C    0.364697  -0.317081   0.059738  -0.013391   0.096161  -0.077671
     5  H   -0.003734  -0.010541   0.000031  -0.000445   0.000316  -0.000803
     6  S   -0.019413  -0.019681  -0.007064   0.011892   0.063232   0.066892
     7  H    0.447021   0.002130  -0.000345   0.000094  -0.000544  -0.000510
     8  C    0.002130  11.570968   1.107392  -0.959937   3.004596  -5.853491
     9  S   -0.000345   1.107392  18.368430  -0.384552   2.933759  -4.733764
    10  C    0.000094  -0.959937  -0.384552  20.955248  -4.747405   0.246799
    11  C   -0.000544   3.004596   2.933759  -4.747405  21.703612 -14.111426
    12  C   -0.000510  -5.853491  -4.733764   0.246799 -14.111426  27.754920
    13  H   -0.000001   0.089077   0.022516  -0.065941   0.107522   0.152092
    14  S   -0.000001  -0.770146   0.233802   0.307704  -0.685251  -0.436321
    15  C   -0.000001   0.071756   0.355325   1.826563  -0.070811  -1.203239
    16  C    0.000004  -2.462080  -2.277842  -9.996974  -3.001105   6.791955
    17  H    0.000000   0.003439  -0.001419  -0.012373   0.028946   0.008586
    18  H    0.000000  -0.006540   0.012821   0.020241  -0.046753  -0.004738
    19  O   -0.000306  -0.027469  -0.013556  -0.000086   0.025282  -0.055226
    20  H   -0.000011   0.011877   0.008324   0.003780   0.001693   0.017399
              13         14         15         16         17         18
     1  C    0.002014  -0.012407  -0.003660   0.000980   0.000001  -0.000014
     2  C   -0.002567  -0.010828  -0.002576  -0.114765  -0.000007  -0.000067
     3  C    0.056286   0.001390   0.010638  -0.216707  -0.000079  -0.000561
     4  C    0.002297   0.003823   0.000939  -0.001142  -0.000000   0.000003
     5  H    0.000001  -0.000002   0.000001  -0.000032   0.000000   0.000000
     6  S   -0.002681  -0.001680  -0.002890   0.021358   0.000010  -0.000027
     7  H   -0.000001  -0.000001  -0.000001   0.000004   0.000000   0.000000
     8  C    0.089077  -0.770146   0.071756  -2.462080   0.003439  -0.006540
     9  S    0.022516   0.233802   0.355325  -2.277842  -0.001419   0.012821
    10  C   -0.065941   0.307704   1.826563  -9.996974  -0.012373   0.020241
    11  C    0.107522  -0.685251  -0.070811  -3.001105   0.028946  -0.046753
    12  C    0.152092  -0.436321  -1.203239   6.791955   0.008586  -0.004738
    13  H    0.478964   0.005274   0.002204  -0.009634  -0.000004   0.000004
    14  S    0.005274  17.425946   0.461824  -0.059513  -0.043345   0.008448
    15  C    0.002204   0.461824   5.940318  -1.583441   0.373018   0.030726
    16  C   -0.009634  -0.059513  -1.583441  18.371854   0.010551   0.347020
    17  H   -0.000004  -0.043345   0.373018   0.010551   0.444100  -0.003722
    18  H    0.000004   0.008448   0.030726   0.347020  -0.003722   0.481473
    19  O   -0.000109  -0.000311   0.000437  -0.002426  -0.000000   0.000003
    20  H   -0.000036   0.000117   0.000084   0.000158  -0.000000   0.000000
              19         20
     1  C    0.120810  -0.224092
     2  C   -0.021134   0.223550
     3  C    0.036111  -0.020090
     4  C   -0.038939   0.016678
     5  H   -0.005037   0.003251
     6  S    0.047506  -0.021475
     7  H   -0.000306  -0.000011
     8  C   -0.027469   0.011877
     9  S   -0.013556   0.008324
    10  C   -0.000086   0.003780
    11  C    0.025282   0.001693
    12  C   -0.055226   0.017399
    13  H   -0.000109  -0.000036
    14  S   -0.000311   0.000117
    15  C    0.000437   0.000084
    16  C   -0.002426   0.000158
    17  H   -0.000000  -0.000000
    18  H    0.000003   0.000000
    19  O    7.978534   0.198857
    20  H    0.198857   0.506934
 Mulliken charges:
               1
     1  C   -0.108032
     2  C   -0.447758
     3  C    0.321110
     4  C   -0.233787
     5  H    0.146163
     6  S   -0.124713
     7  H    0.189892
     8  C    0.374782
     9  S   -0.491315
    10  C    0.302799
    11  C   -0.533992
    12  C    0.512047
    13  H    0.162720
    14  S   -0.428523
    15  C   -0.207216
    16  C    0.181780
    17  H    0.192300
    18  H    0.161683
    19  O   -0.242941
    20  H    0.273003
 Sum of Mulliken charges =  -0.00000
 Mulliken charges with hydrogens summed into heavy atoms:
               1
     1  C    0.038131
     2  C   -0.447758
     3  C    0.321110
     4  C   -0.043895
     6  S   -0.124713
     8  C    0.374782
     9  S   -0.491315
    10  C    0.302799
    11  C   -0.533992
    12  C    0.674766
    14  S   -0.428523
    15  C   -0.014916
    16  C    0.343463
    19  O    0.030062
 Electronic spatial extent (au):  <R**2>=           4277.1403
 Charge=             -0.0000 electrons
 Dipole moment (field-independent basis, Debye):
    X=              2.0077    Y=              0.7293    Z=             -0.6462  Tot=              2.2317
 Quadrupole moment (field-independent basis, Debye-Ang):
   XX=            -77.2071   YY=            -99.7108   ZZ=           -101.1927
   XY=              1.7384   XZ=             -6.6879   YZ=             -0.1378
 Traceless Quadrupole moment (field-independent basis, Debye-Ang):
   XX=             15.4965   YY=             -7.0072   ZZ=             -8.4892
   XY=              1.7384   XZ=             -6.6879   YZ=             -0.1378
 Octapole moment (field-independent basis, Debye-Ang**2):
  XXX=             40.9866  YYY=             14.8575  ZZZ=             -9.8833  XYY=             20.5759
  XXY=             25.9848  XXZ=             -7.1009  XZZ=              9.1073  YZZ=              8.9432
  YYZ=             -7.6243  XYZ=            -27.5666
 Hexadecapole moment (field-independent basis, Debye-Ang**3):
 XXXX=          -3953.8316 YYYY=           -620.5778 ZZZZ=           -555.3913 XXXY=              5.8800
 XXXZ=            -94.9940 YYYX=             44.5620 YYYZ=            -27.8845 ZZZX=            -36.3418
 ZZZY=            -12.8398 XXYY=           -841.6166 XXZZ=           -866.3243 YYZZ=           -168.6781
 XXYZ=            -54.0317 YYXZ=            -37.9507 ZZXY=             21.0592
 N-N= 1.127775566970D+03 E-N=-6.167429981384D+03  KE= 1.651134691895D+03
 Unable to Open any file for archive entry.
 1\1\GINC-CX3-5-14\FOpt\RwB97XD\6-311+G(d,p)\C10H6O1S3\NS5018\25-Oct-20
 21\0\\# opt=modredundant wb97xd/6-311+g(d,p)\\pBTTT_-85.pdb\\0,1\C,-4.
 1812454062,-1.3783103002,-0.1337936431\C,-2.882143065,-0.9548306477,-0
 .5431931788\C,-1.9700494693,-1.9729676712,-0.6035213352\C,-4.231148719
 8,-2.7163658498,0.107464469\H,-5.0291434557,-0.7133635294,-0.023852942
 7\S,-2.7177098324,-3.4776095184,-0.1544669934\H,-5.0829224764,-3.29528
 84624,0.430892408\C,-0.558979698,-1.8908102053,-0.9777427753\S,-0.0920
 868365,-1.9565875101,-2.667274558\C,1.5781750868,-1.8098903807,-2.2470
 1592\C,1.7361531613,-1.7217215714,-0.8771188025\C,0.5161207572,-1.7704
 753011,-0.1487052936\H,0.4218399243,-1.7126803341,0.9267313536\S,3.409
 2430427,-1.5716399599,-0.4559478599\C,3.8623646098,-1.6300552486,-2.13
 17152271\C,2.8031507798,-1.7559176619,-2.9738074199\H,4.9069047358,-1.
 5657473458,-2.3977100495\H,2.8937420235,-1.8078251738,-4.049582295\O,-
 2.5409181816,0.3221126217,-0.8443870908\H,-3.3133469802,0.8849740501,-
 0.786252846\\Version=ES64L-G16RevC.01\State=1-A\HF=-1654.4101587\RMSD=
 2.272e-09\RMSF=1.334e-04\Dipole=-0.7986962,0.3391437,0.1340236\Quadrup
 ole=10.2094739,-6.1189641,-4.0905097,-3.619723,-5.8268705,0.0597674\PG
 =C01 [X(C10H6O1S3)]\\@
 The archive entry for this job was punched.


 TRUST EVERYONE, BUT CUT THE CARDS.
 Job cpu time:       0 days  3 hours 35 minutes 26.8 seconds.
 Elapsed time:       0 days  0 hours 27 minutes  7.1 seconds.
 File lengths (MBytes):  RWF=     86 Int=      0 D2E=      0 Chk=     11 Scr=      1
 Normal termination of Gaussian 16 at Mon Oct 25 23:59:36 2021.
