 Entering Gaussian System, Link 0=g16
 Input=pBTTT_0.gjf
 Output=pBTTT_0.log
 Initial command:
 /apps/gaussian/g16-c01-avx/g16/l1.exe "/tmp/pbs.4762174[175].pbs/Gau-3511576.inp" -scrdir="/tmp/pbs.4762174[175].pbs/"
 Entering Link 1 = /apps/gaussian/g16-c01-avx/g16/l1.exe PID=   3511577.
  
 Copyright (c) 1988-2019, Gaussian, Inc.  All Rights Reserved.
  
 This is part of the Gaussian(R) 16 program.  It is based on
 the Gaussian(R) 09 system (copyright 2009, Gaussian, Inc.),
 the Gaussian(R) 03 system (copyright 2003, Gaussian, Inc.),
 the Gaussian(R) 98 system (copyright 1998, Gaussian, Inc.),
 the Gaussian(R) 94 system (copyright 1995, Gaussian, Inc.),
 the Gaussian 92(TM) system (copyright 1992, Gaussian, Inc.),
 the Gaussian 90(TM) system (copyright 1990, Gaussian, Inc.),
 the Gaussian 88(TM) system (copyright 1988, Gaussian, Inc.),
 the Gaussian 86(TM) system (copyright 1986, Carnegie Mellon
 University), and the Gaussian 82(TM) system (copyright 1983,
 Carnegie Mellon University). Gaussian is a federally registered
 trademark of Gaussian, Inc.
  
 This software contains proprietary and confidential information,
 including trade secrets, belonging to Gaussian, Inc.
  
 This software is provided under written license and may be
 used, copied, transmitted, or stored only in accord with that
 written license.
  
 The following legend is applicable only to US Government
 contracts under FAR:
  
                    RESTRICTED RIGHTS LEGEND
  
 Use, reproduction and disclosure by the US Government is
 subject to restrictions as set forth in subparagraphs (a)
 and (c) of the Commercial Computer Software - Restricted
 Rights clause in FAR 52.227-19.
  
 Gaussian, Inc.
 340 Quinnipiac St., Bldg. 40, Wallingford CT 06492
  
  
 ---------------------------------------------------------------
 Warning -- This program may not be used in any manner that
 competes with the business of Gaussian, Inc. or will provide
 assistance to any competitor of Gaussian, Inc.  The licensee
 of this program is prohibited from giving any competitor of
 Gaussian, Inc. access to this program.  By using this program,
 the user acknowledges that Gaussian, Inc. is engaged in the
 business of creating and licensing software in the field of
 computational chemistry and represents and warrants to the
 licensee that it is not a competitor of Gaussian, Inc. and that
 it will not use this program in any manner prohibited above.
 ---------------------------------------------------------------
  

 Cite this work as:
 Gaussian 16, Revision C.01,
 M. J. Frisch, G. W. Trucks, H. B. Schlegel, G. E. Scuseria, 
 M. A. Robb, J. R. Cheeseman, G. Scalmani, V. Barone, 
 G. A. Petersson, H. Nakatsuji, X. Li, M. Caricato, A. V. Marenich, 
 J. Bloino, B. G. Janesko, R. Gomperts, B. Mennucci, H. P. Hratchian, 
 J. V. Ortiz, A. F. Izmaylov, J. L. Sonnenberg, D. Williams-Young, 
 F. Ding, F. Lipparini, F. Egidi, J. Goings, B. Peng, A. Petrone, 
 T. Henderson, D. Ranasinghe, V. G. Zakrzewski, J. Gao, N. Rega, 
 G. Zheng, W. Liang, M. Hada, M. Ehara, K. Toyota, R. Fukuda, 
 J. Hasegawa, M. Ishida, T. Nakajima, Y. Honda, O. Kitao, H. Nakai, 
 T. Vreven, K. Throssell, J. A. Montgomery, Jr., J. E. Peralta, 
 F. Ogliaro, M. J. Bearpark, J. J. Heyd, E. N. Brothers, K. N. Kudin, 
 V. N. Staroverov, T. A. Keith, R. Kobayashi, J. Normand, 
 K. Raghavachari, A. P. Rendell, J. C. Burant, S. S. Iyengar, 
 J. Tomasi, M. Cossi, J. M. Millam, M. Klene, C. Adamo, R. Cammi, 
 J. W. Ochterski, R. L. Martin, K. Morokuma, O. Farkas, 
 J. B. Foresman, and D. J. Fox, Gaussian, Inc., Wallingford CT, 2019.
 
 ******************************************
 Gaussian 16:  ES64L-G16RevC.01  3-Jul-2019
                25-Oct-2021 
 ******************************************
 %mem=10GB
 %nprocshared=8
 Will use up to    8 processors via shared memory.
 --------------------------------------
 # opt=modredundant wb97xd/6-311+g(d,p)
 --------------------------------------
 1/18=120,19=15,26=3,38=1/1,3;
 2/9=110,12=2,17=6,18=5,40=1/2;
 3/5=4,6=6,7=111,11=2,25=1,30=1,71=1,74=-58/1,2,3;
 4//1;
 5/5=2,38=5/2;
 6/7=2,8=2,9=2,10=2,28=1/1;
 7//1,2,3,16;
 1/18=20,19=15,26=3/3(2);
 2/9=110/2;
 99//99;
 2/9=110/2;
 3/5=4,6=6,7=111,11=2,25=1,30=1,71=1,74=-58/1,2,3;
 4/5=5,16=3,69=1/1;
 5/5=2,38=5/2;
 7//1,2,3,16;
 1/18=20,19=15,26=3/3(-5);
 2/9=110/2;
 6/7=2,8=2,9=2,10=2,19=2,28=1/1;
 99/9=1/99;
 -----------
 pBTTT_0.pdb
 -----------
 Symbolic Z-matrix:
 Charge =  0 Multiplicity = 1
 C                    -4.25     -1.36     -0.21 
 C                    -2.93     -0.95     -0.61 
 C                    -1.97     -2.05     -0.62 
 C                    -4.33     -2.76      0.1 
 H                    -5.1      -0.7      -0.14 
 S                    -2.8      -3.56     -0.11 
 H                    -5.23     -3.27      0.41 
 C                    -0.56     -2.13     -0.97 
 S                     0.362    -0.699    -1.523 
 C                     1.825    -1.605    -1.699 
 C                     1.664    -2.987    -1.323 
 C                     0.331    -3.29     -0.895 
 H                     0.062    -4.223    -0.425 
 S                     3.147    -3.715    -0.803 
 C                     4.03     -2.213    -1.084 
 C                     3.169    -1.15     -1.552 
 H                     5.05     -2.071    -0.757 
 H                     3.457    -0.103    -1.518 
 O                    -2.4       0.49     -0.72 
 H                    -2.92      1.52     -0.76 
 
 Add virtual bond connecting atoms H20        and O19        Dist= 2.18D+00.
 The following ModRedundant input section has been read:
 D       2       3       8       9 F                                           
 

 GradGradGradGradGradGradGradGradGradGradGradGradGradGradGradGradGradGrad
 Berny optimization.
 Initialization pass.
                           ----------------------------
                           !    Initial Parameters    !
                           ! (Angstroms and Degrees)  !
 --------------------------                            --------------------------
 ! Name  Definition              Value          Derivative Info.                !
 --------------------------------------------------------------------------------
 ! R1    R(1,2)                  1.4389         estimate D2E/DX2                !
 ! R2    R(1,4)                  1.4361         estimate D2E/DX2                !
 ! R3    R(1,5)                  1.0784         estimate D2E/DX2                !
 ! R4    R(2,3)                  1.46           estimate D2E/DX2                !
 ! R5    R(2,19)                 1.5384         estimate D2E/DX2                !
 ! R6    R(3,6)                  1.797          estimate D2E/DX2                !
 ! R7    R(3,8)                  1.455          estimate D2E/DX2                !
 ! R8    R(4,6)                  1.7393         estimate D2E/DX2                !
 ! R9    R(4,7)                  1.0799         estimate D2E/DX2                !
 ! R10   R(8,9)                  1.7899         estimate D2E/DX2                !
 ! R11   R(8,12)                 1.4646         estimate D2E/DX2                !
 ! R12   R(9,10)                 1.7298         estimate D2E/DX2                !
 ! R13   R(10,11)                1.4413         estimate D2E/DX2                !
 ! R14   R(10,16)                1.4265         estimate D2E/DX2                !
 ! R15   R(11,12)                1.4324         estimate D2E/DX2                !
 ! R16   R(11,14)                1.732          estimate D2E/DX2                !
 ! R17   R(12,13)                1.0788         estimate D2E/DX2                !
 ! R18   R(14,15)                1.7648         estimate D2E/DX2                !
 ! R19   R(15,16)                1.4458         estimate D2E/DX2                !
 ! R20   R(15,17)                1.0805         estimate D2E/DX2                !
 ! R21   R(16,18)                1.0864         estimate D2E/DX2                !
 ! R22   R(19,20)                1.1545         estimate D2E/DX2                !
 ! A1    A(2,1,4)              112.8843         estimate D2E/DX2                !
 ! A2    A(2,1,5)              124.5209         estimate D2E/DX2                !
 ! A3    A(4,1,5)              122.5942         estimate D2E/DX2                !
 ! A4    A(1,2,3)              112.9799         estimate D2E/DX2                !
 ! A5    A(1,2,19)             127.059          estimate D2E/DX2                !
 ! A6    A(3,2,19)             118.5686         estimate D2E/DX2                !
 ! A7    A(2,3,6)              109.1138         estimate D2E/DX2                !
 ! A8    A(2,3,8)              132.8639         estimate D2E/DX2                !
 ! A9    A(6,3,8)              118.0132         estimate D2E/DX2                !
 ! A10   A(1,4,6)              111.9209         estimate D2E/DX2                !
 ! A11   A(1,4,7)              124.6643         estimate D2E/DX2                !
 ! A12   A(6,4,7)              123.4062         estimate D2E/DX2                !
 ! A13   A(3,6,4)               93.0997         estimate D2E/DX2                !
 ! A14   A(3,8,9)              121.9753         estimate D2E/DX2                !
 ! A15   A(3,8,12)             128.3722         estimate D2E/DX2                !
 ! A16   A(9,8,12)             109.6128         estimate D2E/DX2                !
 ! A17   A(8,9,10)              92.7719         estimate D2E/DX2                !
 ! A18   A(9,10,11)            112.4084         estimate D2E/DX2                !
 ! A19   A(9,10,16)            128.2648         estimate D2E/DX2                !
 ! A20   A(11,10,16)           112.5944         estimate D2E/DX2                !
 ! A21   A(10,11,12)           112.6272         estimate D2E/DX2                !
 ! A22   A(10,11,14)           112.689          estimate D2E/DX2                !
 ! A23   A(12,11,14)           128.1845         estimate D2E/DX2                !
 ! A24   A(8,12,11)            112.5373         estimate D2E/DX2                !
 ! A25   A(8,12,13)            123.7524         estimate D2E/DX2                !
 ! A26   A(11,12,13)           123.0362         estimate D2E/DX2                !
 ! A27   A(11,14,15)            91.3106         estimate D2E/DX2                !
 ! A28   A(14,15,16)           112.2916         estimate D2E/DX2                !
 ! A29   A(14,15,17)           122.4099         estimate D2E/DX2                !
 ! A30   A(16,15,17)           124.299          estimate D2E/DX2                !
 ! A31   A(10,16,15)           111.0952         estimate D2E/DX2                !
 ! A32   A(10,16,18)           124.081          estimate D2E/DX2                !
 ! A33   A(15,16,18)           122.7219         estimate D2E/DX2                !
 ! A34   A(2,19,20)            133.0318         estimate D2E/DX2                !
 ! D1    D(4,1,2,3)              0.3915         estimate D2E/DX2                !
 ! D2    D(4,1,2,19)          -165.8104         estimate D2E/DX2                !
 ! D3    D(5,1,2,3)           -179.8811         estimate D2E/DX2                !
 ! D4    D(5,1,2,19)            13.9169         estimate D2E/DX2                !
 ! D5    D(2,1,4,6)             -0.3845         estimate D2E/DX2                !
 ! D6    D(2,1,4,7)           -179.3471         estimate D2E/DX2                !
 ! D7    D(5,1,4,6)            179.8822         estimate D2E/DX2                !
 ! D8    D(5,1,4,7)              0.9196         estimate D2E/DX2                !
 ! D9    D(1,2,3,6)             -0.2224         estimate D2E/DX2                !
 ! D10   D(1,2,3,8)            178.6265         estimate D2E/DX2                !
 ! D11   D(19,2,3,6)           167.2616         estimate D2E/DX2                !
 ! D12   D(19,2,3,8)           -13.8895         estimate D2E/DX2                !
 ! D13   D(1,2,19,20)          -16.0519         estimate D2E/DX2                !
 ! D14   D(3,2,19,20)          178.4264         estimate D2E/DX2                !
 ! D15   D(2,3,6,4)              0.0033         estimate D2E/DX2                !
 ! D16   D(8,3,6,4)           -179.041          estimate D2E/DX2                !
 ! D17   D(2,3,8,9)             -0.0088         Frozen                          !
 ! D18   D(2,3,8,12)           177.452          estimate D2E/DX2                !
 ! D19   D(6,3,8,9)            178.7592         estimate D2E/DX2                !
 ! D20   D(6,3,8,12)            -3.78           estimate D2E/DX2                !
 ! D21   D(1,4,6,3)              0.2153         estimate D2E/DX2                !
 ! D22   D(7,4,6,3)            179.1932         estimate D2E/DX2                !
 ! D23   D(3,8,9,10)           179.7703         estimate D2E/DX2                !
 ! D24   D(12,8,9,10)            1.8835         estimate D2E/DX2                !
 ! D25   D(3,8,12,11)         -179.8393         estimate D2E/DX2                !
 ! D26   D(3,8,12,13)           -9.014          estimate D2E/DX2                !
 ! D27   D(9,8,12,11)           -2.1258         estimate D2E/DX2                !
 ! D28   D(9,8,12,13)          168.6995         estimate D2E/DX2                !
 ! D29   D(8,9,10,11)           -1.1989         estimate D2E/DX2                !
 ! D30   D(8,9,10,16)         -149.9078         estimate D2E/DX2                !
 ! D31   D(9,10,11,12)           0.1621         estimate D2E/DX2                !
 ! D32   D(9,10,11,14)        -154.0208         estimate D2E/DX2                !
 ! D33   D(16,10,11,12)        153.9497         estimate D2E/DX2                !
 ! D34   D(16,10,11,14)         -0.2333         estimate D2E/DX2                !
 ! D35   D(9,10,16,15)         149.7713         estimate D2E/DX2                !
 ! D36   D(9,10,16,18)         -14.0791         estimate D2E/DX2                !
 ! D37   D(11,10,16,15)          1.1093         estimate D2E/DX2                !
 ! D38   D(11,10,16,18)       -162.7411         estimate D2E/DX2                !
 ! D39   D(10,11,12,8)           1.3015         estimate D2E/DX2                !
 ! D40   D(10,11,12,13)       -169.5997         estimate D2E/DX2                !
 ! D41   D(14,11,12,8)         150.5593         estimate D2E/DX2                !
 ! D42   D(14,11,12,13)        -20.3419         estimate D2E/DX2                !
 ! D43   D(10,11,14,15)         -0.5419         estimate D2E/DX2                !
 ! D44   D(12,11,14,15)       -149.7843         estimate D2E/DX2                !
 ! D45   D(11,14,15,16)          1.179          estimate D2E/DX2                !
 ! D46   D(11,14,15,17)        170.1897         estimate D2E/DX2                !
 ! D47   D(14,15,16,10)         -1.5118         estimate D2E/DX2                !
 ! D48   D(14,15,16,18)        162.5959         estimate D2E/DX2                !
 ! D49   D(17,15,16,10)       -170.2783         estimate D2E/DX2                !
 ! D50   D(17,15,16,18)         -6.1706         estimate D2E/DX2                !
 --------------------------------------------------------------------------------
 Trust Radius=3.00D-01 FncErr=1.00D-07 GrdErr=1.00D-06 EigMax=2.50D+02 EigMin=1.00D-04
 Number of steps in this run=    116 maximum allowed number of steps=    120.
 GradGradGradGradGradGradGradGradGradGradGradGradGradGradGradGradGradGrad

                          Input orientation:                          
 ---------------------------------------------------------------------
 Center     Atomic      Atomic             Coordinates (Angstroms)
 Number     Number       Type             X           Y           Z
 ---------------------------------------------------------------------
      1          6           0       -4.250000   -1.360000   -0.210000
      2          6           0       -2.930000   -0.950000   -0.610000
      3          6           0       -1.970000   -2.050000   -0.620000
      4          6           0       -4.330000   -2.760000    0.100000
      5          1           0       -5.100000   -0.700000   -0.140000
      6         16           0       -2.800000   -3.560000   -0.110000
      7          1           0       -5.230000   -3.270000    0.410000
      8          6           0       -0.560000   -2.130000   -0.970000
      9         16           0        0.362000   -0.699000   -1.523000
     10          6           0        1.825000   -1.605000   -1.699000
     11          6           0        1.664000   -2.987000   -1.323000
     12          6           0        0.331000   -3.290000   -0.895000
     13          1           0        0.062000   -4.223000   -0.425000
     14         16           0        3.147000   -3.715000   -0.803000
     15          6           0        4.030000   -2.213000   -1.084000
     16          6           0        3.169000   -1.150000   -1.552000
     17          1           0        5.050000   -2.071000   -0.757000
     18          1           0        3.457000   -0.103000   -1.518000
     19          8           0       -2.400000    0.490000   -0.720000
     20          1           0       -2.920000    1.520000   -0.760000
 ---------------------------------------------------------------------
                    Distance matrix (angstroms):
                    1          2          3          4          5
     1  C    0.000000
     2  C    1.438923   0.000000
     3  C    2.417147   1.460034   0.000000
     4  C    1.436141   2.395871   2.567509   0.000000
     5  H    1.078425   2.234346   3.442354   2.212261   0.000000
     6  S    2.636759   2.660639   1.796970   1.739253   3.670218
     7  H    2.234480   3.422397   3.630000   1.079907   2.631406
     8  C    3.845335   2.671872   1.454991   3.969219   4.831708
     9  S    4.840603   3.425468   2.842329   5.375566   5.634371
    10  C    6.259614   4.921887   3.970427   6.515708   7.155776
    11  C    6.233883   5.075685   3.818132   6.164779   7.237510
    12  C    5.017936   4.023797   2.628274   4.795398   6.064148
    13  H    5.180380   4.438335   2.981439   4.658933   6.256117
    14  S    7.785453   6.679252   5.384181   7.591638   8.805839
    15  C    8.369581   7.089531   6.020122   8.461127   9.302538
    16  C    7.542322   6.174558   5.299806   7.845776   8.400750
    17  H    9.343165   8.059693   7.021368   9.444235  10.260742
    18  H    7.917624   6.506585   5.835199   8.385401   8.687781
    19  O    2.665539   1.538376   2.578081   3.867790   3.007075
    20  H    3.219596   2.474571   3.696891   4.587603   3.172570
                    6          7          8          9         10
     6  S    0.000000
     7  H    2.501879   0.000000
     8  C    2.793224   5.001290   0.000000
     9  S    4.492230   6.451123   1.789875   0.000000
    10  C    5.266647   7.549380   2.548586   1.729792   0.000000
    11  C    4.661222   7.114114   2.409405   2.640104   1.441257
    12  C    3.239180   5.712105   1.464618   2.666201   2.391166
    13  H    2.954630   5.441571   2.250457   3.703266   3.403699
    14  S    5.989247   8.476056   4.035091   4.167839   2.646243
    15  C    7.029366   9.439115   4.592166   3.992385   2.368526
    16  C    6.596698   8.881838   3.899303   2.843148   1.426524
    17  H    8.016123  10.415272   5.614352   4.944339   3.391923
    18  H    7.285833   9.445160   4.532695   3.151867   2.225351
    19  O    4.115167   4.839773   3.211308   3.112423   4.816440
    20  H    5.122821   5.445099   4.351574   4.034557   5.758678
                   11         12         13         14         15
    11  C    0.000000
    12  C    1.432439   0.000000
    13  H    2.213708   1.078772   0.000000
    14  S    1.731956   2.849376   3.149313   0.000000
    15  C    2.500830   3.857234   4.496599   1.764838   0.000000
    16  C    2.385799   3.614622   4.512971   2.672211   1.445792
    17  H    3.553084   4.875855   5.442561   2.515206   1.080506
    18  H    3.401519   4.507435   5.449319   3.695114   2.229077
    19  O    5.382307   4.666625   5.325489   6.961187   6.984526
    20  H    6.453145   5.807179   6.479707   8.013461   7.895743
                   16         17         18         19         20
    16  C    0.000000
    17  H    2.240185   0.000000
    18  H    1.086420   2.643822   0.000000
    19  O    5.864775   7.877981   5.940783   0.000000
    20  H    6.695677   8.741635   6.623807   1.154513   0.000000
 Stoichiometry    C10H6OS3
 Framework group  C1[X(C10H6OS3)]
 Deg. of freedom    54
 Full point group                 C1      NOp   1
 Largest Abelian subgroup         C1      NOp   1
 Largest concise Abelian subgroup C1      NOp   1
                         Standard orientation:                         
 ---------------------------------------------------------------------
 Center     Atomic      Atomic             Coordinates (Angstroms)
 Number     Number       Type             X           Y           Z
 ---------------------------------------------------------------------
      1          6           0       -4.097399    0.322514    0.135465
      2          6           0       -2.780243    0.894616    0.044355
      3          6           0       -1.727327   -0.111854   -0.056075
      4          6           0       -4.085106   -1.113449    0.116510
      5          1           0       -5.008074    0.894674    0.214853
      6         16           0       -2.471419   -1.747187   -0.022734
      7          1           0       -4.966272   -1.735915    0.164300
      8          6           0       -0.281503   -0.021568   -0.191866
      9         16           0        0.566740    1.552630   -0.269580
     10          6           0        2.119828    0.803965   -0.409575
     11          6           0        2.041484   -0.634711   -0.373587
     12          6           0        0.697450   -1.110130   -0.234189
     13          1           0        0.456844   -2.141016   -0.026505
     14         16           0        3.501775   -1.369174    0.198940
     15          6           0        4.267458    0.209062    0.392728
     16          6           0        3.381280    1.295577    0.039897
     17          1           0        5.214663    0.335189    0.897098
     18          1           0        3.560565    2.322559    0.345631
     19          8           0       -2.380137    2.351421    0.334590
     20          1           0       -2.985700    3.328716    0.439886
 ---------------------------------------------------------------------
 Rotational constants (GHZ):           1.1596738           0.2810652           0.2290354
 Standard basis: 6-311+G(d,p) (5D, 7F)
 There are   382 symmetry adapted cartesian basis functions of A   symmetry.
 There are   368 symmetry adapted basis functions of A   symmetry.
   368 basis functions,   594 primitive gaussians,   382 cartesian basis functions
    61 alpha electrons       61 beta electrons
       nuclear repulsion energy      1105.1955713150 Hartrees.
 NAtoms=   20 NActive=   20 NUniq=   20 SFac= 1.00D+00 NAtFMM=   60 NAOKFM=F Big=F
 Integral buffers will be    131072 words long.
 Raffenetti 2 integral format.
 Two-electron integral symmetry is turned on.
 Nuclear repulsion after empirical dispersion term =     1105.1856458455 Hartrees.
 One-electron integrals computed using PRISM.
 NBasis=   368 RedAO= T EigKep=  2.06D-06  NBF=   368
 NBsUse=   367 1.00D-06 EigRej=  4.02D-07 NBFU=   367
 ExpMin= 4.05D-02 ExpMax= 9.34D+04 ExpMxC= 3.17D+03 IAcc=3 IRadAn=         5 AccDes= 0.00D+00
 Harris functional with IExCor= 4639 and IRadAn=       5 diagonalized for initial guess.
 HarFok:  IExCor= 4639 AccDes= 0.00D+00 IRadAn=         5 IDoV= 1 UseB2=F ITyADJ=14
 ICtDFT=  3500011 ScaDFX=  1.000000  1.000000  1.000000  1.000000
 FoFCou: FMM=F IPFlag=           0 FMFlag=      100000 FMFlg1=           0
         NFxFlg=           0 DoJE=T BraDBF=F KetDBF=T FulRan=T
         wScrn=  0.000000 ICntrl=       500 IOpCl=  0 I1Cent=   200000004 NGrid=           0
         NMat0=    1 NMatS0=      1 NMatT0=    0 NMatD0=    1 NMtDS0=    0 NMtDT0=    0
 Petite list used in FoFCou.
 Requested convergence on RMS density matrix=1.00D-08 within 128 cycles.
 Requested convergence on MAX density matrix=1.00D-06.
 Requested convergence on             energy=1.00D-06.
 No special actions if energy rises.
 SCF Done:  E(RwB97XD) =  -1654.30246239     A.U. after   19 cycles
            NFock= 19  Conv=0.64D-08     -V/T= 2.0031

 **********************************************************************

            Population analysis using the SCF Density.

 **********************************************************************

 Orbital symmetries:
       Occupied  (A) (A) (A) (A) (A) (A) (A) (A) (A) (A) (A) (A)
                 (A) (A) (A) (A) (A) (A) (A) (A) (A) (A) (A) (A)
                 (A) (A) (A) (A) (A) (A) (A) (A) (A) (A) (A) (A)
                 (A) (A) (A) (A) (A) (A) (A) (A) (A) (A) (A) (A)
                 (A) (A) (A) (A) (A) (A) (A) (A) (A) (A) (A) (A)
                 (A)
       Virtual   (A) (A) (A) (A) (A) (A) (A) (A) (A) (A) (A) (A)
                 (A) (A) (A) (A) (A) (A) (A) (A) (A) (A) (A) (A)
                 (A) (A) (A) (A) (A) (A) (A) (A) (A) (A) (A) (A)
                 (A) (A) (A) (A) (A) (A) (A) (A) (A) (A) (A) (A)
                 (A) (A) (A) (A) (A) (A) (A) (A) (A) (A) (A) (A)
                 (A) (A) (A) (A) (A) (A) (A) (A) (A) (A) (A) (A)
                 (A) (A) (A) (A) (A) (A) (A) (A) (A) (A) (A) (A)
                 (A) (A) (A) (A) (A) (A) (A) (A) (A) (A) (A) (A)
                 (A) (A) (A) (A) (A) (A) (A) (A) (A) (A) (A) (A)
                 (A) (A) (A) (A) (A) (A) (A) (A) (A) (A) (A) (A)
                 (A) (A) (A) (A) (A) (A) (A) (A) (A) (A) (A) (A)
                 (A) (A) (A) (A) (A) (A) (A) (A) (A) (A) (A) (A)
                 (A) (A) (A) (A) (A) (A) (A) (A) (A) (A) (A) (A)
                 (A) (A) (A) (A) (A) (A) (A) (A) (A) (A) (A) (A)
                 (A) (A) (A) (A) (A) (A) (A) (A) (A) (A) (A) (A)
                 (A) (A) (A) (A) (A) (A) (A) (A) (A) (A) (A) (A)
                 (A) (A) (A) (A) (A) (A) (A) (A) (A) (A) (A) (A)
                 (A) (A) (A) (A) (A) (A) (A) (A) (A) (A) (A) (A)
                 (A) (A) (A) (A) (A) (A) (A) (A) (A) (A) (A) (A)
                 (A) (A) (A) (A) (A) (A) (A) (A) (A) (A) (A) (A)
                 (A) (A) (A) (A) (A) (A) (A) (A) (A) (A) (A) (A)
                 (A) (A) (A) (A) (A) (A) (A) (A) (A) (A) (A) (A)
                 (A) (A) (A) (A) (A) (A) (A) (A) (A) (A) (A) (A)
                 (A) (A) (A) (A) (A) (A) (A) (A) (A) (A) (A) (A)
                 (A) (A) (A) (A) (A) (A) (A) (A) (A) (A) (A) (A)
                 (A) (A) (A) (A) (A) (A)
 The electronic state is 1-A.
 Alpha  occ. eigenvalues --  -89.06671 -89.05424 -89.05026 -19.28718 -10.39131
 Alpha  occ. eigenvalues --  -10.35708 -10.35377 -10.34139 -10.33199 -10.33099
 Alpha  occ. eigenvalues --  -10.32793 -10.32023 -10.31494 -10.31291  -8.10544
 Alpha  occ. eigenvalues --   -8.09374  -8.08932  -6.05398  -6.05023  -6.04630
 Alpha  occ. eigenvalues --   -6.04227  -6.03863  -6.03803  -6.03437  -6.03418
 Alpha  occ. eigenvalues --   -6.02975  -1.08485  -1.00309  -0.98000  -0.93290
 Alpha  occ. eigenvalues --   -0.86994  -0.85057  -0.83928  -0.80139  -0.78256
 Alpha  occ. eigenvalues --   -0.70986  -0.67633  -0.66252  -0.63027  -0.61761
 Alpha  occ. eigenvalues --   -0.60247  -0.57434  -0.54449  -0.52960  -0.51410
 Alpha  occ. eigenvalues --   -0.50402  -0.48622  -0.48167  -0.47360  -0.46810
 Alpha  occ. eigenvalues --   -0.45153  -0.43827  -0.43189  -0.42630  -0.41826
 Alpha  occ. eigenvalues --   -0.40808  -0.37096  -0.33847  -0.32880  -0.30127
 Alpha  occ. eigenvalues --   -0.25784
 Alpha virt. eigenvalues --   -0.01593   0.02064   0.03734   0.05575   0.06135
 Alpha virt. eigenvalues --    0.06404   0.07029   0.07474   0.07791   0.08412
 Alpha virt. eigenvalues --    0.08936   0.09159   0.09474   0.09787   0.10323
 Alpha virt. eigenvalues --    0.10691   0.11629   0.11733   0.11903   0.12716
 Alpha virt. eigenvalues --    0.12918   0.13277   0.13758   0.14365   0.14699
 Alpha virt. eigenvalues --    0.15064   0.15645   0.16388   0.17010   0.17350
 Alpha virt. eigenvalues --    0.17755   0.18237   0.18514   0.19033   0.19301
 Alpha virt. eigenvalues --    0.19922   0.20412   0.21090   0.21356   0.21918
 Alpha virt. eigenvalues --    0.21985   0.22515   0.22705   0.22983   0.23673
 Alpha virt. eigenvalues --    0.24365   0.24749   0.25115   0.25570   0.25784
 Alpha virt. eigenvalues --    0.26033   0.26464   0.26929   0.27067   0.27494
 Alpha virt. eigenvalues --    0.27807   0.28095   0.28501   0.29053   0.29312
 Alpha virt. eigenvalues --    0.29766   0.30018   0.30544   0.31345   0.31895
 Alpha virt. eigenvalues --    0.32852   0.33356   0.33670   0.34438   0.35134
 Alpha virt. eigenvalues --    0.36233   0.36487   0.37555   0.38514   0.39059
 Alpha virt. eigenvalues --    0.39606   0.40462   0.41471   0.41816   0.42408
 Alpha virt. eigenvalues --    0.42783   0.43888   0.44369   0.45365   0.47414
 Alpha virt. eigenvalues --    0.49061   0.49961   0.51123   0.52657   0.52913
 Alpha virt. eigenvalues --    0.53507   0.54232   0.56851   0.58202   0.59969
 Alpha virt. eigenvalues --    0.61352   0.62016   0.63440   0.64064   0.64568
 Alpha virt. eigenvalues --    0.64787   0.66495   0.66919   0.67836   0.69237
 Alpha virt. eigenvalues --    0.69655   0.70736   0.71499   0.71838   0.72431
 Alpha virt. eigenvalues --    0.75294   0.76231   0.77079   0.77873   0.78220
 Alpha virt. eigenvalues --    0.78829   0.79646   0.80439   0.81357   0.81975
 Alpha virt. eigenvalues --    0.82733   0.83547   0.84076   0.84416   0.85556
 Alpha virt. eigenvalues --    0.85793   0.87319   0.88298   0.88356   0.90048
 Alpha virt. eigenvalues --    0.90647   0.91834   0.92419   0.93160   0.94703
 Alpha virt. eigenvalues --    0.95300   0.97229   0.97382   0.99542   1.00713
 Alpha virt. eigenvalues --    1.01150   1.01865   1.02587   1.04313   1.04966
 Alpha virt. eigenvalues --    1.06199   1.07614   1.09480   1.10152   1.10734
 Alpha virt. eigenvalues --    1.11425   1.11862   1.14777   1.16082   1.16585
 Alpha virt. eigenvalues --    1.19531   1.20404   1.22105   1.25123   1.27870
 Alpha virt. eigenvalues --    1.29216   1.33772   1.34199   1.35412   1.37465
 Alpha virt. eigenvalues --    1.41362   1.44140   1.46421   1.47691   1.48706
 Alpha virt. eigenvalues --    1.52534   1.55358   1.57810   1.58541   1.60462
 Alpha virt. eigenvalues --    1.61523   1.62205   1.63392   1.63936   1.66508
 Alpha virt. eigenvalues --    1.69406   1.70368   1.72317   1.73700   1.74235
 Alpha virt. eigenvalues --    1.75394   1.78030   1.78307   1.79131   1.80574
 Alpha virt. eigenvalues --    1.81818   1.82683   1.84677   1.86056   1.87490
 Alpha virt. eigenvalues --    1.88045   1.89909   1.90642   1.92944   1.94365
 Alpha virt. eigenvalues --    1.95807   1.98037   1.99396   1.99926   1.99986
 Alpha virt. eigenvalues --    2.02896   2.05025   2.06839   2.08501   2.09946
 Alpha virt. eigenvalues --    2.10525   2.12080   2.13196   2.15102   2.15679
 Alpha virt. eigenvalues --    2.16620   2.19326   2.19640   2.22147   2.23348
 Alpha virt. eigenvalues --    2.24616   2.25791   2.31248   2.38252   2.42265
 Alpha virt. eigenvalues --    2.45764   2.46269   2.50257   2.55809   2.56721
 Alpha virt. eigenvalues --    2.61760   2.63701   2.65917   2.71010   2.74610
 Alpha virt. eigenvalues --    2.75398   2.77610   2.80045   2.80310   2.80530
 Alpha virt. eigenvalues --    2.81899   2.84134   2.85570   2.85898   2.89883
 Alpha virt. eigenvalues --    2.90897   2.94808   2.97636   3.01883   3.02725
 Alpha virt. eigenvalues --    3.04543   3.07790   3.08133   3.11886   3.13297
 Alpha virt. eigenvalues --    3.14315   3.15331   3.20867   3.23273   3.29604
 Alpha virt. eigenvalues --    3.31696   3.35707   3.37039   3.43858   3.47230
 Alpha virt. eigenvalues --    3.49919   3.56379   3.63903   3.73067   3.81456
 Alpha virt. eigenvalues --    3.98931   4.03919   4.10837   4.14909   4.23106
 Alpha virt. eigenvalues --    4.41629   4.58738   5.12905   5.30492   5.54952
 Alpha virt. eigenvalues --    8.05447   8.06762   8.09178  17.40749  17.42909
 Alpha virt. eigenvalues --   17.44141  17.56829  17.58933  17.60903  17.61893
 Alpha virt. eigenvalues --   17.66081  17.68313  23.57494  23.71271  23.83748
 Alpha virt. eigenvalues --   23.89952  23.92603  23.97858  23.99806  24.07797
 Alpha virt. eigenvalues --   24.08649  24.09407  49.99656 189.29821 189.31398
 Alpha virt. eigenvalues --  189.34171
          Condensed to atoms (all electrons):
               1          2          3          4          5          6
     1  C   10.281599  -4.927925   1.647078  -0.840181   0.470350   0.707812
     2  C   -4.927925  18.447533  -6.708873   2.397127  -0.157872  -2.804825
     3  C    1.647078  -6.708873  11.863840  -1.529923   0.060496   0.818179
     4  C   -0.840181   2.397127  -1.529923   6.235177  -0.022030  -0.345787
     5  H    0.470350  -0.157872   0.060496  -0.022030   0.479916   0.008900
     6  S    0.707812  -2.804825   0.818179  -0.345787   0.008900  17.645205
     7  H    0.059246  -0.066383   0.038241   0.360102  -0.002975  -0.023304
     8  C   -0.072114  -1.624749   0.058859  -0.254364  -0.001702   0.822034
     9  S   -0.059100  -0.626786   0.536407   0.013703   0.000236   0.087916
    10  C   -0.037890  -0.452781  -0.233214  -0.010625   0.000040   0.240645
    11  C   -0.001208  -0.077759   0.084194  -0.066594   0.000110  -0.282773
    12  C   -0.490067   1.081621  -0.781501   0.107849   0.000564  -0.325536
    13  H   -0.003563   0.001101   0.010517   0.003929  -0.000000   0.006779
    14  S   -0.011493   0.053809   0.020206   0.007500  -0.000004  -0.024488
    15  C   -0.001886  -0.035595  -0.033525  -0.001549   0.000001   0.002934
    16  C    0.015266   0.105216   0.071948   0.004850  -0.000008   0.008982
    17  H   -0.000000   0.000024   0.000149   0.000001   0.000000   0.000020
    18  H    0.000040  -0.000099  -0.000814  -0.000010   0.000000   0.000037
    19  O   -0.162655   0.577378  -0.178437   0.010347  -0.001088   0.012543
    20  H   -0.114310  -0.031318   0.097285  -0.005266  -0.000013  -0.003162
               7          8          9         10         11         12
     1  C    0.059246  -0.072114  -0.059100  -0.037890  -0.001208  -0.490067
     2  C   -0.066383  -1.624749  -0.626786  -0.452781  -0.077759   1.081621
     3  C    0.038241   0.058859   0.536407  -0.233214   0.084194  -0.781501
     4  C    0.360102  -0.254364   0.013703  -0.010625  -0.066594   0.107849
     5  H   -0.002975  -0.001702   0.000236   0.000040   0.000110   0.000564
     6  S   -0.023304   0.822034   0.087916   0.240645  -0.282773  -0.325536
     7  H    0.437053  -0.001585  -0.000388  -0.000067   0.000204   0.000734
     8  C   -0.001585  12.893013   1.125101  -1.426918   3.683543  -8.011953
     9  S   -0.000388   1.125101  17.712001  -0.836980   1.638705  -2.981294
    10  C   -0.000067  -1.426918  -0.836980  13.440820  -6.084581   2.804628
    11  C    0.000204   3.683543   1.638705  -6.084581  20.141256 -11.187232
    12  C    0.000734  -8.011953  -2.981294   2.804628 -11.187232  23.052564
    13  H    0.000003   0.164186   0.012329  -0.057938   0.081915   0.135204
    14  S   -0.000000  -0.608863   0.079893   0.718095  -1.535034   1.090096
    15  C   -0.000000   0.171812   0.024019   0.717123   0.014662  -0.651032
    16  C   -0.000005  -0.332176  -0.203135  -2.803802  -0.515822   1.439078
    17  H    0.000000  -0.004467  -0.000727  -0.040149   0.008680   0.021113
    18  H    0.000000   0.006552   0.017853   0.013622  -0.033272  -0.003008
    19  O   -0.000080  -0.032791  -0.016906  -0.013510   0.007856  -0.049169
    20  H   -0.000005   0.027394   0.013231   0.000788   0.000786   0.001699
              13         14         15         16         17         18
     1  C   -0.003563  -0.011493  -0.001886   0.015266  -0.000000   0.000040
     2  C    0.001101   0.053809  -0.035595   0.105216   0.000024  -0.000099
     3  C    0.010517   0.020206  -0.033525   0.071948   0.000149  -0.000814
     4  C    0.003929   0.007500  -0.001549   0.004850   0.000001  -0.000010
     5  H   -0.000000  -0.000004   0.000001  -0.000008   0.000000   0.000000
     6  S    0.006779  -0.024488   0.002934   0.008982   0.000020   0.000037
     7  H    0.000003  -0.000000  -0.000000  -0.000005   0.000000   0.000000
     8  C    0.164186  -0.608863   0.171812  -0.332176  -0.004467   0.006552
     9  S    0.012329   0.079893   0.024019  -0.203135  -0.000727   0.017853
    10  C   -0.057938   0.718095   0.717123  -2.803802  -0.040149   0.013622
    11  C    0.081915  -1.535034   0.014662  -0.515822   0.008680  -0.033272
    12  C    0.135204   1.090096  -0.651032   1.439078   0.021113  -0.003008
    13  H    0.481790   0.003289   0.001449  -0.011398  -0.000001   0.000009
    14  S    0.003289  16.639763   0.317461  -0.545272  -0.025485  -0.000790
    15  C    0.001449   0.317461   5.607868  -0.246488   0.371021   0.009673
    16  C   -0.011398  -0.545272  -0.246488   8.740299   0.033058   0.348863
    17  H   -0.000001  -0.025485   0.371021   0.033058   0.439975  -0.002726
    18  H    0.000009  -0.000790   0.009673   0.348863  -0.002726   0.476905
    19  O    0.000070  -0.000499  -0.000033  -0.005094  -0.000000   0.000007
    20  H   -0.000001  -0.000009   0.000059  -0.000098  -0.000000  -0.000001
              19         20
     1  C   -0.162655  -0.114310
     2  C    0.577378  -0.031318
     3  C   -0.178437   0.097285
     4  C    0.010347  -0.005266
     5  H   -0.001088  -0.000013
     6  S    0.012543  -0.003162
     7  H   -0.000080  -0.000005
     8  C   -0.032791   0.027394
     9  S   -0.016906   0.013231
    10  C   -0.013510   0.000788
    11  C    0.007856   0.000786
    12  C   -0.049169   0.001699
    13  H    0.000070  -0.000001
    14  S   -0.000499  -0.000009
    15  C   -0.000033   0.000059
    16  C   -0.005094  -0.000098
    17  H   -0.000000  -0.000000
    18  H    0.000007  -0.000001
    19  O    8.038941   0.236901
    20  H    0.236901   0.451643
 Mulliken charges:
               1
     1  C   -0.458997
     2  C    0.851155
     3  C    0.158886
     4  C   -0.064254
     5  H    0.165078
     6  S   -0.552110
     7  H    0.199210
     8  C   -0.580811
     9  S   -0.536076
    10  C    0.062694
    11  C    0.122366
    12  C    0.745643
    13  H    0.170332
    14  S   -0.178174
    15  C   -0.267972
    16  C   -0.104261
    17  H    0.199515
    18  H    0.167158
    19  O   -0.423781
    20  H    0.324398
 Sum of Mulliken charges =  -0.00000
 Mulliken charges with hydrogens summed into heavy atoms:
               1
     1  C   -0.293918
     2  C    0.851155
     3  C    0.158886
     4  C    0.134956
     6  S   -0.552110
     8  C   -0.580811
     9  S   -0.536076
    10  C    0.062694
    11  C    0.122366
    12  C    0.915976
    14  S   -0.178174
    15  C   -0.068458
    16  C    0.062897
    19  O   -0.099383
 Electronic spatial extent (au):  <R**2>=           4394.2363
 Charge=             -0.0000 electrons
 Dipole moment (field-independent basis, Debye):
    X=             -2.3578    Y=              0.8367    Z=              1.2706  Tot=              2.8060
 Quadrupole moment (field-independent basis, Debye-Ang):
   XX=            -79.8048   YY=            -89.3863   ZZ=           -109.3276
   XY=             -1.8245   XZ=              3.0554   YZ=              1.3426
 Traceless Quadrupole moment (field-independent basis, Debye-Ang):
   XX=             13.0348   YY=              3.4532   ZZ=            -16.4880
   XY=             -1.8245   XZ=              3.0554   YZ=              1.3426
 Octapole moment (field-independent basis, Debye-Ang**2):
  XXX=            -70.5827  YYY=             40.5420  ZZZ=              3.8845  XYY=            -37.2551
  XXY=             30.9890  XXZ=             33.5489  XZZ=              2.3108  YZZ=              2.7461
  YYZ=              9.7011  XYZ=             -1.2349
 Hexadecapole moment (field-independent basis, Debye-Ang**3):
 XXXX=          -4104.4519 YYYY=           -958.0337 ZZZZ=           -176.4143 XXXY=            -26.6566
 XXXZ=             94.8056 YYYX=           -112.2492 YYYZ=             28.1435 ZZZX=              6.5405
 ZZZY=              2.3117 XXYY=           -808.0566 XXZZ=           -887.0816 YYZZ=           -233.7224
 XXYZ=             23.4992 YYXZ=            -11.7003 ZZXY=            -12.4752
 N-N= 1.105185645846D+03 E-N=-6.120542019624D+03  KE= 1.649267606351D+03
 Calling FoFJK, ICntrl=      2127 FMM=F ISym2X=0 I1Cent= 0 IOpClX= 0 NMat=1 NMatS=1 NMatT=0.
 ***** Axes restored to original set *****
 -------------------------------------------------------------------
 Center     Atomic                   Forces (Hartrees/Bohr)
 Number     Number              X              Y              Z
 -------------------------------------------------------------------
      1        6           0.017265810   -0.045983966    0.005970132
      2        6           0.031102674    0.021798733    0.013144913
      3        6          -0.036587073    0.023697699    0.000392806
      4        6           0.016011332    0.058274928   -0.017751707
      5        1          -0.000461440    0.001755122    0.000482148
      6       16          -0.005478260    0.031724632   -0.008595335
      7        1           0.002961562   -0.003149407    0.000319002
      8        6           0.045166516   -0.031516951    0.000328252
      9       16          -0.013462783   -0.015942137   -0.002358230
     10        6           0.007489251   -0.031798826    0.023781740
     11        6          -0.021115894    0.037365815    0.007844831
     12        6          -0.025649569    0.053278503   -0.008290608
     13        1          -0.004639336   -0.002396904   -0.002638325
     14       16           0.010707074    0.016820921   -0.011741266
     15        6          -0.047398523    0.042593746   -0.016453465
     16        6           0.029947206   -0.048694587    0.027379083
     17        1           0.001502186   -0.005711585   -0.004339233
     18        1           0.003011693   -0.004413979   -0.007623609
     19        8          -0.034828224    0.013897478   -0.003758093
     20        1           0.024455796   -0.111599236    0.003906965
 -------------------------------------------------------------------
 Cartesian Forces:  Max     0.111599236 RMS     0.027443095

 GradGradGradGradGradGradGradGradGradGradGradGradGradGradGradGradGradGrad
 Berny optimization.
 FormGI is forming the generalized inverse of G from B-inverse, IUseBI=4.
 Internal  Forces:  Max     0.110714036 RMS     0.021734087
 Search for a local minimum.
 Step number   1 out of a maximum of  116
 All quantities printed in internal units (Hartrees-Bohrs-Radians)
 Mixed Optimization -- RFO/linear search
 Second derivative matrix not updated -- first step.
 ITU=  0
     Eigenvalues ---    0.00230   0.00994   0.01057   0.01222   0.01272
     Eigenvalues ---    0.01296   0.01362   0.01419   0.01458   0.01493
     Eigenvalues ---    0.01500   0.01591   0.01592   0.01762   0.02199
     Eigenvalues ---    0.02652   0.15076   0.15686   0.15734   0.15997
     Eigenvalues ---    0.16000   0.16000   0.17990   0.22444   0.22526
     Eigenvalues ---    0.23319   0.23978   0.24118   0.24633   0.24978
     Eigenvalues ---    0.24995   0.26145   0.26581   0.28307   0.28412
     Eigenvalues ---    0.28663   0.30910   0.31348   0.31593   0.34801
     Eigenvalues ---    0.35230   0.35872   0.35933   0.36006   0.36143
     Eigenvalues ---    0.36185   0.36285   0.37598   0.38200   0.38435
     Eigenvalues ---    0.39456   0.39716   0.405631000.000001000.00000
     Eigenvalues --- 1000.000001000.000001000.000001000.000001000.00000
     Eigenvalues --- 1000.000001000.000001000.000001000.000001000.00000
     Eigenvalues --- 1000.000001000.000001000.000001000.000001000.00000
     Eigenvalues --- 1000.000001000.000001000.000001000.000001000.00000
     Eigenvalues --- 1000.000001000.000001000.000001000.000001000.00000
     Eigenvalues --- 1000.000001000.000001000.000001000.000001000.00000
     Eigenvalues --- 1000.000001000.000001000.000001000.000001000.00000
     Eigenvalues --- 1000.000001000.000001000.000001000.000001000.00000
     Eigenvalues --- 1000.000001000.000001000.000001000.000001000.00000
     Eigenvalues --- 1000.000001000.000001000.000001000.000001000.00000
     Eigenvalues --- 1000.00000
 RFO step:  Lambda=-1.21060299D-01 EMin= 2.30000000D-03
 Linear search not attempted -- first point.
 Maximum step size (   0.300) exceeded in Quadratic search.
    -- Step size scaled by   0.561
 Iteration  1 RMS(Cart)=  0.06203358 RMS(Int)=  0.00144817
 Iteration  2 RMS(Cart)=  0.00167133 RMS(Int)=  0.00010234
 Iteration  3 RMS(Cart)=  0.00000907 RMS(Int)=  0.00010214
 Iteration  4 RMS(Cart)=  0.00000000 RMS(Int)=  0.00010214
 Iteration  1 RMS(Cart)=  0.00000009 RMS(Int)=  0.00000004
 Variable       Old X    -DE/DX   Delta X   Delta X   Delta X     New X
                                 (Linear)    (Quad)   (Total)
    R1        2.71917  -0.02563   0.00000  -0.02907  -0.02898   2.69019
    R2        2.71391  -0.06205   0.00000  -0.06720  -0.06719   2.64673
    R3        2.03793   0.00147   0.00000   0.00171   0.00171   2.03963
    R4        2.75906  -0.07223   0.00000  -0.08319  -0.08313   2.67593
    R5        2.90711  -0.09504   0.00000  -0.13086  -0.13086   2.77625
    R6        3.39578  -0.03015   0.00000  -0.04269  -0.04274   3.35304
    R7        2.74954  -0.01594   0.00000  -0.01800  -0.01800   2.73154
    R8        3.28671  -0.01611   0.00000  -0.01960  -0.01968   3.26703
    R9        2.04073  -0.00089   0.00000  -0.00104  -0.00104   2.03969
   R10        3.38237  -0.01914   0.00000  -0.02598  -0.02605   3.35633
   R11        2.76773  -0.06831   0.00000  -0.07921  -0.07923   2.68850
   R12        3.26883  -0.00516   0.00000  -0.00577  -0.00577   3.26306
   R13        2.72358  -0.03927   0.00000  -0.04395  -0.04380   2.67978
   R14        2.69574  -0.00336   0.00000  -0.00464  -0.00455   2.69119
   R15        2.70692  -0.01538   0.00000  -0.01759  -0.01754   2.68937
   R16        3.27292  -0.00385   0.00000  -0.00382  -0.00384   3.26908
   R17        2.03858   0.00208   0.00000   0.00242   0.00242   2.04100
   R18        3.33506  -0.01753   0.00000  -0.02293  -0.02303   3.31203
   R19        2.73215  -0.06594   0.00000  -0.07325  -0.07327   2.65888
   R20        2.04186  -0.00065   0.00000  -0.00075  -0.00075   2.04111
   R21        2.05304  -0.00369   0.00000  -0.00438  -0.00438   2.04866
   R22        2.18171  -0.11071   0.00000  -0.15378  -0.15378   2.02793
    A1        1.97020  -0.00413   0.00000  -0.00974  -0.00963   1.96057
    A2        2.17330   0.00111   0.00000   0.00296   0.00290   2.17620
    A3        2.13967   0.00303   0.00000   0.00680   0.00674   2.14642
    A4        1.97187   0.01611   0.00000   0.02245   0.02257   1.99445
    A5        2.21760  -0.00225   0.00000  -0.00130  -0.00140   2.21620
    A6        2.06941  -0.01307   0.00000  -0.01807  -0.01820   2.05121
    A7        1.90440  -0.00498   0.00000  -0.00717  -0.00715   1.89725
    A8        2.31891  -0.00932   0.00000  -0.01432  -0.01433   2.30458
    A9        2.05972   0.01429   0.00000   0.02142   0.02140   2.08112
   A10        1.95339  -0.00095   0.00000  -0.00118  -0.00123   1.95216
   A11        2.17580   0.00479   0.00000   0.00919   0.00922   2.18502
   A12        2.15384  -0.00384   0.00000  -0.00804  -0.00802   2.14583
   A13        1.62490  -0.00605   0.00000  -0.00435  -0.00457   1.62033
   A14        2.12887  -0.00557   0.00000  -0.00832  -0.00834   2.12053
   A15        2.24052  -0.00412   0.00000  -0.00613  -0.00616   2.23436
   A16        1.91310   0.00976   0.00000   0.01468   0.01472   1.92782
   A17        1.61918  -0.00861   0.00000  -0.01053  -0.01048   1.60870
   A18        1.96190  -0.00882   0.00000  -0.01116  -0.01136   1.95053
   A19        2.23864   0.00737   0.00000   0.01693   0.01664   2.25528
   A20        1.96514   0.00517   0.00000   0.00756   0.00763   1.97278
   A21        1.96572   0.00736   0.00000   0.00991   0.00990   1.97562
   A22        1.96679  -0.01253   0.00000  -0.01660  -0.01674   1.95005
   A23        2.23724   0.00872   0.00000   0.01918   0.01895   2.25619
   A24        1.96415   0.00033   0.00000  -0.00286  -0.00274   1.96140
   A25        2.15989  -0.00278   0.00000  -0.00314  -0.00324   2.15664
   A26        2.14739   0.00301   0.00000   0.00834   0.00822   2.15561
   A27        1.59367   0.00007   0.00000   0.00183   0.00183   1.59550
   A28        1.95986   0.00175   0.00000   0.00172   0.00167   1.96153
   A29        2.13646  -0.00462   0.00000  -0.00740  -0.00753   2.12892
   A30        2.16943   0.00397   0.00000   0.00998   0.00988   2.17931
   A31        1.93898   0.00555   0.00000   0.00549   0.00559   1.94457
   A32        2.16562   0.00005   0.00000   0.00487   0.00465   2.17027
   A33        2.14190  -0.00365   0.00000  -0.00288  -0.00314   2.13877
   A34        2.32184  -0.06198   0.00000  -0.12379  -0.12379   2.19805
    D1        0.00683  -0.00099   0.00000  -0.00402  -0.00401   0.00282
    D2       -2.89394  -0.00341   0.00000  -0.01698  -0.01707  -2.91100
    D3       -3.13952  -0.00000   0.00000   0.00055   0.00056  -3.13896
    D4        0.24290  -0.00243   0.00000  -0.01240  -0.01250   0.23040
    D5       -0.00671   0.00021   0.00000   0.00001  -0.00007  -0.00678
    D6       -3.13020   0.00041   0.00000   0.00177   0.00176  -3.12844
    D7        3.13954  -0.00074   0.00000  -0.00446  -0.00453   3.13500
    D8        0.01605  -0.00054   0.00000  -0.00269  -0.00271   0.01334
    D9       -0.00388   0.00138   0.00000   0.00615   0.00615   0.00227
   D10        3.11762   0.00084   0.00000   0.00197   0.00204   3.11966
   D11        2.91927   0.00478   0.00000   0.01983   0.01976   2.93903
   D12       -0.24242   0.00424   0.00000   0.01565   0.01564  -0.22677
   D13       -0.28016   0.00165   0.00000   0.00280   0.00271  -0.27745
   D14        3.11413  -0.00451   0.00000  -0.01582  -0.01573   3.09839
   D15        0.00006  -0.00109   0.00000  -0.00526  -0.00522  -0.00517
   D16       -3.12486  -0.00037   0.00000  -0.00138  -0.00130  -3.12616
   D17       -0.00015  -0.00107   0.00000   0.00000  -0.00000  -0.00015
   D18        3.09712   0.00130   0.00000   0.00763   0.00763   3.10475
   D19        3.11994  -0.00185   0.00000  -0.00477  -0.00477   3.11516
   D20       -0.06597   0.00052   0.00000   0.00285   0.00285  -0.06312
   D21        0.00376   0.00056   0.00000   0.00315   0.00316   0.00692
   D22        3.12751   0.00047   0.00000   0.00162   0.00159   3.12910
   D23        3.13758   0.00128   0.00000   0.00471   0.00472  -3.14088
   D24        0.03287  -0.00044   0.00000  -0.00127  -0.00132   0.03156
   D25       -3.13879  -0.00191   0.00000  -0.00656  -0.00655   3.13785
   D26       -0.15732   0.00217   0.00000   0.01007   0.01006  -0.14727
   D27       -0.03710  -0.00006   0.00000  -0.00011  -0.00003  -0.03713
   D28        2.94436   0.00402   0.00000   0.01652   0.01658   2.96094
   D29       -0.02093   0.00122   0.00000   0.00290   0.00289  -0.01803
   D30       -2.61639  -0.00747   0.00000  -0.02649  -0.02653  -2.64292
   D31        0.00283  -0.00106   0.00000  -0.00300  -0.00296  -0.00013
   D32       -2.68817  -0.01012   0.00000  -0.03147  -0.03112  -2.71929
   D33        2.68693   0.00778   0.00000   0.02583   0.02561   2.71254
   D34       -0.00407  -0.00128   0.00000  -0.00264  -0.00255  -0.00662
   D35        2.61400   0.00626   0.00000   0.02699   0.02722   2.64123
   D36       -0.24573  -0.00050   0.00000  -0.00052  -0.00043  -0.24616
   D37        0.01936   0.00108   0.00000   0.00227   0.00222   0.02158
   D38       -2.84037  -0.00568   0.00000  -0.02525  -0.02543  -2.86580
   D39        0.02272   0.00072   0.00000   0.00190   0.00185   0.02457
   D40       -2.96007  -0.00272   0.00000  -0.01338  -0.01353  -2.97360
   D41        2.62776   0.00466   0.00000   0.02380   0.02408   2.65183
   D42       -0.35503   0.00122   0.00000   0.00852   0.00870  -0.34634
   D43       -0.00946   0.00115   0.00000   0.00204   0.00199  -0.00746
   D44       -2.61423  -0.00773   0.00000  -0.02646  -0.02643  -2.64066
   D45        0.02058  -0.00041   0.00000  -0.00060  -0.00060   0.01998
   D46        2.97037   0.00608   0.00000   0.02396   0.02381   2.99418
   D47       -0.02639  -0.00019   0.00000  -0.00071  -0.00066  -0.02704
   D48        2.83783   0.00713   0.00000   0.02782   0.02786   2.86569
   D49       -2.97192  -0.00572   0.00000  -0.02354  -0.02361  -2.99553
   D50       -0.10770   0.00160   0.00000   0.00498   0.00490  -0.10280
         Item               Value     Threshold  Converged?
 Maximum Force            0.110714     0.000450     NO 
 RMS     Force            0.021837     0.000300     NO 
 Maximum Displacement     0.443560     0.001800     NO 
 RMS     Displacement     0.062188     0.001200     NO 
 Predicted change in Energy=-5.488385D-02
 GradGradGradGradGradGradGradGradGradGradGradGradGradGradGradGradGradGrad

                          Input orientation:                          
 ---------------------------------------------------------------------
 Center     Atomic      Atomic             Coordinates (Angstroms)
 Number     Number       Type             X           Y           Z
 ---------------------------------------------------------------------
      1          6           0       -4.205895   -1.344964   -0.220677
      2          6           0       -2.883560   -0.980051   -0.601292
      3          6           0       -1.961318   -2.054591   -0.604709
      4          6           0       -4.316515   -2.708883    0.077878
      5          1           0       -5.039276   -0.661488   -0.163340
      6         16           0       -2.810480   -3.534792   -0.118649
      7          1           0       -5.225308   -3.208466    0.377088
      8          6           0       -0.557776   -2.124550   -0.943157
      9         16           0        0.341104   -0.688182   -1.475478
     10          6           0        1.803798   -1.588498   -1.653194
     11          6           0        1.630124   -2.949534   -1.294919
     12          6           0        0.304493   -3.254183   -0.876277
     13          1           0        0.022583   -4.194834   -0.426590
     14         16           0        3.123715   -3.682811   -0.821495
     15          6           0        3.997169   -2.190469   -1.107461
     16          6           0        3.152635   -1.148084   -1.531612
     17          1           0        5.031717   -2.069414   -0.821652
     18          1           0        3.457393   -0.107810   -1.516366
     19          8           0       -2.341461    0.380326   -0.718942
     20          1           0       -2.916142    1.285278   -0.768156
 ---------------------------------------------------------------------
                    Distance matrix (angstroms):
                    1          2          3          4          5
     1  C    0.000000
     2  C    1.423587   0.000000
     3  C    2.385200   1.416043   0.000000
     4  C    1.400587   2.345952   2.537907   0.000000
     5  H    1.079328   2.222699   3.407251   2.184581   0.000000
     6  S    2.598642   2.600958   1.774352   1.728840   3.636674
     7  H    2.206618   3.377402   3.598470   1.079359   2.610319
     8  C    3.799804   2.614579   1.445466   3.938537   4.778337
     9  S    4.762467   3.353781   2.815396   5.309384   5.538131
    10  C    6.182866   4.842317   3.936073   6.458336   7.064466
    11  C    6.147176   4.973262   3.765073   6.107782   7.141185
    12  C    4.941511   3.925681   2.578114   4.749892   5.982157
    13  H    5.103351   4.337167   2.923736   4.614143   6.178693
    14  S    7.716845   6.590960   5.343750   7.557409   8.729031
    15  C    8.294066   7.004695   5.981203   8.413746   9.213386
    16  C    7.476984   6.109778   5.275739   7.798382   8.319636
    17  H    9.285445   7.992927   6.996416   9.413157  10.190217
    18  H    7.869901   6.465744   5.829537   8.351098   8.621520
    19  O    2.588631   1.469128   2.467058   3.752195   2.944872
    20  H    2.980163   2.271700   3.477517   4.316264   2.943365
                    6          7          8          9         10
     6  S    0.000000
     7  H    2.486692   0.000000
     8  C    2.782674   4.970290   0.000000
     9  S    4.458324   6.385043   1.776092   0.000000
    10  C    5.237791   7.493643   2.523596   1.726739   0.000000
    11  C    4.630886   7.061134   2.364581   2.609193   1.418078
    12  C    3.218043   5.670248   1.422692   2.635288   2.371924
    13  H    2.925190   5.399925   2.211274   3.673993   3.386779
    14  S    5.977506   8.447946   3.999544   4.139858   2.611523
    15  C    7.009211   9.396504   4.558384   3.969775   2.339032
    16  C    6.576594   8.836190   3.881613   2.849451   1.424117
    17  H    8.008846  10.389465   5.591085   4.933269   3.367819
    18  H    7.279014   9.412148   4.529612   3.170136   2.223855
    19  O    3.988543   4.732576   3.083213   2.984997   4.683190
    20  H    4.864781   5.180499   4.149631   3.873564   5.596402
                   11         12         13         14         15
    11  C    0.000000
    12  C    1.423156   0.000000
    13  H    2.211098   1.080053   0.000000
    14  S    1.729924   2.852146   3.167828   0.000000
    15  C    2.492834   3.849778   4.503154   1.752650   0.000000
    16  C    2.370503   3.602365   4.505661   2.632478   1.407021
    17  H    3.545339   4.873737   5.455722   2.498704   1.080107
    18  H    3.385756   4.500017   5.448788   3.657159   2.189984
    19  O    5.214711   4.498386   5.158126   6.810855   6.851143
    20  H    6.235355   5.566946   6.227712   7.820782   7.745309
                   16         17         18         19         20
    16  C    0.000000
    17  H    2.209941   0.000000
    18  H    1.084103   2.609408   0.000000
    19  O    5.760344   7.770169   5.873744   0.000000
    20  H    6.582870   8.627009   6.566769   1.073135   0.000000
 Stoichiometry    C10H6OS3
 Framework group  C1[X(C10H6OS3)]
 Deg. of freedom    54
 Full point group                 C1      NOp   1
 Largest Abelian subgroup         C1      NOp   1
 Largest concise Abelian subgroup C1      NOp   1
                         Standard orientation:                         
 ---------------------------------------------------------------------
 Center     Atomic      Atomic             Coordinates (Angstroms)
 Number     Number       Type             X           Y           Z
 ---------------------------------------------------------------------
      1          6           0       -4.045756    0.363160    0.130188
      2          6           0       -2.721355    0.878114    0.044252
      3          6           0       -1.715561   -0.114527   -0.046395
      4          6           0       -4.074693   -1.036986    0.110249
      5          1           0       -4.936538    0.968255    0.203101
      6         16           0       -2.488525   -1.711506   -0.023856
      7          1           0       -4.967962   -1.641384    0.152538
      8          6           0       -0.278185   -0.027539   -0.171926
      9         16           0        0.554090    1.539967   -0.240800
     10          6           0        2.101531    0.786394   -0.379297
     11          6           0        2.001915   -0.627892   -0.350703
     12          6           0        0.663670   -1.092922   -0.215730
     13          1           0        0.407320   -2.124799   -0.025914
     14         16           0        3.475358   -1.363142    0.179402
     15          6           0        4.243666    0.202173    0.356239
     16          6           0        3.376239    1.263745    0.039467
     17          1           0        5.214127    0.314271    0.816967
     18          1           0        3.582277    2.289633    0.322981
     19          8           0       -2.291356    2.258617    0.304350
     20          1           0       -2.931964    3.117671    0.361511
 ---------------------------------------------------------------------
 Rotational constants (GHZ):           1.2169858           0.2858593           0.2339250
 Standard basis: 6-311+G(d,p) (5D, 7F)
 There are   382 symmetry adapted cartesian basis functions of A   symmetry.
 There are   368 symmetry adapted basis functions of A   symmetry.
   368 basis functions,   594 primitive gaussians,   382 cartesian basis functions
    61 alpha electrons       61 beta electrons
       nuclear repulsion energy      1119.8833279104 Hartrees.
 NAtoms=   20 NActive=   20 NUniq=   20 SFac= 1.00D+00 NAtFMM=   60 NAOKFM=F Big=F
 Integral buffers will be    131072 words long.
 Raffenetti 2 integral format.
 Two-electron integral symmetry is turned on.
 Nuclear repulsion after empirical dispersion term =     1119.8732912865 Hartrees.
 One-electron integrals computed using PRISM.
 NBasis=   368 RedAO= T EigKep=  1.75D-06  NBF=   368
 NBsUse=   367 1.00D-06 EigRej=  3.46D-07 NBFU=   367
 Initial guess from the checkpoint file:  "/tmp/pbs.4762174[175].pbs/Gau-3511577.chk"
 B after Tr=     0.000000    0.000000   -0.000000
         Rot=    0.999995   -0.000871   -0.000453    0.002893 Ang=  -0.35 deg.
 ExpMin= 4.05D-02 ExpMax= 9.34D+04 ExpMxC= 3.17D+03 IAcc=3 IRadAn=         5 AccDes= 0.00D+00
 Harris functional with IExCor= 4639 and IRadAn=       5 diagonalized for initial guess.
 HarFok:  IExCor= 4639 AccDes= 0.00D+00 IRadAn=         5 IDoV= 1 UseB2=F ITyADJ=14
 ICtDFT=  3500011 ScaDFX=  1.000000  1.000000  1.000000  1.000000
 FoFCou: FMM=F IPFlag=           0 FMFlag=      100000 FMFlg1=           0
         NFxFlg=           0 DoJE=T BraDBF=F KetDBF=T FulRan=T
         wScrn=  0.000000 ICntrl=       500 IOpCl=  0 I1Cent=   200000004 NGrid=           0
         NMat0=    1 NMatS0=      1 NMatT0=    0 NMatD0=    1 NMtDS0=    0 NMtDT0=    0
 Petite list used in FoFCou.
 Requested convergence on RMS density matrix=1.00D-08 within 128 cycles.
 Requested convergence on MAX density matrix=1.00D-06.
 Requested convergence on             energy=1.00D-06.
 No special actions if energy rises.
 SCF Done:  E(RwB97XD) =  -1654.36053345     A.U. after   16 cycles
            NFock= 16  Conv=0.72D-08     -V/T= 2.0026
 Calling FoFJK, ICntrl=      2127 FMM=F ISym2X=0 I1Cent= 0 IOpClX= 0 NMat=1 NMatS=1 NMatT=0.
 ***** Axes restored to original set *****
 -------------------------------------------------------------------
 Center     Atomic                   Forces (Hartrees/Bohr)
 Number     Number              X              Y              Z
 -------------------------------------------------------------------
      1        6           0.004965189   -0.028962434    0.004288802
      2        6           0.031306065    0.033706749    0.009748568
      3        6          -0.029675159    0.009626493   -0.000411856
      4        6           0.009415610    0.035544907   -0.011269645
      5        1          -0.000121708    0.001739137    0.000497383
      6       16          -0.002629428    0.017042766   -0.005602286
      7        1           0.002413960   -0.003319748    0.000457022
      8        6           0.032973930   -0.019003513   -0.000233576
      9       16          -0.010213180   -0.008650795   -0.004261737
     10        6           0.003564041   -0.021145207    0.017953331
     11        6          -0.009394024    0.026467596    0.007640689
     12        6          -0.019547768    0.032942868   -0.004102293
     13        1          -0.003295694   -0.001978825   -0.003091714
     14       16           0.009282332    0.006908298   -0.008715117
     15        6          -0.030674675    0.028328869   -0.008705739
     16        6           0.020781618   -0.029349770    0.018234332
     17        1           0.001329114   -0.005130916   -0.003825684
     18        1           0.001955969   -0.002457516   -0.007512084
     19        8          -0.038329886    0.011498048   -0.004965643
     20        1           0.025893694   -0.083807007    0.003877247
 -------------------------------------------------------------------
 Cartesian Forces:  Max     0.083807007 RMS     0.019907046

 GradGradGradGradGradGradGradGradGradGradGradGradGradGradGradGradGradGrad
 Berny optimization.
 Using GEDIIS/GDIIS optimizer.
 FormGI is forming the generalized inverse of G from B-inverse, IUseBI=4.
 Internal  Forces:  Max     0.084717040 RMS     0.014827249
 Search for a local minimum.
 Step number   2 out of a maximum of  116
 All quantities printed in internal units (Hartrees-Bohrs-Radians)
 Mixed Optimization -- RFO/linear search
 Update second derivatives using D2CorX and points    1    2
 DE= -5.81D-02 DEPred=-5.49D-02 R= 1.06D+00
 TightC=F SS=  1.41D+00  RLast= 3.15D-01 DXNew= 5.0454D-01 9.4446D-01
 Trust test= 1.06D+00 RLast= 3.15D-01 DXMaxT set to 5.05D-01
 ITU=  1  0
 Use linear search instead of GDIIS.
     Eigenvalues ---    0.00230   0.00996   0.01054   0.01219   0.01270
     Eigenvalues ---    0.01292   0.01347   0.01401   0.01460   0.01486
     Eigenvalues ---    0.01498   0.01588   0.01592   0.01732   0.02122
     Eigenvalues ---    0.02508   0.14729   0.15267   0.15751   0.15820
     Eigenvalues ---    0.15999   0.16021   0.18314   0.20992   0.22455
     Eigenvalues ---    0.22543   0.23422   0.24098   0.24379   0.24935
     Eigenvalues ---    0.25021   0.25389   0.26250   0.26706   0.28457
     Eigenvalues ---    0.28532   0.30885   0.31350   0.31568   0.34831
     Eigenvalues ---    0.35231   0.35933   0.36005   0.36103   0.36144
     Eigenvalues ---    0.36184   0.36382   0.37533   0.38145   0.39288
     Eigenvalues ---    0.39571   0.40461   0.435711000.000001000.00000
     Eigenvalues --- 1000.000001000.000001000.000001000.000001000.00000
     Eigenvalues --- 1000.000001000.000001000.000001000.000001000.00000
     Eigenvalues --- 1000.000001000.000001000.000001000.000001000.00000
     Eigenvalues --- 1000.000001000.000001000.000001000.000001000.00000
     Eigenvalues --- 1000.000001000.000001000.000001000.000001000.00000
     Eigenvalues --- 1000.000001000.000001000.000001000.000001000.00000
     Eigenvalues --- 1000.000001000.000001000.000001000.000001000.00000
     Eigenvalues --- 1000.000001000.000001000.000001000.000001000.00000
     Eigenvalues --- 1000.000001000.000001000.000001000.000001000.00000
     Eigenvalues --- 1000.000001000.000001000.000001000.000001000.00000
     Eigenvalues --- 1000.00000
 RFO step:  Lambda=-1.04321926D-02 EMin= 2.30044447D-03
 Quartic linear search produced a step of  1.45218.
 Iteration  1 RMS(Cart)=  0.09788505 RMS(Int)=  0.01950871
 Iteration  2 RMS(Cart)=  0.02338800 RMS(Int)=  0.00100409
 Iteration  3 RMS(Cart)=  0.00018180 RMS(Int)=  0.00098808
 Iteration  4 RMS(Cart)=  0.00000019 RMS(Int)=  0.00098808
 Iteration  1 RMS(Cart)=  0.00001645 RMS(Int)=  0.00000837
 Iteration  2 RMS(Cart)=  0.00000896 RMS(Int)=  0.00000935
 Iteration  3 RMS(Cart)=  0.00000488 RMS(Int)=  0.00001056
 Iteration  4 RMS(Cart)=  0.00000266 RMS(Int)=  0.00001136
 Iteration  5 RMS(Cart)=  0.00000145 RMS(Int)=  0.00001183
 Iteration  6 RMS(Cart)=  0.00000079 RMS(Int)=  0.00001209
 Variable       Old X    -DE/DX   Delta X   Delta X   Delta X     New X
                                 (Linear)    (Quad)   (Total)
    R1        2.69019  -0.00989  -0.04209   0.03850  -0.00317   2.68702
    R2        2.64673  -0.03571  -0.09757   0.02135  -0.07629   2.57044
    R3        2.03963   0.00122   0.00248   0.00185   0.00433   2.04397
    R4        2.67593  -0.04090  -0.12072   0.03305  -0.08726   2.58867
    R5        2.77625  -0.07146  -0.19003  -0.07546  -0.26549   2.51076
    R6        3.35304  -0.01753  -0.06207   0.02015  -0.04205   3.31099
    R7        2.73154  -0.00427  -0.02614   0.03700   0.01086   2.74239
    R8        3.26703  -0.00934  -0.02857   0.00776  -0.02129   3.24574
    R9        2.03969  -0.00037  -0.00151   0.00131  -0.00020   2.03949
   R10        3.35633  -0.01117  -0.03783   0.01408  -0.02463   3.33169
   R11        2.68850  -0.04259  -0.11506   0.00806  -0.10746   2.58103
   R12        3.26306  -0.00062  -0.00838   0.01854   0.01030   3.27336
   R13        2.67978  -0.02423  -0.06361   0.00055  -0.06141   2.61837
   R14        2.69119   0.00015  -0.00661   0.01272   0.00663   2.69782
   R15        2.68937  -0.00588  -0.02548   0.02217  -0.00278   2.68660
   R16        3.26908  -0.00000  -0.00558   0.01662   0.01110   3.28019
   R17        2.04100   0.00130   0.00351  -0.00022   0.00330   2.04430
   R18        3.31203  -0.01046  -0.03345   0.01005  -0.02420   3.28783
   R19        2.65888  -0.04028  -0.10640   0.01125  -0.09553   2.56335
   R20        2.04111  -0.00031  -0.00110   0.00065  -0.00045   2.04066
   R21        2.04866  -0.00191  -0.00636   0.00303  -0.00333   2.04533
   R22        2.02793  -0.08472  -0.22332  -0.10036  -0.32368   1.70425
    A1        1.96057  -0.00207  -0.01399   0.00906  -0.00427   1.95630
    A2        2.17620  -0.00008   0.00421  -0.01075  -0.00690   2.16930
    A3        2.14642   0.00214   0.00979   0.00169   0.01113   2.15755
    A4        1.99445   0.00679   0.03278  -0.03104   0.00078   1.99523
    A5        2.21620  -0.00354  -0.00203  -0.01480  -0.01974   2.19646
    A6        2.05121  -0.00247  -0.02643   0.06469   0.03576   2.08697
    A7        1.89725  -0.00080  -0.01038   0.02111   0.01141   1.90866
    A8        2.30458  -0.00691  -0.02082  -0.00540  -0.02655   2.27803
    A9        2.08112   0.00771   0.03108  -0.01561   0.01511   2.09623
   A10        1.95216   0.00012  -0.00179   0.00695   0.00503   1.95718
   A11        2.18502   0.00412   0.01339   0.01302   0.02647   2.21149
   A12        2.14583  -0.00425  -0.01164  -0.01996  -0.03153   2.11430
   A13        1.62033  -0.00404  -0.00663  -0.00599  -0.01320   1.60713
   A14        2.12053  -0.00201  -0.01212   0.01596   0.00375   2.12428
   A15        2.23436  -0.00398  -0.00895  -0.01147  -0.02051   2.21385
   A16        1.92782   0.00605   0.02137  -0.00418   0.01717   1.94499
   A17        1.60870  -0.00521  -0.01522  -0.00046  -0.01510   1.59360
   A18        1.95053  -0.00535  -0.01650   0.00613  -0.01127   1.93926
   A19        2.25528   0.00576   0.02417   0.01836   0.03935   2.29463
   A20        1.97278   0.00274   0.01109  -0.00593   0.00513   1.97791
   A21        1.97562   0.00351   0.01438  -0.00856   0.00519   1.98080
   A22        1.95005  -0.00703  -0.02431   0.01492  -0.01078   1.93928
   A23        2.25619   0.00659   0.02752   0.01878   0.04299   2.29918
   A24        1.96140   0.00101  -0.00398   0.00743   0.00436   1.96576
   A25        2.15664  -0.00197  -0.00471   0.00248  -0.00333   2.15331
   A26        2.15561   0.00145   0.01194  -0.00623   0.00454   2.16015
   A27        1.59550  -0.00097   0.00266  -0.01492  -0.01138   1.58412
   A28        1.96153   0.00221   0.00243   0.01355   0.01540   1.97693
   A29        2.12892  -0.00462  -0.01094  -0.01709  -0.02934   2.09959
   A30        2.17931   0.00329   0.01435   0.00987   0.02311   2.20242
   A31        1.94457   0.00305   0.00812  -0.00698   0.00188   1.94644
   A32        2.17027  -0.00013   0.00675  -0.00331   0.00169   2.17196
   A33        2.13877  -0.00139  -0.00455   0.01656   0.01033   2.14910
   A34        2.19805  -0.04668  -0.17976  -0.04559  -0.22535   1.97270
    D1        0.00282  -0.00048  -0.00583   0.02632   0.02046   0.02329
    D2       -2.91100  -0.00447  -0.02478  -0.08103  -0.10410  -3.01511
    D3       -3.13896   0.00050   0.00081   0.03035   0.03070  -3.10827
    D4        0.23040  -0.00348  -0.01815  -0.07700  -0.09387   0.13652
    D5       -0.00678  -0.00008  -0.00010  -0.00541  -0.00523  -0.01200
    D6       -3.12844   0.00030   0.00256  -0.00568  -0.00317  -3.13161
    D7        3.13500  -0.00104  -0.00658  -0.00936  -0.01538   3.11963
    D8        0.01334  -0.00067  -0.00393  -0.00964  -0.01332   0.00002
    D9        0.00227   0.00083   0.00894  -0.03404  -0.02535  -0.02308
   D10        3.11966   0.00065   0.00296  -0.02888  -0.02636   3.09330
   D11        2.93903   0.00411   0.02869   0.05287   0.08333   3.02236
   D12       -0.22677   0.00394   0.02272   0.05802   0.08232  -0.14445
   D13       -0.27745   0.00132   0.00393   0.05502   0.05904  -0.21841
   D14        3.09839  -0.00382  -0.02285  -0.04412  -0.06706   3.03134
   D15       -0.00517  -0.00071  -0.00758   0.02587   0.01873   0.01357
   D16       -3.12616  -0.00034  -0.00189   0.02140   0.02029  -3.10587
   D17       -0.00015  -0.00132  -0.00000   0.00000   0.00000  -0.00015
   D18        3.10475   0.00101   0.01108   0.01179   0.02304   3.12778
   D19        3.11516  -0.00163  -0.00693   0.00601  -0.00122   3.11395
   D20       -0.06312   0.00070   0.00414   0.01780   0.02181  -0.04131
   D21        0.00692   0.00047   0.00459  -0.01208  -0.00768  -0.00076
   D22        3.12910   0.00022   0.00230  -0.01139  -0.00886   3.12023
   D23       -3.14088   0.00123   0.00685   0.00399   0.01107  -3.12982
   D24        0.03156  -0.00055  -0.00191  -0.00569  -0.00804   0.02352
   D25        3.13785  -0.00171  -0.00951   0.00026  -0.00910   3.12876
   D26       -0.14727   0.00209   0.01461   0.02725   0.04196  -0.10530
   D27       -0.03713   0.00029  -0.00004   0.01136   0.01181  -0.02532
   D28        2.96094   0.00409   0.02407   0.03836   0.06287   3.02381
   D29       -0.01803   0.00091   0.00420  -0.00167   0.00261  -0.01542
   D30       -2.64292  -0.00651  -0.03853  -0.04196  -0.08120  -2.72411
   D31       -0.00013  -0.00065  -0.00430   0.00866   0.00430   0.00417
   D32       -2.71929  -0.00842  -0.04519  -0.04523  -0.08760  -2.80688
   D33        2.71254   0.00694   0.03719   0.04909   0.08386   2.79640
   D34       -0.00662  -0.00083  -0.00370  -0.00479  -0.00804  -0.01466
   D35        2.64123   0.00614   0.03953   0.03041   0.07125   2.71247
   D36       -0.24616  -0.00016  -0.00063   0.00157   0.00187  -0.24429
   D37        0.02158   0.00053   0.00323  -0.01323  -0.01043   0.01115
   D38       -2.86580  -0.00577  -0.03694  -0.04208  -0.07981  -2.94561
   D39        0.02457   0.00024   0.00269  -0.01294  -0.01057   0.01400
   D40       -2.97360  -0.00322  -0.01964  -0.04075  -0.06111  -3.03471
   D41        2.65183   0.00538   0.03496   0.04948   0.08599   2.73782
   D42       -0.34634   0.00192   0.01263   0.02167   0.03546  -0.31088
   D43       -0.00746   0.00089   0.00290   0.01609   0.01848   0.01102
   D44       -2.64066  -0.00657  -0.03838  -0.04011  -0.07964  -2.72030
   D45        0.01998  -0.00052  -0.00087  -0.02375  -0.02482  -0.00485
   D46        2.99418   0.00536   0.03458   0.01664   0.04959   3.04377
   D47       -0.02704   0.00016  -0.00095   0.02501   0.02454  -0.00251
   D48        2.86569   0.00652   0.04045   0.04996   0.09140   2.95709
   D49       -2.99553  -0.00502  -0.03429  -0.01372  -0.04908  -3.04461
   D50       -0.10280   0.00135   0.00711   0.01123   0.01779  -0.08501
         Item               Value     Threshold  Converged?
 Maximum Force            0.084717     0.000450     NO 
 RMS     Force            0.014896     0.000300     NO 
 Maximum Displacement     0.764900     0.001800     NO 
 RMS     Displacement     0.107429     0.001200     NO 
 Predicted change in Energy=-5.728970D-02
 GradGradGradGradGradGradGradGradGradGradGradGradGradGradGradGradGradGrad

                          Input orientation:                          
 ---------------------------------------------------------------------
 Center     Atomic      Atomic             Coordinates (Angstroms)
 Number     Number       Type             X           Y           Z
 ---------------------------------------------------------------------
      1          6           0       -4.172054   -1.319471   -0.236044
      2          6           0       -2.831538   -0.966922   -0.553141
      3          6           0       -1.955593   -2.020132   -0.550662
      4          6           0       -4.301392   -2.645925    0.035953
      5          1           0       -4.998350   -0.621683   -0.220789
      6         16           0       -2.809227   -3.484438   -0.106855
      7          1           0       -5.211167   -3.165721    0.294621
      8          6           0       -0.541117   -2.070870   -0.871129
      9         16           0        0.349984   -0.631180   -1.362655
     10          6           0        1.808587   -1.547660   -1.544364
     11          6           0        1.604899   -2.879337   -1.220355
     12          6           0        0.269374   -3.169405   -0.828664
     13          1           0       -0.051002   -4.131095   -0.450776
     14         16           0        3.108356   -3.676639   -0.878410
     15          6           0        3.982655   -2.198844   -1.159098
     16          6           0        3.181441   -1.158583   -1.499568
     17          1           0        5.045500   -2.151138   -0.974160
     18          1           0        3.529483   -0.134860   -1.547801
     19          8           0       -2.372463    0.267391   -0.729198
     20          1           0       -3.029375    0.880511   -0.805902
 ---------------------------------------------------------------------
                    Distance matrix (angstroms):
                    1          2          3          4          5
     1  C    0.000000
     2  C    1.421909   0.000000
     3  C    2.345765   1.369868   0.000000
     4  C    1.360218   2.307933   2.497701   0.000000
     5  H    1.081621   2.219171   3.364943   2.156205   0.000000
     6  S    2.561459   2.556865   1.752098   1.717573   3.605635
     7  H    2.184034   3.349038   3.553258   1.079254   2.604432
     8  C    3.761867   2.562391   1.451212   3.910647   4.731808
     9  S    4.710820   3.300018   2.811442   5.258384   5.468877
    10  C    6.126324   4.780224   3.921700   6.405891   6.995976
    11  C    6.064259   4.876933   3.723416   6.042936   7.049753
    12  C    4.847653   3.813462   2.519641   4.681185   5.882967
    13  H    4.993437   4.213532   2.844927   4.528626   6.070018
    14  S    7.679404   6.536873   5.338072   7.536763   8.688147
    15  C    8.253763   6.951118   5.972011   8.381734   9.166586
    16  C    7.462993   6.090022   5.294507   7.782211   8.296536
    17  H    9.284385   7.976676   7.015113   9.414327  10.187527
    18  H    7.901752   6.491861   5.885116   8.374743   8.644182
    19  O    2.449461   1.328636   2.332042   3.576820   2.818549
    20  H    2.543692   1.875109   3.103528   3.842199   2.544760
                    6          7          8          9         10
     6  S    0.000000
     7  H    2.456029   0.000000
     8  C    2.779678   4.936299   0.000000
     9  S    4.438325   6.332209   1.763057   0.000000
    10  C    5.209775   7.434847   2.499621   1.732189   0.000000
    11  C    4.592444   6.988271   2.319690   2.578618   1.385580
    12  C    3.177741   5.594472   1.365824   2.595039   2.347650
    13  H    2.853814   5.302346   2.159036   3.638918   3.365731
    14  S    5.970764   8.417334   3.987129   4.137382   2.581752
    15  C    6.992112   9.358126   4.534734   3.961730   2.301964
    16  C    6.575512   8.813830   3.883895   2.883409   1.427625
    17  H    8.014153  10.384528   5.588144   4.950664   3.341694
    18  H    7.312677   9.432900   4.558048   3.223325   2.226543
    19  O    3.828093   4.570855   2.973456   2.936054   4.630344
    20  H    4.426049   4.726877   3.860872   3.743695   5.463261
                   11         12         13         14         15
    11  C    0.000000
    12  C    1.421685   0.000000
    13  H    2.213856   1.081799   0.000000
    14  S    1.735800   2.884368   3.220394   0.000000
    15  C    2.473974   3.852224   4.528322   1.739846   0.000000
    16  C    2.350413   3.601896   4.514918   2.594569   1.356469
    17  H    3.525425   4.885634   5.492585   2.467560   1.079870
    18  H    3.367996   4.511533   5.476607   3.628999   2.148601
    19  O    5.095345   4.335984   4.981303   6.754037   6.830421
    20  H    5.982033   5.223416   5.840635   7.644908   7.666534
[...]
 Stoichiometry    C10H6OS3
 Framework group  C1[X(C10H6OS3)]
 Deg. of freedom    54
 Full point group                 C1      NOp   1
 Largest Abelian subgroup         C1      NOp   1
 Largest concise Abelian subgroup C1      NOp   1
                         Standard orientation:                         
 ---------------------------------------------------------------------
 Center     Atomic      Atomic             Coordinates (Angstroms)
 Number     Number       Type             X           Y           Z
 ---------------------------------------------------------------------
      1          6           0       -4.014363    0.380455   -0.004110
      2          6           0       -2.672687    0.859846    0.002717
      3          6           0       -1.726972   -0.133565    0.004446
      4          6           0       -4.072955   -0.976572   -0.007580
      5          1           0       -4.885742    1.023512   -0.003892
      6         16           0       -2.510453   -1.689148    0.000082
      7          1           0       -4.952081   -1.602328   -0.011389
      8          6           0       -0.279152   -0.025981    0.003870
      9         16           0        0.521041    1.539193    0.000344
     10          6           0        2.075349    0.779001   -0.001524
     11          6           0        1.958230   -0.596060    0.001099
     12          6           0        0.618225   -1.060872    0.004579
     13          1           0        0.328440   -2.102973    0.007397
     14         16           0        3.517846   -1.349773    0.000150
     15          6           0        4.296714    0.204549   -0.003864
     16          6           0        3.421698    1.244773   -0.004461
     17          1           0        5.375290    0.253732   -0.005587
     18          1           0        3.723650    2.282693   -0.006736
     19          8           0       -2.321152    2.170721    0.013687
     20          1           0       -3.099807    2.721805   -0.069532
 ---------------------------------------------------------------------
 Rotational constants (GHZ):           1.3029729           0.2850637           0.2338950

 **********************************************************************

            Population analysis using the SCF Density.

 **********************************************************************

 Orbital symmetries:
       Occupied  (A) (A) (A) (A) (A) (A) (A) (A) (A) (A) (A) (A)
                 (A) (A) (A) (A) (A) (A) (A) (A) (A) (A) (A) (A)
                 (A) (A) (A) (A) (A) (A) (A) (A) (A) (A) (A) (A)
                 (A) (A) (A) (A) (A) (A) (A) (A) (A) (A) (A) (A)
                 (A) (A) (A) (A) (A) (A) (A) (A) (A) (A) (A) (A)
                 (A)
       Virtual   (A) (A) (A) (A) (A) (A) (A) (A) (A) (A) (A) (A)
                 (A) (A) (A) (A) (A) (A) (A) (A) (A) (A) (A) (A)
                 (A) (A) (A) (A) (A) (A) (A) (A) (A) (A) (A) (A)
                 (A) (A) (A) (A) (A) (A) (A) (A) (A) (A) (A) (A)
                 (A) (A) (A) (A) (A) (A) (A) (A) (A) (A) (A) (A)
                 (A) (A) (A) (A) (A) (A) (A) (A) (A) (A) (A) (A)
                 (A) (A) (A) (A) (A) (A) (A) (A) (A) (A) (A) (A)
                 (A) (A) (A) (A) (A) (A) (A) (A) (A) (A) (A) (A)
                 (A) (A) (A) (A) (A) (A) (A) (A) (A) (A) (A) (A)
                 (A) (A) (A) (A) (A) (A) (A) (A) (A) (A) (A) (A)
                 (A) (A) (A) (A) (A) (A) (A) (A) (A) (A) (A) (A)
                 (A) (A) (A) (A) (A) (A) (A) (A) (A) (A) (A) (A)
                 (A) (A) (A) (A) (A) (A) (A) (A) (A) (A) (A) (A)
                 (A) (A) (A) (A) (A) (A) (A) (A) (A) (A) (A) (A)
                 (A) (A) (A) (A) (A) (A) (A) (A) (A) (A) (A) (A)
                 (A) (A) (A) (A) (A) (A) (A) (A) (A) (A) (A) (A)
                 (A) (A) (A) (A) (A) (A) (A) (A) (A) (A) (A) (A)
                 (A) (A) (A) (A) (A) (A) (A) (A) (A) (A) (A) (A)
                 (A) (A) (A) (A) (A) (A) (A) (A) (A) (A) (A) (A)
                 (A) (A) (A) (A) (A) (A) (A) (A) (A) (A) (A) (A)
                 (A) (A) (A) (A) (A) (A) (A) (A) (A) (A) (A) (A)
                 (A) (A) (A) (A) (A) (A) (A) (A) (A) (A) (A) (A)
                 (A) (A) (A) (A) (A) (A) (A) (A) (A) (A) (A) (A)
                 (A) (A) (A) (A) (A) (A) (A) (A) (A) (A) (A) (A)
                 (A) (A) (A) (A) (A) (A) (A) (A) (A) (A) (A) (A)
                 (A) (A) (A) (A) (A)
 The electronic state is 1-A.
 Alpha  occ. eigenvalues --  -89.05405 -89.04462 -89.04331 -19.29649 -10.36306
 Alpha  occ. eigenvalues --  -10.33604 -10.32953 -10.32846 -10.31759 -10.31698
 Alpha  occ. eigenvalues --  -10.31490 -10.30620 -10.29935 -10.29758  -8.09481
 Alpha  occ. eigenvalues --   -8.08507  -8.08341  -6.04328  -6.03942  -6.03553
 Alpha  occ. eigenvalues --   -6.03358  -6.03205  -6.02985  -6.02820  -6.02567
 Alpha  occ. eigenvalues --   -6.02376  -1.18772  -1.01641  -0.99912  -0.94870
 Alpha  occ. eigenvalues --   -0.87002  -0.86013  -0.84252  -0.80440  -0.79853
 Alpha  occ. eigenvalues --   -0.71134  -0.70613  -0.66300  -0.65182  -0.62006
 Alpha  occ. eigenvalues --   -0.61069  -0.58111  -0.57361  -0.53659  -0.53051
 Alpha  occ. eigenvalues --   -0.52055  -0.50137  -0.49119  -0.47364  -0.46920
 Alpha  occ. eigenvalues --   -0.46167  -0.45323  -0.44682  -0.43316  -0.42860
 Alpha  occ. eigenvalues --   -0.40968  -0.36716  -0.34514  -0.32319  -0.30149
 Alpha  occ. eigenvalues --   -0.26556
 Alpha virt. eigenvalues --    0.00743   0.04747   0.05717   0.05844   0.06119
 Alpha virt. eigenvalues --    0.06643   0.07507   0.08361   0.08649   0.08972
 Alpha virt. eigenvalues --    0.09417   0.09677   0.09929   0.10642   0.11071
 Alpha virt. eigenvalues --    0.11096   0.11351   0.12149   0.12754   0.13308
 Alpha virt. eigenvalues --    0.14047   0.14283   0.14318   0.14759   0.15142
 Alpha virt. eigenvalues --    0.15758   0.16478   0.17072   0.17376   0.17696
 Alpha virt. eigenvalues --    0.18364   0.18811   0.18972   0.19565   0.19736
 Alpha virt. eigenvalues --    0.20922   0.21343   0.21636   0.21713   0.22325
 Alpha virt. eigenvalues --    0.22449   0.22826   0.23039   0.23218   0.23869
 Alpha virt. eigenvalues --    0.24285   0.24563   0.25443   0.25681   0.26350
 Alpha virt. eigenvalues --    0.26538   0.27179   0.27355   0.27919   0.28042
 Alpha virt. eigenvalues --    0.28425   0.28665   0.29405   0.30052   0.30492
 Alpha virt. eigenvalues --    0.31260   0.31922   0.32742   0.33568   0.34503
 Alpha virt. eigenvalues --    0.34647   0.35159   0.36049   0.36734   0.37870
 Alpha virt. eigenvalues --    0.38767   0.39954   0.40019   0.40304   0.41204
 Alpha virt. eigenvalues --    0.42376   0.42411   0.43580   0.44221   0.45388
 Alpha virt. eigenvalues --    0.46010   0.47342   0.47942   0.51687   0.52177
 Alpha virt. eigenvalues --    0.53014   0.53747   0.54895   0.56270   0.57569
 Alpha virt. eigenvalues --    0.58610   0.59828   0.60995   0.61253   0.62091
 Alpha virt. eigenvalues --    0.62305   0.64063   0.64867   0.65392   0.65908
 Alpha virt. eigenvalues --    0.67815   0.68150   0.69079   0.70255   0.70758
 Alpha virt. eigenvalues --    0.71440   0.71577   0.73380   0.74483   0.76392
 Alpha virt. eigenvalues --    0.78901   0.79898   0.80484   0.81069   0.81484
 Alpha virt. eigenvalues --    0.81800   0.82223   0.83154   0.83579   0.85428
 Alpha virt. eigenvalues --    0.86064   0.86503   0.87691   0.88213   0.90073
 Alpha virt. eigenvalues --    0.90630   0.90728   0.91594   0.92283   0.93247
 Alpha virt. eigenvalues --    0.94073   0.94342   0.95716   0.96224   0.97339
 Alpha virt. eigenvalues --    0.98467   0.99308   1.01097   1.03040   1.04130
 Alpha virt. eigenvalues --    1.04508   1.06765   1.08252   1.08809   1.09586
 Alpha virt. eigenvalues --    1.11021   1.12058   1.12450   1.13646   1.15073
 Alpha virt. eigenvalues --    1.15449   1.15734   1.16704   1.17678   1.20716
 Alpha virt. eigenvalues --    1.22367   1.22540   1.23500   1.27529   1.29055
 Alpha virt. eigenvalues --    1.31670   1.33558   1.35783   1.40303   1.42952
 Alpha virt. eigenvalues --    1.43692   1.44805   1.47438   1.48677   1.51226
 Alpha virt. eigenvalues --    1.53254   1.58776   1.61409   1.63704   1.64375
 Alpha virt. eigenvalues --    1.66072   1.68462   1.68556   1.69423   1.69641
 Alpha virt. eigenvalues --    1.72944   1.74580   1.75246   1.79280   1.80469
 Alpha virt. eigenvalues --    1.81676   1.82352   1.83125   1.83548   1.86495
 Alpha virt. eigenvalues --    1.86640   1.87357   1.87733   1.90855   1.93449
 Alpha virt. eigenvalues --    1.95190   1.96725   1.96988   2.00236   2.00553
 Alpha virt. eigenvalues --    2.01016   2.04868   2.05575   2.07048   2.08485
 Alpha virt. eigenvalues --    2.11320   2.12628   2.14008   2.15404   2.17038
 Alpha virt. eigenvalues --    2.17914   2.18846   2.19314   2.21779   2.22672
 Alpha virt. eigenvalues --    2.23422   2.24645   2.25968   2.27147   2.29343
 Alpha virt. eigenvalues --    2.31426   2.35844   2.43302   2.47454   2.51970
 Alpha virt. eigenvalues --    2.52875   2.58490   2.61395   2.64107   2.69185
 Alpha virt. eigenvalues --    2.72764   2.73508   2.75940   2.78397   2.80350
 Alpha virt. eigenvalues --    2.80697   2.80931   2.81583   2.82362   2.84470
 Alpha virt. eigenvalues --    2.84581   2.87791   2.91257   2.95466   3.01003
 Alpha virt. eigenvalues --    3.02443   3.04309   3.07773   3.08046   3.12800
 Alpha virt. eigenvalues --    3.16930   3.17892   3.23741   3.24257   3.26783
 Alpha virt. eigenvalues --    3.28685   3.32467   3.39500   3.41147   3.41701
 Alpha virt. eigenvalues --    3.45112   3.48204   3.55860   3.57713   3.59113
 Alpha virt. eigenvalues --    3.63095   3.68500   3.79652   3.98593   4.02757
 Alpha virt. eigenvalues --    4.08035   4.15785   4.21469   4.31773   4.48475
 Alpha virt. eigenvalues --    4.69726   5.10555   5.58066   5.86126   8.10701
 Alpha virt. eigenvalues --    8.12321   8.13216  17.41746  17.42588  17.44126
 Alpha virt. eigenvalues --   17.60377  17.62303  17.65023  17.69401  17.71316
 Alpha virt. eigenvalues --   17.74212  23.60739  23.76566  23.90913  23.94319
 Alpha virt. eigenvalues --   23.99727  24.18609  24.20283  24.26788  24.29719
 Alpha virt. eigenvalues --   24.30666  50.08030 189.35731 189.37632 189.38550
          Condensed to atoms (all electrons):
               1          2          3          4          5          6
     1  C   14.213461  -9.262823   2.472034  -1.418119   0.447901   0.820840
     2  C   -9.262823  26.259491  -7.782918   3.082182  -0.137051  -3.693310
     3  C    2.472034  -7.782918  12.019104  -1.427369   0.009499   0.856355
     4  C   -1.418119   3.082182  -1.427369   6.261862   0.036896  -0.265935
     5  H    0.447901  -0.137051   0.009499   0.036896   0.499321   0.008105
     6  S    0.820840  -3.693310   0.856355  -0.265935   0.008105  17.880294
     7  H    0.087771  -0.071671   0.047436   0.338227  -0.003760  -0.031756
     8  C   -0.170285  -1.245154  -0.119280  -0.215008  -0.005991   0.891382
     9  S   -0.267771  -0.128452   0.297113   0.096203  -0.000216   0.075169
    10  C    0.242956  -1.754079  -0.453770  -0.131442   0.000259   0.403851
    11  C   -0.456889   0.893420  -0.127234   0.086487  -0.000224  -0.328601
    12  C   -0.093729  -0.769878  -0.747072  -0.233315   0.001319  -0.081058
    13  H   -0.010864   0.013737   0.030630   0.009488  -0.000000   0.012172
    14  S   -0.019754   0.075562   0.008416   0.006809  -0.000002  -0.036443
    15  C   -0.003740  -0.048826  -0.079295  -0.000315   0.000001   0.007371
    16  C    0.025644  -0.051260   0.310057  -0.008670   0.000013   0.035603
    17  H    0.000000   0.000056   0.000106  -0.000000   0.000000  -0.000013
    18  H    0.000037  -0.000525  -0.001255  -0.000007   0.000000   0.000029
    19  O    0.141574  -0.293715   0.149104  -0.026098  -0.004059   0.051755
    20  H   -0.284268   0.345257  -0.043213   0.013613   0.002707  -0.012936
               7          8          9         10         11         12
     1  C    0.087771  -0.170285  -0.267771   0.242956  -0.456889  -0.093729
     2  C   -0.071671  -1.245154  -0.128452  -1.754079   0.893420  -0.769878
     3  C    0.047436  -0.119280   0.297113  -0.453770  -0.127234  -0.747072
     4  C    0.338227  -0.215008   0.096203  -0.131442   0.086487  -0.233315
     5  H   -0.003760  -0.005991  -0.000216   0.000259  -0.000224   0.001319
     6  S   -0.031756   0.891382   0.075169   0.403851  -0.328601  -0.081058
     7  H    0.444114  -0.002088  -0.000818  -0.000080  -0.000050   0.001792
     8  C   -0.002088  10.699923   0.719341  -0.931992  -2.368371  -0.385897
     9  S   -0.000818   0.719341  17.824742  -0.197537  -0.979005  -0.682658
    10  C   -0.000080  -0.931992  -0.197537  17.122976  -5.418355   0.334971
    11  C   -0.000050  -2.368371  -0.979005  -5.418355  12.882266   1.116819
    12  C    0.001792  -0.385897  -0.682658   0.334971   1.116819   7.869802
    13  H   -0.000001   0.057306   0.018576  -0.095376  -0.068884   0.372378
    14  S    0.000001  -1.196492  -0.000776   0.114719  -0.217697   0.097659
    15  C   -0.000001  -0.302054   0.000104   1.160000  -0.926908   0.115372
    16  C   -0.000003   0.542820  -0.344099  -4.476138   1.535790  -0.965187
    17  H    0.000000   0.005791  -0.000292   0.010098   0.029043  -0.001702
    18  H    0.000000  -0.008070   0.016622   0.022472  -0.061847  -0.000286
    19  O   -0.000286  -0.038787  -0.019680   0.049781  -0.026398   0.016256
    20  H    0.000010   0.027983   0.002576  -0.010550   0.002438  -0.002339
              13         14         15         16         17         18
     1  C   -0.010864  -0.019754  -0.003740   0.025644   0.000000   0.000037
     2  C    0.013737   0.075562  -0.048826  -0.051260   0.000056  -0.000525
     3  C    0.030630   0.008416  -0.079295   0.310057   0.000106  -0.001255
     4  C    0.009488   0.006809  -0.000315  -0.008670  -0.000000  -0.000007
     5  H   -0.000000  -0.000002   0.000001   0.000013   0.000000   0.000000
     6  S    0.012172  -0.036443   0.007371   0.035603  -0.000013   0.000029
     7  H   -0.000001   0.000001  -0.000001  -0.000003   0.000000   0.000000
     8  C    0.057306  -1.196492  -0.302054   0.542820   0.005791  -0.008070
     9  S    0.018576  -0.000776   0.000104  -0.344099  -0.000292   0.016622
    10  C   -0.095376   0.114719   1.160000  -4.476138   0.010098   0.022472
    11  C   -0.068884  -0.217697  -0.926908   1.535790   0.029043  -0.061847
    12  C    0.372378   0.097659   0.115372  -0.965187  -0.001702  -0.000286
    13  H    0.489307   0.011924  -0.001924   0.000155  -0.000003   0.000002
    14  S    0.011924  17.811936   0.468231  -0.603796  -0.041889   0.007669
    15  C   -0.001924   0.468231   5.780292  -0.393311   0.384969   0.026748
    16  C    0.000155  -0.603796  -0.393311  10.249464  -0.019096   0.358755
    17  H   -0.000003  -0.041889   0.384969  -0.019096   0.445265  -0.003648
    18  H    0.000002   0.007669   0.026748   0.358755  -0.003648   0.484635
    19  O    0.000051  -0.000843  -0.000130   0.000704   0.000000  -0.000004
    20  H   -0.000003  -0.000034  -0.000079   0.001009   0.000000  -0.000001
              19         20
     1  C    0.141574  -0.284268
     2  C   -0.293715   0.345257
     3  C    0.149104  -0.043213
     4  C   -0.026098   0.013613
     5  H   -0.004059   0.002707
     6  S    0.051755  -0.012936
     7  H   -0.000286   0.000010
     8  C   -0.038787   0.027983
     9  S   -0.019680   0.002576
    10  C    0.049781  -0.010550
    11  C   -0.026398   0.002438
    12  C    0.016256  -0.002339
    13  H    0.000051  -0.000003
    14  S   -0.000843  -0.000034
    15  C   -0.000130  -0.000079
    16  C    0.000704   0.001009
    17  H    0.000000   0.000000
    18  H   -0.000004  -0.000001
    19  O    8.053836   0.187853
    20  H    0.187853   0.489800
 Mulliken charges:
               1
     1  C   -0.463978
     2  C    0.569956
     3  C    0.581554
     4  C   -0.205486
     5  H    0.145281
     6  S   -0.592877
     7  H    0.191163
     8  C    0.044923
     9  S   -0.429144
    10  C    0.007235
    11  C    0.434203
    12  C    0.036753
    13  H    0.161329
    14  S   -0.485200
    15  C   -0.186506
    16  C   -0.198455
    17  H    0.191315
    18  H    0.158673
    19  O   -0.240913
    20  H    0.280175
 Sum of Mulliken charges =  -0.00000
 Mulliken charges with hydrogens summed into heavy atoms:
               1
     1  C   -0.318697
     2  C    0.569956
     3  C    0.581554
     4  C   -0.014323
     6  S   -0.592877
     8  C    0.044923
     9  S   -0.429144
    10  C    0.007235
    11  C    0.434203
    12  C    0.198082
    14  S   -0.485200
    15  C    0.004808
    16  C   -0.039782
    19  O    0.039262
 Electronic spatial extent (au):  <R**2>=           4281.6283
 Charge=              0.0000 electrons
 Dipole moment (field-independent basis, Debye):
    X=             -2.5752    Y=              1.0014    Z=             -0.1381  Tot=              2.7665
 Quadrupole moment (field-independent basis, Debye-Ang):
   XX=            -76.2744   YY=            -93.2201   ZZ=           -108.4636
   XY=             -1.7101   XZ=              0.4570   YZ=             -0.4586
 Traceless Quadrupole moment (field-independent basis, Debye-Ang):
   XX=             16.3783   YY=             -0.5674   ZZ=            -15.8109
   XY=             -1.7101   XZ=              0.4570   YZ=             -0.4586
 Octapole moment (field-independent basis, Debye-Ang**2):
  XXX=            -55.4113  YYY=             22.2972  ZZZ=              0.0431  XYY=            -26.3925
  XXY=             37.4880  XXZ=             -1.6442  XZZ=             -3.9741  YZZ=              3.1009
  YYZ=             -1.3188  XYZ=              1.3197
 Hexadecapole moment (field-independent basis, Debye-Ang**3):
 XXXX=          -3929.7069 YYYY=           -978.3092 ZZZZ=           -133.3561 XXXY=            -28.5481
 XXXZ=              4.5446 YYYX=            -52.1069 YYYZ=             -3.8718 ZZZX=              0.0413
 ZZZY=             -0.1285 XXYY=           -812.1788 XXZZ=           -891.0741 YYZZ=           -212.9306
 XXYZ=             -4.2310 YYXZ=              4.1695 ZZXY=            -13.1252
 N-N= 1.132576420480D+03 E-N=-6.176932176037D+03  KE= 1.651136520287D+03
 Unable to Open any file for archive entry.
 1\1\GINC-CX3-2-10\FOpt\RwB97XD\6-311+G(d,p)\C10H6O1S3\NS5018\26-Oct-20
 21\0\\# opt=modredundant wb97xd/6-311+g(d,p)\\pBTTT_0.pdb\\0,1\C,-4.19
 05076313,-1.3274939716,-0.3030722664\C,-2.833319084,-0.9733853635,-0.5
 532765037\C,-1.9634502339,-2.032594444,-0.5018025557\C,-4.3368798165,-
 2.6564712621,-0.0635668938\H,-5.0094019576,-0.6188097605,-0.3015217847
 \S,-2.8387734714,-3.4930290706,-0.1348687488\H,-5.2462872612,-3.194640
 9238,0.1550654774\C,-0.5265951839,-2.054415908,-0.70850961\S,0.3647318
 568,-0.5873120082,-1.0869736876\C,1.8502989559,-1.471494582,-1.1582625
 246\C,1.6458212807,-2.8120486264,-0.9021014889\C,0.2926973225,-3.15029
 88216,-0.6445785858\H,-0.060695807,-4.1484170321,-0.4236020414\S,3.137
 1813859,-3.6901813928,-0.974303642\C,4.0066732782,-2.2319442156,-1.348
 6009016\C,3.2098285996,-1.1327707669,-1.416243602\H,5.0748880763,-2.27
 88395549,-1.498485591\H,3.5750447102,-0.1397433434,-1.6375398327\O,-2.
 399541988,0.2856704813,-0.8153927346\H,-3.1447130314,0.8822205666,-0.8
 913624821\\Version=ES64L-G16RevC.01\State=1-A\HF=-1654.4118441\RMSD=9.
 600e-09\RMSF=2.125e-05\Dipole=-0.9828669,0.4675155,0.0098501\Quadrupol
 e=11.5641975,-0.5237413,-11.0404562,-2.5861905,-2.6517641,-1.8698424\P
 G=C01 [X(C10H6O1S3)]\\@
 The archive entry for this job was punched.


 You don't have to suffer to be a poet.
 Adolescence is enough suffering for anyone.
                             -- John Ciardi
 Job cpu time:       0 days  5 hours 42 minutes 49.5 seconds.
 Elapsed time:       0 days  0 hours 43 minutes 15.9 seconds.
 File lengths (MBytes):  RWF=     86 Int=      0 D2E=      0 Chk=     11 Scr=      1
 Normal termination of Gaussian 16 at Tue Oct 26 00:23:18 2021.
