 Entering Gaussian System, Link 0=g16
 Input=pBTTT_-90.gjf
 Output=pBTTT_-90.log
 Initial command:
 /apps/gaussian/g16-c01-avx/g16/l1.exe "/tmp/pbs.4762174[85].pbs/Gau-3309952.inp" -scrdir="/tmp/pbs.4762174[85].pbs/"
 Entering Link 1 = /apps/gaussian/g16-c01-avx/g16/l1.exe PID=   3309953.
  
 Copyright (c) 1988-2019, Gaussian, Inc.  All Rights Reserved.
  
 This is part of the Gaussian(R) 16 program.  It is based on
 the Gaussian(R) 09 system (copyright 2009, Gaussian, Inc.),
 the Gaussian(R) 03 system (copyright 2003, Gaussian, Inc.),
 the Gaussian(R) 98 system (copyright 1998, Gaussian, Inc.),
 the Gaussian(R) 94 system (copyright 1995, Gaussian, Inc.),
 the Gaussian 92(TM) system (copyright 1992, Gaussian, Inc.),
 the Gaussian 90(TM) system (copyright 1990, Gaussian, Inc.),
 the Gaussian 88(TM) system (copyright 1988, Gaussian, Inc.),
 the Gaussian 86(TM) system (copyright 1986, Carnegie Mellon
 University), and the Gaussian 82(TM) system (copyright 1983,
 Carnegie Mellon University). Gaussian is a federally registered
 trademark of Gaussian, Inc.
  
 This software contains proprietary and confidential information,
 including trade secrets, belonging to Gaussian, Inc.
  
 This software is provided under written license and may be
 used, copied, transmitted, or stored only in accord with that
 written license.
  
 The following legend is applicable only to US Government
 contracts under FAR:
  
                    RESTRICTED RIGHTS LEGEND
  
 Use, reproduction and disclosure by the US Government is
 subject to restrictions as set forth in subparagraphs (a)
 and (c) of the Commercial Computer Software - Restricted
 Rights clause in FAR 52.227-19.
  
 Gaussian, Inc.
 340 Quinnipiac St., Bldg. 40, Wallingford CT 06492
  
  
 ---------------------------------------------------------------
 Warning -- This program may not be used in any manner that
 competes with the business of Gaussian, Inc. or will provide
 assistance to any competitor of Gaussian, Inc.  The licensee
 of this program is prohibited from giving any competitor of
 Gaussian, Inc. access to this program.  By using this program,
 the user acknowledges that Gaussian, Inc. is engaged in the
 business of creating and licensing software in the field of
 computational chemistry and represents and warrants to the
 licensee that it is not a competitor of Gaussian, Inc. and that
 it will not use this program in any manner prohibited above.
 ---------------------------------------------------------------
  

 Cite this work as:
 Gaussian 16, Revision C.01,
 M. J. Frisch, G. W. Trucks, H. B. Schlegel, G. E. Scuseria, 
 M. A. Robb, J. R. Cheeseman, G. Scalmani, V. Barone, 
 G. A. Petersson, H. Nakatsuji, X. Li, M. Caricato, A. V. Marenich, 
 J. Bloino, B. G. Janesko, R. Gomperts, B. Mennucci, H. P. Hratchian, 
 J. V. Ortiz, A. F. Izmaylov, J. L. Sonnenberg, D. Williams-Young, 
 F. Ding, F. Lipparini, F. Egidi, J. Goings, B. Peng, A. Petrone, 
 T. Henderson, D. Ranasinghe, V. G. Zakrzewski, J. Gao, N. Rega, 
 G. Zheng, W. Liang, M. Hada, M. Ehara, K. Toyota, R. Fukuda, 
 J. Hasegawa, M. Ishida, T. Nakajima, Y. Honda, O. Kitao, H. Nakai, 
 T. Vreven, K. Throssell, J. A. Montgomery, Jr., J. E. Peralta, 
 F. Ogliaro, M. J. Bearpark, J. J. Heyd, E. N. Brothers, K. N. Kudin, 
 V. N. Staroverov, T. A. Keith, R. Kobayashi, J. Normand, 
 K. Raghavachari, A. P. Rendell, J. C. Burant, S. S. Iyengar, 
 J. Tomasi, M. Cossi, J. M. Millam, M. Klene, C. Adamo, R. Cammi, 
 J. W. Ochterski, R. L. Martin, K. Morokuma, O. Farkas, 
 J. B. Foresman, and D. J. Fox, Gaussian, Inc., Wallingford CT, 2019.
 
 ******************************************
 Gaussian 16:  ES64L-G16RevC.01  3-Jul-2019
                25-Oct-2021 
 ******************************************
 %mem=10GB
 %nprocshared=8
 Will use up to    8 processors via shared memory.
 --------------------------------------
 # opt=modredundant wb97xd/6-311+g(d,p)
 --------------------------------------
 1/18=120,19=15,26=3,38=1/1,3;
 2/9=110,12=2,17=6,18=5,40=1/2;
 3/5=4,6=6,7=111,11=2,25=1,30=1,71=1,74=-58/1,2,3;
 4//1;
 5/5=2,38=5/2;
 6/7=2,8=2,9=2,10=2,28=1/1;
 7//1,2,3,16;
 1/18=20,19=15,26=3/3(2);
 2/9=110/2;
 99//99;
 2/9=110/2;
 3/5=4,6=6,7=111,11=2,25=1,30=1,71=1,74=-58/1,2,3;
 4/5=5,16=3,69=1/1;
 5/5=2,38=5/2;
 7//1,2,3,16;
 1/18=20,19=15,26=3/3(-5);
 2/9=110/2;
 6/7=2,8=2,9=2,10=2,19=2,28=1/1;
 99/9=1/99;
 -------------
 pBTTT_-90.pdb
 -------------
 Symbolic Z-matrix:
 Charge =  0 Multiplicity = 1
 C                    -4.25     -1.36     -0.21 
 C                    -2.93     -0.95     -0.61 
 C                    -1.97     -2.05     -0.62 
 C                    -4.33     -2.76      0.1 
 H                    -5.1      -0.7      -0.14 
 S                    -2.8      -3.56     -0.11 
 H                    -5.23     -3.27      0.41 
 C                    -0.56     -2.13     -0.97 
 S                    -0.016    -2.496    -2.636 
 C                     1.656    -2.398    -2.201 
 C                     1.843    -2.063    -0.812 
 C                     0.604    -1.893    -0.113 
 H                     0.543    -1.485     0.883 
 S                     3.358    -1.277    -0.513 
 C                     3.795    -1.383    -2.22 
 C                     2.758    -2.       -3.014 
 H                     4.653    -0.87     -2.63 
 H                     2.715    -1.91     -4.096 
 O                    -2.4       0.49     -0.72 
 H                    -2.92      1.52     -0.76 
 
 Add virtual bond connecting atoms H20        and O19        Dist= 2.18D+00.
 The following ModRedundant input section has been read:
 D       2       3       8       9 F                                           
 

 GradGradGradGradGradGradGradGradGradGradGradGradGradGradGradGradGradGrad
 Berny optimization.
 Initialization pass.
                           ----------------------------
                           !    Initial Parameters    !
                           ! (Angstroms and Degrees)  !
 --------------------------                            --------------------------
 ! Name  Definition              Value          Derivative Info.                !
 --------------------------------------------------------------------------------
 ! R1    R(1,2)                  1.4389         estimate D2E/DX2                !
 ! R2    R(1,4)                  1.4361         estimate D2E/DX2                !
 ! R3    R(1,5)                  1.0784         estimate D2E/DX2                !
 ! R4    R(2,3)                  1.46           estimate D2E/DX2                !
 ! R5    R(2,19)                 1.5384         estimate D2E/DX2                !
 ! R6    R(3,6)                  1.797          estimate D2E/DX2                !
 ! R7    R(3,8)                  1.455          estimate D2E/DX2                !
 ! R8    R(4,6)                  1.7393         estimate D2E/DX2                !
 ! R9    R(4,7)                  1.0799         estimate D2E/DX2                !
 ! R10   R(8,9)                  1.7904         estimate D2E/DX2                !
 ! R11   R(8,12)                 1.4648         estimate D2E/DX2                !
 ! R12   R(9,10)                 1.7304         estimate D2E/DX2                !
 ! R13   R(10,11)                1.441          estimate D2E/DX2                !
 ! R14   R(10,16)                1.4261         estimate D2E/DX2                !
 ! R15   R(11,12)                1.4327         estimate D2E/DX2                !
 ! R16   R(11,14)                1.7327         estimate D2E/DX2                !
 ! R17   R(12,13)                1.0781         estimate D2E/DX2                !
 ! R18   R(14,15)                1.7652         estimate D2E/DX2                !
 ! R19   R(15,16)                1.4445         estimate D2E/DX2                !
 ! R20   R(15,17)                1.0805         estimate D2E/DX2                !
 ! R21   R(16,18)                1.0866         estimate D2E/DX2                !
 ! R22   R(19,20)                1.1545         estimate D2E/DX2                !
 ! A1    A(2,1,4)              112.8843         estimate D2E/DX2                !
 ! A2    A(2,1,5)              124.5209         estimate D2E/DX2                !
 ! A3    A(4,1,5)              122.5942         estimate D2E/DX2                !
 ! A4    A(1,2,3)              112.9799         estimate D2E/DX2                !
 ! A5    A(1,2,19)             127.059          estimate D2E/DX2                !
 ! A6    A(3,2,19)             118.5686         estimate D2E/DX2                !
 ! A7    A(2,3,6)              109.1138         estimate D2E/DX2                !
 ! A8    A(2,3,8)              132.8639         estimate D2E/DX2                !
 ! A9    A(6,3,8)              118.0132         estimate D2E/DX2                !
 ! A10   A(1,4,6)              111.9209         estimate D2E/DX2                !
 ! A11   A(1,4,7)              124.6643         estimate D2E/DX2                !
 ! A12   A(6,4,7)              123.4062         estimate D2E/DX2                !
 ! A13   A(3,6,4)               93.0997         estimate D2E/DX2                !
 ! A14   A(3,8,9)              121.9738         estimate D2E/DX2                !
 ! A15   A(3,8,12)             128.3497         estimate D2E/DX2                !
 ! A16   A(9,8,12)             109.6366         estimate D2E/DX2                !
 ! A17   A(8,9,10)              92.7564         estimate D2E/DX2                !
 ! A18   A(9,10,11)            112.3871         estimate D2E/DX2                !
 ! A19   A(9,10,16)            128.253          estimate D2E/DX2                !
 ! A20   A(11,10,16)           112.6034         estimate D2E/DX2                !
 ! A21   A(10,11,12)           112.6835         estimate D2E/DX2                !
 ! A22   A(10,11,14)           112.659          estimate D2E/DX2                !
 ! A23   A(12,11,14)           128.1783         estimate D2E/DX2                !
 ! A24   A(8,12,11)            112.4935         estimate D2E/DX2                !
 ! A25   A(8,12,13)            123.836          estimate D2E/DX2                !
 ! A26   A(11,12,13)           122.9971         estimate D2E/DX2                !
 ! A27   A(11,14,15)            91.2804         estimate D2E/DX2                !
 ! A28   A(14,15,16)           112.301          estimate D2E/DX2                !
 ! A29   A(14,15,17)           122.3451         estimate D2E/DX2                !
 ! A30   A(16,15,17)           124.3543         estimate D2E/DX2                !
 ! A31   A(10,16,15)           111.1369         estimate D2E/DX2                !
 ! A32   A(10,16,18)           124.0705         estimate D2E/DX2                !
 ! A33   A(15,16,18)           122.7103         estimate D2E/DX2                !
 ! A34   A(2,19,20)            133.0318         estimate D2E/DX2                !
 ! D1    D(4,1,2,3)              0.3915         estimate D2E/DX2                !
 ! D2    D(4,1,2,19)          -165.8104         estimate D2E/DX2                !
 ! D3    D(5,1,2,3)           -179.8811         estimate D2E/DX2                !
 ! D4    D(5,1,2,19)            13.9169         estimate D2E/DX2                !
 ! D5    D(2,1,4,6)             -0.3845         estimate D2E/DX2                !
 ! D6    D(2,1,4,7)           -179.3471         estimate D2E/DX2                !
 ! D7    D(5,1,4,6)            179.8822         estimate D2E/DX2                !
 ! D8    D(5,1,4,7)              0.9196         estimate D2E/DX2                !
 ! D9    D(1,2,3,6)             -0.2224         estimate D2E/DX2                !
 ! D10   D(1,2,3,8)            178.6265         estimate D2E/DX2                !
 ! D11   D(19,2,3,6)           167.2616         estimate D2E/DX2                !
 ! D12   D(19,2,3,8)           -13.8895         estimate D2E/DX2                !
 ! D13   D(1,2,19,20)          -16.0519         estimate D2E/DX2                !
 ! D14   D(3,2,19,20)          178.4264         estimate D2E/DX2                !
 ! D15   D(2,3,6,4)              0.0033         estimate D2E/DX2                !
 ! D16   D(8,3,6,4)           -179.041          estimate D2E/DX2                !
 ! D17   D(2,3,8,9)            -89.9959         Frozen                          !
 ! D18   D(2,3,8,12)            87.4602         estimate D2E/DX2                !
 ! D19   D(6,3,8,9)             88.772          estimate D2E/DX2                !
 ! D20   D(6,3,8,12)           -93.7718         estimate D2E/DX2                !
 ! D21   D(1,4,6,3)              0.2153         estimate D2E/DX2                !
 ! D22   D(7,4,6,3)            179.1932         estimate D2E/DX2                !
 ! D23   D(3,8,9,10)           179.7802         estimate D2E/DX2                !
 ! D24   D(12,8,9,10)            1.8981         estimate D2E/DX2                !
 ! D25   D(3,8,12,11)         -179.8403         estimate D2E/DX2                !
 ! D26   D(3,8,12,13)           -9.0155         estimate D2E/DX2                !
 ! D27   D(9,8,12,11)           -2.1314         estimate D2E/DX2                !
 ! D28   D(9,8,12,13)          168.6934         estimate D2E/DX2                !
 ! D29   D(8,9,10,11)           -1.2177         estimate D2E/DX2                !
 ! D30   D(8,9,10,16)         -149.8772         estimate D2E/DX2                !
 ! D31   D(9,10,11,12)           0.1811         estimate D2E/DX2                !
 ! D32   D(9,10,11,14)        -154.0369         estimate D2E/DX2                !
 ! D33   D(16,10,11,12)        153.9221         estimate D2E/DX2                !
 ! D34   D(16,10,11,14)         -0.2958         estimate D2E/DX2                !
 ! D35   D(9,10,16,15)         149.7594         estimate D2E/DX2                !
 ! D36   D(9,10,16,18)         -14.164          estimate D2E/DX2                !
 ! D37   D(11,10,16,15)          1.1546         estimate D2E/DX2                !
 ! D38   D(11,10,16,18)       -162.7688         estimate D2E/DX2                !
 ! D39   D(10,11,12,8)           1.2933         estimate D2E/DX2                !
 ! D40   D(10,11,12,13)       -169.6205         estimate D2E/DX2                !
 ! D41   D(14,11,12,8)         150.5895         estimate D2E/DX2                !
 ! D42   D(14,11,12,13)        -20.3242         estimate D2E/DX2                !
 ! D43   D(10,11,14,15)         -0.4933         estimate D2E/DX2                !
 ! D44   D(12,11,14,15)       -149.7956         estimate D2E/DX2                !
 ! D45   D(11,14,15,16)          1.1562         estimate D2E/DX2                !
 ! D46   D(11,14,15,17)        170.1737         estimate D2E/DX2                !
 ! D47   D(14,15,16,10)         -1.5211         estimate D2E/DX2                !
 ! D48   D(14,15,16,18)        162.6586         estimate D2E/DX2                !
 ! D49   D(17,15,16,10)       -170.2788         estimate D2E/DX2                !
 ! D50   D(17,15,16,18)         -6.0991         estimate D2E/DX2                !
 --------------------------------------------------------------------------------
 Trust Radius=3.00D-01 FncErr=1.00D-07 GrdErr=1.00D-06 EigMax=2.50D+02 EigMin=1.00D-04
 Number of steps in this run=    116 maximum allowed number of steps=    120.
 GradGradGradGradGradGradGradGradGradGradGradGradGradGradGradGradGradGrad

                          Input orientation:                          
 ---------------------------------------------------------------------
 Center     Atomic      Atomic             Coordinates (Angstroms)
 Number     Number       Type             X           Y           Z
 ---------------------------------------------------------------------
      1          6           0       -4.250000   -1.360000   -0.210000
      2          6           0       -2.930000   -0.950000   -0.610000
      3          6           0       -1.970000   -2.050000   -0.620000
      4          6           0       -4.330000   -2.760000    0.100000
      5          1           0       -5.100000   -0.700000   -0.140000
      6         16           0       -2.800000   -3.560000   -0.110000
      7          1           0       -5.230000   -3.270000    0.410000
      8          6           0       -0.560000   -2.130000   -0.970000
      9         16           0       -0.016000   -2.496000   -2.636000
     10          6           0        1.656000   -2.398000   -2.201000
     11          6           0        1.843000   -2.063000   -0.812000
     12          6           0        0.604000   -1.893000   -0.113000
     13          1           0        0.543000   -1.485000    0.883000
     14         16           0        3.358000   -1.277000   -0.513000
     15          6           0        3.795000   -1.383000   -2.220000
     16          6           0        2.758000   -2.000000   -3.014000
     17          1           0        4.653000   -0.870000   -2.630000
     18          1           0        2.715000   -1.910000   -4.096000
     19          8           0       -2.400000    0.490000   -0.720000
     20          1           0       -2.920000    1.520000   -0.760000
 ---------------------------------------------------------------------
                    Distance matrix (angstroms):
                    1          2          3          4          5
     1  C    0.000000
     2  C    1.438923   0.000000
     3  C    2.417147   1.460034   0.000000
     4  C    1.436141   2.395871   2.567509   0.000000
     5  H    1.078425   2.234346   3.442354   2.212261   0.000000
     6  S    2.636759   2.660639   1.796970   1.739253   3.670218
     7  H    2.234480   3.422397   3.630000   1.079907   2.631406
     8  C    3.845335   2.671872   1.454991   3.969219   4.831708
     9  S    5.010262   3.871200   2.842761   5.115270   5.941607
    10  C    6.318414   5.065509   3.970962   6.423227   7.264603
    11  C    6.162894   4.905212   3.817853   6.278812   7.107363
    12  C    4.884139   3.691262   2.628150   5.014121   5.827486
    13  H    4.917634   3.817984   2.982181   5.097533   5.788454
    14  S    7.614484   6.297244   5.384846   7.853687   8.485860
    15  C    8.292325   6.928580   6.019976   8.561200   9.160454
    16  C    7.575228   6.263790   5.299785   7.779096   8.467470
    17  H    9.239043   7.847846   7.021156   9.577019  10.067274
    18  H    7.994668   6.703717   5.835358   8.243843   8.842413
    19  O    2.665539   1.538376   2.578081   3.867790   3.007075
    20  H    3.219596   2.474571   3.696891   4.587603   3.172570
                    6          7          8          9         10
     6  S    0.000000
     7  H    2.501879   0.000000
     8  C    2.793224   5.001290   0.000000
     9  S    3.906844   6.087938   1.790376   0.000000
    10  C    5.057515   7.415841   2.549086   1.730437   0.000000
    11  C    4.928617   7.278562   2.409121   2.640141   1.441012
    12  C    3.790266   6.017077   1.464757   2.667122   2.391960
    13  H    4.057995   6.061145   2.250832   3.703777   3.403439
    14  S    6.579929   8.864408   4.035738   4.168569   2.646278
    15  C    7.258475   9.587924   4.592008   3.991935   2.367680
    16  C    6.462057   8.783212   3.899226   2.843233   1.426106
    17  H    8.314668  10.614862   5.614140   4.944034   3.391288
    18  H    7.001851   9.234536   4.532759   3.151723   2.225006
    19  O    4.115167   4.839773   3.211308   4.274425   5.194713
    20  H    5.122821   5.445099   4.351574   5.299137   6.194109
                   11         12         13         14         15
    11  C    0.000000
    12  C    1.432697   0.000000
    13  H    2.212941   1.078054   0.000000
    14  S    1.732750   2.850258   3.149017   0.000000
    15  C    2.501033   3.857723   4.496056   1.765235   0.000000
    16  C    2.385372   3.614826   4.511991   2.671653   1.444470
    17  H    3.553093   4.876086   5.441644   2.514829   1.080478
    18  H    3.401242   4.507871   5.448729   3.694865   2.227893
    19  O    4.952709   3.882158   3.889921   6.026583   6.643505
    20  H    5.960433   4.948308   4.870507   6.877318   7.459908
                   16         17         18         19         20
    16  C    0.000000
    17  H    2.239505   0.000000
    18  H    1.086588   2.643218   0.000000
    19  O    6.169887   7.432530   6.581839   0.000000
    20  H    7.050574   8.158390   7.392362   1.154513   0.000000
 Stoichiometry    C10H6OS3
 Framework group  C1[X(C10H6OS3)]
 Deg. of freedom    54
 Full point group                 C1      NOp   1
 Largest Abelian subgroup         C1      NOp   1
 Largest concise Abelian subgroup C1      NOp   1
                         Standard orientation:                         
 ---------------------------------------------------------------------
 Center     Atomic      Atomic             Coordinates (Angstroms)
 Number     Number       Type             X           Y           Z
 ---------------------------------------------------------------------
      1          6           0        3.996005    0.769909    0.298421
      2          6           0        2.596883    1.032274    0.508479
      3          6           0        1.731922    0.006026   -0.066287
      4          6           0        4.232884   -0.439755   -0.438532
      5          1           0        4.795707    1.404617    0.645729
      6         16           0        2.749792   -1.246564   -0.856261
      7          1           0        5.210058   -0.822337   -0.693409
      8          6           0        0.288228   -0.173763   -0.086909
      9         16           0       -0.572332   -1.082787    1.193153
     10          6           0       -2.116191   -0.823404    0.455839
     11          6           0       -2.025127   -0.030505   -0.743967
     12          6           0       -0.679834    0.355332   -1.050459
     13          1           0       -0.435490    1.079372   -1.810895
     14         16           0       -3.490543    0.826808   -1.090364
     15          6           0       -4.272778    0.146791    0.338530
     16          6           0       -3.389892   -0.716271    1.088283
     17          1           0       -5.230489    0.497450    0.695266
     18          1           0       -3.584208   -1.003137    2.118148
     19          8           0        1.961234    2.352975    0.975704
     20          1           0        2.391273    3.301118    1.474695
 ---------------------------------------------------------------------
 Rotational constants (GHZ):           1.1744520           0.2567418           0.2474135
 Standard basis: 6-311+G(d,p) (5D, 7F)
 There are   382 symmetry adapted cartesian basis functions of A   symmetry.
 There are   368 symmetry adapted basis functions of A   symmetry.
   368 basis functions,   594 primitive gaussians,   382 cartesian basis functions
    61 alpha electrons       61 beta electrons
       nuclear repulsion energy      1100.3421763301 Hartrees.
 NAtoms=   20 NActive=   20 NUniq=   20 SFac= 1.00D+00 NAtFMM=   60 NAOKFM=F Big=F
 Integral buffers will be    131072 words long.
 Raffenetti 2 integral format.
 Two-electron integral symmetry is turned on.
 Nuclear repulsion after empirical dispersion term =     1100.3321635070 Hartrees.
 One-electron integrals computed using PRISM.
 NBasis=   368 RedAO= T EigKep=  3.81D-06  NBF=   368
 NBsUse=   367 1.00D-06 EigRej=  5.72D-07 NBFU=   367
 ExpMin= 4.05D-02 ExpMax= 9.34D+04 ExpMxC= 3.17D+03 IAcc=3 IRadAn=         5 AccDes= 0.00D+00
 Harris functional with IExCor= 4639 and IRadAn=       5 diagonalized for initial guess.
 HarFok:  IExCor= 4639 AccDes= 0.00D+00 IRadAn=         5 IDoV= 1 UseB2=F ITyADJ=14
 ICtDFT=  3500011 ScaDFX=  1.000000  1.000000  1.000000  1.000000
 FoFCou: FMM=F IPFlag=           0 FMFlag=      100000 FMFlg1=           0
         NFxFlg=           0 DoJE=T BraDBF=F KetDBF=T FulRan=T
         wScrn=  0.000000 ICntrl=       500 IOpCl=  0 I1Cent=   200000004 NGrid=           0
         NMat0=    1 NMatS0=      1 NMatT0=    0 NMatD0=    1 NMtDS0=    0 NMtDT0=    0
 Petite list used in FoFCou.
 Requested convergence on RMS density matrix=1.00D-08 within 128 cycles.
 Requested convergence on MAX density matrix=1.00D-06.
 Requested convergence on             energy=1.00D-06.
 No special actions if energy rises.
 SCF Done:  E(RwB97XD) =  -1654.29784530     A.U. after   17 cycles
            NFock= 17  Conv=0.95D-08     -V/T= 2.0030

 **********************************************************************

            Population analysis using the SCF Density.

 **********************************************************************

 Orbital symmetries:
       Occupied  (A) (A) (A) (A) (A) (A) (A) (A) (A) (A) (A) (A)
                 (A) (A) (A) (A) (A) (A) (A) (A) (A) (A) (A) (A)
                 (A) (A) (A) (A) (A) (A) (A) (A) (A) (A) (A) (A)
                 (A) (A) (A) (A) (A) (A) (A) (A) (A) (A) (A) (A)
                 (A) (A) (A) (A) (A) (A) (A) (A) (A) (A) (A) (A)
                 (A)
       Virtual   (A) (A) (A) (A) (A) (A) (A) (A) (A) (A) (A) (A)
                 (A) (A) (A) (A) (A) (A) (A) (A) (A) (A) (A) (A)
                 (A) (A) (A) (A) (A) (A) (A) (A) (A) (A) (A) (A)
                 (A) (A) (A) (A) (A) (A) (A) (A) (A) (A) (A) (A)
                 (A) (A) (A) (A) (A) (A) (A) (A) (A) (A) (A) (A)
                 (A) (A) (A) (A) (A) (A) (A) (A) (A) (A) (A) (A)
                 (A) (A) (A) (A) (A) (A) (A) (A) (A) (A) (A) (A)
                 (A) (A) (A) (A) (A) (A) (A) (A) (A) (A) (A) (A)
                 (A) (A) (A) (A) (A) (A) (A) (A) (A) (A) (A) (A)
                 (A) (A) (A) (A) (A) (A) (A) (A) (A) (A) (A) (A)
                 (A) (A) (A) (A) (A) (A) (A) (A) (A) (A) (A) (A)
                 (A) (A) (A) (A) (A) (A) (A) (A) (A) (A) (A) (A)
                 (A) (A) (A) (A) (A) (A) (A) (A) (A) (A) (A) (A)
                 (A) (A) (A) (A) (A) (A) (A) (A) (A) (A) (A) (A)
                 (A) (A) (A) (A) (A) (A) (A) (A) (A) (A) (A) (A)
                 (A) (A) (A) (A) (A) (A) (A) (A) (A) (A) (A) (A)
                 (A) (A) (A) (A) (A) (A) (A) (A) (A) (A) (A) (A)
                 (A) (A) (A) (A) (A) (A) (A) (A) (A) (A) (A) (A)
                 (A) (A) (A) (A) (A) (A) (A) (A) (A) (A) (A) (A)
                 (A) (A) (A) (A) (A) (A) (A) (A) (A) (A) (A) (A)
                 (A) (A) (A) (A) (A) (A) (A) (A) (A) (A) (A) (A)
                 (A) (A) (A) (A) (A) (A) (A) (A) (A) (A) (A) (A)
                 (A) (A) (A) (A) (A) (A) (A) (A) (A) (A) (A) (A)
                 (A) (A) (A) (A) (A) (A) (A) (A) (A) (A) (A) (A)
                 (A) (A) (A) (A) (A) (A) (A) (A) (A) (A) (A) (A)
                 (A) (A) (A) (A) (A) (A)
 The electronic state is 1-A.
 Alpha  occ. eigenvalues --  -89.06342 -89.05610 -89.05177 -19.28199 -10.39113
 Alpha  occ. eigenvalues --  -10.34894 -10.34772 -10.34020 -10.33458 -10.33199
 Alpha  occ. eigenvalues --  -10.33104 -10.31734 -10.31696 -10.31461  -8.10195
 Alpha  occ. eigenvalues --   -8.09553  -8.09112  -6.05031  -6.04662  -6.04405
 Alpha  occ. eigenvalues --   -6.04314  -6.04041  -6.03969  -6.03620  -6.03598
 Alpha  occ. eigenvalues --   -6.03173  -1.07933  -1.00377  -0.97659  -0.93270
 Alpha  occ. eigenvalues --   -0.86958  -0.84971  -0.83517  -0.80277  -0.78172
 Alpha  occ. eigenvalues --   -0.70850  -0.66981  -0.66456  -0.62741  -0.62105
 Alpha  occ. eigenvalues --   -0.60009  -0.57523  -0.54114  -0.52857  -0.51087
 Alpha  occ. eigenvalues --   -0.50428  -0.49108  -0.47615  -0.47513  -0.46709
 Alpha  occ. eigenvalues --   -0.45043  -0.44257  -0.42490  -0.42104  -0.41571
 Alpha  occ. eigenvalues --   -0.40948  -0.36563  -0.33060  -0.30698  -0.30571
 Alpha  occ. eigenvalues --   -0.28128
 Alpha virt. eigenvalues --    0.00436   0.01473   0.02637   0.05460   0.05899
 Alpha virt. eigenvalues --    0.06170   0.06577   0.07347   0.07673   0.08177
 Alpha virt. eigenvalues --    0.08456   0.09220   0.09366   0.09736   0.09963
 Alpha virt. eigenvalues --    0.10471   0.10823   0.11202   0.11888   0.12340
 Alpha virt. eigenvalues --    0.12685   0.13797   0.14003   0.14482   0.14697
 Alpha virt. eigenvalues --    0.15071   0.15253   0.16530   0.17045   0.17655
 Alpha virt. eigenvalues --    0.17841   0.18143   0.18582   0.18754   0.19227
 Alpha virt. eigenvalues --    0.19727   0.20426   0.20651   0.21153   0.21439
 Alpha virt. eigenvalues --    0.21769   0.22162   0.22998   0.23039   0.23586
 Alpha virt. eigenvalues --    0.23880   0.24275   0.24591   0.25614   0.25683
 Alpha virt. eigenvalues --    0.26077   0.26436   0.26700   0.26756   0.27460
 Alpha virt. eigenvalues --    0.27942   0.28096   0.28229   0.28488   0.28701
 Alpha virt. eigenvalues --    0.29087   0.30091   0.30455   0.31390   0.31873
 Alpha virt. eigenvalues --    0.32118   0.32941   0.33309   0.33788   0.34784
 Alpha virt. eigenvalues --    0.34935   0.35775   0.37029   0.37764   0.38860
 Alpha virt. eigenvalues --    0.40183   0.40248   0.40636   0.41763   0.42143
 Alpha virt. eigenvalues --    0.43775   0.44806   0.45126   0.45323   0.47019
 Alpha virt. eigenvalues --    0.48871   0.50519   0.50631   0.51146   0.52477
 Alpha virt. eigenvalues --    0.52672   0.53635   0.55449   0.57684   0.60640
 Alpha virt. eigenvalues --    0.61673   0.62901   0.63715   0.63927   0.64904
 Alpha virt. eigenvalues --    0.65444   0.67006   0.67292   0.67421   0.69333
 Alpha virt. eigenvalues --    0.69591   0.70682   0.71969   0.72041   0.73171
 Alpha virt. eigenvalues --    0.74557   0.75811   0.76668   0.77353   0.78000
 Alpha virt. eigenvalues --    0.78538   0.79130   0.80071   0.80614   0.80800
 Alpha virt. eigenvalues --    0.81764   0.82919   0.83358   0.84163   0.85330
 Alpha virt. eigenvalues --    0.86184   0.86673   0.88639   0.89096   0.89840
 Alpha virt. eigenvalues --    0.90187   0.90799   0.91829   0.93133   0.94638
 Alpha virt. eigenvalues --    0.95281   0.96645   0.97436   0.99441   1.00518
 Alpha virt. eigenvalues --    1.01189   1.02302   1.02629   1.03186   1.03977
 Alpha virt. eigenvalues --    1.05622   1.06833   1.08759   1.09258   1.09990
 Alpha virt. eigenvalues --    1.10736   1.11920   1.13178   1.14726   1.16319
 Alpha virt. eigenvalues --    1.19356   1.21258   1.22832   1.23695   1.27120
 Alpha virt. eigenvalues --    1.29865   1.32685   1.33900   1.37471   1.40277
 Alpha virt. eigenvalues --    1.41991   1.43716   1.46624   1.48643   1.50236
 Alpha virt. eigenvalues --    1.51600   1.56082   1.56395   1.58835   1.61030
 Alpha virt. eigenvalues --    1.61566   1.62433   1.63462   1.66035   1.67324
 Alpha virt. eigenvalues --    1.69874   1.70370   1.71205   1.73282   1.75229
 Alpha virt. eigenvalues --    1.76261   1.77398   1.78201   1.79037   1.80439
 Alpha virt. eigenvalues --    1.82383   1.82703   1.86082   1.86216   1.87976
 Alpha virt. eigenvalues --    1.89175   1.89522   1.91391   1.93422   1.94085
 Alpha virt. eigenvalues --    1.95747   1.97017   1.98537   2.00311   2.02250
 Alpha virt. eigenvalues --    2.02945   2.04023   2.06131   2.08077   2.09043
 Alpha virt. eigenvalues --    2.10471   2.12047   2.12671   2.14119   2.15310
 Alpha virt. eigenvalues --    2.17600   2.19134   2.19312   2.20884   2.22115
 Alpha virt. eigenvalues --    2.23100   2.26528   2.33930   2.35715   2.42030
 Alpha virt. eigenvalues --    2.43854   2.45864   2.47646   2.54630   2.56920
 Alpha virt. eigenvalues --    2.58923   2.62063   2.64994   2.67287   2.74434
 Alpha virt. eigenvalues --    2.77772   2.78106   2.79444   2.80485   2.81831
 Alpha virt. eigenvalues --    2.83645   2.85128   2.85948   2.86717   2.89884
 Alpha virt. eigenvalues --    2.94065   2.96259   2.99046   3.00525   3.03275
 Alpha virt. eigenvalues --    3.05197   3.07646   3.08493   3.11675   3.13540
 Alpha virt. eigenvalues --    3.13757   3.15508   3.17751   3.23055   3.30697
 Alpha virt. eigenvalues --    3.33434   3.33599   3.36482   3.42885   3.46592
 Alpha virt. eigenvalues --    3.50071   3.56330   3.65117   3.72997   3.81877
 Alpha virt. eigenvalues --    4.00293   4.04518   4.10948   4.14583   4.23051
 Alpha virt. eigenvalues --    4.40335   4.51767   5.13966   5.31118   5.55528
 Alpha virt. eigenvalues --    8.04081   8.05457   8.07960  17.42581  17.43073
 Alpha virt. eigenvalues --   17.45301  17.56497  17.57876  17.61014  17.61406
 Alpha virt. eigenvalues --   17.63254  17.65464  23.57969  23.71472  23.84795
 Alpha virt. eigenvalues --   23.90403  23.92627  23.98335  23.99690  24.07310
 Alpha virt. eigenvalues --   24.08443  24.09412  50.00146 189.28324 189.29732
 Alpha virt. eigenvalues --  189.32815
          Condensed to atoms (all electrons):
               1          2          3          4          5          6
     1  C    7.561370  -2.155243   0.477208  -0.168142   0.439625   0.310752
     2  C   -2.155243  12.999866  -3.930858   1.191075  -0.084173  -1.334214
     3  C    0.477208  -3.930858   9.951147  -1.008180   0.023987   0.344557
     4  C   -0.168142   1.191075  -1.008180   5.859070  -0.014534  -0.110116
     5  H    0.439625  -0.084173   0.023987  -0.014534   0.479353   0.000962
     6  S    0.310752  -1.334214   0.344557  -0.110116   0.000962  16.894247
     7  H    0.024977  -0.051385   0.028674   0.379481  -0.003004  -0.012385
     8  C    0.048920  -1.204206   0.803806  -0.096887  -0.005414  -0.083725
     9  S    0.002610  -0.163543   0.301426   0.012814   0.000045   0.105171
    10  C    0.054746   0.323737  -0.634824   0.004671   0.000003  -0.079663
    11  C   -0.176427  -0.443453   0.647197   0.031061  -0.000157   0.101290
    12  C    0.018893   0.120032  -0.935370  -0.038634  -0.000127   0.103184
    13  H    0.001062  -0.001815   0.029604   0.000471  -0.000001  -0.001557
    14  S   -0.017442   0.011455   0.012830   0.003546  -0.000004   0.000952
    15  C    0.001313  -0.004601  -0.010512  -0.000409   0.000001  -0.001035
    16  C   -0.002191   0.168879  -0.007601   0.007202  -0.000009  -0.050708
    17  H   -0.000003  -0.000069  -0.000082  -0.000000   0.000000   0.000005
    18  H   -0.000017  -0.000540  -0.000352  -0.000007   0.000000   0.000120
    19  O   -0.186581   0.584052  -0.192597   0.018763  -0.002505   0.012210
    20  H   -0.049394  -0.044031   0.065481  -0.003607  -0.000022  -0.008995
               7          8          9         10         11         12
     1  C    0.024977   0.048920   0.002610   0.054746  -0.176427   0.018893
     2  C   -0.051385  -1.204206  -0.163543   0.323737  -0.443453   0.120032
     3  C    0.028674   0.803806   0.301426  -0.634824   0.647197  -0.935370
     4  C    0.379481  -0.096887   0.012814   0.004671   0.031061  -0.038634
     5  H   -0.003004  -0.005414   0.000045   0.000003  -0.000157  -0.000127
     6  S   -0.012385  -0.083725   0.105171  -0.079663   0.101290   0.103184
     7  H    0.440414  -0.002503  -0.000358  -0.000054  -0.000127  -0.000268
     8  C   -0.002503   8.045657   0.241248  -0.699458   0.690476  -1.623500
     9  S   -0.000358   0.241248  17.529946  -1.518579   2.059487  -2.166545
    10  C   -0.000054  -0.699458  -1.518579  13.343580  -6.002153   2.626365
    11  C   -0.000127   0.690476   2.059487  -6.002153  15.783226  -5.525935
    12  C   -0.000268  -1.623500  -2.166545   2.626365  -5.525935  12.802987
    13  H    0.000001   0.083906   0.011482  -0.040799   0.043944   0.235929
    14  S   -0.000004  -0.292549   0.184985   0.349238  -0.645776  -0.072889
    15  C    0.000000   0.096997  -0.015817   0.727252  -0.465868  -0.170084
    16  C   -0.000013  -0.277135  -0.287572  -2.807520  -0.295326   0.808274
    17  H   -0.000000  -0.001772   0.001528  -0.008790   0.014469   0.006956
    18  H    0.000000   0.005263   0.010667   0.021512  -0.019933  -0.004857
    19  O   -0.000131  -0.047944  -0.001236   0.010255   0.007607  -0.017488
    20  H   -0.000011   0.020992   0.004460  -0.001925   0.005033  -0.002775
              13         14         15         16         17         18
     1  C    0.001062  -0.017442   0.001313  -0.002191  -0.000003  -0.000017
     2  C   -0.001815   0.011455  -0.004601   0.168879  -0.000069  -0.000540
     3  C    0.029604   0.012830  -0.010512  -0.007601  -0.000082  -0.000352
     4  C    0.000471   0.003546  -0.000409   0.007202  -0.000000  -0.000007
     5  H   -0.000001  -0.000004   0.000001  -0.000009   0.000000   0.000000
     6  S   -0.001557   0.000952  -0.001035  -0.050708   0.000005   0.000120
     7  H    0.000001  -0.000004   0.000000  -0.000013  -0.000000   0.000000
     8  C    0.083906  -0.292549   0.096997  -0.277135  -0.001772   0.005263
     9  S    0.011482   0.184985  -0.015817  -0.287572   0.001528   0.010667
    10  C   -0.040799   0.349238   0.727252  -2.807520  -0.008790   0.021512
    11  C    0.043944  -0.645776  -0.465868  -0.295326   0.014469  -0.019933
    12  C    0.235929  -0.072889  -0.170084   0.808274   0.006956  -0.004857
    13  H    0.469307   0.003244   0.000617  -0.007900  -0.000002   0.000007
    14  S    0.003244  16.600804   0.380904  -0.302853  -0.024645  -0.000300
    15  C    0.000617   0.380904   5.606617  -0.211317   0.379126   0.014606
    16  C   -0.007900  -0.302853  -0.211317   9.196170  -0.004288   0.331874
    17  H   -0.000002  -0.024645   0.379126  -0.004288   0.439344  -0.002585
    18  H    0.000007  -0.000300   0.014606   0.331874  -0.002585   0.475140
    19  O   -0.000141   0.000205   0.000312  -0.005286   0.000001   0.000001
    20  H   -0.000034   0.000186  -0.000023   0.000113   0.000000  -0.000000
              19         20
     1  C   -0.186581  -0.049394
     2  C    0.584052  -0.044031
     3  C   -0.192597   0.065481
     4  C    0.018763  -0.003607
     5  H   -0.002505  -0.000022
     6  S    0.012210  -0.008995
     7  H   -0.000131  -0.000011
     8  C   -0.047944   0.020992
     9  S   -0.001236   0.004460
    10  C    0.010255  -0.001925
    11  C    0.007607   0.005033
    12  C   -0.017488  -0.002775
    13  H   -0.000141  -0.000034
    14  S    0.000205   0.000186
    15  C    0.000312  -0.000023
    16  C   -0.005286   0.000113
    17  H    0.000001   0.000000
    18  H    0.000001  -0.000000
    19  O    7.993436   0.228529
    20  H    0.228529   0.471370
 Mulliken charges:
               1
     1  C   -0.186037
     2  C    0.019035
     3  C    0.034461
     4  C   -0.067636
     5  H    0.165973
     6  S   -0.191051
     7  H    0.196697
     8  C    0.297829
     9  S   -0.312219
    10  C    0.332407
    11  C    0.191367
    12  C   -0.164146
    13  H    0.172676
    14  S   -0.191885
    15  C   -0.328078
    16  C   -0.252793
    17  H    0.200806
    18  H    0.169402
    19  O   -0.401462
    20  H    0.314654
 Sum of Mulliken charges =  -0.00000
 Mulliken charges with hydrogens summed into heavy atoms:
               1
     1  C   -0.020064
     2  C    0.019035
     3  C    0.034461
     4  C    0.129061
     6  S   -0.191051
     8  C    0.297829
     9  S   -0.312219
    10  C    0.332407
    11  C    0.191367
    12  C    0.008530
    14  S   -0.191885
    15  C   -0.127272
    16  C   -0.083391
    19  O   -0.086808
 Electronic spatial extent (au):  <R**2>=           4392.7338
 Charge=             -0.0000 electrons
 Dipole moment (field-independent basis, Debye):
    X=              1.8120    Y=              1.8094    Z=              1.0079  Tot=              2.7520
 Quadrupole moment (field-independent basis, Debye-Ang):
   XX=            -80.7928   YY=            -97.3653   ZZ=           -100.3350
   XY=              2.4378   XZ=             -2.7561   YZ=              2.3236
 Traceless Quadrupole moment (field-independent basis, Debye-Ang):
   XX=             12.0382   YY=             -4.5343   ZZ=             -7.5039
   XY=              2.4378   XZ=             -2.7561   YZ=              2.3236
 Octapole moment (field-independent basis, Debye-Ang**2):
  XXX=             54.2509  YYY=             46.4680  ZZZ=              9.6928  XYY=             33.5339
  XXY=             31.4283  XXZ=             27.3736  XZZ=             -3.5801  YZZ=              9.6126
  YYZ=             17.3390  XYZ=             25.8553
 Hexadecapole moment (field-independent basis, Debye-Ang**3):
 XXXX=          -4122.8074 YYYY=           -604.5526 ZZZZ=           -567.8475 XXXY=            -52.5483
 XXXZ=           -100.4545 YYYX=             98.1069 YYYZ=             84.8250 ZZZX=             -8.0290
 ZZZY=              2.6928 XXYY=           -853.4770 XXZZ=           -888.8634 YYZZ=           -181.0339
 XXYZ=             62.9178 YYXZ=             49.5298 ZZXY=             26.6903
 N-N= 1.100332163507D+03 E-N=-6.110946380329D+03  KE= 1.649269799522D+03
 Calling FoFJK, ICntrl=      2127 FMM=F ISym2X=0 I1Cent= 0 IOpClX= 0 NMat=1 NMatS=1 NMatT=0.
 ***** Axes restored to original set *****
 -------------------------------------------------------------------
 Center     Atomic                   Forces (Hartrees/Bohr)
 Number     Number              X              Y              Z
 -------------------------------------------------------------------
      1        6           0.016496807   -0.044613802    0.005670815
      2        6           0.034854074    0.021625873    0.012962948
      3        6          -0.047520410    0.025749565    0.004250868
      4        6           0.018698330    0.054630965   -0.018446238
      5        1          -0.000508567    0.001809120    0.000679748
      6       16          -0.007741941    0.033160262   -0.006840899
      7        1           0.002327569   -0.002846901    0.000189008
      8        6           0.066670526    0.015870611    0.027984868
      9       16          -0.004621253   -0.004602692    0.020909387
     10        6           0.010542231    0.025287149    0.027694223
     11        6          -0.030567304    0.003414684   -0.029611640
     12        6          -0.041775240   -0.013920207   -0.047774541
     13        1          -0.005301769   -0.003843015    0.003671791
     14       16           0.006764044   -0.009683445   -0.020806358
     15        6          -0.054311564   -0.024719711   -0.026576974
     16        6           0.038504363    0.031860050    0.038081573
     17        1           0.003798866   -0.003934257    0.004621984
     18        1           0.005447934   -0.006931878    0.003054975
     19        8          -0.035386344    0.013518521   -0.003747455
     20        1           0.023629651   -0.111830892    0.004031921
 -------------------------------------------------------------------
 Cartesian Forces:  Max     0.111830892 RMS     0.028582108

 GradGradGradGradGradGradGradGradGradGradGradGradGradGradGradGradGradGrad
 Berny optimization.
 FormGI is forming the generalized inverse of G from B-inverse, IUseBI=4.
 Internal  Forces:  Max     0.110552734 RMS     0.021920087
 Search for a local minimum.
 Step number   1 out of a maximum of  116
 All quantities printed in internal units (Hartrees-Bohrs-Radians)
 Mixed Optimization -- RFO/linear search
 Second derivative matrix not updated -- first step.
 ITU=  0
     Eigenvalues ---    0.00230   0.00994   0.01053   0.01220   0.01274
     Eigenvalues ---    0.01299   0.01362   0.01425   0.01458   0.01490
     Eigenvalues ---    0.01500   0.01592   0.01595   0.01771   0.02198
     Eigenvalues ---    0.02652   0.15085   0.15686   0.15734   0.15997
     Eigenvalues ---    0.16000   0.16000   0.17989   0.22442   0.22526
     Eigenvalues ---    0.23319   0.23977   0.24118   0.24633   0.24978
     Eigenvalues ---    0.24995   0.26145   0.26545   0.28307   0.28381
     Eigenvalues ---    0.28663   0.30910   0.31282   0.31537   0.34798
     Eigenvalues ---    0.35210   0.35872   0.35937   0.36006   0.36185
     Eigenvalues ---    0.36230   0.36313   0.37598   0.38323   0.38435
     Eigenvalues ---    0.39456   0.39686   0.406221000.000001000.00000
     Eigenvalues --- 1000.000001000.000001000.000001000.000001000.00000
     Eigenvalues --- 1000.000001000.000001000.000001000.000001000.00000
     Eigenvalues --- 1000.000001000.000001000.000001000.000001000.00000
     Eigenvalues --- 1000.000001000.000001000.000001000.000001000.00000
     Eigenvalues --- 1000.000001000.000001000.000001000.000001000.00000
     Eigenvalues --- 1000.000001000.000001000.000001000.000001000.00000
     Eigenvalues --- 1000.000001000.000001000.000001000.000001000.00000
     Eigenvalues --- 1000.000001000.000001000.000001000.000001000.00000
     Eigenvalues --- 1000.000001000.000001000.000001000.000001000.00000
     Eigenvalues --- 1000.000001000.000001000.000001000.000001000.00000
     Eigenvalues --- 1000.00000
 RFO step:  Lambda=-1.22685247D-01 EMin= 2.30000000D-03
 Linear search not attempted -- first point.
 Maximum step size (   0.300) exceeded in Quadratic search.
    -- Step size scaled by   0.558
 Iteration  1 RMS(Cart)=  0.05712711 RMS(Int)=  0.00167198
 Iteration  2 RMS(Cart)=  0.00191737 RMS(Int)=  0.00010115
 Iteration  3 RMS(Cart)=  0.00001158 RMS(Int)=  0.00010083
 Iteration  4 RMS(Cart)=  0.00000000 RMS(Int)=  0.00010083
 Iteration  1 RMS(Cart)=  0.00000038 RMS(Int)=  0.00000016
 Variable       Old X    -DE/DX   Delta X   Delta X   Delta X     New X
                                 (Linear)    (Quad)   (Total)
    R1        2.71917  -0.02470   0.00000  -0.02777  -0.02769   2.69148
    R2        2.71391  -0.06078   0.00000  -0.06519  -0.06517   2.64874
    R3        2.03793   0.00155   0.00000   0.00179   0.00179   2.03971
    R4        2.75906  -0.07356   0.00000  -0.08394  -0.08389   2.67518
    R5        2.90711  -0.09610   0.00000  -0.13099  -0.13099   2.77611
    R6        3.39578  -0.02940   0.00000  -0.04124  -0.04129   3.35449
    R7        2.74954  -0.00548   0.00000  -0.00614  -0.00614   2.74340
    R8        3.28671  -0.01920   0.00000  -0.02334  -0.02341   3.26330
    R9        2.04073  -0.00054   0.00000  -0.00063  -0.00063   2.04010
   R10        3.38332  -0.01862   0.00000  -0.02515  -0.02522   3.35810
   R11        2.76799  -0.07422   0.00000  -0.08541  -0.08544   2.68256
   R12        3.27005  -0.00741   0.00000  -0.00842  -0.00842   3.26163
   R13        2.72312  -0.03926   0.00000  -0.04333  -0.04318   2.67994
   R14        2.69495  -0.00260   0.00000  -0.00374  -0.00366   2.69129
   R15        2.70741  -0.01307   0.00000  -0.01499  -0.01493   2.69247
   R16        3.27442  -0.00447   0.00000  -0.00461  -0.00463   3.26979
   R17        2.03723   0.00224   0.00000   0.00257   0.00257   2.03980
   R18        3.33581  -0.01802   0.00000  -0.02345  -0.02355   3.31226
   R19        2.72965  -0.06554   0.00000  -0.07187  -0.07189   2.65776
   R20        2.04181  -0.00061   0.00000  -0.00070  -0.00070   2.04111
   R21        2.05335  -0.00383   0.00000  -0.00450  -0.00450   2.04885
   R22        2.18171  -0.11055   0.00000  -0.15202  -0.15202   2.02969
    A1        1.97020  -0.00389   0.00000  -0.00914  -0.00904   1.96116
    A2        2.17330   0.00103   0.00000   0.00277   0.00271   2.17601
    A3        2.13967   0.00287   0.00000   0.00640   0.00634   2.14601
    A4        1.97187   0.01554   0.00000   0.02144   0.02155   1.99342
    A5        2.21760  -0.00428   0.00000  -0.00437  -0.00448   2.21312
    A6        2.06941  -0.01040   0.00000  -0.01372  -0.01385   2.05556
    A7        1.90440  -0.00500   0.00000  -0.00722  -0.00719   1.89720
    A8        2.31891  -0.00766   0.00000  -0.01163  -0.01164   2.30727
    A9        2.05972   0.01265   0.00000   0.01879   0.01878   2.07850
   A10        1.95339  -0.00133   0.00000  -0.00172  -0.00176   1.95163
   A11        2.17580   0.00438   0.00000   0.00819   0.00821   2.18401
   A12        2.15384  -0.00305   0.00000  -0.00647  -0.00645   2.14739
   A13        1.62490  -0.00531   0.00000  -0.00334  -0.00355   1.62135
   A14        2.12884  -0.00466   0.00000  -0.00673  -0.00675   2.12209
   A15        2.24013  -0.00412   0.00000  -0.00592  -0.00594   2.23418
   A16        1.91352   0.00884   0.00000   0.01289   0.01291   1.92643
   A17        1.61891  -0.00692   0.00000  -0.00787  -0.00782   1.61108
   A18        1.96152  -0.01062   0.00000  -0.01371  -0.01391   1.94761
   A19        2.23844   0.00866   0.00000   0.01880   0.01853   2.25697
   A20        1.96530   0.00577   0.00000   0.00839   0.00845   1.97375
   A21        1.96670   0.00729   0.00000   0.00991   0.00993   1.97662
   A22        1.96627  -0.01290   0.00000  -0.01700  -0.01713   1.94914
   A23        2.23713   0.00910   0.00000   0.01914   0.01890   2.25603
   A24        1.96338   0.00144   0.00000  -0.00112  -0.00101   1.96237
   A25        2.16135  -0.00542   0.00000  -0.00816  -0.00827   2.15308
   A26        2.14670   0.00455   0.00000   0.01158   0.01147   2.15817
   A27        1.59314   0.00044   0.00000   0.00229   0.00229   1.59544
   A28        1.96002   0.00205   0.00000   0.00222   0.00218   1.96220
   A29        2.13533  -0.00464   0.00000  -0.00733  -0.00745   2.12787
   A30        2.17039   0.00367   0.00000   0.00930   0.00920   2.17960
   A31        1.93970   0.00464   0.00000   0.00410   0.00420   1.94391
   A32        2.16544   0.00047   0.00000   0.00529   0.00507   2.17051
   A33        2.14170  -0.00327   0.00000  -0.00232  -0.00255   2.13915
   A34        2.32184  -0.06383   0.00000  -0.12598  -0.12598   2.19586
    D1        0.00683  -0.00085   0.00000  -0.00314  -0.00313   0.00370
    D2       -2.89394  -0.00401   0.00000  -0.01806  -0.01812  -2.91205
    D3       -3.13952   0.00027   0.00000   0.00159   0.00159  -3.13793
    D4        0.24290  -0.00289   0.00000  -0.01332  -0.01339   0.22950
    D5       -0.00671   0.00051   0.00000   0.00148   0.00142  -0.00529
    D6       -3.13020   0.00050   0.00000   0.00194   0.00192  -3.12827
    D7        3.13954  -0.00057   0.00000  -0.00314  -0.00320   3.13634
    D8        0.01605  -0.00059   0.00000  -0.00268  -0.00270   0.01335
    D9       -0.00388   0.00089   0.00000   0.00343   0.00342  -0.00046
   D10        3.11762   0.00037   0.00000   0.00046   0.00049   3.11811
   D11        2.91927   0.00429   0.00000   0.01784   0.01781   2.93707
   D12       -0.24242   0.00377   0.00000   0.01487   0.01488  -0.22754
   D13       -0.28016   0.00187   0.00000   0.00386   0.00377  -0.27639
   D14        3.11413  -0.00461   0.00000  -0.01609  -0.01600   3.09812
   D15        0.00006  -0.00053   0.00000  -0.00224  -0.00222  -0.00216
   D16       -3.12486   0.00014   0.00000   0.00057   0.00062  -3.12424
   D17       -1.57073  -0.00043   0.00000   0.00000   0.00000  -1.57072
   D18        1.52647   0.00175   0.00000   0.00785   0.00785   1.53432
   D19        1.54936  -0.00117   0.00000  -0.00345  -0.00345   1.54592
   D20       -1.63663   0.00101   0.00000   0.00440   0.00440  -1.63223
   D21        0.00376   0.00006   0.00000   0.00054   0.00054   0.00430
   D22        3.12751   0.00016   0.00000   0.00027   0.00023   3.12774
   D23        3.13776   0.00088   0.00000   0.00352   0.00352   3.14128
   D24        0.03313  -0.00070   0.00000  -0.00267  -0.00273   0.03040
   D25       -3.13881  -0.00160   0.00000  -0.00555  -0.00552   3.13886
   D26       -0.15735   0.00277   0.00000   0.01119   0.01115  -0.14621
   D27       -0.03720   0.00012   0.00000   0.00117   0.00126  -0.03594
   D28        2.94426   0.00448   0.00000   0.01790   0.01792   2.96217
   D29       -0.02125   0.00157   0.00000   0.00417   0.00413  -0.01712
   D30       -2.61585  -0.00734   0.00000  -0.02553  -0.02557  -2.64142
   D31        0.00316  -0.00134   0.00000  -0.00372  -0.00368  -0.00052
   D32       -2.68845  -0.01040   0.00000  -0.03141  -0.03105  -2.71950
   D33        2.68645   0.00806   0.00000   0.02592   0.02568   2.71212
   D34       -0.00516  -0.00101   0.00000  -0.00177  -0.00169  -0.00686
   D35        2.61380   0.00567   0.00000   0.02560   0.02586   2.63966
   D36       -0.24721  -0.00078   0.00000  -0.00058  -0.00046  -0.24766
   D37        0.02015   0.00087   0.00000   0.00142   0.00136   0.02152
   D38       -2.84085  -0.00557   0.00000  -0.02476  -0.02495  -2.86581
   D39        0.02257   0.00081   0.00000   0.00156   0.00151   0.02408
   D40       -2.96044  -0.00246   0.00000  -0.01293  -0.01311  -2.97354
   D41        2.62828   0.00451   0.00000   0.02245   0.02272   2.65100
   D42       -0.35472   0.00124   0.00000   0.00796   0.00810  -0.34663
   D43       -0.00861   0.00095   0.00000   0.00155   0.00151  -0.00710
   D44       -2.61443  -0.00775   0.00000  -0.02601  -0.02596  -2.64039
   D45        0.02018  -0.00032   0.00000  -0.00059  -0.00060   0.01958
   D46        2.97009   0.00601   0.00000   0.02330   0.02316   2.99326
   D47       -0.02655  -0.00013   0.00000  -0.00021  -0.00015  -0.02670
   D48        2.83893   0.00690   0.00000   0.02697   0.02702   2.86595
   D49       -2.97193  -0.00553   0.00000  -0.02249  -0.02256  -2.99449
   D50       -0.10645   0.00149   0.00000   0.00468   0.00461  -0.10184
         Item               Value     Threshold  Converged?
 Maximum Force            0.110553     0.000450     NO 
 RMS     Force            0.022024     0.000300     NO 
 Maximum Displacement     0.425365     0.001800     NO 
 RMS     Displacement     0.057140     0.001200     NO 
 Predicted change in Energy=-5.541232D-02
 GradGradGradGradGradGradGradGradGradGradGradGradGradGradGradGradGradGrad

                          Input orientation:                          
 ---------------------------------------------------------------------
 Center     Atomic      Atomic             Coordinates (Angstroms)
 Number     Number       Type             X           Y           Z
 ---------------------------------------------------------------------
      1          6           0       -4.206957   -1.344010   -0.203976
      2          6           0       -2.890798   -0.969431   -0.598905
      3          6           0       -1.962489   -2.038120   -0.612816
      4          6           0       -4.305426   -2.709604    0.096168
      5          1           0       -5.044526   -0.666399   -0.137928
      6         16           0       -2.796874   -3.523360   -0.113895
      7          1           0       -5.208428   -3.214332    0.404911
      8          6           0       -0.556565   -2.103928   -0.968641
      9         16           0       -0.032311   -2.454979   -2.629891
     10          6           0        1.635969   -2.350460   -2.199861
     11          6           0        1.802262   -2.032892   -0.827751
     12          6           0        0.568186   -1.875528   -0.133248
     13          1           0        0.492429   -1.489174    0.871804
     14         16           0        3.331904   -1.282410   -0.526233
     15          6           0        3.769797   -1.394996   -2.219687
     16          6           0        2.752029   -1.972597   -2.999788
     17          1           0        4.653425   -0.915179   -2.614159
     18          1           0        2.732786   -1.898948   -4.081317
     19          8           0       -2.364198    0.396440   -0.722253
     20          1           0       -2.951214    1.294907   -0.764535
 ---------------------------------------------------------------------
                    Distance matrix (angstroms):
                    1          2          3          4          5
     1  C    0.000000
     2  C    1.424272   0.000000
     3  C    2.384654   1.415644   0.000000
     4  C    1.401652   2.347871   2.538287   0.000000
     5  H    1.079371   2.223257   3.406771   2.185350   0.000000
     6  S    2.597308   2.601270   1.775122   1.726862   3.635208
     7  H    2.207214   3.379147   3.599356   1.079576   2.610268
     8  C    3.806251   2.621532   1.451745   3.943934   4.785223
     9  S    4.954491   3.808242   2.822756   5.075012   5.876325
    10  C    6.255899   4.996190   3.945271   6.379726   7.191428
    11  C    6.080654   4.817481   3.770885   6.214130   7.015815
    12  C    4.805154   3.605887   2.580840   4.949789   5.741476
    13  H    4.823131   3.725498   2.920969   5.011035   5.688091
    14  S    7.545996   6.230991   5.348755   7.794425   8.408021
    15  C    8.227654   6.868156   5.987883   8.502976   9.086080
    16  C    7.525900   6.213861   5.284752   7.741821   8.407298
    17  H    9.192347   7.808937   7.002620   9.530312  10.012186
    18  H    7.968799   6.679513   5.839133   8.224656   8.806592
    19  O    2.587187   1.469056   2.469905   3.753090   2.941975
    20  H    2.975735   2.271191   3.479894   4.314024   2.936207
                    6          7          8          9         10
     6  S    0.000000
     7  H    2.486010   0.000000
     8  C    2.786460   4.975888   0.000000
     9  S    3.887735   6.048043   1.777029   0.000000
    10  C    5.037563   7.374068   2.526635   1.725980   0.000000
    11  C    4.887038   7.215610   2.364099   2.606056   1.418164
    12  C    3.746913   5.954098   1.419547   2.632411   2.374154
    13  H    3.991119   5.974439   2.205800   3.670151   3.388897
    14  S    6.538639   8.805488   3.998851   4.137419   2.611121
    15  C    7.217026   9.529271   4.559069   3.968357   2.338060
    16  C    6.443878   8.746585   3.884534   2.849923   1.424168
    17  H    8.280150  10.566789   5.591498   4.932277   3.367004
    18  H    6.996877   9.215169   4.533277   3.171997   2.224129
    19  O    3.990255   4.732633   3.095171   4.148177   5.072486
    20  H    4.864447   5.176471   4.162700   5.105016   6.032503
                   11         12         13         14         15
    11  C    0.000000
    12  C    1.424795   0.000000
    13  H    2.213545   1.079417   0.000000
    14  S    1.730301   2.853833   3.171731   0.000000
    15  C    2.493109   3.851551   4.506365   1.752772   0.000000
    16  C    2.371379   3.604947   4.508738   2.632696   1.406426
    17  H    3.545373   4.875076   5.458507   2.498142   1.080107
    18  H    3.386666   4.502587   5.451654   3.657552   2.189755
    19  O    4.824124   3.756014   3.775827   5.941594   6.563341
    20  H    5.802910   4.778740   4.720951   6.795360   7.384106
                   16         17         18         19         20
    16  C    0.000000
    17  H    2.209559   0.000000
    18  H    1.084204   2.609447   0.000000
    19  O    6.080730   7.385573   6.521607   0.000000
    20  H    6.942615   8.132412   7.315026   1.074066   0.000000
 Stoichiometry    C10H6OS3
 Framework group  C1[X(C10H6OS3)]
 Deg. of freedom    54
 Full point group                 C1      NOp   1
 Largest Abelian subgroup         C1      NOp   1
 Largest concise Abelian subgroup C1      NOp   1
                         Standard orientation:                         
 ---------------------------------------------------------------------
 Center     Atomic      Atomic             Coordinates (Angstroms)
 Number     Number       Type             X           Y           Z
 ---------------------------------------------------------------------
      1          6           0        3.951485    0.758277    0.338896
      2          6           0        2.559006    0.977825    0.542254
      3          6           0        1.723520    0.013328   -0.070735
      4          6           0        4.203916   -0.379442   -0.439886
      5          1           0        4.736105    1.386450    0.732355
      6         16           0        2.743752   -1.173405   -0.908500
      7          1           0        5.184080   -0.742623   -0.709819
      8          6           0        0.281631   -0.153901   -0.094291
      9         16           0       -0.563528   -1.120225    1.134429
     10          6           0       -2.103078   -0.814137    0.416722
     11          6           0       -1.990703    0.023781   -0.721897
     12          6           0       -0.649387    0.413075   -1.003608
     13          1           0       -0.384946    1.163259   -1.733290
     14         16           0       -3.466323    0.868905   -1.041662
     15          6           0       -4.250325    0.106748    0.328253
     16          6           0       -3.388133   -0.756459    1.027919
     17          1           0       -5.228418    0.412704    0.669365
     18          1           0       -3.607437   -1.116751    2.026715
     19          8           0        1.927585    2.195978    1.067169
     20          1           0        2.429923    2.990170    1.587296
 ---------------------------------------------------------------------
 Rotational constants (GHZ):           1.2315869           0.2606230           0.2523300
 Standard basis: 6-311+G(d,p) (5D, 7F)
 There are   382 symmetry adapted cartesian basis functions of A   symmetry.
 There are   368 symmetry adapted basis functions of A   symmetry.
   368 basis functions,   594 primitive gaussians,   382 cartesian basis functions
    61 alpha electrons       61 beta electrons
       nuclear repulsion energy      1114.1171642247 Hartrees.
 NAtoms=   20 NActive=   20 NUniq=   20 SFac= 1.00D+00 NAtFMM=   60 NAOKFM=F Big=F
 Integral buffers will be    131072 words long.
 Raffenetti 2 integral format.
 Two-electron integral symmetry is turned on.
 Nuclear repulsion after empirical dispersion term =     1114.1069707426 Hartrees.
 One-electron integrals computed using PRISM.
 NBasis=   368 RedAO= T EigKep=  3.03D-06  NBF=   368
 NBsUse=   367 1.00D-06 EigRej=  5.01D-07 NBFU=   367
 Initial guess from the checkpoint file:  "/tmp/pbs.4762174[85].pbs/Gau-3309953.chk"
 B after Tr=     0.000000    0.000000    0.000000
         Rot=    0.999639   -0.026831    0.000882   -0.000489 Ang=  -3.08 deg.
 ExpMin= 4.05D-02 ExpMax= 9.34D+04 ExpMxC= 3.17D+03 IAcc=3 IRadAn=         5 AccDes= 0.00D+00
 Harris functional with IExCor= 4639 and IRadAn=       5 diagonalized for initial guess.
 HarFok:  IExCor= 4639 AccDes= 0.00D+00 IRadAn=         5 IDoV= 1 UseB2=F ITyADJ=14
 ICtDFT=  3500011 ScaDFX=  1.000000  1.000000  1.000000  1.000000
 FoFCou: FMM=F IPFlag=           0 FMFlag=      100000 FMFlg1=           0
         NFxFlg=           0 DoJE=T BraDBF=F KetDBF=T FulRan=T
         wScrn=  0.000000 ICntrl=       500 IOpCl=  0 I1Cent=   200000004 NGrid=           0
         NMat0=    1 NMatS0=      1 NMatT0=    0 NMatD0=    1 NMtDS0=    0 NMtDT0=    0
 Petite list used in FoFCou.
 Requested convergence on RMS density matrix=1.00D-08 within 128 cycles.
 Requested convergence on MAX density matrix=1.00D-06.
 Requested convergence on             energy=1.00D-06.
 No special actions if energy rises.
 SCF Done:  E(RwB97XD) =  -1654.35662466     A.U. after   15 cycles
            NFock= 15  Conv=0.57D-08     -V/T= 2.0026
 Calling FoFJK, ICntrl=      2127 FMM=F ISym2X=0 I1Cent= 0 IOpClX= 0 NMat=1 NMatS=1 NMatT=0.
 ***** Axes restored to original set *****
 -------------------------------------------------------------------
 Center     Atomic                   Forces (Hartrees/Bohr)
 Number     Number              X              Y              Z
 -------------------------------------------------------------------
      1        6           0.004843765   -0.028348513    0.004002299
      2        6           0.034105062    0.034378616    0.008884240
      3        6          -0.036702201    0.010191550    0.002698140
      4        6           0.010785576    0.033602524   -0.011973765
      5        1          -0.000124091    0.001810640    0.000653662
      6       16          -0.003767922    0.017672058   -0.004399427
      7        1           0.002061625   -0.003014436    0.000335352
      8        6           0.046523487    0.011264225    0.017812840
      9       16          -0.006238482   -0.005929608    0.012454247
     10        6           0.005161302    0.019110041    0.018817460
     11        6          -0.016797341    0.005487043   -0.022414726
     12        6          -0.029319955   -0.008516118   -0.028328115
     13        1          -0.003468593   -0.004074017    0.002741222
     14       16           0.007998940   -0.006923863   -0.010605855
     15        6          -0.035772212   -0.014282567   -0.017717773
     16        6           0.025344274    0.021477092    0.022437589
     17        1           0.003410702   -0.003473060    0.004202897
     18        1           0.003877184   -0.007007288    0.001510231
     19        8          -0.038331251    0.010849806   -0.004910666
     20        1           0.026410129   -0.084274126    0.003800147
 -------------------------------------------------------------------
 Cartesian Forces:  Max     0.084274126 RMS     0.020739790

 GradGradGradGradGradGradGradGradGradGradGradGradGradGradGradGradGradGrad
 Berny optimization.
 Using GEDIIS/GDIIS optimizer.
 FormGI is forming the generalized inverse of G from B-inverse, IUseBI=4.
 Internal  Forces:  Max     0.085079636 RMS     0.015127388
 Search for a local minimum.
 Step number   2 out of a maximum of  116
 All quantities printed in internal units (Hartrees-Bohrs-Radians)
 Mixed Optimization -- RFO/linear search
 Update second derivatives using D2CorX and points    1    2
 DE= -5.88D-02 DEPred=-5.54D-02 R= 1.06D+00
 TightC=F SS=  1.41D+00  RLast= 3.14D-01 DXNew= 5.0454D-01 9.4248D-01
 Trust test= 1.06D+00 RLast= 3.14D-01 DXMaxT set to 5.05D-01
 ITU=  1  0
 Use linear search instead of GDIIS.
     Eigenvalues ---    0.00230   0.00995   0.01050   0.01218   0.01272
     Eigenvalues ---    0.01295   0.01345   0.01407   0.01460   0.01485
     Eigenvalues ---    0.01498   0.01592   0.01592   0.01742   0.02123
     Eigenvalues ---    0.02508   0.14633   0.15267   0.15752   0.15818
     Eigenvalues ---    0.15999   0.16021   0.18296   0.20935   0.22457
     Eigenvalues ---    0.22541   0.23390   0.24116   0.24318   0.24976
     Eigenvalues ---    0.25008   0.25532   0.26241   0.26609   0.28423
     Eigenvalues ---    0.28535   0.30900   0.31289   0.31515   0.34837
     Eigenvalues ---    0.35212   0.35937   0.36005   0.36068   0.36184
     Eigenvalues ---    0.36231   0.36426   0.37568   0.38209   0.39297
     Eigenvalues ---    0.39543   0.40534   0.431831000.000001000.00000
     Eigenvalues --- 1000.000001000.000001000.000001000.000001000.00000
     Eigenvalues --- 1000.000001000.000001000.000001000.000001000.00000
     Eigenvalues --- 1000.000001000.000001000.000001000.000001000.00000
     Eigenvalues --- 1000.000001000.000001000.000001000.000001000.00000
     Eigenvalues --- 1000.000001000.000001000.000001000.000001000.00000
     Eigenvalues --- 1000.000001000.000001000.000001000.000001000.00000
     Eigenvalues --- 1000.000001000.000001000.000001000.000001000.00000
     Eigenvalues --- 1000.000001000.000001000.000001000.000001000.00000
     Eigenvalues --- 1000.000001000.000001000.000001000.000001000.00000
     Eigenvalues --- 1000.000001000.000001000.000001000.000001000.00000
     Eigenvalues --- 1000.00000
 RFO step:  Lambda=-9.99236613D-03 EMin= 2.30059435D-03
 Quartic linear search produced a step of  1.49233.
 Iteration  1 RMS(Cart)=  0.08731454 RMS(Int)=  0.01871532
 Iteration  2 RMS(Cart)=  0.02264048 RMS(Int)=  0.00097871
 Iteration  3 RMS(Cart)=  0.00036297 RMS(Int)=  0.00093048
 Iteration  4 RMS(Cart)=  0.00000052 RMS(Int)=  0.00093048
 Iteration  1 RMS(Cart)=  0.00001930 RMS(Int)=  0.00000838
 Iteration  2 RMS(Cart)=  0.00001055 RMS(Int)=  0.00000936
 Iteration  3 RMS(Cart)=  0.00000576 RMS(Int)=  0.00001057
 Iteration  4 RMS(Cart)=  0.00000315 RMS(Int)=  0.00001137
 Iteration  5 RMS(Cart)=  0.00000172 RMS(Int)=  0.00001184
 Iteration  6 RMS(Cart)=  0.00000094 RMS(Int)=  0.00001211
 Variable       Old X    -DE/DX   Delta X   Delta X   Delta X     New X
                                 (Linear)    (Quad)   (Total)
    R1        2.69148  -0.00960  -0.04132   0.03891  -0.00207   2.68942
    R2        2.64874  -0.03486  -0.09726   0.02580  -0.07160   2.57714
    R3        2.03971   0.00127   0.00267   0.00177   0.00444   2.04415
    R4        2.67518  -0.04327  -0.12519   0.02842  -0.09636   2.57882
    R5        2.77611  -0.07245  -0.19549  -0.07112  -0.26660   2.50951
    R6        3.35449  -0.01738  -0.06161   0.01990  -0.04176   3.31273
    R7        2.74340   0.00015  -0.00916   0.02370   0.01454   2.75794
    R8        3.26330  -0.01093  -0.03494   0.01261  -0.02278   3.24051
    R9        2.04010  -0.00022  -0.00093   0.00088  -0.00005   2.04005
   R10        3.35810  -0.01194  -0.03764   0.00610  -0.03237   3.32573
   R11        2.68256  -0.04673  -0.12750   0.01090  -0.11712   2.56543
   R12        3.26163  -0.00179  -0.01257   0.02137   0.00901   3.27064
   R13        2.67994  -0.02389  -0.06443   0.00507  -0.05776   2.62218
   R14        2.69129   0.00045  -0.00546   0.01208   0.00713   2.69842
   R15        2.69247  -0.00457  -0.02229   0.02265   0.00079   2.69327
   R16        3.26979  -0.00053  -0.00691   0.01643   0.00956   3.27936
   R17        2.03980   0.00134   0.00384  -0.00076   0.00308   2.04289
   R18        3.31226  -0.01101  -0.03515   0.00979  -0.02613   3.28613
   R19        2.65776  -0.04009  -0.10729   0.01484  -0.09280   2.56496
   R20        2.04111  -0.00029  -0.00105   0.00071  -0.00034   2.04077
   R21        2.04885  -0.00205  -0.00672   0.00302  -0.00370   2.04515
   R22        2.02969  -0.08508  -0.22687  -0.09660  -0.32346   1.70623
    A1        1.96116  -0.00206  -0.01349   0.00850  -0.00446   1.95670
    A2        2.17601  -0.00009   0.00404  -0.01106  -0.00731   2.16870
    A3        2.14601   0.00215   0.00946   0.00257   0.01174   2.15775
    A4        1.99342   0.00608   0.03216  -0.03715  -0.00578   1.98764
    A5        2.21312  -0.00382  -0.00668  -0.00494  -0.01419   2.19893
    A6        2.05556  -0.00143  -0.02067   0.05881   0.03592   2.09149
    A7        1.89720   0.00031  -0.01074   0.03251   0.02249   1.91969
    A8        2.30727  -0.00861  -0.01737  -0.03124  -0.04899   2.25828
    A9        2.07850   0.00829   0.02802  -0.00099   0.02664   2.10514
   A10        1.95163   0.00014  -0.00263   0.01061   0.00780   1.95942
   A11        2.18401   0.00366   0.01225   0.01045   0.02278   2.20679
   A12        2.14739  -0.00380  -0.00963  -0.02112  -0.03066   2.11673
   A13        1.62135  -0.00448  -0.00529  -0.01451  -0.02021   1.60114
   A14        2.12209  -0.00419  -0.01007  -0.01021  -0.02028   2.10181
   A15        2.23418  -0.00238  -0.00887   0.00355  -0.00532   2.22886
   A16        1.92643   0.00663   0.01927   0.00675   0.02592   1.95234
   A17        1.61108  -0.00478  -0.01168  -0.00668  -0.01770   1.59338
   A18        1.94761  -0.00627  -0.02076   0.01049  -0.01141   1.93620
   A19        2.25697   0.00659   0.02766   0.01689   0.04153   2.29850
   A20        1.97375   0.00293   0.01261  -0.00799   0.00433   1.97808
   A21        1.97662   0.00339   0.01481  -0.01035   0.00383   1.98045
   A22        1.94914  -0.00721  -0.02556   0.01662  -0.01010   1.93905
   A23        2.25603   0.00685   0.02820   0.01734   0.04236   2.29839
   A24        1.96237   0.00106  -0.00151   0.00066  -0.00001   1.96236
   A25        2.15308  -0.00350  -0.01234   0.00552  -0.00763   2.14544
   A26        2.15817   0.00292   0.01712  -0.00427   0.01202   2.17019
   A27        1.59544  -0.00076   0.00342  -0.01559  -0.01137   1.58406
   A28        1.96220   0.00250   0.00325   0.01429   0.01696   1.97916
   A29        2.12787  -0.00466  -0.01113  -0.01698  -0.02939   2.09848
   A30        2.17960   0.00304   0.01374   0.00891   0.02157   2.20117
   A31        1.94391   0.00254   0.00627  -0.00665   0.00043   1.94434
   A32        2.17051   0.00007   0.00757  -0.00484   0.00108   2.17160
   A33        2.13915  -0.00113  -0.00380   0.01707   0.01173   2.15088
   A34        2.19586  -0.04861  -0.18801  -0.04590  -0.23391   1.96195
    D1        0.00370  -0.00044  -0.00468   0.02091   0.01613   0.01983
    D2       -2.91205  -0.00478  -0.02703  -0.07450  -0.10011  -3.01216
    D3       -3.13793   0.00061   0.00237   0.02257   0.02451  -3.11341
    D4        0.22950  -0.00372  -0.01998  -0.07284  -0.09173   0.13778
    D5       -0.00529   0.00016   0.00213  -0.01222  -0.00982  -0.01511
    D6       -3.12827   0.00035   0.00287  -0.00783  -0.00496  -3.13324
    D7        3.13634  -0.00087  -0.00477  -0.01384  -0.01814   3.11820
    D8        0.01335  -0.00068  -0.00402  -0.00946  -0.01328   0.00007
    D9       -0.00046   0.00053   0.00510  -0.01953  -0.01463  -0.01509
   D10        3.11811   0.00034   0.00073  -0.00452  -0.00428   3.11383
   D11        2.93707   0.00400   0.02657   0.05923   0.08723   3.02430
   D12       -0.22754   0.00381   0.02220   0.07424   0.09759  -0.12996
   D13       -0.27639   0.00154   0.00563   0.06837   0.07433  -0.20206
   D14        3.09812  -0.00377  -0.02388  -0.01883  -0.04304   3.05508
   D15       -0.00216  -0.00036  -0.00331   0.01052   0.00764   0.00548
   D16       -3.12424   0.00005   0.00092  -0.00166  -0.00050  -3.12474
   D17       -1.57072  -0.00054   0.00000   0.00000   0.00000  -1.57072
   D18        1.53432   0.00148   0.01171   0.00341   0.01528   1.54960
   D19        1.54592  -0.00087  -0.00515   0.01656   0.01113   1.55704
   D20       -1.63223   0.00115   0.00656   0.01997   0.02641  -1.60582
   D21        0.00430   0.00013   0.00081   0.00082   0.00141   0.00571
   D22        3.12774   0.00004   0.00034  -0.00307  -0.00253   3.12522
   D23        3.14128   0.00072   0.00525  -0.01582  -0.01072   3.13056
   D24        0.03040  -0.00084  -0.00407  -0.01869  -0.02330   0.00710
   D25        3.13886  -0.00114  -0.00823   0.02190   0.01374  -3.13058
   D26       -0.14621   0.00271   0.01663   0.03573   0.05218  -0.09403
   D27       -0.03594   0.00052   0.00188   0.02470   0.02719  -0.00875
   D28        2.96217   0.00438   0.02674   0.03853   0.06563   3.02780
   D29       -0.01712   0.00122   0.00617   0.00778   0.01366  -0.00346
   D30       -2.64142  -0.00638  -0.03815  -0.03404  -0.07323  -2.71465
   D31       -0.00052  -0.00087  -0.00549   0.00522  -0.00026  -0.00078
   D32       -2.71950  -0.00861  -0.04633  -0.04532  -0.08880  -2.80830
   D33        2.71212   0.00713   0.03832   0.04672   0.08251   2.79464
   D34       -0.00686  -0.00061  -0.00253  -0.00382  -0.00603  -0.01289
   D35        2.63966   0.00588   0.03859   0.03181   0.07185   2.71151
   D36       -0.24766  -0.00023  -0.00068   0.00579   0.00616  -0.24150
   D37        0.02152   0.00033   0.00204  -0.01498  -0.01329   0.00822
   D38       -2.86581  -0.00578  -0.03724  -0.04099  -0.07898  -2.94479
   D39        0.02408   0.00024   0.00226  -0.01982  -0.01782   0.00626
   D40       -2.97354  -0.00302  -0.01956  -0.03464  -0.05500  -3.02854
   D41        2.65100   0.00518   0.03390   0.03946   0.07480   2.72579
   D42       -0.34663   0.00193   0.01208   0.02464   0.03762  -0.30901
   D43       -0.00710   0.00074   0.00225   0.01609   0.01792   0.01082
   D44       -2.64039  -0.00654  -0.03875  -0.03615  -0.07587  -2.71626
   D45        0.01958  -0.00047  -0.00089  -0.02478  -0.02595  -0.00637
   D46        2.99326   0.00534   0.03457   0.01469   0.04768   3.04093
   D47       -0.02670   0.00024  -0.00023   0.02672   0.02695   0.00025
   D48        2.86595   0.00642   0.04032   0.04855   0.08994   2.95589
   D49       -2.99449  -0.00490  -0.03367  -0.01122  -0.04599  -3.04048
   D50       -0.10184   0.00127   0.00688   0.01061   0.01701  -0.08483
         Item               Value     Threshold  Converged?
 Maximum Force            0.085080     0.000450     NO 
 RMS     Force            0.015199     0.000300     NO 
 Maximum Displacement     0.778609     0.001800     NO 
 RMS     Displacement     0.099898     0.001200     NO 
 Predicted change in Energy=-5.964285D-02
 GradGradGradGradGradGradGradGradGradGradGradGradGradGradGradGradGradGrad

                          Input orientation:                          
 ---------------------------------------------------------------------
 Center     Atomic      Atomic             Coordinates (Angstroms)
 Number     Number       Type             X           Y           Z
 ---------------------------------------------------------------------
      1          6           0       -4.148851   -1.299873   -0.185624
      2          6           0       -2.821138   -0.959919   -0.569086
      3          6           0       -1.963513   -2.021178   -0.591078
      4          6           0       -4.275491   -2.626252    0.105127
      5          1           0       -4.967866   -0.594945   -0.136556
      6         16           0       -2.803333   -3.480578   -0.103284
      7          1           0       -5.178430   -3.132023    0.412250
      8          6           0       -0.552163   -2.063917   -0.960176
      9         16           0       -0.075575   -2.371399   -2.626178
     10          6           0        1.599868   -2.240705   -2.212297
     11          6           0        1.757013   -1.970169   -0.860432
     12          6           0        0.522937   -1.866684   -0.155034
     13          1           0        0.434996   -1.563092    0.878777
     14         16           0        3.331921   -1.319299   -0.532545
     15          6           0        3.744018   -1.404973   -2.219781
     16          6           0        2.747879   -1.906933   -2.993120
     17          1           0        4.679265   -0.996187   -2.572557
     18          1           0        2.764546   -1.877431   -4.074835
     19          8           0       -2.358569    0.267673   -0.775405
     20          1           0       -3.018514    0.882884   -0.810165
 ---------------------------------------------------------------------
                    Distance matrix (angstroms):
                    1          2          3          4          5
     1  C    0.000000
     2  C    1.423178   0.000000
     3  C    2.336745   1.364652   0.000000
     4  C    1.363765   2.312222   2.489188   0.000000
     5  H    1.081719   2.220075   3.356616   2.159630   0.000000
     6  S    2.563723   2.563399   1.753023   1.714805   3.607380
     7  H    2.185008   3.352295   3.546313   1.079550   2.604283
     8  C    3.757640   2.553431   1.459441   3.913344   4.725956
     9  S    4.867860   3.709719   2.797963   5.016401   5.769621
    10  C    6.167686   4.887315   3.920998   6.327634   7.081833
    11  C    5.981964   4.697334   3.730612   6.144416   6.902118
    12  C    4.706147   3.489484   2.529117   4.865135   5.636185
    13  H    4.713161   3.614212   2.850115   4.890555   5.582036
    14  S    7.488837   6.163653   5.342066   7.745157   8.340741
    15  C    8.151456   6.784109   5.967269   8.438557   8.994048
    16  C    7.470974   6.147091   5.289620   7.710012   8.331507
    17  H    9.150154   7.763456   7.007379   9.487611   9.958024
    18  H    7.953277   6.658226   5.874672   8.221614   8.771831
    19  O    2.451561   1.327976   2.329997   3.581163   2.821466
    20  H    2.536167   1.868957   3.097516   3.838201   2.537263
                    6          7          8          9         10
     6  S    0.000000
     7  H    2.455270   0.000000
     8  C    2.794451   4.942342   0.000000
     9  S    3.877621   5.987464   1.759899   0.000000
    10  C    5.037202   7.323116   2.496057   1.730747   0.000000
    11  C    4.863267   7.146327   2.313230   2.576280   1.387596
    12  C    3.697487   5.867579   1.357570   2.592201   2.352021
    13  H    3.889469   5.847200   2.146406   3.633008   3.372066
    14  S    6.518952   8.752410   3.977868   4.135364   2.582743
    15  C    7.187177   9.461521   4.525261   3.960862   2.301279
    16  C    6.453176   8.713425   3.879148   2.884834   1.427942
    17  H    8.261888  10.518794   5.577425   4.950008   3.340853
    18  H    7.024570   9.208627   4.553728   3.226282   2.226542
    19  O    3.833921   4.573847   2.955259   3.949952   4.901616
    20  H    4.425584   4.720066   3.845651   4.748595   5.749108
                   11         12         13         14         15
    11  C    0.000000
    12  C    1.425215   0.000000
    13  H    2.222226   1.081049   0.000000
    14  S    1.735361   2.886613   3.231631   0.000000
    15  C    2.472947   3.853793   4.536044   1.738945   0.000000
    16  C    2.352483   3.606483   4.523190   2.596315   1.357318
    17  H    3.524141   4.886435   5.499719   2.466047   1.079928
    18  H    3.369883   4.515503   5.483054   3.630598   2.150304
    19  O    4.685422   3.639150   3.727200   5.912625   6.490419
    20  H    5.563102   4.531136   4.556540   6.727162   7.276892
[...]
 Stoichiometry    C10H6OS3
 Framework group  C1[X(C10H6OS3)]
 Deg. of freedom    54
 Full point group                 C1      NOp   1
 Largest Abelian subgroup         C1      NOp   1
 Largest concise Abelian subgroup C1      NOp   1
                         Standard orientation:                         
 ---------------------------------------------------------------------
 Center     Atomic      Atomic             Coordinates (Angstroms)
 Number     Number       Type             X           Y           Z
 ---------------------------------------------------------------------
      1          6           0        3.952930    0.706000    0.032608
      2          6           0        2.571239    1.010036    0.214457
      3          6           0        1.737743   -0.027534   -0.103004
      4          6           0        4.142591   -0.563981   -0.417072
      5          1           0        4.758187    1.403647    0.227580
      6         16           0        2.662951   -1.403104   -0.628821
      7          1           0        5.080456   -1.049837   -0.639848
      8          6           0        0.277548   -0.054196   -0.031197
      9         16           0       -0.522907   -0.571388    1.441681
     10          6           0       -2.076351   -0.303089    0.732447
     11          6           0       -1.953160    0.159317   -0.563891
     12          6           0       -0.608601    0.300592   -1.003808
     13          1           0       -0.297883    0.650026   -1.978496
     14         16           0       -3.509324    0.430814   -1.273685
     15          6           0       -4.294004   -0.083702    0.187986
     16          6           0       -3.425710   -0.444192    1.169351
     17          1           0       -5.372823   -0.087603    0.233703
     18          1           0       -3.732858   -0.789891    2.146257
     19          8           0        2.088921    2.199183    0.651412
     20          1           0        2.816686    2.783534    0.865456
 ---------------------------------------------------------------------
 Rotational constants (GHZ):           1.3124224           0.2574978           0.2567074

 **********************************************************************

            Population analysis using the SCF Density.

 **********************************************************************

 Orbital symmetries:
       Occupied  (A) (A) (A) (A) (A) (A) (A) (A) (A) (A) (A) (A)
                 (A) (A) (A) (A) (A) (A) (A) (A) (A) (A) (A) (A)
                 (A) (A) (A) (A) (A) (A) (A) (A) (A) (A) (A) (A)
                 (A) (A) (A) (A) (A) (A) (A) (A) (A) (A) (A) (A)
                 (A) (A) (A) (A) (A) (A) (A) (A) (A) (A) (A) (A)
                 (A)
       Virtual   (A) (A) (A) (A) (A) (A) (A) (A) (A) (A) (A) (A)
                 (A) (A) (A) (A) (A) (A) (A) (A) (A) (A) (A) (A)
                 (A) (A) (A) (A) (A) (A) (A) (A) (A) (A) (A) (A)
                 (A) (A) (A) (A) (A) (A) (A) (A) (A) (A) (A) (A)
                 (A) (A) (A) (A) (A) (A) (A) (A) (A) (A) (A) (A)
                 (A) (A) (A) (A) (A) (A) (A) (A) (A) (A) (A) (A)
                 (A) (A) (A) (A) (A) (A) (A) (A) (A) (A) (A) (A)
                 (A) (A) (A) (A) (A) (A) (A) (A) (A) (A) (A) (A)
                 (A) (A) (A) (A) (A) (A) (A) (A) (A) (A) (A) (A)
                 (A) (A) (A) (A) (A) (A) (A) (A) (A) (A) (A) (A)
                 (A) (A) (A) (A) (A) (A) (A) (A) (A) (A) (A) (A)
                 (A) (A) (A) (A) (A) (A) (A) (A) (A) (A) (A) (A)
                 (A) (A) (A) (A) (A) (A) (A) (A) (A) (A) (A) (A)
                 (A) (A) (A) (A) (A) (A) (A) (A) (A) (A) (A) (A)
                 (A) (A) (A) (A) (A) (A) (A) (A) (A) (A) (A) (A)
                 (A) (A) (A) (A) (A) (A) (A) (A) (A) (A) (A) (A)
                 (A) (A) (A) (A) (A) (A) (A) (A) (A) (A) (A) (A)
                 (A) (A) (A) (A) (A) (A) (A) (A) (A) (A) (A) (A)
                 (A) (A) (A) (A) (A) (A) (A) (A) (A) (A) (A) (A)
                 (A) (A) (A) (A) (A) (A) (A) (A) (A) (A) (A) (A)
                 (A) (A) (A) (A) (A) (A) (A) (A) (A) (A) (A) (A)
                 (A) (A) (A) (A) (A) (A) (A) (A) (A) (A) (A) (A)
                 (A) (A) (A) (A) (A) (A) (A) (A) (A) (A) (A) (A)
                 (A) (A) (A) (A) (A) (A) (A) (A) (A) (A) (A) (A)
                 (A) (A) (A) (A) (A) (A) (A) (A) (A) (A) (A) (A)
                 (A) (A) (A) (A) (A) (A)
 The electronic state is 1-A.
 Alpha  occ. eigenvalues --  -89.05109 -89.04705 -89.04425 -19.28986 -10.36045
 Alpha  occ. eigenvalues --  -10.33132 -10.32675 -10.32099 -10.32014 -10.31989
 Alpha  occ. eigenvalues --  -10.31905 -10.30281 -10.30159 -10.30102  -8.09168
 Alpha  occ. eigenvalues --   -8.08751  -8.08467  -6.04001  -6.03621  -6.03600
 Alpha  occ. eigenvalues --   -6.03318  -6.03264  -6.03228  -6.02946  -6.02814
 Alpha  occ. eigenvalues --   -6.02519  -1.18159  -1.01742  -0.99615  -0.94962
 Alpha  occ. eigenvalues --   -0.86846  -0.85907  -0.83859  -0.80618  -0.79866
 Alpha  occ. eigenvalues --   -0.70862  -0.70032  -0.66206  -0.64761  -0.62851
 Alpha  occ. eigenvalues --   -0.60748  -0.58099  -0.56959  -0.53548  -0.52516
 Alpha  occ. eigenvalues --   -0.51845  -0.49844  -0.49656  -0.47372  -0.47008
 Alpha  occ. eigenvalues --   -0.45785  -0.44916  -0.44275  -0.44019  -0.41876
 Alpha  occ. eigenvalues --   -0.41667  -0.36442  -0.33226  -0.30575  -0.30289
 Alpha  occ. eigenvalues --   -0.29288
 Alpha virt. eigenvalues --    0.02722   0.03708   0.04998   0.05995   0.06220
 Alpha virt. eigenvalues --    0.06634   0.07382   0.07485   0.08049   0.09030
 Alpha virt. eigenvalues --    0.09243   0.09485   0.09870   0.10307   0.10845
 Alpha virt. eigenvalues --    0.11057   0.11297   0.11944   0.12220   0.12388
 Alpha virt. eigenvalues --    0.13713   0.14461   0.14649   0.14757   0.14974
 Alpha virt. eigenvalues --    0.15355   0.16128   0.16886   0.17464   0.18041
 Alpha virt. eigenvalues --    0.18387   0.18530   0.18930   0.19420   0.19972
 Alpha virt. eigenvalues --    0.20211   0.20711   0.21100   0.21501   0.21655
 Alpha virt. eigenvalues --    0.21851   0.22403   0.23163   0.23349   0.23587
 Alpha virt. eigenvalues --    0.24117   0.24649   0.25195   0.25395   0.25601
 Alpha virt. eigenvalues --    0.26150   0.26835   0.27237   0.27411   0.27507
 Alpha virt. eigenvalues --    0.27954   0.28546   0.29228   0.29495   0.30676
 Alpha virt. eigenvalues --    0.30911   0.31471   0.31546   0.31704   0.33232
 Alpha virt. eigenvalues --    0.33763   0.34321   0.35185   0.36081   0.36330
 Alpha virt. eigenvalues --    0.37393   0.37944   0.38919   0.39933   0.40480
 Alpha virt. eigenvalues --    0.41129   0.41886   0.42730   0.43060   0.43838
 Alpha virt. eigenvalues --    0.44310   0.46256   0.47542   0.49296   0.50356
 Alpha virt. eigenvalues --    0.50946   0.52466   0.53644   0.54351   0.54903
 Alpha virt. eigenvalues --    0.56140   0.57735   0.58212   0.60763   0.61248
 Alpha virt. eigenvalues --    0.63541   0.64178   0.64487   0.64579   0.65805
 Alpha virt. eigenvalues --    0.67129   0.67485   0.67682   0.69165   0.69787
 Alpha virt. eigenvalues --    0.70698   0.71625   0.72051   0.73411   0.74583
 Alpha virt. eigenvalues --    0.74831   0.77406   0.78861   0.79129   0.80245
 Alpha virt. eigenvalues --    0.80949   0.81701   0.81944   0.82469   0.83876
 Alpha virt. eigenvalues --    0.85005   0.85942   0.86983   0.87753   0.88160
 Alpha virt. eigenvalues --    0.89474   0.89993   0.91212   0.91378   0.91813
 Alpha virt. eigenvalues --    0.92438   0.93701   0.94045   0.94849   0.94980
 Alpha virt. eigenvalues --    0.97056   0.98030   0.99124   1.00387   1.02413
 Alpha virt. eigenvalues --    1.03045   1.04643   1.05582   1.05897   1.07249
 Alpha virt. eigenvalues --    1.09365   1.10969   1.12048   1.12442   1.13397
 Alpha virt. eigenvalues --    1.14519   1.15321   1.15839   1.17292   1.18397
 Alpha virt. eigenvalues --    1.19866   1.21386   1.23136   1.25115   1.27271
 Alpha virt. eigenvalues --    1.28365   1.29670   1.33083   1.38417   1.39069
 Alpha virt. eigenvalues --    1.43500   1.43814   1.44991   1.46611   1.49069
 Alpha virt. eigenvalues --    1.51886   1.56533   1.58679   1.60307   1.63239
 Alpha virt. eigenvalues --    1.65204   1.66461   1.68375   1.68853   1.69503
 Alpha virt. eigenvalues --    1.71662   1.72486   1.74132   1.77109   1.78323
 Alpha virt. eigenvalues --    1.80441   1.81436   1.82072   1.82918   1.83975
 Alpha virt. eigenvalues --    1.86559   1.86852   1.87582   1.88529   1.90644
 Alpha virt. eigenvalues --    1.93155   1.94719   1.96684   1.97942   1.98703
 Alpha virt. eigenvalues --    2.00676   2.01537   2.03448   2.06210   2.06959
 Alpha virt. eigenvalues --    2.08796   2.09059   2.11444   2.13347   2.15306
 Alpha virt. eigenvalues --    2.15942   2.17240   2.18345   2.18935   2.19835
 Alpha virt. eigenvalues --    2.21142   2.23022   2.24142   2.25932   2.27055
 Alpha virt. eigenvalues --    2.28631   2.29065   2.37586   2.43011   2.47176
 Alpha virt. eigenvalues --    2.51114   2.52382   2.53791   2.60054   2.63180
 Alpha virt. eigenvalues --    2.65952   2.68201   2.72433   2.73194   2.79640
 Alpha virt. eigenvalues --    2.80177   2.80847   2.81506   2.82361   2.83533
 Alpha virt. eigenvalues --    2.84586   2.88134   2.88879   2.94244   2.98610
 Alpha virt. eigenvalues --    3.00900   3.02939   3.05819   3.07856   3.08511
 Alpha virt. eigenvalues --    3.13092   3.17242   3.18125   3.22741   3.23309
 Alpha virt. eigenvalues --    3.27278   3.27883   3.31188   3.40606   3.41260
 Alpha virt. eigenvalues --    3.41786   3.43078   3.47513   3.54673   3.57674
 Alpha virt. eigenvalues --    3.58566   3.62979   3.68612   3.81194   3.98071
 Alpha virt. eigenvalues --    4.04598   4.08715   4.15949   4.21642   4.30462
 Alpha virt. eigenvalues --    4.45761   4.59244   5.12503   5.58161   5.86308
 Alpha virt. eigenvalues --    8.09309   8.10889   8.12361  17.42664  17.43920
 Alpha virt. eigenvalues --   17.45394  17.60281  17.60962  17.64587  17.66215
 Alpha virt. eigenvalues --   17.68748  17.71444  23.60823  23.76574  23.90721
 Alpha virt. eigenvalues --   23.94113  23.99181  24.17603  24.21091  24.28834
 Alpha virt. eigenvalues --   24.29420  24.30699  50.08430 189.33882 189.35997
 Alpha virt. eigenvalues --  189.37884
          Condensed to atoms (all electrons):
               1          2          3          4          5          6
     1  C    8.563393  -2.895864   0.497328  -0.651472   0.401014   0.500709
     2  C   -2.895864  13.085930  -2.653533   1.625382  -0.048680  -1.479530
     3  C    0.497328  -2.653533   9.705942  -1.094792  -0.014741   0.201032
     4  C   -0.651472   1.625382  -1.094792   6.230568   0.035402  -0.024570
     5  H    0.401014  -0.048680  -0.014741   0.035402   0.498485  -0.001066
     6  S    0.500709  -1.479530   0.201032  -0.024570  -0.001066  16.781721
     7  H    0.031461  -0.042331   0.029619   0.366508  -0.003750  -0.018068
     8  C    0.186887  -1.004611   1.221453  -0.250034  -0.010246  -0.103891
     9  S   -0.134295   0.403550   0.546236   0.075728  -0.000029  -0.057102
    10  C    0.012946  -0.172676  -1.329482  -0.017811  -0.000386   0.065530
    11  C   -0.212288  -0.114659   1.439656   0.069686   0.000288   0.013128
    12  C   -0.046733  -0.378024  -2.698798  -0.126514  -0.000661   0.208525
    13  H    0.001771  -0.003757   0.055910   0.002107   0.000001  -0.004156
    14  S   -0.011804  -0.020104   0.007102   0.003249  -0.000002   0.000652
    15  C   -0.002660  -0.005532   0.005318   0.000430   0.000001  -0.002355
    16  C   -0.007931  -0.118231  -0.209734   0.000698  -0.000029   0.021044
    17  H    0.000001  -0.000006  -0.000061  -0.000000   0.000000   0.000008
    18  H   -0.000010  -0.000073  -0.000479   0.000003   0.000000  -0.000021
    19  O    0.120588   0.003610   0.001681  -0.036278  -0.005212   0.044692
    20  H   -0.223567   0.210648  -0.005395   0.011545   0.003351  -0.021738
               7          8          9         10         11         12
     1  C    0.031461   0.186887  -0.134295   0.012946  -0.212288  -0.046733
     2  C   -0.042331  -1.004611   0.403550  -0.172676  -0.114659  -0.378024
     3  C    0.029619   1.221453   0.546236  -1.329482   1.439656  -2.698798
     4  C    0.366508  -0.250034   0.075728  -0.017811   0.069686  -0.126514
     5  H   -0.003750  -0.010246  -0.000029  -0.000386   0.000288  -0.000661
     6  S   -0.018068  -0.103891  -0.057102   0.065530   0.013128   0.208525
     7  H    0.447068   0.001441  -0.000344   0.000029  -0.000454  -0.000659
     8  C    0.001441  11.299407   1.079362  -0.922537   3.094628  -5.744186
     9  S   -0.000344   1.079362  18.352416  -0.312311   3.023824  -4.758739
    10  C    0.000029  -0.922537  -0.312311  20.807633  -4.711361   0.173689
    11  C   -0.000454   3.094628   3.023824  -4.711361  21.693223 -14.122344
    12  C   -0.000659  -5.744186  -4.758739   0.173689 -14.122344  27.631710
    13  H   -0.000001   0.093472   0.024886  -0.067154   0.101799   0.156603
    14  S   -0.000002  -0.738586   0.241496   0.326085  -0.684229  -0.479612
    15  C   -0.000001   0.076669   0.359146   1.808962  -0.043186  -1.230359
    16  C    0.000001  -2.544031  -2.352711  -9.960305  -3.040052   6.881100
    17  H    0.000000   0.003327  -0.001515  -0.012905   0.028637   0.008967
    18  H    0.000000  -0.006461   0.013692   0.019510  -0.046499  -0.005225
    19  O   -0.000301  -0.037487  -0.020202   0.006291   0.029689  -0.048148
    20  H   -0.000024   0.011602   0.008659   0.003904   0.002348   0.016402
              13         14         15         16         17         18
     1  C    0.001771  -0.011804  -0.002660  -0.007931   0.000001  -0.000010
     2  C   -0.003757  -0.020104  -0.005532  -0.118231  -0.000006  -0.000073
     3  C    0.055910   0.007102   0.005318  -0.209734  -0.000061  -0.000479
     4  C    0.002107   0.003249   0.000430   0.000698  -0.000000   0.000003
     5  H    0.000001  -0.000002   0.000001  -0.000029   0.000000   0.000000
     6  S   -0.004156   0.000652  -0.002355   0.021044   0.000008  -0.000021
     7  H   -0.000001  -0.000002  -0.000001   0.000001   0.000000   0.000000
     8  C    0.093472  -0.738586   0.076669  -2.544031   0.003327  -0.006461
     9  S    0.024886   0.241496   0.359146  -2.352711  -0.001515   0.013692
    10  C   -0.067154   0.326085   1.808962  -9.960305  -0.012905   0.019510
    11  C    0.101799  -0.684229  -0.043186  -3.040052   0.028637  -0.046499
    12  C    0.156603  -0.479612  -1.230359   6.881100   0.008967  -0.005225
    13  H    0.478919   0.005543   0.002371  -0.010075  -0.000004   0.000004
    14  S    0.005543  17.427899   0.458418  -0.072758  -0.043310   0.008552
    15  C    0.002371   0.458418   5.952621  -1.576560   0.373221   0.030438
    16  C   -0.010075  -0.072758  -1.576560  18.440209   0.011022   0.347126
    17  H   -0.000004  -0.043310   0.373221   0.011022   0.444058  -0.003717
    18  H    0.000004   0.008552   0.030438   0.347126  -0.003717   0.481482
    19  O   -0.000015  -0.000486   0.000615  -0.001142  -0.000000   0.000002
    20  H   -0.000020   0.000091   0.000080   0.000377  -0.000000   0.000000
              19         20
     1  C    0.120588  -0.223567
     2  C    0.003610   0.210648
     3  C    0.001681  -0.005395
     4  C   -0.036278   0.011545
     5  H   -0.005212   0.003351
     6  S    0.044692  -0.021738
     7  H   -0.000301  -0.000024
     8  C   -0.037487   0.011602
     9  S   -0.020202   0.008659
    10  C    0.006291   0.003904
    11  C    0.029689   0.002348
    12  C   -0.048148   0.016402
    13  H   -0.000015  -0.000020
    14  S   -0.000486   0.000091
    15  C    0.000615   0.000080
    16  C   -0.001142   0.000377
    17  H   -0.000000  -0.000000
    18  H    0.000002   0.000000
    19  O    7.980443   0.199188
    20  H    0.199188   0.508969
 Mulliken charges:
               1
     1  C   -0.129473
     2  C   -0.391510
     3  C    0.295740
     4  C   -0.219835
     5  H    0.146261
     6  S   -0.124544
     7  H    0.189808
     8  C    0.293824
     9  S   -0.491746
    10  C    0.282348
    11  C   -0.521832
    12  C    0.563006
    13  H    0.161794
    14  S   -0.428194
    15  C   -0.207636
    16  C    0.191983
    17  H    0.192277
    18  H    0.161677
    19  O   -0.237529
    20  H    0.273581
 Sum of Mulliken charges =  -0.00000
 Mulliken charges with hydrogens summed into heavy atoms:
               1
     1  C    0.016787
     2  C   -0.391510
     3  C    0.295740
     4  C   -0.030027
     6  S   -0.124544
     8  C    0.293824
     9  S   -0.491746
    10  C    0.282348
    11  C   -0.521832
    12  C    0.724800
    14  S   -0.428194
    15  C   -0.015358
    16  C    0.353660
    19  O    0.036052
 Electronic spatial extent (au):  <R**2>=           4276.1453
 Charge=             -0.0000 electrons
 Dipole moment (field-independent basis, Debye):
    X=              1.9869    Y=              0.9765    Z=              0.2710  Tot=              2.2304
 Quadrupole moment (field-independent basis, Debye-Ang):
   XX=            -77.3733   YY=           -100.1121   ZZ=           -100.6726
   XY=              6.9364   XZ=             -2.0654   YZ=              0.1672
 Traceless Quadrupole moment (field-independent basis, Debye-Ang):
   XX=             15.3460   YY=             -7.3928   ZZ=             -7.9532
   XY=              6.9364   XZ=             -2.0654   YZ=              0.1672
 Octapole moment (field-independent basis, Debye-Ang**2):
  XXX=             39.9390  YYY=             25.2365  ZZZ=              4.8315  XYY=             36.9867
  XXY=             18.7975  XXZ=             17.6553  XZZ=             -7.4126  YZZ=              3.3803
  YYZ=              5.7554  XYZ=             17.5175
 Hexadecapole moment (field-independent basis, Debye-Ang**3):
 XXXX=          -3956.9984 YYYY=           -534.3334 ZZZZ=           -586.5190 XXXY=             84.5473
 XXXZ=            -46.1115 YYYX=             82.9703 YYYZ=             34.1437 ZZZX=             -5.8491
 ZZZY=             -9.3790 XXYY=           -811.6595 XXZZ=           -897.9919 YYZZ=           -194.1342
 XXYZ=             33.7295 YYXZ=             20.9923 ZZXY=             18.6344
 N-N= 1.127770260416D+03 E-N=-6.167420646684D+03  KE= 1.651134954837D+03
 Unable to Open any file for archive entry.
 1\1\GINC-CX3-5-29\FOpt\RwB97XD\6-311+G(d,p)\C10H6O1S3\NS5018\25-Oct-20
 21\0\\# opt=modredundant wb97xd/6-311+g(d,p)\\pBTTT_-90.pdb\\0,1\C,-4.
 1748724886,-1.3716194686,-0.1216627576\C,-2.8745579846,-0.958277594,-0
 .5374860958\C,-1.9717485156,-1.9840847311,-0.606065281\C,-4.2353664636
 ,-2.7102178502,0.1139859077\H,-5.0164007377,-0.6997647087,-0.005014571
 2\S,-2.7301438943,-3.4837895197,-0.158397699\H,-5.0905431881,-3.282944
 9988,0.4394565622\C,-0.5641134267,-1.9104290565,-0.9948779036\S,-0.102
 6704991,-2.1096434428,-2.6756422511\C,1.5644573404,-1.8791210911,-2.28
 10149556\C,1.724757681,-1.6620241801,-0.9257803322\C,0.5097539304,-1.6
 814442224,-0.1877331316\H,0.4176869974,-1.5294948141,0.8786159702\S,3.
 3946005282,-1.4282967149,-0.5306076503\C,3.8431175208,-1.627811534,-2.
 1967285625\C,2.7848078019,-1.8597798832,-3.0171768\H,4.884440763,-1.55
 91743953,-2.4740192665\H,2.8728301739,-2.0078791493,-4.0841878284\O,-2
 .5244631071,0.3161175912,-0.83911504\H,-3.2925724316,0.8846797637,-0.7
 785483138\\Version=ES64L-G16RevC.01\State=1-A\HF=-1654.4101316\RMSD=1.
 660e-09\RMSF=1.782e-05\Dipole=-0.7929293,0.3496446,0.137946\Quadrupole
 =10.0655663,-5.9779924,-4.0875739,-3.7149422,-5.9636732,0.6294038\PG=C
 01 [X(C10H6O1S3)]\\@
 The archive entry for this job was punched.


 LOVE IS BLIND, THAT'S WHY ALL THE WORLD LOVES A LOUVER.
 Job cpu time:       0 days  3 hours 21 minutes 37.6 seconds.
 Elapsed time:       0 days  0 hours 25 minutes 25.1 seconds.
 File lengths (MBytes):  RWF=     86 Int=      0 D2E=      0 Chk=     11 Scr=      1
 Normal termination of Gaussian 16 at Mon Oct 25 23:57:55 2021.
