 Entering Gaussian System, Link 0=g16
 Input=pBTTT_-105.gjf
 Output=pBTTT_-105.log
 Initial command:
 /apps/gaussian/g16-c01-avx/g16/l1.exe "/tmp/pbs.4762174[70].pbs/Gau-417046.inp" -scrdir="/tmp/pbs.4762174[70].pbs/"
 Entering Link 1 = /apps/gaussian/g16-c01-avx/g16/l1.exe PID=    417047.
  
 Copyright (c) 1988-2019, Gaussian, Inc.  All Rights Reserved.
  
 This is part of the Gaussian(R) 16 program.  It is based on
 the Gaussian(R) 09 system (copyright 2009, Gaussian, Inc.),
 the Gaussian(R) 03 system (copyright 2003, Gaussian, Inc.),
 the Gaussian(R) 98 system (copyright 1998, Gaussian, Inc.),
 the Gaussian(R) 94 system (copyright 1995, Gaussian, Inc.),
 the Gaussian 92(TM) system (copyright 1992, Gaussian, Inc.),
 the Gaussian 90(TM) system (copyright 1990, Gaussian, Inc.),
 the Gaussian 88(TM) system (copyright 1988, Gaussian, Inc.),
 the Gaussian 86(TM) system (copyright 1986, Carnegie Mellon
 University), and the Gaussian 82(TM) system (copyright 1983,
 Carnegie Mellon University). Gaussian is a federally registered
 trademark of Gaussian, Inc.
  
 This software contains proprietary and confidential information,
 including trade secrets, belonging to Gaussian, Inc.
  
 This software is provided under written license and may be
 used, copied, transmitted, or stored only in accord with that
 written license.
  
 The following legend is applicable only to US Government
 contracts under FAR:
  
                    RESTRICTED RIGHTS LEGEND
  
 Use, reproduction and disclosure by the US Government is
 subject to restrictions as set forth in subparagraphs (a)
 and (c) of the Commercial Computer Software - Restricted
 Rights clause in FAR 52.227-19.
  
 Gaussian, Inc.
 340 Quinnipiac St., Bldg. 40, Wallingford CT 06492
  
  
 ---------------------------------------------------------------
 Warning -- This program may not be used in any manner that
 competes with the business of Gaussian, Inc. or will provide
 assistance to any competitor of Gaussian, Inc.  The licensee
 of this program is prohibited from giving any competitor of
 Gaussian, Inc. access to this program.  By using this program,
 the user acknowledges that Gaussian, Inc. is engaged in the
 business of creating and licensing software in the field of
 computational chemistry and represents and warrants to the
 licensee that it is not a competitor of Gaussian, Inc. and that
 it will not use this program in any manner prohibited above.
 ---------------------------------------------------------------
  

 Cite this work as:
 Gaussian 16, Revision C.01,
 M. J. Frisch, G. W. Trucks, H. B. Schlegel, G. E. Scuseria, 
 M. A. Robb, J. R. Cheeseman, G. Scalmani, V. Barone, 
 G. A. Petersson, H. Nakatsuji, X. Li, M. Caricato, A. V. Marenich, 
 J. Bloino, B. G. Janesko, R. Gomperts, B. Mennucci, H. P. Hratchian, 
 J. V. Ortiz, A. F. Izmaylov, J. L. Sonnenberg, D. Williams-Young, 
 F. Ding, F. Lipparini, F. Egidi, J. Goings, B. Peng, A. Petrone, 
 T. Henderson, D. Ranasinghe, V. G. Zakrzewski, J. Gao, N. Rega, 
 G. Zheng, W. Liang, M. Hada, M. Ehara, K. Toyota, R. Fukuda, 
 J. Hasegawa, M. Ishida, T. Nakajima, Y. Honda, O. Kitao, H. Nakai, 
 T. Vreven, K. Throssell, J. A. Montgomery, Jr., J. E. Peralta, 
 F. Ogliaro, M. J. Bearpark, J. J. Heyd, E. N. Brothers, K. N. Kudin, 
 V. N. Staroverov, T. A. Keith, R. Kobayashi, J. Normand, 
 K. Raghavachari, A. P. Rendell, J. C. Burant, S. S. Iyengar, 
 J. Tomasi, M. Cossi, J. M. Millam, M. Klene, C. Adamo, R. Cammi, 
 J. W. Ochterski, R. L. Martin, K. Morokuma, O. Farkas, 
 J. B. Foresman, and D. J. Fox, Gaussian, Inc., Wallingford CT, 2019.
 
 ******************************************
 Gaussian 16:  ES64L-G16RevC.01  3-Jul-2019
                25-Oct-2021 
 ******************************************
 %mem=10GB
 %nprocshared=8
 Will use up to    8 processors via shared memory.
 --------------------------------------
 # opt=modredundant wb97xd/6-311+g(d,p)
 --------------------------------------
 1/18=120,19=15,26=3,38=1/1,3;
 2/9=110,12=2,17=6,18=5,40=1/2;
 3/5=4,6=6,7=111,11=2,25=1,30=1,71=1,74=-58/1,2,3;
 4//1;
 5/5=2,38=5/2;
 6/7=2,8=2,9=2,10=2,28=1/1;
 7//1,2,3,16;
 1/18=20,19=15,26=3/3(2);
 2/9=110/2;
 99//99;
 2/9=110/2;
 3/5=4,6=6,7=111,11=2,25=1,30=1,71=1,74=-58/1,2,3;
 4/5=5,16=3,69=1/1;
 5/5=2,38=5/2;
 7//1,2,3,16;
 1/18=20,19=15,26=3/3(-5);
 2/9=110/2;
 6/7=2,8=2,9=2,10=2,19=2,28=1/1;
 99/9=1/99;
 --------------
 pBTTT_-105.pdb
 --------------
 Symbolic Z-matrix:
 Charge =  0 Multiplicity = 1
 C                    -4.25     -1.36     -0.21 
 C                    -2.93     -0.95     -0.61 
 C                    -1.97     -2.05     -0.62 
 C                    -4.33     -2.76      0.1 
 H                    -5.1      -0.7      -0.14 
 S                    -2.8      -3.56     -0.11 
 H                    -5.23     -3.27      0.41 
 C                    -0.56     -2.13     -0.97 
 S                    -0.004    -2.869    -2.503 
 C                     1.661    -2.564    -2.144 
 C                     1.835    -1.88     -0.887 
 C                     0.592    -1.616    -0.226 
 H                     0.511    -0.974     0.638 
 S                     3.298    -0.954    -0.828 
 C                     3.73     -1.459    -2.463 
 C                     2.73     -2.318    -3.055 
 H                     4.551    -1.015    -3.008 
 H                     2.674    -2.505    -4.124 
 O                    -2.4       0.49     -0.72 
 H                    -2.92      1.52     -0.76 
 
 Add virtual bond connecting atoms H20        and O19        Dist= 2.18D+00.
 The following ModRedundant input section has been read:
 D       2       3       8       9 F                                           
 

 GradGradGradGradGradGradGradGradGradGradGradGradGradGradGradGradGradGrad
 Berny optimization.
 Initialization pass.
                           ----------------------------
                           !    Initial Parameters    !
                           ! (Angstroms and Degrees)  !
 --------------------------                            --------------------------
 ! Name  Definition              Value          Derivative Info.                !
 --------------------------------------------------------------------------------
 ! R1    R(1,2)                  1.4389         estimate D2E/DX2                !
 ! R2    R(1,4)                  1.4361         estimate D2E/DX2                !
 ! R3    R(1,5)                  1.0784         estimate D2E/DX2                !
 ! R4    R(2,3)                  1.46           estimate D2E/DX2                !
 ! R5    R(2,19)                 1.5384         estimate D2E/DX2                !
 ! R6    R(3,6)                  1.797          estimate D2E/DX2                !
 ! R7    R(3,8)                  1.455          estimate D2E/DX2                !
 ! R8    R(4,6)                  1.7393         estimate D2E/DX2                !
 ! R9    R(4,7)                  1.0799         estimate D2E/DX2                !
 ! R10   R(8,9)                  1.7903         estimate D2E/DX2                !
 ! R11   R(8,12)                 1.4645         estimate D2E/DX2                !
 ! R12   R(9,10)                 1.7304         estimate D2E/DX2                !
 ! R13   R(10,11)                1.4416         estimate D2E/DX2                !
 ! R14   R(10,16)                1.4259         estimate D2E/DX2                !
 ! R15   R(11,12)                1.4324         estimate D2E/DX2                !
 ! R16   R(11,14)                1.7324         estimate D2E/DX2                !
 ! R17   R(12,13)                1.0795         estimate D2E/DX2                !
 ! R18   R(14,15)                1.7649         estimate D2E/DX2                !
 ! R19   R(15,16)                1.4451         estimate D2E/DX2                !
 ! R20   R(15,17)                1.0808         estimate D2E/DX2                !
 ! R21   R(16,18)                1.0867         estimate D2E/DX2                !
 ! R22   R(19,20)                1.1545         estimate D2E/DX2                !
 ! A1    A(2,1,4)              112.8843         estimate D2E/DX2                !
 ! A2    A(2,1,5)              124.5209         estimate D2E/DX2                !
 ! A3    A(4,1,5)              122.5942         estimate D2E/DX2                !
 ! A4    A(1,2,3)              112.9799         estimate D2E/DX2                !
 ! A5    A(1,2,19)             127.059          estimate D2E/DX2                !
 ! A6    A(3,2,19)             118.5686         estimate D2E/DX2                !
 ! A7    A(2,3,6)              109.1138         estimate D2E/DX2                !
 ! A8    A(2,3,8)              132.8639         estimate D2E/DX2                !
 ! A9    A(6,3,8)              118.0132         estimate D2E/DX2                !
 ! A10   A(1,4,6)              111.9209         estimate D2E/DX2                !
 ! A11   A(1,4,7)              124.6643         estimate D2E/DX2                !
 ! A12   A(6,4,7)              123.4062         estimate D2E/DX2                !
 ! A13   A(3,6,4)               93.0997         estimate D2E/DX2                !
 ! A14   A(3,8,9)              121.9798         estimate D2E/DX2                !
 ! A15   A(3,8,12)             128.373          estimate D2E/DX2                !
 ! A16   A(9,8,12)             109.6076         estimate D2E/DX2                !
 ! A17   A(8,9,10)              92.7753         estimate D2E/DX2                !
 ! A18   A(9,10,11)            112.3758         estimate D2E/DX2                !
 ! A19   A(9,10,16)            128.2608         estimate D2E/DX2                !
 ! A20   A(11,10,16)           112.6276         estimate D2E/DX2                !
 ! A21   A(10,11,12)           112.6495         estimate D2E/DX2                !
 ! A22   A(10,11,14)           112.6583         estimate D2E/DX2                !
 ! A23   A(12,11,14)           128.2141         estimate D2E/DX2                !
 ! A24   A(8,12,11)            112.5499         estimate D2E/DX2                !
 ! A25   A(8,12,13)            123.8022         estimate D2E/DX2                !
 ! A26   A(11,12,13)           122.9633         estimate D2E/DX2                !
 ! A27   A(11,14,15)            91.2729         estimate D2E/DX2                !
 ! A28   A(14,15,16)           112.3466         estimate D2E/DX2                !
 ! A29   A(14,15,17)           122.3788         estimate D2E/DX2                !
 ! A30   A(16,15,17)           124.2809         estimate D2E/DX2                !
 ! A31   A(10,16,15)           111.0761         estimate D2E/DX2                !
 ! A32   A(10,16,18)           124.0681         estimate D2E/DX2                !
 ! A33   A(15,16,18)           122.7479         estimate D2E/DX2                !
 ! A34   A(2,19,20)            133.0318         estimate D2E/DX2                !
 ! D1    D(4,1,2,3)              0.3915         estimate D2E/DX2                !
 ! D2    D(4,1,2,19)          -165.8104         estimate D2E/DX2                !
 ! D3    D(5,1,2,3)           -179.8811         estimate D2E/DX2                !
 ! D4    D(5,1,2,19)            13.9169         estimate D2E/DX2                !
 ! D5    D(2,1,4,6)             -0.3845         estimate D2E/DX2                !
 ! D6    D(2,1,4,7)           -179.3471         estimate D2E/DX2                !
 ! D7    D(5,1,4,6)            179.8822         estimate D2E/DX2                !
 ! D8    D(5,1,4,7)              0.9196         estimate D2E/DX2                !
 ! D9    D(1,2,3,6)             -0.2224         estimate D2E/DX2                !
 ! D10   D(1,2,3,8)            178.6265         estimate D2E/DX2                !
 ! D11   D(19,2,3,6)           167.2616         estimate D2E/DX2                !
 ! D12   D(19,2,3,8)           -13.8895         estimate D2E/DX2                !
 ! D13   D(1,2,19,20)          -16.0519         estimate D2E/DX2                !
 ! D14   D(3,2,19,20)          178.4264         estimate D2E/DX2                !
 ! D15   D(2,3,6,4)              0.0033         estimate D2E/DX2                !
 ! D16   D(8,3,6,4)           -179.041          estimate D2E/DX2                !
 ! D17   D(2,3,8,9)           -104.9855         Frozen                          !
 ! D18   D(2,3,8,12)            72.4804         estimate D2E/DX2                !
 ! D19   D(6,3,8,9)             73.7825         estimate D2E/DX2                !
 ! D20   D(6,3,8,12)          -108.7516         estimate D2E/DX2                !
 ! D21   D(1,4,6,3)              0.2153         estimate D2E/DX2                !
 ! D22   D(7,4,6,3)            179.1932         estimate D2E/DX2                !
 ! D23   D(3,8,9,10)           179.7697         estimate D2E/DX2                !
 ! D24   D(12,8,9,10)            1.8785         estimate D2E/DX2                !
 ! D25   D(3,8,12,11)         -179.8199         estimate D2E/DX2                !
 ! D26   D(3,8,12,13)           -9.0725         estimate D2E/DX2                !
 ! D27   D(9,8,12,11)           -2.1016         estimate D2E/DX2                !
 ! D28   D(9,8,12,13)          168.6458         estimate D2E/DX2                !
 ! D29   D(8,9,10,11)           -1.214          estimate D2E/DX2                !
 ! D30   D(8,9,10,16)         -149.9241         estimate D2E/DX2                !
 ! D31   D(9,10,11,12)           0.1945         estimate D2E/DX2                !
 ! D32   D(9,10,11,14)        -154.0362         estimate D2E/DX2                !
 ! D33   D(16,10,11,12)        153.9746         estimate D2E/DX2                !
 ! D34   D(16,10,11,14)         -0.2561         estimate D2E/DX2                !
 ! D35   D(9,10,16,15)         149.754          estimate D2E/DX2                !
 ! D36   D(9,10,16,18)         -14.0784         estimate D2E/DX2                !
 ! D37   D(11,10,16,15)          1.1074         estimate D2E/DX2                !
 ! D38   D(11,10,16,18)       -162.7251         estimate D2E/DX2                !
 ! D39   D(10,11,12,8)           1.2655         estimate D2E/DX2                !
 ! D40   D(10,11,12,13)       -169.5715         estimate D2E/DX2                !
 ! D41   D(14,11,12,8)         150.5605         estimate D2E/DX2                !
 ! D42   D(14,11,12,13)        -20.2764         estimate D2E/DX2                !
 ! D43   D(10,11,14,15)         -0.5103         estimate D2E/DX2                !
 ! D44   D(12,11,14,15)       -149.8031         estimate D2E/DX2                !
 ! D45   D(11,14,15,16)          1.147          estimate D2E/DX2                !
 ! D46   D(11,14,15,17)        170.1881         estimate D2E/DX2                !
 ! D47   D(14,15,16,10)         -1.4871         estimate D2E/DX2                !
 ! D48   D(14,15,16,18)        162.5957         estimate D2E/DX2                !
 ! D49   D(17,15,16,10)       -170.2832         estimate D2E/DX2                !
 ! D50   D(17,15,16,18)         -6.2003         estimate D2E/DX2                !
 --------------------------------------------------------------------------------
 Trust Radius=3.00D-01 FncErr=1.00D-07 GrdErr=1.00D-06 EigMax=2.50D+02 EigMin=1.00D-04
 Number of steps in this run=    116 maximum allowed number of steps=    120.
 GradGradGradGradGradGradGradGradGradGradGradGradGradGradGradGradGradGrad

                          Input orientation:                          
 ---------------------------------------------------------------------
 Center     Atomic      Atomic             Coordinates (Angstroms)
 Number     Number       Type             X           Y           Z
 ---------------------------------------------------------------------
      1          6           0       -4.250000   -1.360000   -0.210000
      2          6           0       -2.930000   -0.950000   -0.610000
      3          6           0       -1.970000   -2.050000   -0.620000
      4          6           0       -4.330000   -2.760000    0.100000
      5          1           0       -5.100000   -0.700000   -0.140000
      6         16           0       -2.800000   -3.560000   -0.110000
      7          1           0       -5.230000   -3.270000    0.410000
      8          6           0       -0.560000   -2.130000   -0.970000
      9         16           0       -0.004000   -2.869000   -2.503000
     10          6           0        1.661000   -2.564000   -2.144000
     11          6           0        1.835000   -1.880000   -0.887000
     12          6           0        0.592000   -1.616000   -0.226000
     13          1           0        0.511000   -0.974000    0.638000
     14         16           0        3.298000   -0.954000   -0.828000
     15          6           0        3.730000   -1.459000   -2.463000
     16          6           0        2.730000   -2.318000   -3.055000
     17          1           0        4.551000   -1.015000   -3.008000
     18          1           0        2.674000   -2.505000   -4.124000
     19          8           0       -2.400000    0.490000   -0.720000
     20          1           0       -2.920000    1.520000   -0.760000
 ---------------------------------------------------------------------
                    Distance matrix (angstroms):
                    1          2          3          4          5
     1  C    0.000000
     2  C    1.438923   0.000000
     3  C    2.417147   1.460034   0.000000
     4  C    1.436141   2.395871   2.567509   0.000000
     5  H    1.078425   2.234346   3.442354   2.212261   0.000000
     6  S    2.636759   2.660639   1.796970   1.739253   3.670218
     7  H    2.234480   3.422397   3.630000   1.079907   2.631406
     8  C    3.845335   2.671872   1.454991   3.969219   4.831708
     9  S    5.056031   3.978377   2.842817   5.049927   6.021424
    10  C    6.334816   5.102493   3.971263   6.400471   7.293945
    11  C    6.144587   4.862803   3.818143   6.305220   7.074223
    12  C    4.848789   3.604927   2.628200   5.063704   5.765875
    13  H    4.851311   3.660404   2.982566   5.187921   5.671303
    14  S    7.584132   6.231815   5.384822   7.893618   8.429962
    15  C    8.292539   6.931687   6.019629   8.557171   9.161949
    16  C    7.598170   6.315461   5.300099   7.745514   8.510232
    17  H    9.241506   7.856207   7.021197   9.569579  10.073056
    18  H    8.035683   6.794927   5.835390   8.183106   8.919942
    19  O    2.665539   1.538376   2.578081   3.867790   3.007075
    20  H    3.219596   2.474571   3.696891   4.587603   3.172570
                    6          7          8          9         10
     6  S    0.000000
     7  H    2.501879   0.000000
     8  C    2.793224   5.001290   0.000000
     9  S    3.744535   5.996453   1.790348   0.000000
    10  C    5.002968   7.382901   2.549406   1.730356   0.000000
    11  C    4.990927   7.316320   2.409443   2.640359   1.441590
    12  C    3.911299   6.085712   1.464526   2.666450   2.391692
    13  H    4.267273   6.187300   2.251453   3.704339   3.404427
    14  S    6.670260   8.923188   4.035753   4.168459   2.646455
    15  C    7.252014   9.582038   4.591665   3.991548   2.367181
    16  C    6.387213   8.733506   3.899573   2.843072   1.425903
    17  H    8.301363  10.603571   5.614178   4.943720   3.390870
    18  H    6.869490   9.144156   4.532891   3.151479   2.224871
    19  O    4.115167   4.839773   3.211308   4.494751   5.276970
    20  H    5.122821   5.445099   4.351574   5.550174   6.291270
                   11         12         13         14         15
    11  C    0.000000
    12  C    1.432364   0.000000
    13  H    2.213467   1.079454   0.000000
    14  S    1.732434   2.850102   3.149115   0.000000
    15  C    2.500408   3.856924   4.495930   1.764901   0.000000
    16  C    2.386020   3.614843   4.513153   2.672573   1.445111
    17  H    3.552960   4.875901   5.442113   2.515180   1.080834
    18  H    3.401869   4.507710   5.449695   3.695753   2.228940
    19  O    4.855926   3.692064   3.530068   5.879116   6.664349
    20  H    5.846893   4.738544   4.466117   6.692445   7.483124
                   16         17         18         19         20
    16  C    0.000000
    17  H    2.239656   0.000000
    18  H    1.086677   2.643612   0.000000
    19  O    6.297141   7.471035   6.804610   0.000000
    20  H    7.205537   8.203388   7.668765   1.154513   0.000000
 Stoichiometry    C10H6OS3
 Framework group  C1[X(C10H6OS3)]
 Deg. of freedom    54
 Full point group                 C1      NOp   1
 Largest Abelian subgroup         C1      NOp   1
 Largest concise Abelian subgroup C1      NOp   1
                         Standard orientation:                         
 ---------------------------------------------------------------------
 Center     Atomic      Atomic             Coordinates (Angstroms)
 Number     Number       Type             X           Y           Z
 ---------------------------------------------------------------------
      1          6           0        3.986512    0.782970    0.377676
      2          6           0        2.582762    1.048223    0.549804
      3          6           0        1.731449    0.030677   -0.059757
      4          6           0        4.240666   -0.420301   -0.363974
      5          1           0        4.777897    1.411439    0.754155
      6         16           0        2.767657   -1.217762   -0.832268
      7          1           0        5.223552   -0.803838   -0.594267
      8          6           0        0.288378   -0.143799   -0.123833
      9         16           0       -0.564208   -1.364526    0.870284
     10          6           0       -2.111852   -0.925513    0.232947
     11          6           0       -2.028173    0.158898   -0.713219
     12          6           0       -0.685455    0.617544   -0.909225
     13          1           0       -0.446318    1.520503   -1.450242
     14         16           0       -3.497724    1.070702   -0.815006
     15          6           0       -4.271881    0.031215    0.382917
     16          6           0       -3.383459   -0.997282    0.874087
     17          1           0       -5.229948    0.269181    0.823009
     18          1           0       -3.572472   -1.548453    1.791339
     19          8           0        1.938168    2.366558    1.011424
     20          1           0        2.356679    3.308277    1.531916
 ---------------------------------------------------------------------
 Rotational constants (GHZ):           1.1766311           0.2632816           0.2414505
 Standard basis: 6-311+G(d,p) (5D, 7F)
 There are   382 symmetry adapted cartesian basis functions of A   symmetry.
 There are   368 symmetry adapted basis functions of A   symmetry.
   368 basis functions,   594 primitive gaussians,   382 cartesian basis functions
    61 alpha electrons       61 beta electrons
       nuclear repulsion energy      1100.8928627888 Hartrees.
 NAtoms=   20 NActive=   20 NUniq=   20 SFac= 1.00D+00 NAtFMM=   60 NAOKFM=F Big=F
 Integral buffers will be    131072 words long.
 Raffenetti 2 integral format.
 Two-electron integral symmetry is turned on.
 Nuclear repulsion after empirical dispersion term =     1100.8828462695 Hartrees.
 One-electron integrals computed using PRISM.
 NBasis=   368 RedAO= T EigKep=  3.43D-06  NBF=   368
 NBsUse=   367 1.00D-06 EigRej=  5.92D-07 NBFU=   367
 ExpMin= 4.05D-02 ExpMax= 9.34D+04 ExpMxC= 3.17D+03 IAcc=3 IRadAn=         5 AccDes= 0.00D+00
 Harris functional with IExCor= 4639 and IRadAn=       5 diagonalized for initial guess.
 HarFok:  IExCor= 4639 AccDes= 0.00D+00 IRadAn=         5 IDoV= 1 UseB2=F ITyADJ=14
 ICtDFT=  3500011 ScaDFX=  1.000000  1.000000  1.000000  1.000000
 FoFCou: FMM=F IPFlag=           0 FMFlag=      100000 FMFlg1=           0
         NFxFlg=           0 DoJE=T BraDBF=F KetDBF=T FulRan=T
         wScrn=  0.000000 ICntrl=       500 IOpCl=  0 I1Cent=   200000004 NGrid=           0
         NMat0=    1 NMatS0=      1 NMatT0=    0 NMatD0=    1 NMtDS0=    0 NMtDT0=    0
 Petite list used in FoFCou.
 Requested convergence on RMS density matrix=1.00D-08 within 128 cycles.
 Requested convergence on MAX density matrix=1.00D-06.
 Requested convergence on             energy=1.00D-06.
 No special actions if energy rises.
 SCF Done:  E(RwB97XD) =  -1654.29790921     A.U. after   18 cycles
            NFock= 18  Conv=0.41D-08     -V/T= 2.0030

 **********************************************************************

            Population analysis using the SCF Density.

 **********************************************************************

 Orbital symmetries:
       Occupied  (A) (A) (A) (A) (A) (A) (A) (A) (A) (A) (A) (A)
                 (A) (A) (A) (A) (A) (A) (A) (A) (A) (A) (A) (A)
                 (A) (A) (A) (A) (A) (A) (A) (A) (A) (A) (A) (A)
                 (A) (A) (A) (A) (A) (A) (A) (A) (A) (A) (A) (A)
                 (A) (A) (A) (A) (A) (A) (A) (A) (A) (A) (A) (A)
                 (A)
       Virtual   (A) (A) (A) (A) (A) (A) (A) (A) (A) (A) (A) (A)
                 (A) (A) (A) (A) (A) (A) (A) (A) (A) (A) (A) (A)
                 (A) (A) (A) (A) (A) (A) (A) (A) (A) (A) (A) (A)
                 (A) (A) (A) (A) (A) (A) (A) (A) (A) (A) (A) (A)
                 (A) (A) (A) (A) (A) (A) (A) (A) (A) (A) (A) (A)
                 (A) (A) (A) (A) (A) (A) (A) (A) (A) (A) (A) (A)
                 (A) (A) (A) (A) (A) (A) (A) (A) (A) (A) (A) (A)
                 (A) (A) (A) (A) (A) (A) (A) (A) (A) (A) (A) (A)
                 (A) (A) (A) (A) (A) (A) (A) (A) (A) (A) (A) (A)
                 (A) (A) (A) (A) (A) (A) (A) (A) (A) (A) (A) (A)
                 (A) (A) (A) (A) (A) (A) (A) (A) (A) (A) (A) (A)
                 (A) (A) (A) (A) (A) (A) (A) (A) (A) (A) (A) (A)
                 (A) (A) (A) (A) (A) (A) (A) (A) (A) (A) (A) (A)
                 (A) (A) (A) (A) (A) (A) (A) (A) (A) (A) (A) (A)
                 (A) (A) (A) (A) (A) (A) (A) (A) (A) (A) (A) (A)
                 (A) (A) (A) (A) (A) (A) (A) (A) (A) (A) (A) (A)
                 (A) (A) (A) (A) (A) (A) (A) (A) (A) (A) (A) (A)
                 (A) (A) (A) (A) (A) (A) (A) (A) (A) (A) (A) (A)
                 (A) (A) (A) (A) (A) (A) (A) (A) (A) (A) (A) (A)
                 (A) (A) (A) (A) (A) (A) (A) (A) (A) (A) (A) (A)
                 (A) (A) (A) (A) (A) (A) (A) (A) (A) (A) (A) (A)
                 (A) (A) (A) (A) (A) (A) (A) (A) (A) (A) (A) (A)
                 (A) (A) (A) (A) (A) (A) (A) (A) (A) (A) (A) (A)
                 (A) (A) (A) (A) (A) (A) (A) (A) (A) (A) (A) (A)
                 (A) (A) (A) (A) (A) (A) (A) (A) (A) (A) (A) (A)
                 (A) (A) (A) (A) (A) (A)
 The electronic state is 1-A.
 Alpha  occ. eigenvalues --  -89.06344 -89.05634 -89.05273 -19.28210 -10.39064
 Alpha  occ. eigenvalues --  -10.34943 -10.34802 -10.33967 -10.33479 -10.33245
 Alpha  occ. eigenvalues --  -10.33120 -10.31725 -10.31637 -10.31499  -8.10199
 Alpha  occ. eigenvalues --   -8.09576  -8.09211  -6.05037  -6.04667  -6.04428
 Alpha  occ. eigenvalues --   -6.04315  -6.04067  -6.04064  -6.03698  -6.03644
 Alpha  occ. eigenvalues --   -6.03270  -1.07949  -1.00411  -0.97666  -0.93307
 Alpha  occ. eigenvalues --   -0.86973  -0.84998  -0.83499  -0.80319  -0.78158
 Alpha  occ. eigenvalues --   -0.70851  -0.66993  -0.66460  -0.62746  -0.62113
 Alpha  occ. eigenvalues --   -0.60001  -0.57509  -0.54096  -0.52858  -0.51049
 Alpha  occ. eigenvalues --   -0.50525  -0.49070  -0.47617  -0.47512  -0.46718
 Alpha  occ. eigenvalues --   -0.45086  -0.44217  -0.42481  -0.42153  -0.41633
 Alpha  occ. eigenvalues --   -0.41019  -0.36617  -0.33087  -0.31266  -0.30429
 Alpha  occ. eigenvalues --   -0.27719
 Alpha virt. eigenvalues --    0.00359   0.01406   0.02727   0.05482   0.05906
 Alpha virt. eigenvalues --    0.06163   0.06677   0.07399   0.07666   0.08151
 Alpha virt. eigenvalues --    0.08464   0.09051   0.09439   0.09862   0.10187
 Alpha virt. eigenvalues --    0.10492   0.10902   0.11205   0.11822   0.12273
 Alpha virt. eigenvalues --    0.12711   0.13704   0.14084   0.14280   0.14822
 Alpha virt. eigenvalues --    0.15052   0.15405   0.16619   0.17127   0.17577
 Alpha virt. eigenvalues --    0.17808   0.18131   0.18573   0.18791   0.19427
 Alpha virt. eigenvalues --    0.19821   0.20302   0.20458   0.21064   0.21581
 Alpha virt. eigenvalues --    0.21644   0.22427   0.22907   0.23243   0.23558
 Alpha virt. eigenvalues --    0.23598   0.24256   0.24849   0.25403   0.25690
 Alpha virt. eigenvalues --    0.26352   0.26449   0.26524   0.26966   0.27151
 Alpha virt. eigenvalues --    0.27774   0.28202   0.28276   0.28441   0.28785
 Alpha virt. eigenvalues --    0.29281   0.30197   0.30541   0.31542   0.31778
 Alpha virt. eigenvalues --    0.32155   0.32866   0.33198   0.33978   0.34752
 Alpha virt. eigenvalues --    0.34966   0.36350   0.37115   0.37723   0.39114
 Alpha virt. eigenvalues --    0.39810   0.40130   0.40888   0.41939   0.42338
 Alpha virt. eigenvalues --    0.43573   0.44666   0.44913   0.45859   0.47126
 Alpha virt. eigenvalues --    0.48248   0.48724   0.50495   0.51335   0.51774
 Alpha virt. eigenvalues --    0.53051   0.53725   0.55348   0.58130   0.60483
 Alpha virt. eigenvalues --    0.61046   0.62945   0.63333   0.63986   0.64660
 Alpha virt. eigenvalues --    0.66272   0.66472   0.67403   0.67849   0.69408
 Alpha virt. eigenvalues --    0.69843   0.70609   0.71777   0.72170   0.73104
 Alpha virt. eigenvalues --    0.74497   0.75498   0.76775   0.78060   0.78357
 Alpha virt. eigenvalues --    0.78690   0.79195   0.79998   0.80751   0.80860
 Alpha virt. eigenvalues --    0.81926   0.82853   0.83428   0.84032   0.84871
 Alpha virt. eigenvalues --    0.86340   0.87548   0.87966   0.88858   0.89488
 Alpha virt. eigenvalues --    0.90180   0.90891   0.91958   0.92926   0.94955
 Alpha virt. eigenvalues --    0.95620   0.95674   0.96986   0.99112   1.00498
 Alpha virt. eigenvalues --    1.00912   1.02062   1.02790   1.03755   1.04530
 Alpha virt. eigenvalues --    1.05713   1.06913   1.08543   1.08934   1.09323
 Alpha virt. eigenvalues --    1.10520   1.11683   1.12875   1.14625   1.16412
 Alpha virt. eigenvalues --    1.19181   1.20795   1.22952   1.23519   1.27100
 Alpha virt. eigenvalues --    1.29948   1.32692   1.34814   1.37639   1.40573
 Alpha virt. eigenvalues --    1.42003   1.43715   1.46689   1.48580   1.50419
 Alpha virt. eigenvalues --    1.52566   1.56217   1.56784   1.58898   1.60180
 Alpha virt. eigenvalues --    1.61402   1.61935   1.62947   1.65334   1.67086
 Alpha virt. eigenvalues --    1.69791   1.70091   1.71427   1.73276   1.75246
 Alpha virt. eigenvalues --    1.75980   1.77752   1.78272   1.79032   1.80330
 Alpha virt. eigenvalues --    1.82230   1.83326   1.85843   1.86530   1.88382
 Alpha virt. eigenvalues --    1.88757   1.89039   1.91213   1.93225   1.93819
 Alpha virt. eigenvalues --    1.95576   1.97130   1.98315   1.99751   2.02122
 Alpha virt. eigenvalues --    2.03230   2.04502   2.06564   2.06903   2.08738
 Alpha virt. eigenvalues --    2.10347   2.12346   2.12717   2.14060   2.15897
 Alpha virt. eigenvalues --    2.17246   2.18649   2.19716   2.21138   2.22541
 Alpha virt. eigenvalues --    2.23292   2.27221   2.33665   2.37030   2.40132
 Alpha virt. eigenvalues --    2.44139   2.45710   2.47959   2.54652   2.56763
 Alpha virt. eigenvalues --    2.59408   2.62126   2.64967   2.67185   2.74335
 Alpha virt. eigenvalues --    2.77736   2.78448   2.79198   2.80458   2.81728
 Alpha virt. eigenvalues --    2.83477   2.84962   2.85562   2.86688   2.89788
 Alpha virt. eigenvalues --    2.93998   2.96025   2.98953   3.00885   3.03188
 Alpha virt. eigenvalues --    3.05189   3.07668   3.08376   3.11695   3.13686
 Alpha virt. eigenvalues --    3.13914   3.15684   3.17484   3.23160   3.30687
 Alpha virt. eigenvalues --    3.32439   3.33988   3.36664   3.42931   3.46503
 Alpha virt. eigenvalues --    3.50153   3.56339   3.64760   3.73016   3.81795
 Alpha virt. eigenvalues --    3.99782   4.04281   4.10916   4.14545   4.22972
 Alpha virt. eigenvalues --    4.40351   4.52691   5.13923   5.30742   5.55447
 Alpha virt. eigenvalues --    8.04625   8.05638   8.07705  17.42702  17.43101
 Alpha virt. eigenvalues --   17.45194  17.56265  17.57679  17.60869  17.61548
 Alpha virt. eigenvalues --   17.63454  17.65606  23.57825  23.71381  23.84470
 Alpha virt. eigenvalues --   23.90301  23.92547  23.98194  23.99629  24.07297
 Alpha virt. eigenvalues --   24.08446  24.09364  50.00049 189.28993 189.29931
 Alpha virt. eigenvalues --  189.32566
          Condensed to atoms (all electrons):
               1          2          3          4          5          6
     1  C    7.412904  -2.280510   0.631135  -0.216755   0.439054   0.427346
     2  C   -2.280510  13.626486  -4.326363   1.393912  -0.090068  -1.589636
     3  C    0.631135  -4.326363  10.239208  -1.082208   0.030680   0.314690
     4  C   -0.216755   1.393912  -1.082208   5.899160  -0.015271  -0.199243
     5  H    0.439054  -0.090068   0.030680  -0.015271   0.479530   0.001198
     6  S    0.427346  -1.589636   0.314690  -0.199243   0.001198  17.179540
     7  H    0.023811  -0.049632   0.034057   0.376874  -0.002970  -0.015724
     8  C    0.090224  -1.436960   0.685468  -0.127882  -0.005116   0.020053
     9  S    0.025869  -0.167524   0.277157   0.024230   0.000025   0.113821
    10  C    0.031978   0.364357  -0.529023   0.008713   0.000021  -0.038268
    11  C   -0.153278  -0.489214   0.534986   0.024348  -0.000189   0.025329
    12  C    0.072290   0.208686  -0.763582  -0.063101  -0.000147   0.097240
    13  H    0.000803  -0.000519   0.025720   0.000842  -0.000001  -0.004525
    14  S   -0.017982  -0.001280   0.016933   0.002882  -0.000006   0.003291
    15  C    0.001259  -0.003449  -0.014638  -0.000133   0.000001  -0.003159
    16  C   -0.002491   0.184565   0.018660   0.006210  -0.000008  -0.051835
    17  H   -0.000002  -0.000042  -0.000047  -0.000000   0.000000   0.000008
    18  H   -0.000011  -0.000418  -0.000718  -0.000008   0.000000   0.000100
    19  O   -0.187978   0.600788  -0.216573   0.018529  -0.002548   0.006823
    20  H   -0.049194  -0.046318   0.068389  -0.004859  -0.000173  -0.007095
               7          8          9         10         11         12
     1  C    0.023811   0.090224   0.025869   0.031978  -0.153278   0.072290
     2  C   -0.049632  -1.436960  -0.167524   0.364357  -0.489214   0.208686
     3  C    0.034057   0.685468   0.277157  -0.529023   0.534986  -0.763582
     4  C    0.376874  -0.127882   0.024230   0.008713   0.024348  -0.063101
     5  H   -0.002970  -0.005116   0.000025   0.000021  -0.000189  -0.000147
     6  S   -0.015724   0.020053   0.113821  -0.038268   0.025329   0.097240
     7  H    0.440183  -0.002308  -0.000424  -0.000162   0.000046   0.000054
     8  C   -0.002308   8.192131   0.148449  -0.674384   0.717550  -1.423761
     9  S   -0.000424   0.148449  17.482827  -1.466998   1.470119  -1.693441
    10  C   -0.000162  -0.674384  -1.466998  13.451130  -5.513692   1.936260
    11  C    0.000046   0.717550   1.470119  -5.513692  14.392704  -3.896631
    12  C    0.000054  -1.423761  -1.693441   1.936260  -3.896631  10.933011
    13  H    0.000001   0.081054   0.008570  -0.036675   0.043572   0.246281
    14  S   -0.000002  -0.267615   0.167535   0.504729  -0.764426  -0.064820
    15  C   -0.000000   0.095577  -0.043717   0.747247  -0.501639  -0.168237
    16  C   -0.000018  -0.383465   0.008500  -3.036336  -0.178290   0.669124
    17  H   -0.000000  -0.001784   0.000978  -0.014800   0.014957   0.008721
    18  H    0.000000   0.005646   0.009364   0.024656  -0.021132  -0.003984
    19  O   -0.000098  -0.034369  -0.014331   0.008085  -0.008344   0.012273
    20  H   -0.000009   0.024143   0.002766  -0.001366   0.003810  -0.002908
              13         14         15         16         17         18
     1  C    0.000803  -0.017982   0.001259  -0.002491  -0.000002  -0.000011
     2  C   -0.000519  -0.001280  -0.003449   0.184565  -0.000042  -0.000418
     3  C    0.025720   0.016933  -0.014638   0.018660  -0.000047  -0.000718
     4  C    0.000842   0.002882  -0.000133   0.006210  -0.000000  -0.000008
     5  H   -0.000001  -0.000006   0.000001  -0.000008   0.000000   0.000000
     6  S   -0.004525   0.003291  -0.003159  -0.051835   0.000008   0.000100
     7  H    0.000001  -0.000002  -0.000000  -0.000018  -0.000000   0.000000
     8  C    0.081054  -0.267615   0.095577  -0.383465  -0.001784   0.005646
     9  S    0.008570   0.167535  -0.043717   0.008500   0.000978   0.009364
    10  C   -0.036675   0.504729   0.747247  -3.036336  -0.014800   0.024656
    11  C    0.043572  -0.764426  -0.501639  -0.178290   0.014957  -0.021132
    12  C    0.246281  -0.064820  -0.168237   0.669124   0.008721  -0.003984
    13  H    0.467903   0.000587   0.001837  -0.010529  -0.000003   0.000007
    14  S    0.000587  16.581766   0.393198  -0.347136  -0.024161  -0.001118
    15  C    0.001837   0.393198   5.642069  -0.189764   0.375435   0.015191
    16  C   -0.010529  -0.347136  -0.189764   9.224716   0.003057   0.330263
    17  H   -0.000003  -0.024161   0.375435   0.003057   0.439467  -0.002627
    18  H    0.000007  -0.001118   0.015191   0.330263  -0.002627   0.475323
    19  O    0.000011  -0.000431   0.000149  -0.003669   0.000001   0.000002
    20  H   -0.000082   0.000134  -0.000024   0.000165   0.000000   0.000000
              19         20
     1  C   -0.187978  -0.049194
     2  C    0.600788  -0.046318
     3  C   -0.216573   0.068389
     4  C    0.018529  -0.004859
     5  H   -0.002548  -0.000173
     6  S    0.006823  -0.007095
     7  H   -0.000098  -0.000009
     8  C   -0.034369   0.024143
     9  S   -0.014331   0.002766
    10  C    0.008085  -0.001366
    11  C   -0.008344   0.003810
    12  C    0.012273  -0.002908
    13  H    0.000011  -0.000082
    14  S   -0.000431   0.000134
    15  C    0.000149  -0.000024
    16  C   -0.003669   0.000165
    17  H    0.000001   0.000000
    18  H    0.000002   0.000000
    19  O    7.999020   0.233736
    20  H    0.233736   0.463303
 Mulliken charges:
               1
     1  C   -0.248472
     2  C    0.103140
     3  C    0.056070
     4  C   -0.046241
     5  H    0.165990
     6  S   -0.279952
     7  H    0.196321
     8  C    0.297349
     9  S   -0.353775
    10  C    0.234528
    11  C    0.299414
    12  C   -0.103329
    13  H    0.175145
    14  S   -0.182080
    15  C   -0.347203
    16  C   -0.241718
    17  H    0.200842
    18  H    0.169462
    19  O   -0.411073
    20  H    0.315582
 Sum of Mulliken charges =  -0.00000
 Mulliken charges with hydrogens summed into heavy atoms:
               1
     1  C   -0.082482
     2  C    0.103140
     3  C    0.056070
     4  C    0.150080
     6  S   -0.279952
     8  C    0.297349
     9  S   -0.353775
    10  C    0.234528
    11  C    0.299414
    12  C    0.071816
    14  S   -0.182080
    15  C   -0.146361
    16  C   -0.072255
    19  O   -0.095491
 Electronic spatial extent (au):  <R**2>=           4393.5805
 Charge=             -0.0000 electrons
 Dipole moment (field-independent basis, Debye):
    X=              1.7492    Y=              1.6256    Z=              1.3006  Tot=              2.7191
 Quadrupole moment (field-independent basis, Debye-Ang):
   XX=            -81.0000   YY=            -95.4973   ZZ=           -102.0868
   XY=              3.6091   XZ=             -2.8084   YZ=              1.8092
 Traceless Quadrupole moment (field-independent basis, Debye-Ang):
   XX=             11.8614   YY=             -2.6359   ZZ=             -9.2255
   XY=              3.6091   XZ=             -2.8084   YZ=              1.8092
 Octapole moment (field-independent basis, Debye-Ang**2):
  XXX=             53.3971  YYY=             46.4524  ZZZ=             10.1244  XYY=             29.2313
  XXY=             23.7443  XXZ=             32.3871  XZZ=              0.0869  YZZ=              9.1576
  YYZ=             19.6169  XYZ=             28.1915
 Hexadecapole moment (field-independent basis, Debye-Ang**3):
 XXXX=          -4127.8496 YYYY=           -723.8165 ZZZZ=           -455.4380 XXXY=            -27.3955
 XXXZ=           -111.9457 YYYX=             98.5794 YYYZ=             77.6362 ZZZX=             -1.6326
 ZZZY=             10.4980 XXYY=           -869.2779 XXZZ=           -875.8825 YYZZ=           -172.9757
 XXYZ=             56.8619 YYXZ=             44.1719 ZZXY=             32.4934
 N-N= 1.100882846270D+03 E-N=-6.112024064685D+03  KE= 1.649268335878D+03
 Calling FoFJK, ICntrl=      2127 FMM=F ISym2X=0 I1Cent= 0 IOpClX= 0 NMat=1 NMatS=1 NMatT=0.
 ***** Axes restored to original set *****
 -------------------------------------------------------------------
 Center     Atomic                   Forces (Hartrees/Bohr)
 Number     Number              X              Y              Z
 -------------------------------------------------------------------
      1        6           0.016745676   -0.044796210    0.006134550
      2        6           0.034979636    0.021537725    0.013605754
      3        6          -0.046997024    0.025402482    0.003207190
      4        6           0.018183198    0.054967646   -0.018562938
      5        1          -0.000509836    0.001803599    0.000622772
      6       16          -0.007572158    0.033069502   -0.006812076
      7        1           0.002338596   -0.002939629   -0.000083860
      8        6           0.065652651    0.025834446    0.024121291
      9       16          -0.004308132    0.000370612    0.021286426
     10        6           0.009524263    0.031955766    0.020847626
     11        6          -0.031271995   -0.005929184   -0.029595288
     12        6          -0.041244454   -0.026239937   -0.040741125
     13        1          -0.005051370   -0.003807956    0.003821419
     14       16           0.007255236   -0.014157979   -0.017945970
     15        6          -0.052481566   -0.033921961   -0.018857598
     16        6           0.036431012    0.042726855    0.028328980
     17        1           0.003925828   -0.002490396    0.005544611
     18        1           0.005983558   -0.005578352    0.004627560
     19        8          -0.035241886    0.014058506   -0.003501208
     20        1           0.023658768   -0.111865535    0.003951882
 -------------------------------------------------------------------
 Cartesian Forces:  Max     0.111865535 RMS     0.028582473

 GradGradGradGradGradGradGradGradGradGradGradGradGradGradGradGradGradGrad
 Berny optimization.
 FormGI is forming the generalized inverse of G from B-inverse, IUseBI=4.
 Internal  Forces:  Max     0.110593744 RMS     0.021913672
 Search for a local minimum.
 Step number   1 out of a maximum of  116
 All quantities printed in internal units (Hartrees-Bohrs-Radians)
 Mixed Optimization -- RFO/linear search
 Second derivative matrix not updated -- first step.
 ITU=  0
     Eigenvalues ---    0.00230   0.00994   0.01055   0.01221   0.01273
     Eigenvalues ---    0.01298   0.01362   0.01422   0.01458   0.01495
     Eigenvalues ---    0.01500   0.01592   0.01594   0.01770   0.02197
     Eigenvalues ---    0.02649   0.15074   0.15683   0.15735   0.15997
     Eigenvalues ---    0.16000   0.16000   0.17995   0.22443   0.22526
     Eigenvalues ---    0.23320   0.23979   0.24118   0.24633   0.24978
     Eigenvalues ---    0.24995   0.26145   0.26548   0.28307   0.28406
     Eigenvalues ---    0.28663   0.30910   0.31308   0.31545   0.34792
     Eigenvalues ---    0.35200   0.35872   0.35894   0.36006   0.36060
     Eigenvalues ---    0.36185   0.36291   0.37598   0.38255   0.38435
     Eigenvalues ---    0.39456   0.39726   0.406431000.000001000.00000
     Eigenvalues --- 1000.000001000.000001000.000001000.000001000.00000
     Eigenvalues --- 1000.000001000.000001000.000001000.000001000.00000
     Eigenvalues --- 1000.000001000.000001000.000001000.000001000.00000
     Eigenvalues --- 1000.000001000.000001000.000001000.000001000.00000
     Eigenvalues --- 1000.000001000.000001000.000001000.000001000.00000
     Eigenvalues --- 1000.000001000.000001000.000001000.000001000.00000
     Eigenvalues --- 1000.000001000.000001000.000001000.000001000.00000
     Eigenvalues --- 1000.000001000.000001000.000001000.000001000.00000
     Eigenvalues --- 1000.000001000.000001000.000001000.000001000.00000
     Eigenvalues --- 1000.000001000.000001000.000001000.000001000.00000
     Eigenvalues --- 1000.00000
 RFO step:  Lambda=-1.22614202D-01 EMin= 2.30000000D-03
 Linear search not attempted -- first point.
 Maximum step size (   0.300) exceeded in Quadratic search.
    -- Step size scaled by   0.558
 Iteration  1 RMS(Cart)=  0.05736023 RMS(Int)=  0.00164144
 Iteration  2 RMS(Cart)=  0.00185167 RMS(Int)=  0.00010170
 Iteration  3 RMS(Cart)=  0.00001120 RMS(Int)=  0.00010139
 Iteration  4 RMS(Cart)=  0.00000000 RMS(Int)=  0.00010139
 Iteration  1 RMS(Cart)=  0.00000025 RMS(Int)=  0.00000010
 Variable       Old X    -DE/DX   Delta X   Delta X   Delta X     New X
                                 (Linear)    (Quad)   (Total)
    R1        2.71917  -0.02470   0.00000  -0.02779  -0.02770   2.69147
    R2        2.71391  -0.06096   0.00000  -0.06541  -0.06540   2.64852
    R3        2.03793   0.00155   0.00000   0.00178   0.00178   2.03971
    R4        2.75906  -0.07352   0.00000  -0.08392  -0.08386   2.67520
    R5        2.90711  -0.09558   0.00000  -0.13034  -0.13034   2.77677
    R6        3.39578  -0.02937   0.00000  -0.04120  -0.04125   3.35453
    R7        2.74954  -0.00624   0.00000  -0.00698  -0.00698   2.74255
    R8        3.28671  -0.01889   0.00000  -0.02295  -0.02302   3.26369
    R9        2.04073  -0.00058   0.00000  -0.00068  -0.00068   2.04005
   R10        3.38327  -0.01853   0.00000  -0.02503  -0.02511   3.35816
   R11        2.76755  -0.07406   0.00000  -0.08519  -0.08522   2.68233
   R12        3.26990  -0.00726   0.00000  -0.00825  -0.00825   3.26165
   R13        2.72421  -0.03958   0.00000  -0.04377  -0.04362   2.68059
   R14        2.69457  -0.00270   0.00000  -0.00385  -0.00377   2.69080
   R15        2.70678  -0.01284   0.00000  -0.01473  -0.01468   2.69210
   R16        3.27382  -0.00432   0.00000  -0.00441  -0.00443   3.26939
   R17        2.03987   0.00117   0.00000   0.00136   0.00136   2.04123
   R18        3.33518  -0.01798   0.00000  -0.02339  -0.02349   3.31169
   R19        2.73086  -0.06579   0.00000  -0.07229  -0.07231   2.65855
   R20        2.04248  -0.00084   0.00000  -0.00097  -0.00097   2.04151
   R21        2.05352  -0.00390   0.00000  -0.00459  -0.00459   2.04893
   R22        2.18171  -0.11059   0.00000  -0.15214  -0.15214   2.02958
    A1        1.97020  -0.00377   0.00000  -0.00896  -0.00885   1.96135
    A2        2.17330   0.00096   0.00000   0.00265   0.00259   2.17590
    A3        2.13967   0.00282   0.00000   0.00633   0.00627   2.14594
    A4        1.97187   0.01552   0.00000   0.02140   0.02152   1.99339
    A5        2.21760  -0.00431   0.00000  -0.00440  -0.00451   2.21309
    A6        2.06941  -0.01034   0.00000  -0.01367  -0.01380   2.05561
    A7        1.90440  -0.00500   0.00000  -0.00722  -0.00719   1.89720
    A8        2.31891  -0.00807   0.00000  -0.01225  -0.01226   2.30665
    A9        2.05972   0.01306   0.00000   0.01940   0.01939   2.07911
   A10        1.95339  -0.00141   0.00000  -0.00185  -0.00190   1.95149
   A11        2.17580   0.00449   0.00000   0.00840   0.00842   2.18423
   A12        2.15384  -0.00308   0.00000  -0.00655  -0.00653   2.14731
   A13        1.62490  -0.00533   0.00000  -0.00335  -0.00356   1.62134
   A14        2.12895  -0.00451   0.00000  -0.00653  -0.00655   2.12240
   A15        2.24053  -0.00444   0.00000  -0.00644  -0.00645   2.23408
   A16        1.91301   0.00900   0.00000   0.01312   0.01315   1.92616
   A17        1.61923  -0.00704   0.00000  -0.00806  -0.00801   1.61123
   A18        1.96133  -0.01057   0.00000  -0.01367  -0.01387   1.94746
   A19        2.23857   0.00844   0.00000   0.01835   0.01808   2.25666
   A20        1.96572   0.00590   0.00000   0.00857   0.00864   1.97436
   A21        1.96610   0.00750   0.00000   0.01025   0.01026   1.97636
   A22        1.96626  -0.01312   0.00000  -0.01736  -0.01749   1.94877
   A23        2.23776   0.00918   0.00000   0.01938   0.01914   2.25690
   A24        1.96437   0.00113   0.00000  -0.00160  -0.00148   1.96288
   A25        2.16076  -0.00539   0.00000  -0.00812  -0.00824   2.15252
   A26        2.14612   0.00483   0.00000   0.01206   0.01195   2.15806
   A27        1.59301   0.00060   0.00000   0.00255   0.00256   1.59557
   A28        1.96082   0.00182   0.00000   0.00185   0.00180   1.96262
   A29        2.13591  -0.00458   0.00000  -0.00727  -0.00739   2.12852
   A30        2.16911   0.00384   0.00000   0.00958   0.00949   2.17860
   A31        1.93864   0.00480   0.00000   0.00438   0.00448   1.94313
   A32        2.16540   0.00047   0.00000   0.00535   0.00514   2.17054
   A33        2.14236  -0.00342   0.00000  -0.00259  -0.00282   2.13953
   A34        2.32184  -0.06380   0.00000  -0.12598  -0.12598   2.19586
    D1        0.00683  -0.00089   0.00000  -0.00361  -0.00360   0.00323
    D2       -2.89394  -0.00403   0.00000  -0.01843  -0.01849  -2.91243
    D3       -3.13952   0.00038   0.00000   0.00191   0.00191  -3.13761
    D4        0.24290  -0.00277   0.00000  -0.01291  -0.01298   0.22991
    D5       -0.00671   0.00077   0.00000   0.00247   0.00241  -0.00430
    D6       -3.13020   0.00069   0.00000   0.00283   0.00281  -3.12738
    D7        3.13954  -0.00046   0.00000  -0.00292  -0.00298   3.13656
    D8        0.01605  -0.00055   0.00000  -0.00255  -0.00257   0.01348
    D9       -0.00388   0.00070   0.00000   0.00319   0.00317  -0.00071
   D10        3.11762   0.00037   0.00000  -0.00046  -0.00043   3.11719
   D11        2.91927   0.00407   0.00000   0.01750   0.01747   2.93673
   D12       -0.24242   0.00374   0.00000   0.01385   0.01386  -0.22855
   D13       -0.28016   0.00179   0.00000   0.00350   0.00341  -0.27675
   D14        3.11413  -0.00467   0.00000  -0.01635  -0.01627   3.09786
   D15        0.00006  -0.00024   0.00000  -0.00156  -0.00154  -0.00148
   D16       -3.12486   0.00028   0.00000   0.00184   0.00189  -3.12297
   D17       -1.83234  -0.00126   0.00000   0.00000  -0.00000  -1.83234
   D18        1.26502   0.00067   0.00000   0.00528   0.00529   1.27031
   D19        1.28775  -0.00180   0.00000  -0.00418  -0.00419   1.28356
   D20       -1.89807   0.00013   0.00000   0.00110   0.00110  -1.89698
   D21        0.00376  -0.00026   0.00000  -0.00042  -0.00042   0.00333
   D22        3.12751  -0.00008   0.00000  -0.00060  -0.00064   3.12687
   D23        3.13757   0.00087   0.00000   0.00269   0.00269   3.14026
   D24        0.03279  -0.00049   0.00000  -0.00134  -0.00139   0.03140
   D25       -3.13845  -0.00147   0.00000  -0.00420  -0.00416   3.14057
   D26       -0.15835   0.00290   0.00000   0.01267   0.01264  -0.14571
   D27       -0.03668   0.00003   0.00000   0.00020   0.00028  -0.03639
   D28        2.94342   0.00439   0.00000   0.01708   0.01708   2.96051
   D29       -0.02119   0.00129   0.00000   0.00279   0.00278  -0.01841
   D30       -2.61667  -0.00758   0.00000  -0.02653  -0.02655  -2.64322
   D31        0.00339  -0.00108   0.00000  -0.00268  -0.00263   0.00076
   D32       -2.68844  -0.01029   0.00000  -0.03084  -0.03048  -2.71892
   D33        2.68736   0.00818   0.00000   0.02645   0.02621   2.71358
   D34       -0.00447  -0.00103   0.00000  -0.00171  -0.00163  -0.00610
   D35        2.61370   0.00565   0.00000   0.02527   0.02553   2.63923
   D36       -0.24572  -0.00082   0.00000  -0.00094  -0.00082  -0.24653
   D37        0.01933   0.00090   0.00000   0.00149   0.00143   0.02076
   D38       -2.84009  -0.00556   0.00000  -0.02472  -0.02492  -2.86501
   D39        0.02209   0.00070   0.00000   0.00154   0.00149   0.02357
   D40       -2.95958  -0.00254   0.00000  -0.01303  -0.01322  -2.97280
   D41        2.62778   0.00449   0.00000   0.02282   0.02311   2.65088
   D42       -0.35389   0.00125   0.00000   0.00826   0.00840  -0.34549
   D43       -0.00891   0.00096   0.00000   0.00142   0.00137  -0.00753
   D44       -2.61456  -0.00795   0.00000  -0.02672  -0.02668  -2.64124
   D45        0.02002  -0.00031   0.00000  -0.00042  -0.00043   0.01959
   D46        2.97034   0.00604   0.00000   0.02343   0.02329   2.99363
   D47       -0.02596  -0.00016   0.00000  -0.00038  -0.00032  -0.02628
   D48        2.83783   0.00692   0.00000   0.02691   0.02696   2.86479
   D49       -2.97200  -0.00556   0.00000  -0.02256  -0.02263  -2.99464
   D50       -0.10822   0.00152   0.00000   0.00473   0.00465  -0.10357
         Item               Value     Threshold  Converged?
 Maximum Force            0.110594     0.000450     NO 
 RMS     Force            0.022017     0.000300     NO 
 Maximum Displacement     0.424387     0.001800     NO 
 RMS     Displacement     0.057401     0.001200     NO 
 Predicted change in Energy=-5.538576D-02
 GradGradGradGradGradGradGradGradGradGradGradGradGradGradGradGradGradGrad

                          Input orientation:                          
 ---------------------------------------------------------------------
 Center     Atomic      Atomic             Coordinates (Angstroms)
 Number     Number       Type             X           Y           Z
 ---------------------------------------------------------------------
      1          6           0       -4.205518   -1.341864   -0.202393
      2          6           0       -2.889265   -0.969295   -0.598874
      3          6           0       -1.962678   -2.039477   -0.614055
      4          6           0       -4.306149   -2.707315    0.097133
      5          1           0       -5.041931   -0.662913   -0.135532
      6         16           0       -2.798748   -3.523383   -0.113917
      7          1           0       -5.209725   -3.210854    0.406046
      8          6           0       -0.557984   -2.106785   -0.972611
      9         16           0       -0.021435   -2.831128   -2.504077
     10          6           0        1.638952   -2.518892   -2.150991
     11          6           0        1.791906   -1.855193   -0.906694
     12          6           0        0.554201   -1.605493   -0.246986
     13          1           0        0.458554   -0.982444    0.630187
     14         16           0        3.270609   -0.959669   -0.838270
     15          6           0        3.705183   -1.469656   -2.457595
     16          6           0        2.723075   -2.288092   -3.044820
     17          1           0        4.553408   -1.052017   -2.980266
     18          1           0        2.692308   -2.491059   -4.109457
     19          8           0       -2.360561    0.396105   -0.722586
     20          1           0       -2.946204    1.295424   -0.764241
 ---------------------------------------------------------------------
                    Distance matrix (angstroms):
                    1          2          3          4          5
     1  C    0.000000
     2  C    1.424263   0.000000
     3  C    2.384630   1.415657   0.000000
     4  C    1.401535   2.347914   2.538435   0.000000
     5  H    1.079367   2.223180   3.406716   2.185198   0.000000
     6  S    2.597278   2.601297   1.775142   1.727069   3.635193
     7  H    2.207205   3.379199   3.599450   1.079550   2.610261
     8  C    3.805633   2.620770   1.451296   3.943822   4.784481
     9  S    5.002220   3.914163   2.822645   5.014020   5.959577
    10  C    6.272181   5.031408   3.945092   6.358757   7.220868
    11  C    6.060415   4.774194   3.770477   6.238594   6.979796
    12  C    4.767222   3.519379   2.580264   4.995541   5.676053
    13  H    4.751414   3.566322   2.920243   5.095264   5.562712
    14  S    7.512848   6.164532   5.348229   7.831763   8.347469
    15  C    8.226874   6.869640   5.987319   8.499404   9.085969
    16  C    7.548518   6.262606   5.284573   7.710875   8.449881
    17  H    9.193442   7.814810   7.002386   9.523768  10.015711
    18  H    8.010356   6.767120   5.838721   8.168266   8.885531
    19  O    2.587471   1.469405   2.470253   3.753461   2.942091
    20  H    2.976043   2.271462   3.480150   4.314318   2.936398
                    6          7          8          9         10
     6  S    0.000000
     7  H    2.486130   0.000000
     8  C    2.786599   4.975777   0.000000
     9  S    3.729015   5.960819   1.777062   0.000000
    10  C    4.985164   7.343134   2.526844   1.725991   0.000000
    11  C    4.948278   7.251478   2.364238   2.606202   1.418509
    12  C    3.865007   6.018843   1.419429   2.632109   2.374072
    13  H    4.197627   6.094705   2.206003   3.670373   3.389538
    14  S    6.628304   8.861840   3.999005   4.137007   2.610885
    15  C    7.211917   9.524064   4.559134   3.967802   2.337566
    16  C    6.372336   8.699958   3.884877   2.849495   1.423910
    17  H    8.269088  10.556820   5.591918   4.931651   3.366523
    18  H    6.868896   9.129622   4.533417   3.171324   2.223943
    19  O    3.990598   4.733043   3.094552   4.365806   5.151083
    20  H    4.864727   5.176837   4.161976   5.348808   6.123377
                   11         12         13         14         15
    11  C    0.000000
    12  C    1.424598   0.000000
    13  H    2.213938   1.080172   0.000000
    14  S    1.730089   2.854046   3.172466   0.000000
    15  C    2.492902   3.851484   4.506925   1.752471   0.000000
    16  C    2.371931   3.605250   4.509817   2.633128   1.406843
    17  H    3.545516   4.875532   5.459674   2.498449   1.080321
    18  H    3.387143   4.502712   5.452504   3.657903   2.190395
    19  O    4.727072   3.567692   3.417279   5.793235   6.579101
    20  H    5.691781   4.575556   4.327296   6.613599   7.399599
                   16         17         18         19         20
    16  C    0.000000
    17  H    2.209564   0.000000
    18  H    1.084248   2.609523   0.000000
    19  O    6.200083   7.416006   6.733357   0.000000
    20  H    7.084021   8.164890   7.571047   1.074006   0.000000
 Stoichiometry    C10H6OS3
 Framework group  C1[X(C10H6OS3)]
 Deg. of freedom    54
 Full point group                 C1      NOp   1
 Largest Abelian subgroup         C1      NOp   1
 Largest concise Abelian subgroup C1      NOp   1
                         Standard orientation:                         
 ---------------------------------------------------------------------
 Center     Atomic      Atomic             Coordinates (Angstroms)
 Number     Number       Type             X           Y           Z
 ---------------------------------------------------------------------
      1          6           0        3.940935    0.781311    0.394307
      2          6           0        2.544015    1.008752    0.553721
      3          6           0        1.722998    0.034825   -0.063918
      4          6           0        4.211707   -0.372297   -0.354139
      5          1           0        4.716132    1.414727    0.797899
      6         16           0        2.762583   -1.170696   -0.849481
      7          1           0        5.197848   -0.743967   -0.588266
      8          6           0        0.282169   -0.128514   -0.123857
      9         16           0       -0.555956   -1.363733    0.840368
     10          6           0       -2.098919   -0.901014    0.220528
     11          6           0       -1.993044    0.186537   -0.684011
     12          6           0       -0.653896    0.636402   -0.867809
     13          1           0       -0.393899    1.541777   -1.396458
     14         16           0       -3.472505    1.077460   -0.787251
     15          6           0       -4.249167    0.005067    0.360757
     16          6           0       -3.381877   -0.998087    0.830542
     17          1           0       -5.227447    0.215229    0.768057
     18          1           0       -3.596160   -1.588341    1.714441
     19          8           0        1.902002    2.239064    1.036734
     20          1           0        2.392033    3.041675    1.555554
 ---------------------------------------------------------------------
 Rotational constants (GHZ):           1.2338894           0.2673281           0.2462549
 Standard basis: 6-311+G(d,p) (5D, 7F)
 There are   382 symmetry adapted cartesian basis functions of A   symmetry.
 There are   368 symmetry adapted basis functions of A   symmetry.
   368 basis functions,   594 primitive gaussians,   382 cartesian basis functions
    61 alpha electrons       61 beta electrons
       nuclear repulsion energy      1114.6616973170 Hartrees.
 NAtoms=   20 NActive=   20 NUniq=   20 SFac= 1.00D+00 NAtFMM=   60 NAOKFM=F Big=F
 Integral buffers will be    131072 words long.
 Raffenetti 2 integral format.
 Two-electron integral symmetry is turned on.
 Nuclear repulsion after empirical dispersion term =     1114.6514950146 Hartrees.
 One-electron integrals computed using PRISM.
 NBasis=   368 RedAO= T EigKep=  2.68D-06  NBF=   368
 NBsUse=   367 1.00D-06 EigRej=  5.23D-07 NBFU=   367
 Initial guess from the checkpoint file:  "/tmp/pbs.4762174[70].pbs/Gau-417047.chk"
 B after Tr=    -0.000000    0.000000    0.000000
         Rot=    0.999919   -0.012719    0.000929   -0.000418 Ang=  -1.46 deg.
 ExpMin= 4.05D-02 ExpMax= 9.34D+04 ExpMxC= 3.17D+03 IAcc=3 IRadAn=         5 AccDes= 0.00D+00
 Harris functional with IExCor= 4639 and IRadAn=       5 diagonalized for initial guess.
 HarFok:  IExCor= 4639 AccDes= 0.00D+00 IRadAn=         5 IDoV= 1 UseB2=F ITyADJ=14
 ICtDFT=  3500011 ScaDFX=  1.000000  1.000000  1.000000  1.000000
 FoFCou: FMM=F IPFlag=           0 FMFlag=      100000 FMFlg1=           0
         NFxFlg=           0 DoJE=T BraDBF=F KetDBF=T FulRan=T
         wScrn=  0.000000 ICntrl=       500 IOpCl=  0 I1Cent=   200000004 NGrid=           0
         NMat0=    1 NMatS0=      1 NMatT0=    0 NMatD0=    1 NMtDS0=    0 NMtDT0=    0
 Petite list used in FoFCou.
 Requested convergence on RMS density matrix=1.00D-08 within 128 cycles.
 Requested convergence on MAX density matrix=1.00D-06.
 Requested convergence on             energy=1.00D-06.
 No special actions if energy rises.
 SCF Done:  E(RwB97XD) =  -1654.35664670     A.U. after   15 cycles
            NFock= 15  Conv=0.62D-08     -V/T= 2.0026
 Calling FoFJK, ICntrl=      2127 FMM=F ISym2X=0 I1Cent= 0 IOpClX= 0 NMat=1 NMatS=1 NMatT=0.
 ***** Axes restored to original set *****
 -------------------------------------------------------------------
 Center     Atomic                   Forces (Hartrees/Bohr)
 Number     Number              X              Y              Z
 -------------------------------------------------------------------
      1        6           0.004967412   -0.028430104    0.004286959
      2        6           0.034324233    0.034256798    0.009613755
      3        6          -0.036537321    0.009841238    0.001773711
      4        6           0.010533980    0.033771669   -0.012040994
      5        1          -0.000132620    0.001809053    0.000597767
      6       16          -0.003707840    0.017649090   -0.004441760
      7        1           0.002057621   -0.003086860    0.000142050
      8        6           0.046062194    0.017570429    0.015494185
      9       16          -0.005804663   -0.003144148    0.013606909
     10        6           0.004236685    0.023437276    0.013716376
     11        6          -0.017546484   -0.001293662   -0.023328773
     12        6          -0.028936278   -0.015869745   -0.024035779
     13        1          -0.003183917   -0.003911434    0.003309480
     14       16           0.008428463   -0.008767815   -0.008693132
     15        6          -0.034684824   -0.020636870   -0.013124760
     16        6           0.023917506    0.028029711    0.015960185
     17        1           0.003557834   -0.002116899    0.004983164
     18        1           0.004399637   -0.006144240    0.003170228
     19        8          -0.038232305    0.011346601   -0.004648236
     20        1           0.026280688   -0.084310089    0.003658667
 -------------------------------------------------------------------
 Cartesian Forces:  Max     0.084310089 RMS     0.020765157

 GradGradGradGradGradGradGradGradGradGradGradGradGradGradGradGradGradGrad
 Berny optimization.
 Using GEDIIS/GDIIS optimizer.
 FormGI is forming the generalized inverse of G from B-inverse, IUseBI=4.
 Internal  Forces:  Max     0.085069473 RMS     0.015112815
 Search for a local minimum.
 Step number   2 out of a maximum of  116
 All quantities printed in internal units (Hartrees-Bohrs-Radians)
 Mixed Optimization -- RFO/linear search
 Update second derivatives using D2CorX and points    1    2
 DE= -5.87D-02 DEPred=-5.54D-02 R= 1.06D+00
 TightC=F SS=  1.41D+00  RLast= 3.14D-01 DXNew= 5.0454D-01 9.4244D-01
 Trust test= 1.06D+00 RLast= 3.14D-01 DXMaxT set to 5.05D-01
 ITU=  1  0
 Use linear search instead of GDIIS.
     Eigenvalues ---    0.00230   0.00995   0.01052   0.01218   0.01271
     Eigenvalues ---    0.01294   0.01345   0.01404   0.01460   0.01489
     Eigenvalues ---    0.01499   0.01590   0.01592   0.01742   0.02122
     Eigenvalues ---    0.02505   0.14632   0.15258   0.15750   0.15819
     Eigenvalues ---    0.15999   0.16021   0.18304   0.20952   0.22458
     Eigenvalues ---    0.22540   0.23394   0.24118   0.24322   0.24975
     Eigenvalues ---    0.25011   0.25533   0.26241   0.26609   0.28448
     Eigenvalues ---    0.28536   0.30898   0.31314   0.31524   0.34828
     Eigenvalues ---    0.35202   0.35894   0.36005   0.36059   0.36065
     Eigenvalues ---    0.36184   0.36408   0.37560   0.38164   0.39296
     Eigenvalues ---    0.39577   0.40553   0.431981000.000001000.00000
     Eigenvalues --- 1000.000001000.000001000.000001000.000001000.00000
     Eigenvalues --- 1000.000001000.000001000.000001000.000001000.00000
     Eigenvalues --- 1000.000001000.000001000.000001000.000001000.00000
     Eigenvalues --- 1000.000001000.000001000.000001000.000001000.00000
     Eigenvalues --- 1000.000001000.000001000.000001000.000001000.00000
     Eigenvalues --- 1000.000001000.000001000.000001000.000001000.00000
     Eigenvalues --- 1000.000001000.000001000.000001000.000001000.00000
     Eigenvalues --- 1000.000001000.000001000.000001000.000001000.00000
     Eigenvalues --- 1000.000001000.000001000.000001000.000001000.00000
     Eigenvalues --- 1000.000001000.000001000.000001000.000001000.00000
     Eigenvalues --- 1000.00000
 RFO step:  Lambda=-1.01229459D-02 EMin= 2.30058020D-03
 Quartic linear search produced a step of  1.49285.
 Iteration  1 RMS(Cart)=  0.08817539 RMS(Int)=  0.01873255
 Iteration  2 RMS(Cart)=  0.02264187 RMS(Int)=  0.00101122
 Iteration  3 RMS(Cart)=  0.00038559 RMS(Int)=  0.00096074
 Iteration  4 RMS(Cart)=  0.00000057 RMS(Int)=  0.00096074
 Iteration  1 RMS(Cart)=  0.00001458 RMS(Int)=  0.00000617
 Iteration  2 RMS(Cart)=  0.00000797 RMS(Int)=  0.00000689
 Iteration  3 RMS(Cart)=  0.00000435 RMS(Int)=  0.00000779
 Iteration  4 RMS(Cart)=  0.00000238 RMS(Int)=  0.00000838
 Iteration  5 RMS(Cart)=  0.00000130 RMS(Int)=  0.00000872
 Iteration  6 RMS(Cart)=  0.00000071 RMS(Int)=  0.00000892
 Variable       Old X    -DE/DX   Delta X   Delta X   Delta X     New X
                                 (Linear)    (Quad)   (Total)
    R1        2.69147  -0.00961  -0.04136   0.03874  -0.00226   2.68921
    R2        2.64852  -0.03496  -0.09763   0.02569  -0.07207   2.57645
    R3        2.03971   0.00128   0.00266   0.00183   0.00449   2.04420
    R4        2.67520  -0.04315  -0.12519   0.02865  -0.09612   2.57909
    R5        2.77677  -0.07202  -0.19457  -0.07091  -0.26548   2.51129
    R6        3.35453  -0.01737  -0.06158   0.01968  -0.04195   3.31258
    R7        2.74255  -0.00016  -0.01043   0.02481   0.01438   2.75693
    R8        3.26369  -0.01077  -0.03437   0.01217  -0.02267   3.24102
    R9        2.04005  -0.00024  -0.00101   0.00092  -0.00009   2.03996
   R10        3.35816  -0.01190  -0.03748   0.00593  -0.03240   3.32576
   R11        2.68233  -0.04658  -0.12722   0.01091  -0.11684   2.56549
   R12        3.26165  -0.00172  -0.01231   0.02104   0.00894   3.27059
   R13        2.68059  -0.02412  -0.06511   0.00474  -0.05872   2.62187
   R14        2.69080   0.00039  -0.00562   0.01202   0.00693   2.69773
   R15        2.69210  -0.00443  -0.02191   0.02248   0.00102   2.69312
   R16        3.26939  -0.00037  -0.00661   0.01684   0.01028   3.27967
   R17        2.04123   0.00071   0.00202  -0.00032   0.00170   2.04293
   R18        3.31169  -0.01095  -0.03507   0.00999  -0.02588   3.28581
   R19        2.65855  -0.04028  -0.10795   0.01448  -0.09385   2.56470
   R20        2.04151  -0.00044  -0.00145   0.00072  -0.00073   2.04078
   R21        2.04893  -0.00209  -0.00685   0.00307  -0.00378   2.04515
   R22        2.02958  -0.08507  -0.22712  -0.09686  -0.32398   1.70560
    A1        1.96135  -0.00197  -0.01321   0.00833  -0.00433   1.95702
    A2        2.17590  -0.00014   0.00387  -0.01098  -0.00741   2.16849
    A3        2.14594   0.00212   0.00935   0.00265   0.01171   2.15765
    A4        1.99339   0.00607   0.03212  -0.03684  -0.00558   1.98781
    A5        2.21309  -0.00394  -0.00673  -0.00561  -0.01505   2.19804
    A6        2.05561  -0.00130  -0.02060   0.05984   0.03690   2.09251
    A7        1.89720   0.00028  -0.01074   0.03204   0.02206   1.91926
    A8        2.30665  -0.00884  -0.01831  -0.03081  -0.04950   2.25715
    A9        2.07911   0.00856   0.02895  -0.00097   0.02758   2.10668
   A10        1.95149   0.00009  -0.00283   0.01059   0.00756   1.95906
   A11        2.18423   0.00374   0.01258   0.01047   0.02313   2.20736
   A12        2.14731  -0.00383  -0.00975  -0.02116  -0.03082   2.11649
   A13        1.62134  -0.00446  -0.00531  -0.01420  -0.01993   1.60141
   A14        2.12240  -0.00408  -0.00978  -0.01016  -0.01992   2.10248
   A15        2.23408  -0.00260  -0.00963   0.00346  -0.00616   2.22792
   A16        1.92616   0.00673   0.01963   0.00677   0.02633   1.95249
   A17        1.61123  -0.00485  -0.01195  -0.00673  -0.01800   1.59322
   A18        1.94746  -0.00623  -0.02071   0.01063  -0.01121   1.93625
   A19        2.25666   0.00644   0.02700   0.01759   0.04146   2.29811
   A20        1.97436   0.00301   0.01290  -0.00810   0.00455   1.97891
   A21        1.97636   0.00353   0.01531  -0.01033   0.00430   1.98067
   A22        1.94877  -0.00733  -0.02611   0.01688  -0.01043   1.93834
   A23        2.25690   0.00689   0.02858   0.01746   0.04276   2.29966
   A24        1.96288   0.00084  -0.00222   0.00058  -0.00079   1.96209
   A25        2.15252  -0.00346  -0.01230   0.00586  -0.00730   2.14522
   A26        2.15806   0.00310   0.01784  -0.00426   0.01270   2.17076
   A27        1.59557  -0.00070   0.00382  -0.01603  -0.01140   1.58417
   A28        1.96262   0.00237   0.00269   0.01454   0.01668   1.97930
   A29        2.12852  -0.00465  -0.01104  -0.01737  -0.02967   2.09884
   A30        2.17860   0.00315   0.01417   0.00894   0.02205   2.20065
   A31        1.94313   0.00266   0.00669  -0.00664   0.00087   1.94399
   A32        2.17054   0.00008   0.00767  -0.00460   0.00137   2.17191
   A33        2.13953  -0.00124  -0.00422   0.01720   0.01139   2.15092
   A34        2.19586  -0.04860  -0.18807  -0.04670  -0.23478   1.96108
    D1        0.00323  -0.00044  -0.00537   0.02415   0.01867   0.02191
    D2       -2.91243  -0.00481  -0.02760  -0.07489  -0.10095  -3.01338
    D3       -3.13761   0.00072   0.00285   0.02308   0.02547  -3.11214
    D4        0.22991  -0.00365  -0.01938  -0.07596  -0.09415   0.13577
    D5       -0.00430   0.00033   0.00360  -0.01775  -0.01388  -0.01818
    D6       -3.12738   0.00048   0.00420  -0.01130  -0.00710  -3.13448
    D7        3.13656  -0.00080  -0.00444  -0.01671  -0.02064   3.11592
    D8        0.01348  -0.00066  -0.00384  -0.01026  -0.01386  -0.00038
    D9       -0.00071   0.00035   0.00474  -0.01906  -0.01452  -0.01523
   D10        3.11719   0.00034  -0.00064  -0.00480  -0.00592   3.11127
   D11        2.93673   0.00383   0.02607   0.06276   0.09038   3.02711
   D12       -0.22855   0.00381   0.02070   0.07702   0.09897  -0.12958
   D13       -0.27675   0.00146   0.00509   0.06433   0.06975  -0.20701
   D14        3.09786  -0.00387  -0.02428  -0.02652  -0.05114   3.04673
   D15       -0.00148  -0.00013  -0.00229   0.00745   0.00561   0.00413
   D16       -3.12297   0.00014   0.00282  -0.00409  -0.00091  -3.12388
   D17       -1.83234  -0.00131  -0.00000   0.00000   0.00000  -1.83234
   D18        1.27031   0.00050   0.00789   0.00281   0.01092   1.28122
   D19        1.28356  -0.00145  -0.00625   0.01575   0.00919   1.29275
   D20       -1.89698   0.00037   0.00164   0.01856   0.02010  -1.87687
   D21        0.00333  -0.00010  -0.00063   0.00580   0.00493   0.00827
   D22        3.12687  -0.00015  -0.00095  -0.00011  -0.00081   3.12607
   D23        3.14026   0.00071   0.00401  -0.01711  -0.01326   3.12701
   D24        0.03140  -0.00067  -0.00207  -0.01947  -0.02207   0.00932
   D25        3.14057  -0.00102  -0.00622   0.02329   0.01719  -3.12542
   D26       -0.14571   0.00285   0.01886   0.03897   0.05769  -0.08802
   D27       -0.03639   0.00045   0.00042   0.02553   0.02653  -0.00986
   D28        2.96051   0.00433   0.02551   0.04121   0.06703   3.02754
   D29       -0.01841   0.00101   0.00414   0.00831   0.01221  -0.00620
   D30       -2.64322  -0.00656  -0.03964  -0.03515  -0.07581  -2.71903
   D31        0.00076  -0.00066  -0.00393   0.00506   0.00113   0.00189
   D32       -2.71892  -0.00852  -0.04550  -0.04630  -0.08890  -2.80782
   D33        2.71358   0.00726   0.03913   0.04818   0.08476   2.79834
   D34       -0.00610  -0.00060  -0.00244  -0.00317  -0.00527  -0.01137
   D35        2.63923   0.00587   0.03812   0.03388   0.07343   2.71266
   D36       -0.24653  -0.00026  -0.00122   0.00637   0.00618  -0.24035
   D37        0.02076   0.00035   0.00213  -0.01465  -0.01289   0.00786
   D38       -2.86501  -0.00578  -0.03720  -0.04215  -0.08014  -2.94515
   D39        0.02357   0.00014   0.00222  -0.02026  -0.01832   0.00526
   D40       -2.97280  -0.00312  -0.01973  -0.03698  -0.05756  -3.03036
   D41        2.65088   0.00520   0.03449   0.04009   0.07611   2.72699
   D42       -0.34549   0.00195   0.01255   0.02337   0.03686  -0.30862
   D43       -0.00753   0.00072   0.00205   0.01502   0.01664   0.00910
   D44       -2.64124  -0.00673  -0.03983  -0.03824  -0.07905  -2.72029
   D45        0.01959  -0.00044  -0.00063  -0.02352  -0.02440  -0.00481
   D46        2.99363   0.00537   0.03477   0.01541   0.04859   3.04222
   D47       -0.02628   0.00021  -0.00048   0.02558   0.02556  -0.00072
   D48        2.86479   0.00642   0.04025   0.04887   0.09017   2.95496
   D49       -2.99464  -0.00491  -0.03379  -0.01171  -0.04658  -3.04122
   D50       -0.10357   0.00130   0.00694   0.01159   0.01803  -0.08554
         Item               Value     Threshold  Converged?
 Maximum Force            0.085069     0.000450     NO 
 RMS     Force            0.015183     0.000300     NO 
 Maximum Displacement     0.779730     0.001800     NO 
 RMS     Displacement     0.100684     0.001200     NO 
 Predicted change in Energy=-5.970481D-02
 GradGradGradGradGradGradGradGradGradGradGradGradGradGradGradGradGradGrad

                          Input orientation:                          
 ---------------------------------------------------------------------
 Center     Atomic      Atomic             Coordinates (Angstroms)
 Number     Number       Type             X           Y           Z
 ---------------------------------------------------------------------
      1          6           0       -4.145175   -1.294350   -0.181327
      2          6           0       -2.817259   -0.959723   -0.568349
      3          6           0       -1.964177   -2.024719   -0.594735
      4          6           0       -4.276598   -2.619703    0.110254
      5          1           0       -4.961028   -0.585905   -0.129767
      6         16           0       -2.809265   -3.480792   -0.106380
      7          1           0       -5.180277   -3.121855    0.420953
      8          6           0       -0.555478   -2.071788   -0.971241
      9         16           0       -0.067566   -2.756098   -2.517517
     10          6           0        1.597076   -2.417521   -2.186268
     11          6           0        1.741814   -1.803652   -0.950475
     12          6           0        0.507390   -1.607091   -0.265946
     13          1           0        0.403576   -1.059538    0.660406
     14         16           0        3.270781   -0.990911   -0.833137
     15          6           0        3.680090   -1.477618   -2.451445
     16          6           0        2.716066   -2.221509   -3.050797
     17          1           0        4.584499   -1.114360   -2.916576
     18          1           0        2.725590   -2.466904   -4.104812
     19          8           0       -2.351544    0.267227   -0.777464
     20          1           0       -3.010513    0.882809   -0.815375
 ---------------------------------------------------------------------
                    Distance matrix (angstroms):
                    1          2          3          4          5
     1  C    0.000000
     2  C    1.423068   0.000000
     3  C    2.336899   1.364793   0.000000
     4  C    1.363397   2.312078   2.489640   0.000000
     5  H    1.081744   2.219874   3.356710   2.159257   0.000000
     6  S    2.563358   2.563058   1.752944   1.715072   3.607077
     7  H    2.184937   3.352221   3.546636   1.079502   2.604305
     8  C    3.756900   2.552383   1.458905   3.913640   4.724913
     9  S    4.921523   3.819297   2.798060   4.963843   5.861490
    10  C    6.185042   4.922315   3.920433   6.309908   7.112858
    11  C    5.958827   4.652245   3.729584   6.165418   6.861820
    12  C    4.663832   3.400562   2.528075   4.904432   5.564618
    13  H    4.631932   3.448707   2.848370   4.963952   5.443132
    14  S    7.450727   6.093875   5.341384   7.778553   8.271726
    15  C    8.149957   6.784527   5.966946   8.436560   8.991900
    16  C    7.494672   6.194541   5.289201   7.684280   8.375285
    17  H    9.149928   7.766859   7.007486   9.484029   9.958045
    18  H    7.998501   6.745468   5.874528   8.174397   8.855690
    19  O    2.451737   1.328919   2.331622   3.581653   2.820772
    20  H    2.535645   1.869036   3.097938   3.837623   2.536077
                    6          7          8          9         10
     6  S    0.000000
     7  H    2.455324   0.000000
     8  C    2.795144   4.942632   0.000000
     9  S    3.722321   5.908316   1.759917   0.000000
    10  C    4.987215   7.295629   2.495859   1.730720   0.000000
    11  C    4.923171   7.178706   2.312981   2.576166   1.387433
    12  C    3.812665   5.925867   1.357598   2.592366   2.351988
    13  H    4.095459   5.957341   2.146324   3.633110   3.372256
    14  S    6.610192   8.805342   3.978395   4.134922   2.582145
    15  C    7.184968   9.458345   4.525934   3.960278   2.300583
    16  C    6.386288   8.672711   3.879430   2.884230   1.427575
    17  H    8.256206  10.512849   5.578562   4.949370   3.340101
    18  H    6.902901   9.133140   4.554206   3.225656   2.226385
    19  O    3.835037   4.574255   2.955400   4.169513   4.978373
    20  H    4.425403   4.719504   3.844624   4.979947   5.831072
                   11         12         13         14         15
    11  C    0.000000
    12  C    1.425138   0.000000
    13  H    2.222504   1.081074   0.000000
    14  S    1.735528   2.887510   3.233611   0.000000
    15  C    2.473080   3.854762   4.538055   1.738775   0.000000
    16  C    2.352685   3.607098   4.524468   2.596169   1.357180
    17  H    3.524420   4.887887   5.502537   2.466133   1.079935
    18  H    3.370098   4.516257   5.484499   3.630378   2.150205
    19  O    4.590648   3.456620   3.379122   5.761645   6.498254
    20  H    5.460764   4.344781   4.196028   6.554830   7.280969
[...]
 Stoichiometry    C10H6OS3
 Framework group  C1[X(C10H6OS3)]
 Deg. of freedom    54
 Full point group                 C1      NOp   1
 Largest Abelian subgroup         C1      NOp   1
 Largest concise Abelian subgroup C1      NOp   1
                         Standard orientation:                         
 ---------------------------------------------------------------------
 Center     Atomic      Atomic             Coordinates (Angstroms)
 Number     Number       Type             X           Y           Z
 ---------------------------------------------------------------------
      1          6           0        3.929384    0.730504    0.292154
      2          6           0        2.536348    0.949757    0.506168
      3          6           0        1.737516    0.022815   -0.106953
      4          6           0        4.163102   -0.368004   -0.475489
      5          1           0        4.711407    1.362464    0.694941
      6         16           0        2.710963   -1.141964   -0.956393
      7          1           0        5.118305   -0.760605   -0.789522
      8          6           0        0.279381   -0.054419   -0.072452
      9         16           0       -0.519105   -1.269923    0.910269
     10          6           0       -2.073519   -0.661318    0.460248
     11          6           0       -1.951677    0.425006   -0.384928
     12          6           0       -0.608035    0.773191   -0.692528
     13          1           0       -0.298626    1.588227   -1.331474
     14         16           0       -3.508541    1.035332   -0.834497
     15          6           0       -4.291750   -0.184691    0.122080
     16          6           0       -3.422141   -1.016903    0.753283
     17          1           0       -5.370468   -0.211691    0.161639
     18          1           0       -3.728074   -1.833857    1.391414
     19          8           0        2.014993    1.965454    1.237856
     20          1           0        2.722790    2.461076    1.650609
 ---------------------------------------------------------------------
 Rotational constants (GHZ):           1.3156026           0.2650459           0.2498752

 **********************************************************************

            Population analysis using the SCF Density.

 **********************************************************************

 Orbital symmetries:
       Occupied  (A) (A) (A) (A) (A) (A) (A) (A) (A) (A) (A) (A)
                 (A) (A) (A) (A) (A) (A) (A) (A) (A) (A) (A) (A)
                 (A) (A) (A) (A) (A) (A) (A) (A) (A) (A) (A) (A)
                 (A) (A) (A) (A) (A) (A) (A) (A) (A) (A) (A) (A)
                 (A) (A) (A) (A) (A) (A) (A) (A) (A) (A) (A) (A)
                 (A)
       Virtual   (A) (A) (A) (A) (A) (A) (A) (A) (A) (A) (A) (A)
                 (A) (A) (A) (A) (A) (A) (A) (A) (A) (A) (A) (A)
                 (A) (A) (A) (A) (A) (A) (A) (A) (A) (A) (A) (A)
                 (A) (A) (A) (A) (A) (A) (A) (A) (A) (A) (A) (A)
                 (A) (A) (A) (A) (A) (A) (A) (A) (A) (A) (A) (A)
                 (A) (A) (A) (A) (A) (A) (A) (A) (A) (A) (A) (A)
                 (A) (A) (A) (A) (A) (A) (A) (A) (A) (A) (A) (A)
                 (A) (A) (A) (A) (A) (A) (A) (A) (A) (A) (A) (A)
                 (A) (A) (A) (A) (A) (A) (A) (A) (A) (A) (A) (A)
                 (A) (A) (A) (A) (A) (A) (A) (A) (A) (A) (A) (A)
                 (A) (A) (A) (A) (A) (A) (A) (A) (A) (A) (A) (A)
                 (A) (A) (A) (A) (A) (A) (A) (A) (A) (A) (A) (A)
                 (A) (A) (A) (A) (A) (A) (A) (A) (A) (A) (A) (A)
                 (A) (A) (A) (A) (A) (A) (A) (A) (A) (A) (A) (A)
                 (A) (A) (A) (A) (A) (A) (A) (A) (A) (A) (A) (A)
                 (A) (A) (A) (A) (A) (A) (A) (A) (A) (A) (A) (A)
                 (A) (A) (A) (A) (A) (A) (A) (A) (A) (A) (A) (A)
                 (A) (A) (A) (A) (A) (A) (A) (A) (A) (A) (A) (A)
                 (A) (A) (A) (A) (A) (A) (A) (A) (A) (A) (A) (A)
                 (A) (A) (A) (A) (A) (A) (A) (A) (A) (A) (A) (A)
                 (A) (A) (A) (A) (A) (A) (A) (A) (A) (A) (A) (A)
                 (A) (A) (A) (A) (A) (A) (A) (A) (A) (A) (A) (A)
                 (A) (A) (A) (A) (A) (A) (A) (A) (A) (A) (A) (A)
                 (A) (A) (A) (A) (A) (A) (A) (A) (A) (A) (A) (A)
                 (A) (A) (A) (A) (A) (A) (A) (A) (A) (A) (A) (A)
                 (A) (A) (A) (A) (A) (A)
 The electronic state is 1-A.
 Alpha  occ. eigenvalues --  -89.05126 -89.04695 -89.04467 -19.29009 -10.36064
 Alpha  occ. eigenvalues --  -10.33134 -10.32692 -10.32157 -10.31994 -10.31984
 Alpha  occ. eigenvalues --  -10.31904 -10.30303 -10.30156 -10.30036  -8.09187
 Alpha  occ. eigenvalues --   -8.08741  -8.08509  -6.04021  -6.03640  -6.03590
 Alpha  occ. eigenvalues --   -6.03361  -6.03282  -6.03218  -6.02990  -6.02804
 Alpha  occ. eigenvalues --   -6.02561  -1.18172  -1.01743  -0.99635  -0.94962
 Alpha  occ. eigenvalues --   -0.86868  -0.85919  -0.83885  -0.80613  -0.79849
 Alpha  occ. eigenvalues --   -0.70884  -0.70050  -0.66185  -0.64772  -0.62899
 Alpha  occ. eigenvalues --   -0.60714  -0.58074  -0.56989  -0.53583  -0.52531
 Alpha  occ. eigenvalues --   -0.51835  -0.49924  -0.49515  -0.47436  -0.46989
 Alpha  occ. eigenvalues --   -0.45808  -0.44873  -0.44286  -0.44026  -0.41953
 Alpha  occ. eigenvalues --   -0.41672  -0.36454  -0.33330  -0.31125  -0.30191
 Alpha  occ. eigenvalues --   -0.28790
 Alpha virt. eigenvalues --    0.02410   0.03966   0.04993   0.06050   0.06220
 Alpha virt. eigenvalues --    0.06711   0.07394   0.07550   0.08085   0.09079
 Alpha virt. eigenvalues --    0.09290   0.09422   0.09863   0.10284   0.10791
 Alpha virt. eigenvalues --    0.11203   0.11450   0.11864   0.12265   0.12462
 Alpha virt. eigenvalues --    0.13631   0.13951   0.14447   0.14861   0.15269
 Alpha virt. eigenvalues --    0.15531   0.16144   0.17016   0.17577   0.18107
 Alpha virt. eigenvalues --    0.18131   0.18549   0.18968   0.19546   0.19918
 Alpha virt. eigenvalues --    0.20141   0.20822   0.20992   0.21674   0.21735
 Alpha virt. eigenvalues --    0.22053   0.22526   0.22974   0.23124   0.23581
 Alpha virt. eigenvalues --    0.24098   0.24575   0.25281   0.25391   0.25532
 Alpha virt. eigenvalues --    0.26144   0.26916   0.26928   0.27578   0.27723
 Alpha virt. eigenvalues --    0.28112   0.28573   0.29073   0.29533   0.30764
 Alpha virt. eigenvalues --    0.30783   0.31576   0.31853   0.31954   0.32814
 Alpha virt. eigenvalues --    0.33490   0.34452   0.34888   0.35283   0.36068
 Alpha virt. eigenvalues --    0.37622   0.38398   0.39166   0.40215   0.40447
 Alpha virt. eigenvalues --    0.41463   0.41712   0.42551   0.43019   0.44273
 Alpha virt. eigenvalues --    0.44554   0.46213   0.47553   0.48217   0.49453
 Alpha virt. eigenvalues --    0.50859   0.52231   0.53272   0.54244   0.54434
 Alpha virt. eigenvalues --    0.55769   0.57755   0.58616   0.60668   0.61362
 Alpha virt. eigenvalues --    0.62918   0.63469   0.63781   0.64372   0.65093
 Alpha virt. eigenvalues --    0.66950   0.67686   0.67912   0.68516   0.70319
 Alpha virt. eigenvalues --    0.71031   0.71398   0.72164   0.73065   0.74598
 Alpha virt. eigenvalues --    0.74793   0.78093   0.78914   0.79348   0.79656
 Alpha virt. eigenvalues --    0.80913   0.81607   0.81998   0.82440   0.83901
 Alpha virt. eigenvalues --    0.85332   0.86325   0.86811   0.87572   0.88231
 Alpha virt. eigenvalues --    0.89183   0.89816   0.90939   0.91394   0.92176
 Alpha virt. eigenvalues --    0.92271   0.93856   0.94305   0.95140   0.95434
 Alpha virt. eigenvalues --    0.96093   0.97817   0.99150   0.99812   1.03054
 Alpha virt. eigenvalues --    1.03255   1.04608   1.05564   1.06217   1.07202
 Alpha virt. eigenvalues --    1.08969   1.10839   1.11849   1.12230   1.12510
 Alpha virt. eigenvalues --    1.14200   1.15607   1.15971   1.16678   1.17385
 Alpha virt. eigenvalues --    1.20318   1.21757   1.23108   1.24465   1.26215
 Alpha virt. eigenvalues --    1.27904   1.30517   1.34540   1.38666   1.40454
 Alpha virt. eigenvalues --    1.43481   1.43975   1.44703   1.46870   1.49170
 Alpha virt. eigenvalues --    1.51305   1.57540   1.58589   1.59784   1.62824
 Alpha virt. eigenvalues --    1.65226   1.66159   1.67847   1.68140   1.69558
 Alpha virt. eigenvalues --    1.70877   1.72257   1.74487   1.77134   1.78224
 Alpha virt. eigenvalues --    1.79933   1.81737   1.82316   1.82893   1.83914
 Alpha virt. eigenvalues --    1.85807   1.86710   1.87872   1.88399   1.91061
 Alpha virt. eigenvalues --    1.92909   1.94662   1.96203   1.98021   1.98970
 Alpha virt. eigenvalues --    2.00893   2.01262   2.03508   2.06030   2.06845
 Alpha virt. eigenvalues --    2.08533   2.09153   2.12097   2.12958   2.14773
 Alpha virt. eigenvalues --    2.16186   2.17327   2.18342   2.18903   2.19960
 Alpha virt. eigenvalues --    2.21623   2.22891   2.23724   2.26029   2.27555
 Alpha virt. eigenvalues --    2.28503   2.28996   2.37610   2.42724   2.46877
 Alpha virt. eigenvalues --    2.51189   2.51303   2.54699   2.59884   2.63053
 Alpha virt. eigenvalues --    2.66076   2.68570   2.72373   2.73294   2.79715
 Alpha virt. eigenvalues --    2.80225   2.80776   2.81617   2.82362   2.83410
 Alpha virt. eigenvalues --    2.84220   2.87871   2.88653   2.93846   2.98221
 Alpha virt. eigenvalues --    3.00578   3.03684   3.05661   3.07760   3.08762
 Alpha virt. eigenvalues --    3.12877   3.17254   3.18040   3.22899   3.23439
 Alpha virt. eigenvalues --    3.27377   3.27807   3.31296   3.39951   3.40897
 Alpha virt. eigenvalues --    3.41265   3.43960   3.47274   3.54620   3.57754
 Alpha virt. eigenvalues --    3.58801   3.63000   3.68207   3.80920   3.98068
 Alpha virt. eigenvalues --    4.04604   4.08462   4.15813   4.21394   4.30374
 Alpha virt. eigenvalues --    4.45785   4.60003   5.12595   5.57626   5.86243
 Alpha virt. eigenvalues --    8.09469   8.10901   8.12292  17.42667  17.44248
 Alpha virt. eigenvalues --   17.45358  17.60192  17.60973  17.64567  17.66352
 Alpha virt. eigenvalues --   17.68637  17.71448  23.60630  23.76544  23.90808
 Alpha virt. eigenvalues --   23.94126  23.99180  24.17682  24.21080  24.28848
 Alpha virt. eigenvalues --   24.29008  24.30555  50.08491 189.34173 189.36015
 Alpha virt. eigenvalues --  189.37699
          Condensed to atoms (all electrons):
               1          2          3          4          5          6
     1  C    8.261870  -2.863465   0.585234  -0.704675   0.399177   0.535699
     2  C   -2.863465  13.289864  -2.809284   1.722263  -0.050150  -1.735317
     3  C    0.585234  -2.809284   9.948164  -1.100697  -0.013320   0.053372
     4  C   -0.704675   1.722263  -1.100697   6.263299   0.034891  -0.081179
     5  H    0.399177  -0.050150  -0.013320   0.034891   0.498403  -0.001415
     6  S    0.535699  -1.735317   0.053372  -0.081179  -0.001415  17.108379
     7  H    0.026379  -0.034427   0.030332   0.370636  -0.003739  -0.022834
     8  C    0.170121  -0.926140   1.009793  -0.204430  -0.007955  -0.015351
     9  S   -0.076883   0.239071   0.679636   0.077446  -0.000186  -0.070452
    10  C    0.013333  -0.146676  -1.224220  -0.010426  -0.000209   0.128695
    11  C   -0.153126  -0.489131   1.584834   0.009532  -0.000036  -0.051716
    12  C    0.139085  -0.141164  -2.796594  -0.174772   0.000267   0.341264
    13  H   -0.001069   0.008261   0.043013   0.002933  -0.000001  -0.010452
    14  S   -0.010396  -0.029924   0.013740   0.002597  -0.000002   0.003538
    15  C    0.000060  -0.021770   0.011454  -0.000830   0.000000   0.001148
    16  C   -0.023384  -0.000500  -0.232148   0.008104  -0.000018  -0.005722
    17  H   -0.000000  -0.000002  -0.000058  -0.000000   0.000000   0.000004
    18  H    0.000003  -0.000136  -0.000369  -0.000002   0.000000   0.000029
    19  O    0.090009   0.059689  -0.072235  -0.032900  -0.005199   0.036454
    20  H   -0.196668   0.179345   0.019080   0.006314   0.003106  -0.020955
               7          8          9         10         11         12
     1  C    0.026379   0.170121  -0.076883   0.013333  -0.153126   0.139085
     2  C   -0.034427  -0.926140   0.239071  -0.146676  -0.489131  -0.141164
     3  C    0.030332   1.009793   0.679636  -1.224220   1.584834  -2.796594
     4  C    0.370636  -0.204430   0.077446  -0.010426   0.009532  -0.174772
     5  H   -0.003739  -0.007955  -0.000186  -0.000209  -0.000036   0.000267
     6  S   -0.022834  -0.015351  -0.070452   0.128695  -0.051716   0.341264
     7  H    0.446402  -0.001340  -0.000433  -0.000100  -0.000126  -0.000299
     8  C   -0.001340  11.073482   1.459348  -1.084836   3.618447  -6.135869
     9  S   -0.000433   1.459348  18.655481  -0.241499   2.948371  -5.063500
    10  C   -0.000100  -1.084836  -0.241499  19.815635  -4.872735   0.782962
    11  C   -0.000126   3.618447   2.948371  -4.872735  20.624532 -13.630598
    12  C   -0.000299  -6.135869  -5.063500   0.782962 -13.630598  27.185566
    13  H   -0.000000   0.074099   0.020716  -0.066511   0.103922   0.179137
    14  S   -0.000002  -0.749013   0.212501   0.324911  -0.685521  -0.465968
    15  C   -0.000001   0.156094   0.360495   1.695066  -0.039816  -1.221721
    16  C   -0.000007  -2.552087  -2.642812  -9.377869  -2.543960   6.326578
    17  H    0.000000   0.002706  -0.001582  -0.016019   0.028727   0.009814
    18  H    0.000000  -0.006925   0.017395   0.020438  -0.048305  -0.003936
    19  O   -0.000289  -0.046319  -0.035464   0.024038  -0.001726   0.025646
    20  H   -0.000020   0.015234   0.005100   0.002294   0.005491  -0.000470
              13         14         15         16         17         18
     1  C   -0.001069  -0.010396   0.000060  -0.023384  -0.000000   0.000003
     2  C    0.008261  -0.029924  -0.021770  -0.000500  -0.000002  -0.000136
     3  C    0.043013   0.013740   0.011454  -0.232148  -0.000058  -0.000369
     4  C    0.002933   0.002597  -0.000830   0.008104  -0.000000  -0.000002
     5  H   -0.000001  -0.000002   0.000000  -0.000018   0.000000   0.000000
     6  S   -0.010452   0.003538   0.001148  -0.005722   0.000004   0.000029
     7  H   -0.000000  -0.000002  -0.000001  -0.000007   0.000000   0.000000
     8  C    0.074099  -0.749013   0.156094  -2.552087   0.002706  -0.006925
     9  S    0.020716   0.212501   0.360495  -2.642812  -0.001582   0.017395
    10  C   -0.066511   0.324911   1.695066  -9.377869  -0.016019   0.020438
    11  C    0.103922  -0.685521  -0.039816  -2.543960   0.028727  -0.048305
    12  C    0.179137  -0.465968  -1.221721   6.326578   0.009814  -0.003936
    13  H    0.481531   0.006849   0.002592  -0.005696  -0.000005   0.000003
    14  S    0.006849  17.468949   0.434823  -0.059742  -0.043444   0.008488
    15  C    0.002592   0.434823   5.966887  -1.540964   0.374279   0.029405
    16  C   -0.005696  -0.059742  -1.540964  18.063578   0.013214   0.344357
    17  H   -0.000005  -0.043444   0.374279   0.013214   0.443969  -0.003707
    18  H    0.000003   0.008488   0.029405   0.344357  -0.003707   0.481915
    19  O    0.000081  -0.000842   0.000445   0.003419  -0.000000  -0.000000
    20  H    0.000140   0.000004   0.000039   0.000662  -0.000000  -0.000000
              19         20
     1  C    0.090009  -0.196668
     2  C    0.059689   0.179345
     3  C   -0.072235   0.019080
     4  C   -0.032900   0.006314
     5  H   -0.005199   0.003106
     6  S    0.036454  -0.020955
     7  H   -0.000289  -0.000020
     8  C   -0.046319   0.015234
     9  S   -0.035464   0.005100
    10  C    0.024038   0.002294
    11  C   -0.001726   0.005491
    12  C    0.025646  -0.000470
    13  H    0.000081   0.000140
    14  S   -0.000842   0.000004
    15  C    0.000445   0.000039
    16  C    0.003419   0.000662
    17  H   -0.000000  -0.000000
    18  H   -0.000000  -0.000000
    19  O    7.973738   0.213126
    20  H    0.213126   0.499137
 Mulliken charges:
               1
     1  C   -0.191305
     2  C   -0.250406
     3  C    0.270273
     4  C   -0.188104
     5  H    0.146385
     6  S   -0.193189
     7  H    0.189868
     8  C    0.150941
     9  S   -0.542748
    10  C    0.233729
    11  C   -0.407059
    12  C    0.644573
    13  H    0.160456
    14  S   -0.431545
    15  C   -0.207688
    16  C    0.224996
    17  H    0.192105
    18  H    0.161348
    19  O   -0.231669
    20  H    0.269041
 Sum of Mulliken charges =  -0.00000
 Mulliken charges with hydrogens summed into heavy atoms:
               1
     1  C   -0.044921
     2  C   -0.250406
     3  C    0.270273
     4  C    0.001765
     6  S   -0.193189
     8  C    0.150941
     9  S   -0.542748
    10  C    0.233729
    11  C   -0.407059
    12  C    0.805029
    14  S   -0.431545
    15  C   -0.015583
    16  C    0.386344
    19  O    0.037372
 Electronic spatial extent (au):  <R**2>=           4273.0197
 Charge=             -0.0000 electrons
 Dipole moment (field-independent basis, Debye):
    X=              1.9704    Y=              0.8844    Z=              0.6471  Tot=              2.2547
 Quadrupole moment (field-independent basis, Debye-Ang):
   XX=            -77.7606   YY=            -98.1304   ZZ=           -102.3920
   XY=              7.9201   XZ=              0.9708   YZ=              0.3702
 Traceless Quadrupole moment (field-independent basis, Debye-Ang):
   XX=             15.0004   YY=             -5.3694   ZZ=             -9.6309
   XY=              7.9201   XZ=              0.9708   YZ=              0.3702
 Octapole moment (field-independent basis, Debye-Ang**2):
  XXX=             38.4305  YYY=             18.3598  ZZZ=              9.0606  XYY=             19.0018
  XXY=              9.0859  XXZ=             20.5911  XZZ=             10.2653  YZZ=              7.4373
  YYZ=             10.8173  XYZ=             27.1136
 Hexadecapole moment (field-independent basis, Debye-Ang**3):
 XXXX=          -3962.7096 YYYY=           -702.9093 ZZZZ=           -460.2321 XXXY=             97.2499
 XXXZ=             -9.4710 YYYX=             68.6503 YYYZ=             26.1131 ZZZX=             24.6543
 ZZZY=             17.3009 XXYY=           -844.6121 XXZZ=           -868.3115 YYZZ=           -167.9657
 XXYZ=             50.6093 YYXZ=             25.2242 ZZXY=             31.0678
 N-N= 1.128230138189D+03 E-N=-6.168329201337D+03  KE= 1.651135491546D+03
 Unable to Open any file for archive entry.
 1\1\GINC-CX3-6-28\FOpt\RwB97XD\6-311+G(d,p)\C10H6O1S3\NS5018\25-Oct-20
 21\0\\# opt=modredundant wb97xd/6-311+g(d,p)\\pBTTT_-105.pdb\\0,1\C,-4
 .1567473433,-1.3517094339,-0.0900383138\C,-2.8533287767,-0.9627957112,
 -0.5193042877\C,-1.973705351,-2.0076057175,-0.6082294145\C,-4.24474157
 09,-2.6910166824,0.1316163886\H,-4.9820444405,-0.6628464204,0.04233848
 23\S,-2.759328282,-3.4944640241,-0.1633622796\H,-5.108593192,-3.248546
 23,0.460379611\C,-0.577133983,-1.958795922,-1.0331029442\S,-0.11450672
 66,-2.5463543022,-2.6210331451\C,1.5318584097,-2.0963614692,-2.3451487
 484\C,1.681967677,-1.5149445828,-1.1006859452\C,0.4785481387,-1.436471
 8324,-0.3477909707\H,0.3817151959,-1.0176970181,0.6439345172\S,3.33067
 30074,-1.0630441085,-0.825018712\C,3.7848946346,-1.6674063205,-2.38877
 74864\C,2.7433857643,-2.187603183,-3.0901102586\H,4.816055908,-1.59814
 88943,-2.7015652341\H,2.8369679386,-2.6086962809,-4.0811415964\O,-2.48
 24851212,0.3067570729,-0.818517396\H,-3.2454518871,0.8837510604,-0.774
 4422664\\Version=ES64L-G16RevC.01\State=1-A\HF=-1654.4103592\RMSD=1.74
 9e-09\RMSF=2.391e-04\Dipole=-0.7957419,0.3698196,0.1299393\Quadrupole=
 9.7203237,-5.1142426,-4.6060811,-4.0654487,-6.2821815,2.0347225\PG=C01
  [X(C10H6O1S3)]\\@
 The archive entry for this job was punched.


 REALITY IS FOR PEOPLE WHO CAN'T FACE SCIENCE FICTION.
 Job cpu time:       0 days  3 hours 39 minutes 40.3 seconds.
 Elapsed time:       0 days  0 hours 27 minutes 44.6 seconds.
 File lengths (MBytes):  RWF=     86 Int=      0 D2E=      0 Chk=     11 Scr=      1
 Normal termination of Gaussian 16 at Mon Oct 25 23:53:24 2021.
