 Entering Gaussian System, Link 0=g16
 Input=pBTTT_-155.gjf
 Output=pBTTT_-155.log
 Initial command:
 /apps/gaussian/g16-c01-avx/g16/l1.exe "/tmp/pbs.4762174[20].pbs/Gau-2827507.inp" -scrdir="/tmp/pbs.4762174[20].pbs/"
 Entering Link 1 = /apps/gaussian/g16-c01-avx/g16/l1.exe PID=   2827508.
  
 Copyright (c) 1988-2019, Gaussian, Inc.  All Rights Reserved.
  
 This is part of the Gaussian(R) 16 program.  It is based on
 the Gaussian(R) 09 system (copyright 2009, Gaussian, Inc.),
 the Gaussian(R) 03 system (copyright 2003, Gaussian, Inc.),
 the Gaussian(R) 98 system (copyright 1998, Gaussian, Inc.),
 the Gaussian(R) 94 system (copyright 1995, Gaussian, Inc.),
 the Gaussian 92(TM) system (copyright 1992, Gaussian, Inc.),
 the Gaussian 90(TM) system (copyright 1990, Gaussian, Inc.),
 the Gaussian 88(TM) system (copyright 1988, Gaussian, Inc.),
 the Gaussian 86(TM) system (copyright 1986, Carnegie Mellon
 University), and the Gaussian 82(TM) system (copyright 1983,
 Carnegie Mellon University). Gaussian is a federally registered
 trademark of Gaussian, Inc.
  
 This software contains proprietary and confidential information,
 including trade secrets, belonging to Gaussian, Inc.
  
 This software is provided under written license and may be
 used, copied, transmitted, or stored only in accord with that
 written license.
  
 The following legend is applicable only to US Government
 contracts under FAR:
  
                    RESTRICTED RIGHTS LEGEND
  
 Use, reproduction and disclosure by the US Government is
 subject to restrictions as set forth in subparagraphs (a)
 and (c) of the Commercial Computer Software - Restricted
 Rights clause in FAR 52.227-19.
  
 Gaussian, Inc.
 340 Quinnipiac St., Bldg. 40, Wallingford CT 06492
  
  
 ---------------------------------------------------------------
 Warning -- This program may not be used in any manner that
 competes with the business of Gaussian, Inc. or will provide
 assistance to any competitor of Gaussian, Inc.  The licensee
 of this program is prohibited from giving any competitor of
 Gaussian, Inc. access to this program.  By using this program,
 the user acknowledges that Gaussian, Inc. is engaged in the
 business of creating and licensing software in the field of
 computational chemistry and represents and warrants to the
 licensee that it is not a competitor of Gaussian, Inc. and that
 it will not use this program in any manner prohibited above.
 ---------------------------------------------------------------
  

 Cite this work as:
 Gaussian 16, Revision C.01,
 M. J. Frisch, G. W. Trucks, H. B. Schlegel, G. E. Scuseria, 
 M. A. Robb, J. R. Cheeseman, G. Scalmani, V. Barone, 
 G. A. Petersson, H. Nakatsuji, X. Li, M. Caricato, A. V. Marenich, 
 J. Bloino, B. G. Janesko, R. Gomperts, B. Mennucci, H. P. Hratchian, 
 J. V. Ortiz, A. F. Izmaylov, J. L. Sonnenberg, D. Williams-Young, 
 F. Ding, F. Lipparini, F. Egidi, J. Goings, B. Peng, A. Petrone, 
 T. Henderson, D. Ranasinghe, V. G. Zakrzewski, J. Gao, N. Rega, 
 G. Zheng, W. Liang, M. Hada, M. Ehara, K. Toyota, R. Fukuda, 
 J. Hasegawa, M. Ishida, T. Nakajima, Y. Honda, O. Kitao, H. Nakai, 
 T. Vreven, K. Throssell, J. A. Montgomery, Jr., J. E. Peralta, 
 F. Ogliaro, M. J. Bearpark, J. J. Heyd, E. N. Brothers, K. N. Kudin, 
 V. N. Staroverov, T. A. Keith, R. Kobayashi, J. Normand, 
 K. Raghavachari, A. P. Rendell, J. C. Burant, S. S. Iyengar, 
 J. Tomasi, M. Cossi, J. M. Millam, M. Klene, C. Adamo, R. Cammi, 
 J. W. Ochterski, R. L. Martin, K. Morokuma, O. Farkas, 
 J. B. Foresman, and D. J. Fox, Gaussian, Inc., Wallingford CT, 2019.
 
 ******************************************
 Gaussian 16:  ES64L-G16RevC.01  3-Jul-2019
                25-Oct-2021 
 ******************************************
 %mem=10GB
 %nprocshared=8
 Will use up to    8 processors via shared memory.
 --------------------------------------
 # opt=modredundant wb97xd/6-311+g(d,p)
 --------------------------------------
 1/18=120,19=15,26=3,38=1/1,3;
 2/9=110,12=2,17=6,18=5,40=1/2;
 3/5=4,6=6,7=111,11=2,25=1,30=1,71=1,74=-58/1,2,3;
 4//1;
 5/5=2,38=5/2;
 6/7=2,8=2,9=2,10=2,28=1/1;
 7//1,2,3,16;
 1/18=20,19=15,26=3/3(2);
 2/9=110/2;
 99//99;
 2/9=110/2;
 3/5=4,6=6,7=111,11=2,25=1,30=1,71=1,74=-58/1,2,3;
 4/5=5,16=3,69=1/1;
 5/5=2,38=5/2;
 7//1,2,3,16;
 1/18=20,19=15,26=3/3(-5);
 2/9=110/2;
 6/7=2,8=2,9=2,10=2,19=2,28=1/1;
 99/9=1/99;
 --------------
 pBTTT_-155.pdb
 --------------
 Symbolic Z-matrix:
 Charge =  0 Multiplicity = 1
 C                    -4.25     -1.36     -0.21 
 C                    -2.93     -0.95     -0.61 
 C                    -1.97     -2.05     -0.62 
 C                    -4.33     -2.76      0.1 
 H                    -5.1      -0.7      -0.14 
 S                    -2.8      -3.56     -0.11 
 H                    -5.23     -3.27      0.41 
 C                    -0.56     -2.13     -0.97 
 S                     0.197    -3.659    -1.511 
 C                     1.749    -2.919    -1.707 
 C                     1.729    -1.512    -1.4 
 C                     0.432    -1.053    -1. 
 H                     0.186    -0.008    -0.89 
 S                     2.969    -0.629    -2.227 
 C                     3.562    -2.105    -2.994 
 C                     2.782    -3.265    -2.627 
 H                     4.297    -2.09     -3.786 
 H                     2.81     -4.193    -3.191 
 O                    -2.4       0.49     -0.72 
 H                    -2.92      1.52     -0.76 
 
 Add virtual bond connecting atoms H20        and O19        Dist= 2.18D+00.
 The following ModRedundant input section has been read:
 D       2       3       8       9 F                                           
 

 GradGradGradGradGradGradGradGradGradGradGradGradGradGradGradGradGradGrad
 Berny optimization.
 Initialization pass.
                           ----------------------------
                           !    Initial Parameters    !
                           ! (Angstroms and Degrees)  !
 --------------------------                            --------------------------
 ! Name  Definition              Value          Derivative Info.                !
 --------------------------------------------------------------------------------
 ! R1    R(1,2)                  1.4389         estimate D2E/DX2                !
 ! R2    R(1,4)                  1.4361         estimate D2E/DX2                !
 ! R3    R(1,5)                  1.0784         estimate D2E/DX2                !
 ! R4    R(2,3)                  1.46           estimate D2E/DX2                !
 ! R5    R(2,19)                 1.5384         estimate D2E/DX2                !
 ! R6    R(3,6)                  1.797          estimate D2E/DX2                !
 ! R7    R(3,8)                  1.455          estimate D2E/DX2                !
 ! R8    R(4,6)                  1.7393         estimate D2E/DX2                !
 ! R9    R(4,7)                  1.0799         estimate D2E/DX2                !
 ! R10   R(8,9)                  1.7899         estimate D2E/DX2                !
 ! R11   R(8,12)                 1.4645         estimate D2E/DX2                !
 ! R12   R(9,10)                 1.7305         estimate D2E/DX2                !
 ! R13   R(10,11)                1.4402         estimate D2E/DX2                !
 ! R14   R(10,16)                1.4259         estimate D2E/DX2                !
 ! R15   R(11,12)                1.4328         estimate D2E/DX2                !
 ! R16   R(11,14)                1.7324         estimate D2E/DX2                !
 ! R17   R(12,13)                1.0792         estimate D2E/DX2                !
 ! R18   R(14,15)                1.7659         estimate D2E/DX2                !
 ! R19   R(15,16)                1.4452         estimate D2E/DX2                !
 ! R20   R(15,17)                1.0806         estimate D2E/DX2                !
 ! R21   R(16,18)                1.0863         estimate D2E/DX2                !
 ! R22   R(19,20)                1.1545         estimate D2E/DX2                !
 ! A1    A(2,1,4)              112.8843         estimate D2E/DX2                !
 ! A2    A(2,1,5)              124.5209         estimate D2E/DX2                !
 ! A3    A(4,1,5)              122.5942         estimate D2E/DX2                !
 ! A4    A(1,2,3)              112.9799         estimate D2E/DX2                !
 ! A5    A(1,2,19)             127.059          estimate D2E/DX2                !
 ! A6    A(3,2,19)             118.5686         estimate D2E/DX2                !
 ! A7    A(2,3,6)              109.1138         estimate D2E/DX2                !
 ! A8    A(2,3,8)              132.8639         estimate D2E/DX2                !
 ! A9    A(6,3,8)              118.0132         estimate D2E/DX2                !
 ! A10   A(1,4,6)              111.9209         estimate D2E/DX2                !
 ! A11   A(1,4,7)              124.6643         estimate D2E/DX2                !
 ! A12   A(6,4,7)              123.4062         estimate D2E/DX2                !
 ! A13   A(3,6,4)               93.0997         estimate D2E/DX2                !
 ! A14   A(3,8,9)              121.9744         estimate D2E/DX2                !
 ! A15   A(3,8,12)             128.3813         estimate D2E/DX2                !
 ! A16   A(9,8,12)             109.6054         estimate D2E/DX2                !
 ! A17   A(8,9,10)              92.7654         estimate D2E/DX2                !
 ! A18   A(9,10,11)            112.4049         estimate D2E/DX2                !
 ! A19   A(9,10,16)            128.2453         estimate D2E/DX2                !
 ! A20   A(11,10,16)           112.6216         estimate D2E/DX2                !
 ! A21   A(10,11,12)           112.6461         estimate D2E/DX2                !
 ! A22   A(10,11,14)           112.7206         estimate D2E/DX2                !
 ! A23   A(12,11,14)           128.1644         estimate D2E/DX2                !
 ! A24   A(8,12,11)            112.5373         estimate D2E/DX2                !
 ! A25   A(8,12,13)            123.752          estimate D2E/DX2                !
 ! A26   A(11,12,13)           123.0252         estimate D2E/DX2                !
 ! A27   A(11,14,15)            91.2422         estimate D2E/DX2                !
 ! A28   A(14,15,16)           112.2925         estimate D2E/DX2                !
 ! A29   A(14,15,17)           122.3528         estimate D2E/DX2                !
 ! A30   A(16,15,17)           124.3573         estimate D2E/DX2                !
 ! A31   A(10,16,15)           111.1046         estimate D2E/DX2                !
 ! A32   A(10,16,18)           124.1214         estimate D2E/DX2                !
 ! A33   A(15,16,18)           122.6781         estimate D2E/DX2                !
 ! A34   A(2,19,20)            133.0318         estimate D2E/DX2                !
 ! D1    D(4,1,2,3)              0.3915         estimate D2E/DX2                !
 ! D2    D(4,1,2,19)          -165.8104         estimate D2E/DX2                !
 ! D3    D(5,1,2,3)           -179.8811         estimate D2E/DX2                !
 ! D4    D(5,1,2,19)            13.9169         estimate D2E/DX2                !
 ! D5    D(2,1,4,6)             -0.3845         estimate D2E/DX2                !
 ! D6    D(2,1,4,7)           -179.3471         estimate D2E/DX2                !
 ! D7    D(5,1,4,6)            179.8822         estimate D2E/DX2                !
 ! D8    D(5,1,4,7)              0.9196         estimate D2E/DX2                !
 ! D9    D(1,2,3,6)             -0.2224         estimate D2E/DX2                !
 ! D10   D(1,2,3,8)            178.6265         estimate D2E/DX2                !
 ! D11   D(19,2,3,6)           167.2616         estimate D2E/DX2                !
 ! D12   D(19,2,3,8)           -13.8895         estimate D2E/DX2                !
 ! D13   D(1,2,19,20)          -16.0519         estimate D2E/DX2                !
 ! D14   D(3,2,19,20)          178.4264         estimate D2E/DX2                !
 ! D15   D(2,3,6,4)              0.0033         estimate D2E/DX2                !
 ! D16   D(8,3,6,4)           -179.041          estimate D2E/DX2                !
 ! D17   D(2,3,8,9)           -155.0062         Frozen                          !
 ! D18   D(2,3,8,12)            22.4826         estimate D2E/DX2                !
 ! D19   D(6,3,8,9)             23.7618         estimate D2E/DX2                !
 ! D20   D(6,3,8,12)          -158.7494         estimate D2E/DX2                !
 ! D21   D(1,4,6,3)              0.2153         estimate D2E/DX2                !
 ! D22   D(7,4,6,3)            179.1932         estimate D2E/DX2                !
 ! D23   D(3,8,9,10)           179.7641         estimate D2E/DX2                !
 ! D24   D(12,8,9,10)            1.8536         estimate D2E/DX2                !
 ! D25   D(3,8,12,11)         -179.8132         estimate D2E/DX2                !
 ! D26   D(3,8,12,13)           -9.0658         estimate D2E/DX2                !
 ! D27   D(9,8,12,11)           -2.0744         estimate D2E/DX2                !
 ! D28   D(9,8,12,13)          168.6731         estimate D2E/DX2                !
 ! D29   D(8,9,10,11)           -1.1978         estimate D2E/DX2                !
 ! D30   D(8,9,10,16)         -149.9249         estimate D2E/DX2                !
 ! D31   D(9,10,11,12)           0.191          estimate D2E/DX2                !
 ! D32   D(9,10,11,14)        -154.0415         estimate D2E/DX2                !
 ! D33   D(16,10,11,12)        153.9801         estimate D2E/DX2                !
 ! D34   D(16,10,11,14)         -0.2524         estimate D2E/DX2                !
 ! D35   D(9,10,16,15)         149.7802         estimate D2E/DX2                !
 ! D36   D(9,10,16,18)         -14.0844         estimate D2E/DX2                !
 ! D37   D(11,10,16,15)          1.1078         estimate D2E/DX2                !
 ! D38   D(11,10,16,18)       -162.7568         estimate D2E/DX2                !
 ! D39   D(10,11,12,8)           1.2496         estimate D2E/DX2                !
 ! D40   D(10,11,12,13)       -169.5756         estimate D2E/DX2                !
 ! D41   D(14,11,12,8)         150.5856         estimate D2E/DX2                !
 ! D42   D(14,11,12,13)        -20.2396         estimate D2E/DX2                !
 ! D43   D(10,11,14,15)         -0.5149         estimate D2E/DX2                !
 ! D44   D(12,11,14,15)       -149.8324         estimate D2E/DX2                !
 ! D45   D(11,14,15,16)          1.1506         estimate D2E/DX2                !
 ! D46   D(11,14,15,17)        170.1799         estimate D2E/DX2                !
 ! D47   D(14,15,16,10)         -1.49           estimate D2E/DX2                !
 ! D48   D(14,15,16,18)        162.6474         estimate D2E/DX2                !
 ! D49   D(17,15,16,10)       -170.2604         estimate D2E/DX2                !
 ! D50   D(17,15,16,18)         -6.123          estimate D2E/DX2                !
 --------------------------------------------------------------------------------
 Trust Radius=3.00D-01 FncErr=1.00D-07 GrdErr=1.00D-06 EigMax=2.50D+02 EigMin=1.00D-04
 Number of steps in this run=    116 maximum allowed number of steps=    120.
 GradGradGradGradGradGradGradGradGradGradGradGradGradGradGradGradGradGrad

                          Input orientation:                          
 ---------------------------------------------------------------------
 Center     Atomic      Atomic             Coordinates (Angstroms)
 Number     Number       Type             X           Y           Z
 ---------------------------------------------------------------------
      1          6           0       -4.250000   -1.360000   -0.210000
      2          6           0       -2.930000   -0.950000   -0.610000
      3          6           0       -1.970000   -2.050000   -0.620000
      4          6           0       -4.330000   -2.760000    0.100000
      5          1           0       -5.100000   -0.700000   -0.140000
      6         16           0       -2.800000   -3.560000   -0.110000
      7          1           0       -5.230000   -3.270000    0.410000
      8          6           0       -0.560000   -2.130000   -0.970000
      9         16           0        0.197000   -3.659000   -1.511000
     10          6           0        1.749000   -2.919000   -1.707000
     11          6           0        1.729000   -1.512000   -1.400000
     12          6           0        0.432000   -1.053000   -1.000000
     13          1           0        0.186000   -0.008000   -0.890000
     14         16           0        2.969000   -0.629000   -2.227000
     15          6           0        3.562000   -2.105000   -2.994000
     16          6           0        2.782000   -3.265000   -2.627000
     17          1           0        4.297000   -2.090000   -3.786000
     18          1           0        2.810000   -4.193000   -3.191000
     19          8           0       -2.400000    0.490000   -0.720000
     20          1           0       -2.920000    1.520000   -0.760000
 ---------------------------------------------------------------------
                    Distance matrix (angstroms):
                    1          2          3          4          5
     1  C    0.000000
     2  C    1.438923   0.000000
     3  C    2.417147   1.460034   0.000000
     4  C    1.436141   2.395871   2.567509   0.000000
     5  H    1.078425   2.234346   3.442354   2.212261   0.000000
     6  S    2.636759   2.660639   1.796970   1.739253   3.670218
     7  H    2.234480   3.422397   3.630000   1.079907   2.631406
     8  C    3.845335   2.671872   1.454991   3.969219   4.831708
     9  S    5.172409   4.234219   2.842297   4.888481   6.220412
    10  C    6.376480   5.193593   3.970855   6.343877   7.368056
    11  C    6.098167   4.758805   3.818435   6.365452   6.991580
    12  C    4.758096   3.386112   2.628310   5.176919   5.609566
    13  H    4.687046   3.267296   2.981778   5.380322   5.383601
    14  S    7.531043   6.125025   5.384739   7.951823   8.334829
    15  C    8.326645   7.011672   6.020127   8.502089   9.227653
    16  C    7.675932   6.484941   5.299602   7.633616   8.653919
    17  H    9.293648   7.975970   7.021428   9.485517  10.174921
    18  H    8.170425   7.079987   5.835314   7.991481   9.169392
    19  O    2.665539   1.538376   2.578081   3.867790   3.007075
    20  H    3.219596   2.474571   3.696891   4.587603   3.172570
                    6          7          8          9         10
     6  S    0.000000
     7  H    2.501879   0.000000
     8  C    2.793224   5.001290   0.000000
     9  S    3.309775   5.770086   1.789852   0.000000
    10  C    4.863609   7.301461   2.548955   1.730526   0.000000
    11  C    5.135197   7.402320   2.409636   2.639878   1.440242
    12  C    4.186045   6.241909   1.464545   2.666005   2.390877
    13  H    4.705454   6.454742   2.250733   3.703453   3.403583
    14  S    6.808363   9.008454   4.035702   4.168638   2.646299
    15  C    7.135091   9.499669   4.592176   3.992171   2.367685
    16  C    6.130338   8.568287   3.899082   2.843047   1.425905
    17  H    8.126579  10.476762   5.614437   4.944430   3.391428
    18  H    6.431590   8.857806   4.532738   3.152035   2.225096
    19  O    4.115167   4.839773   3.211308   4.958255   5.459822
    20  H    5.122821   5.445099   4.351574   6.091119   6.511612
                   11         12         13         14         15
    11  C    0.000000
    12  C    1.432791   0.000000
    13  H    2.214264   1.079185   0.000000
    14  S    1.732402   2.849855   3.149333   0.000000
    15  C    2.500475   3.857414   4.496843   1.765931   0.000000
    16  C    2.384816   3.614218   4.512697   2.672726   1.445230
    17  H    3.552704   4.876001   5.442597   2.515668   1.080608
    18  H    3.400589   4.507213   5.449239   3.695494   2.228016
    19  O    4.638862   3.237201   2.638996   5.687651   6.888436
    20  H    5.587112   4.232474   3.463946   6.438215   7.755495
                   16         17         18         19         20
    16  C    0.000000
    17  H    2.240342   0.000000
    18  H    1.086308   2.643445   0.000000
    19  O    6.677559   7.804266   7.428353   0.000000
    20  H    7.674289   8.618229   8.448729   1.154513   0.000000
 Stoichiometry    C10H6OS3
 Framework group  C1[X(C10H6OS3)]
 Deg. of freedom    54
 Full point group                 C1      NOp   1
 Largest Abelian subgroup         C1      NOp   1
 Largest concise Abelian subgroup C1      NOp   1
                         Standard orientation:                         
 ---------------------------------------------------------------------
 Center     Atomic      Atomic             Coordinates (Angstroms)
 Number     Number       Type             X           Y           Z
 ---------------------------------------------------------------------
      1          6           0        3.992618    0.839974    0.313750
      2          6           0        2.600695    1.201039    0.261952
      3          6           0        1.728530    0.068024   -0.033524
      4          6           0        4.217882   -0.554471    0.054366
      5          1           0        4.795690    1.529772    0.519307
      6         16           0        2.731502   -1.408858   -0.238375
      7          1           0        5.187093   -1.030736    0.055730
      8          6           0        0.284935   -0.063455   -0.159014
      9         16           0       -0.552377   -1.621277    0.116066
     10          6           0       -2.109085   -0.937326   -0.205787
     11          6           0       -2.040067    0.471333   -0.497705
     12          6           0       -0.700398    0.977912   -0.458293
     13          1           0       -0.468874    2.031535   -0.488542
     14         16           0       -3.511374    1.305333   -0.122316
     15          6           0       -4.268763   -0.195135    0.419416
     16          6           0       -3.371698   -1.324852    0.331649
     17          1           0       -5.220844   -0.210673    0.930311
     18          1           0       -3.548399   -2.256640    0.861377
     19          8           0        2.013442    2.620888    0.186047
     20          1           0        2.455900    3.668223    0.386597
 ---------------------------------------------------------------------
 Rotational constants (GHZ):           1.1726865           0.2794123           0.2291932
 Standard basis: 6-311+G(d,p) (5D, 7F)
 There are   382 symmetry adapted cartesian basis functions of A   symmetry.
 There are   368 symmetry adapted basis functions of A   symmetry.
   368 basis functions,   594 primitive gaussians,   382 cartesian basis functions
    61 alpha electrons       61 beta electrons
       nuclear repulsion energy      1104.5987555609 Hartrees.
 NAtoms=   20 NActive=   20 NUniq=   20 SFac= 1.00D+00 NAtFMM=   60 NAOKFM=F Big=F
 Integral buffers will be    131072 words long.
 Raffenetti 2 integral format.
 Two-electron integral symmetry is turned on.
 Nuclear repulsion after empirical dispersion term =     1104.5887244464 Hartrees.
 One-electron integrals computed using PRISM.
 NBasis=   368 RedAO= T EigKep=  2.75D-06  NBF=   368
 NBsUse=   367 1.00D-06 EigRej=  4.95D-07 NBFU=   367
 ExpMin= 4.05D-02 ExpMax= 9.34D+04 ExpMxC= 3.17D+03 IAcc=3 IRadAn=         5 AccDes= 0.00D+00
 Harris functional with IExCor= 4639 and IRadAn=       5 diagonalized for initial guess.
 HarFok:  IExCor= 4639 AccDes= 0.00D+00 IRadAn=         5 IDoV= 1 UseB2=F ITyADJ=14
 ICtDFT=  3500011 ScaDFX=  1.000000  1.000000  1.000000  1.000000
 FoFCou: FMM=F IPFlag=           0 FMFlag=      100000 FMFlg1=           0
         NFxFlg=           0 DoJE=T BraDBF=F KetDBF=T FulRan=T
         wScrn=  0.000000 ICntrl=       500 IOpCl=  0 I1Cent=   200000004 NGrid=           0
         NMat0=    1 NMatS0=      1 NMatT0=    0 NMatD0=    1 NMtDS0=    0 NMtDT0=    0
 Petite list used in FoFCou.
 Requested convergence on RMS density matrix=1.00D-08 within 128 cycles.
 Requested convergence on MAX density matrix=1.00D-06.
 Requested convergence on             energy=1.00D-06.
 No special actions if energy rises.
 SCF Done:  E(RwB97XD) =  -1654.30173386     A.U. after   18 cycles
            NFock= 18  Conv=0.72D-08     -V/T= 2.0030

 **********************************************************************

            Population analysis using the SCF Density.

 **********************************************************************

 Orbital symmetries:
       Occupied  (A) (A) (A) (A) (A) (A) (A) (A) (A) (A) (A) (A)
                 (A) (A) (A) (A) (A) (A) (A) (A) (A) (A) (A) (A)
                 (A) (A) (A) (A) (A) (A) (A) (A) (A) (A) (A) (A)
                 (A) (A) (A) (A) (A) (A) (A) (A) (A) (A) (A) (A)
                 (A) (A) (A) (A) (A) (A) (A) (A) (A) (A) (A) (A)
                 (A)
       Virtual   (A) (A) (A) (A) (A) (A) (A) (A) (A) (A) (A) (A)
                 (A) (A) (A) (A) (A) (A) (A) (A) (A) (A) (A) (A)
                 (A) (A) (A) (A) (A) (A) (A) (A) (A) (A) (A) (A)
                 (A) (A) (A) (A) (A) (A) (A) (A) (A) (A) (A) (A)
                 (A) (A) (A) (A) (A) (A) (A) (A) (A) (A) (A) (A)
                 (A) (A) (A) (A) (A) (A) (A) (A) (A) (A) (A) (A)
                 (A) (A) (A) (A) (A) (A) (A) (A) (A) (A) (A) (A)
                 (A) (A) (A) (A) (A) (A) (A) (A) (A) (A) (A) (A)
                 (A) (A) (A) (A) (A) (A) (A) (A) (A) (A) (A) (A)
                 (A) (A) (A) (A) (A) (A) (A) (A) (A) (A) (A) (A)
                 (A) (A) (A) (A) (A) (A) (A) (A) (A) (A) (A) (A)
                 (A) (A) (A) (A) (A) (A) (A) (A) (A) (A) (A) (A)
                 (A) (A) (A) (A) (A) (A) (A) (A) (A) (A) (A) (A)
                 (A) (A) (A) (A) (A) (A) (A) (A) (A) (A) (A) (A)
                 (A) (A) (A) (A) (A) (A) (A) (A) (A) (A) (A) (A)
                 (A) (A) (A) (A) (A) (A) (A) (A) (A) (A) (A) (A)
                 (A) (A) (A) (A) (A) (A) (A) (A) (A) (A) (A) (A)
                 (A) (A) (A) (A) (A) (A) (A) (A) (A) (A) (A) (A)
                 (A) (A) (A) (A) (A) (A) (A) (A) (A) (A) (A) (A)
                 (A) (A) (A) (A) (A) (A) (A) (A) (A) (A) (A) (A)
                 (A) (A) (A) (A) (A) (A) (A) (A) (A) (A) (A) (A)
                 (A) (A) (A) (A) (A) (A) (A) (A) (A) (A) (A) (A)
                 (A) (A) (A) (A) (A) (A) (A) (A) (A) (A) (A) (A)
                 (A) (A) (A) (A) (A) (A) (A) (A) (A) (A) (A) (A)
                 (A) (A) (A) (A) (A) (A) (A) (A) (A) (A) (A) (A)
                 (A) (A) (A) (A) (A) (A)
 The electronic state is 1-A.
 Alpha  occ. eigenvalues --  -89.06556 -89.05621 -89.05489 -19.28637 -10.38997
 Alpha  occ. eigenvalues --  -10.35543 -10.35224 -10.33916 -10.33416 -10.33250
 Alpha  occ. eigenvalues --  -10.33154 -10.31902 -10.31524 -10.31260  -8.10428
 Alpha  occ. eigenvalues --   -8.09562  -8.09445  -6.05278  -6.04904  -6.04521
 Alpha  occ. eigenvalues --   -6.04413  -6.04314  -6.04050  -6.03941  -6.03629
 Alpha  occ. eigenvalues --   -6.03481  -1.08362  -1.00517  -0.97915  -0.93442
 Alpha  occ. eigenvalues --   -0.86995  -0.85212  -0.83679  -0.80384  -0.78207
 Alpha  occ. eigenvalues --   -0.70948  -0.67403  -0.66412  -0.62945  -0.62056
 Alpha  occ. eigenvalues --   -0.60057  -0.57430  -0.54228  -0.52982  -0.51299
 Alpha  occ. eigenvalues --   -0.50547  -0.48793  -0.47901  -0.47555  -0.46581
 Alpha  occ. eigenvalues --   -0.45440  -0.44150  -0.42691  -0.42475  -0.42008
 Alpha  occ. eigenvalues --   -0.41366  -0.37101  -0.33749  -0.32685  -0.30470
 Alpha  occ. eigenvalues --   -0.25997
 Alpha virt. eigenvalues --   -0.01308   0.01996   0.03830   0.05113   0.06080
 Alpha virt. eigenvalues --    0.06235   0.06936   0.07321   0.07623   0.08148
 Alpha virt. eigenvalues --    0.08570   0.09213   0.09671   0.09889   0.10152
 Alpha virt. eigenvalues --    0.10801   0.11055   0.11936   0.12454   0.12754
 Alpha virt. eigenvalues --    0.12965   0.13586   0.14248   0.14485   0.14642
 Alpha virt. eigenvalues --    0.15315   0.15601   0.16176   0.17093   0.17527
 Alpha virt. eigenvalues --    0.17725   0.18114   0.18794   0.18952   0.19540
 Alpha virt. eigenvalues --    0.19878   0.20440   0.20998   0.21092   0.21394
 Alpha virt. eigenvalues --    0.22271   0.22584   0.22661   0.23268   0.23547
 Alpha virt. eigenvalues --    0.24272   0.24660   0.24986   0.25343   0.25749
 Alpha virt. eigenvalues --    0.26184   0.26448   0.26795   0.26843   0.27526
 Alpha virt. eigenvalues --    0.27677   0.27887   0.28628   0.28867   0.29134
 Alpha virt. eigenvalues --    0.29835   0.30620   0.30938   0.31475   0.32017
 Alpha virt. eigenvalues --    0.32144   0.32566   0.33519   0.33999   0.35197
 Alpha virt. eigenvalues --    0.35971   0.36862   0.37619   0.38022   0.38592
 Alpha virt. eigenvalues --    0.39062   0.39726   0.40814   0.41968   0.42285
 Alpha virt. eigenvalues --    0.43201   0.43599   0.44779   0.46235   0.47333
 Alpha virt. eigenvalues --    0.48287   0.48828   0.50084   0.50988   0.52040
 Alpha virt. eigenvalues --    0.53106   0.54263   0.56356   0.58596   0.59341
 Alpha virt. eigenvalues --    0.61576   0.63031   0.63293   0.63764   0.65108
 Alpha virt. eigenvalues --    0.65475   0.66003   0.67113   0.68780   0.69024
 Alpha virt. eigenvalues --    0.69696   0.69824   0.71859   0.72277   0.73396
 Alpha virt. eigenvalues --    0.74491   0.75815   0.77383   0.77694   0.78500
 Alpha virt. eigenvalues --    0.78965   0.79757   0.80210   0.81310   0.82037
 Alpha virt. eigenvalues --    0.82513   0.82822   0.83760   0.84669   0.86021
 Alpha virt. eigenvalues --    0.86312   0.87830   0.88194   0.88960   0.89500
 Alpha virt. eigenvalues --    0.90260   0.90563   0.91901   0.93256   0.93783
 Alpha virt. eigenvalues --    0.95683   0.96442   0.97575   0.98215   1.00011
 Alpha virt. eigenvalues --    1.00879   1.02145   1.02797   1.03824   1.05441
 Alpha virt. eigenvalues --    1.06491   1.07591   1.07771   1.08823   1.10434
 Alpha virt. eigenvalues --    1.11229   1.12455   1.13395   1.14549   1.18051
 Alpha virt. eigenvalues --    1.19016   1.20856   1.23177   1.24416   1.26936
 Alpha virt. eigenvalues --    1.29729   1.33182   1.35556   1.37485   1.39596
 Alpha virt. eigenvalues --    1.41524   1.42381   1.43811   1.46972   1.48455
 Alpha virt. eigenvalues --    1.52400   1.53973   1.57220   1.58185   1.60579
 Alpha virt. eigenvalues --    1.61661   1.62506   1.65095   1.66314   1.66847
 Alpha virt. eigenvalues --    1.69216   1.70429   1.72554   1.73356   1.74300
 Alpha virt. eigenvalues --    1.75932   1.77298   1.78190   1.79188   1.81393
 Alpha virt. eigenvalues --    1.81978   1.83390   1.84128   1.86046   1.87234
 Alpha virt. eigenvalues --    1.88351   1.89377   1.90164   1.93299   1.94218
 Alpha virt. eigenvalues --    1.95735   1.97114   1.97786   2.00028   2.02141
 Alpha virt. eigenvalues --    2.03160   2.03736   2.06591   2.08538   2.09097
 Alpha virt. eigenvalues --    2.09963   2.10766   2.13083   2.15114   2.15916
 Alpha virt. eigenvalues --    2.17694   2.19276   2.19829   2.21612   2.22967
 Alpha virt. eigenvalues --    2.24192   2.27659   2.31817   2.37796   2.39453
 Alpha virt. eigenvalues --    2.45419   2.46531   2.49943   2.55415   2.56723
 Alpha virt. eigenvalues --    2.62203   2.63026   2.65096   2.71041   2.74579
 Alpha virt. eigenvalues --    2.76238   2.77450   2.79341   2.80470   2.81914
 Alpha virt. eigenvalues --    2.82247   2.83689   2.85610   2.86875   2.89928
 Alpha virt. eigenvalues --    2.91370   2.94725   2.97874   3.01855   3.03197
 Alpha virt. eigenvalues --    3.04418   3.07004   3.08840   3.12159   3.13232
 Alpha virt. eigenvalues --    3.14775   3.15557   3.18805   3.23267   3.29501
 Alpha virt. eigenvalues --    3.30713   3.35503   3.38138   3.43648   3.46484
 Alpha virt. eigenvalues --    3.49950   3.56790   3.64543   3.73869   3.80783
 Alpha virt. eigenvalues --    3.97234   4.03834   4.10892   4.15268   4.22670
 Alpha virt. eigenvalues --    4.40636   4.60383   5.13291   5.30579   5.55060
 Alpha virt. eigenvalues --    8.03808   8.06412   8.10347  17.41318  17.42764
 Alpha virt. eigenvalues --   17.43922  17.56428  17.57514  17.59898  17.61471
 Alpha virt. eigenvalues --   17.65317  17.66671  23.57127  23.71747  23.83179
 Alpha virt. eigenvalues --   23.89730  23.92266  23.97880  24.00124  24.07750
 Alpha virt. eigenvalues --   24.08586  24.09410  49.99401 189.28174 189.30870
 Alpha virt. eigenvalues --  189.35607
          Condensed to atoms (all electrons):
               1          2          3          4          5          6
     1  C    8.015350  -3.402028   1.288055  -0.620558   0.451225   0.675091
     2  C   -3.402028  18.586082  -6.521906   2.321778  -0.127800  -3.196598
     3  C    1.288055  -6.521906  12.416701  -1.503642   0.055357   0.406179
     4  C   -0.620558   2.321778  -1.503642   6.133462  -0.024254  -0.451385
     5  H    0.451225  -0.127800   0.055357  -0.024254   0.479362   0.005454
     6  S    0.675091  -3.196598   0.406179  -0.451385   0.005454  18.092280
     7  H    0.036599  -0.047808   0.027866   0.379772  -0.003060  -0.023560
     8  C    0.209621  -1.252907  -0.857964  -0.234378  -0.003337   0.917760
     9  S   -0.098187   0.924908   0.686412   0.038355  -0.000480  -0.477788
    10  C   -0.086711   0.380390  -0.393481   0.046495  -0.000208  -0.208603
    11  C   -0.073885  -1.114481   0.599049  -0.048755   0.000669   0.380267
    12  C    0.211803  -1.573341  -0.322308  -0.041914   0.003107   0.416362
    13  H   -0.000209  -0.002362   0.018690  -0.000497   0.000003  -0.001735
    14  S   -0.012250  -0.049612   0.004838   0.000810   0.000002   0.017290
    15  C   -0.000457   0.004531  -0.011148  -0.000644   0.000001  -0.010209
    16  C   -0.004673   0.127959   0.136893   0.007358  -0.000011  -0.073303
    17  H   -0.000001  -0.000097  -0.000084   0.000000   0.000000   0.000053
    18  H   -0.000000  -0.000049  -0.000586  -0.000004   0.000000   0.000138
    19  O   -0.170756   0.579935  -0.257968   0.019030  -0.001240   0.010076
    20  H   -0.055418  -0.052153   0.088176  -0.007561  -0.000164  -0.003199
               7          8          9         10         11         12
     1  C    0.036599   0.209621  -0.098187  -0.086711  -0.073885   0.211803
     2  C   -0.047808  -1.252907   0.924908   0.380390  -1.114481  -1.573341
     3  C    0.027866  -0.857964   0.686412  -0.393481   0.599049  -0.322308
     4  C    0.379772  -0.234378   0.038355   0.046495  -0.048755  -0.041914
     5  H   -0.003060  -0.003337  -0.000480  -0.000208   0.000669   0.003107
     6  S   -0.023560   0.917760  -0.477788  -0.208603   0.380267   0.416362
     7  H    0.436923  -0.002068  -0.000414  -0.000060  -0.000136  -0.000079
     8  C   -0.002068  10.998022  -0.062174  -1.387547   1.411226  -3.461439
     9  S   -0.000414  -0.062174  18.241911  -1.061657   1.040263  -2.993449
    10  C   -0.000060  -1.387547  -1.061657  13.318673  -4.933403   1.427149
    11  C   -0.000136   1.411226   1.040263  -4.933403  14.755600  -4.798015
    12  C   -0.000079  -3.461439  -2.993449   1.427149  -4.798015  16.195257
    13  H    0.000000   0.101341   0.007406  -0.050097   0.059954   0.229778
    14  S   -0.000000  -0.408407   0.113361   1.024129  -0.779679  -0.013825
    15  C    0.000000   0.073260   0.013047   0.695833  -0.332530  -0.460380
    16  C   -0.000011  -0.071102   0.240406  -3.023282  -0.113547   0.586489
    17  H    0.000000  -0.002970   0.000383  -0.025871   0.010297   0.018771
    18  H    0.000000   0.004311   0.010388   0.005406  -0.023262   0.001959
    19  O   -0.000093  -0.047303  -0.003959  -0.007626  -0.016467   0.040798
    20  H   -0.000004   0.025617   0.000549  -0.000659   0.009038  -0.012802
              13         14         15         16         17         18
     1  C   -0.000209  -0.012250  -0.000457  -0.004673  -0.000001  -0.000000
     2  C   -0.002362  -0.049612   0.004531   0.127959  -0.000097  -0.000049
     3  C    0.018690   0.004838  -0.011148   0.136893  -0.000084  -0.000586
     4  C   -0.000497   0.000810  -0.000644   0.007358   0.000000  -0.000004
     5  H    0.000003   0.000002   0.000001  -0.000011   0.000000   0.000000
     6  S   -0.001735   0.017290  -0.010209  -0.073303   0.000053   0.000138
     7  H    0.000000  -0.000000   0.000000  -0.000011   0.000000   0.000000
     8  C    0.101341  -0.408407   0.073260  -0.071102  -0.002970   0.004311
     9  S    0.007406   0.113361   0.013047   0.240406   0.000383   0.010388
    10  C   -0.050097   1.024129   0.695833  -3.023282  -0.025871   0.005406
    11  C    0.059954  -0.779679  -0.332530  -0.113547   0.010297  -0.023262
    12  C    0.229778  -0.013825  -0.460380   0.586489   0.018771   0.001959
    13  H    0.452257  -0.000281   0.001178  -0.007069  -0.000004   0.000006
    14  S   -0.000281  16.603632   0.439931  -0.733721  -0.024627  -0.001066
    15  C    0.001178   0.439931   5.684652  -0.163928   0.368811   0.009151
    16  C   -0.007069  -0.733721  -0.163928   8.970123   0.017877   0.352451
    17  H   -0.000004  -0.024627   0.368811   0.017877   0.439557  -0.002605
    18  H    0.000006  -0.001066   0.009151   0.352451  -0.002605   0.476130
    19  O   -0.001055   0.000590  -0.000316  -0.000072  -0.000000   0.000000
    20  H    0.000499   0.000068   0.000017  -0.000034  -0.000000   0.000000
              19         20
     1  C   -0.170756  -0.055418
     2  C    0.579935  -0.052153
     3  C   -0.257968   0.088176
     4  C    0.019030  -0.007561
     5  H   -0.001240  -0.000164
     6  S    0.010076  -0.003199
     7  H   -0.000093  -0.000004
     8  C   -0.047303   0.025617
     9  S   -0.003959   0.000549
    10  C   -0.007626  -0.000659
    11  C   -0.016467   0.009038
    12  C    0.040798  -0.012802
    13  H   -0.001055   0.000499
    14  S    0.000590   0.000068
    15  C   -0.000316   0.000017
    16  C   -0.000072  -0.000034
    17  H   -0.000000  -0.000000
    18  H    0.000000   0.000000
    19  O    8.055989   0.232057
    20  H    0.232057   0.457350
 Mulliken charges:
               1
     1  C   -0.362612
     2  C    0.415558
     3  C    0.140869
     4  C   -0.013470
     5  H    0.165373
     6  S   -0.474570
     7  H    0.196131
     8  C    0.050438
     9  S   -0.619283
    10  C    0.281131
    11  C   -0.032205
    12  C    0.546078
    13  H    0.192198
    14  S   -0.181182
    15  C   -0.310798
    16  C   -0.248801
    17  H    0.200510
    18  H    0.167632
    19  O   -0.431620
    20  H    0.318622
 Sum of Mulliken charges =  -0.00000
 Mulliken charges with hydrogens summed into heavy atoms:
               1
     1  C   -0.197239
     2  C    0.415558
     3  C    0.140869
     4  C    0.182661
     6  S   -0.474570
     8  C    0.050438
     9  S   -0.619283
    10  C    0.281131
    11  C   -0.032205
    12  C    0.738276
    14  S   -0.181182
    15  C   -0.110288
    16  C   -0.081169
    19  O   -0.112998
 Electronic spatial extent (au):  <R**2>=           4397.3155
 Charge=              0.0000 electrons
 Dipole moment (field-independent basis, Debye):
    X=              1.8241    Y=              1.2488    Z=              1.4485  Tot=              2.6429
 Quadrupole moment (field-independent basis, Debye-Ang):
   XX=            -81.1043   YY=            -89.2505   ZZ=           -108.3590
   XY=              6.6699   XZ=             -3.0331   YZ=              0.2037
 Traceless Quadrupole moment (field-independent basis, Debye-Ang):
   XX=             11.8003   YY=              3.6541   ZZ=            -15.4544
   XY=              6.6699   XZ=             -3.0331   YZ=              0.2037
 Octapole moment (field-independent basis, Debye-Ang**2):
  XXX=             56.1580  YYY=             56.1538  ZZZ=              2.2358  XYY=             33.8898
  XXY=             11.5701  XXZ=             35.0529  XZZ=             -3.4894  YZZ=              1.6761
  YYZ=             10.8260  XYZ=             13.9287
 Hexadecapole moment (field-independent basis, Debye-Ang**3):
 XXXX=          -4138.0677 YYYY=           -882.5928 ZZZZ=           -189.0685 XXXY=             42.1895
 XXXZ=           -101.8873 YYYX=            160.6164 YYYZ=             18.8539 ZZZX=             -9.6998
 ZZZY=              1.1046 XXYY=           -847.3811 XXZZ=           -882.7240 YYZZ=           -225.8852
 XXYZ=             11.8930 YYXZ=              7.0966 ZZXY=              5.8489
 N-N= 1.104588724446D+03 E-N=-6.119280754106D+03  KE= 1.649272889393D+03
 Calling FoFJK, ICntrl=      2127 FMM=F ISym2X=0 I1Cent= 0 IOpClX= 0 NMat=1 NMatS=1 NMatT=0.
 ***** Axes restored to original set *****
 -------------------------------------------------------------------
 Center     Atomic                   Forces (Hartrees/Bohr)
 Number     Number              X              Y              Z
 -------------------------------------------------------------------
      1        6           0.018074796   -0.045581128    0.006082512
      2        6           0.032230240    0.022162807    0.013599976
      3        6          -0.037503586    0.022201691    0.002151453
      4        6           0.015736699    0.056877877   -0.018659698
      5        1          -0.000463926    0.001820248    0.000582405
      6       16          -0.006380774    0.032713342   -0.006234247
      7        1           0.002795357   -0.003184324   -0.000186921
      8        6           0.049961159    0.045718146   -0.004325138
      9       16          -0.005908094    0.014321226    0.013551483
     10        6           0.005251206    0.038305758   -0.010583056
     11        6          -0.029750257   -0.031418190   -0.011474153
     12        6          -0.031138595   -0.049305643   -0.002264446
     13        1          -0.005143661   -0.000660773    0.006197488
     14       16           0.010489725   -0.021831709   -0.002302050
     15        6          -0.043509878   -0.043985219    0.019219387
     16        6           0.024501862    0.054464476   -0.017114617
     17        1           0.004266742    0.003060214    0.005009718
     18        1           0.006761613    0.000592975    0.006312118
     19        8          -0.034178189    0.015566361   -0.003627023
     20        1           0.023907561   -0.111838134    0.004064810
 -------------------------------------------------------------------
 Cartesian Forces:  Max     0.111838134 RMS     0.027832878

 GradGradGradGradGradGradGradGradGradGradGradGradGradGradGradGradGradGrad
 Berny optimization.
 FormGI is forming the generalized inverse of G from B-inverse, IUseBI=4.
 Internal  Forces:  Max     0.110685712 RMS     0.021779151
 Search for a local minimum.
 Step number   1 out of a maximum of  116
 All quantities printed in internal units (Hartrees-Bohrs-Radians)
 Mixed Optimization -- RFO/linear search
 Second derivative matrix not updated -- first step.
 ITU=  0
     Eigenvalues ---    0.00230   0.00994   0.01057   0.01221   0.01271
     Eigenvalues ---    0.01295   0.01362   0.01420   0.01458   0.01492
     Eigenvalues ---    0.01500   0.01592   0.01597   0.01769   0.02200
     Eigenvalues ---    0.02651   0.15080   0.15682   0.15734   0.15997
     Eigenvalues ---    0.16000   0.16000   0.18006   0.22444   0.22526
     Eigenvalues ---    0.23321   0.23979   0.24118   0.24633   0.24978
     Eigenvalues ---    0.24995   0.26145   0.26583   0.28307   0.28330
     Eigenvalues ---    0.28663   0.30910   0.31310   0.31531   0.34832
     Eigenvalues ---    0.35243   0.35872   0.35921   0.36006   0.36093
     Eigenvalues ---    0.36185   0.36334   0.37598   0.38279   0.38435
     Eigenvalues ---    0.39456   0.39679   0.406491000.000001000.00000
     Eigenvalues --- 1000.000001000.000001000.000001000.000001000.00000
     Eigenvalues --- 1000.000001000.000001000.000001000.000001000.00000
     Eigenvalues --- 1000.000001000.000001000.000001000.000001000.00000
     Eigenvalues --- 1000.000001000.000001000.000001000.000001000.00000
     Eigenvalues --- 1000.000001000.000001000.000001000.000001000.00000
     Eigenvalues --- 1000.000001000.000001000.000001000.000001000.00000
     Eigenvalues --- 1000.000001000.000001000.000001000.000001000.00000
     Eigenvalues --- 1000.000001000.000001000.000001000.000001000.00000
     Eigenvalues --- 1000.000001000.000001000.000001000.000001000.00000
     Eigenvalues --- 1000.000001000.000001000.000001000.000001000.00000
     Eigenvalues --- 1000.00000
 RFO step:  Lambda=-1.21567880D-01 EMin= 2.30000000D-03
 Linear search not attempted -- first point.
 Maximum step size (   0.300) exceeded in Quadratic search.
    -- Step size scaled by   0.559
 Iteration  1 RMS(Cart)=  0.06420999 RMS(Int)=  0.00146742
 Iteration  2 RMS(Cart)=  0.00153758 RMS(Int)=  0.00010293
 Iteration  3 RMS(Cart)=  0.00000887 RMS(Int)=  0.00010271
 Iteration  4 RMS(Cart)=  0.00000000 RMS(Int)=  0.00010271
 Iteration  1 RMS(Cart)=  0.00000059 RMS(Int)=  0.00000024
 Variable       Old X    -DE/DX   Delta X   Delta X   Delta X     New X
                                 (Linear)    (Quad)   (Total)
    R1        2.71917  -0.02572   0.00000  -0.02904  -0.02896   2.69022
    R2        2.71391  -0.06145   0.00000  -0.06625  -0.06624   2.64768
    R3        2.03793   0.00152   0.00000   0.00176   0.00176   2.03968
    R4        2.75906  -0.07191   0.00000  -0.08244  -0.08239   2.67668
    R5        2.90711  -0.09369   0.00000  -0.12838  -0.12838   2.77873
    R6        3.39578  -0.02966   0.00000  -0.04177  -0.04182   3.35396
    R7        2.74954  -0.01482   0.00000  -0.01666  -0.01666   2.73287
    R8        3.28671  -0.01681   0.00000  -0.02040  -0.02048   3.26624
    R9        2.04073  -0.00088   0.00000  -0.00102  -0.00102   2.03971
   R10        3.38233  -0.01804   0.00000  -0.02438  -0.02445   3.35788
   R11        2.76759  -0.07121   0.00000  -0.08224  -0.08227   2.68532
   R12        3.27022  -0.00571   0.00000  -0.00639  -0.00639   3.26383
   R13        2.72166  -0.03902   0.00000  -0.04326  -0.04311   2.67855
   R14        2.69457  -0.00356   0.00000  -0.00478  -0.00470   2.68987
   R15        2.70758  -0.01322   0.00000  -0.01522  -0.01517   2.69242
   R16        3.27377  -0.00460   0.00000  -0.00478  -0.00480   3.26896
   R17        2.03936   0.00116   0.00000   0.00135   0.00135   2.04071
   R18        3.33713  -0.01813   0.00000  -0.02372  -0.02382   3.31331
   R19        2.73109  -0.06547   0.00000  -0.07228  -0.07230   2.65879
   R20        2.04205  -0.00073   0.00000  -0.00085  -0.00085   2.04121
   R21        2.05282  -0.00361   0.00000  -0.00426  -0.00426   2.04856
   R22        2.18171  -0.11069   0.00000  -0.15301  -0.15301   2.02871
    A1        1.97020  -0.00350   0.00000  -0.00866  -0.00856   1.96164
    A2        2.17330   0.00077   0.00000   0.00240   0.00234   2.17564
    A3        2.13967   0.00273   0.00000   0.00629   0.00623   2.14591
    A4        1.97187   0.01554   0.00000   0.02149   0.02161   1.99348
    A5        2.21760  -0.00316   0.00000  -0.00265  -0.00275   2.21485
    A6        2.06941  -0.01154   0.00000  -0.01559  -0.01573   2.05368
    A7        1.90440  -0.00490   0.00000  -0.00704  -0.00701   1.89738
    A8        2.31891  -0.01196   0.00000  -0.01820  -0.01822   2.30069
    A9        2.05972   0.01686   0.00000   0.02520   0.02518   2.08490
   A10        1.95339  -0.00133   0.00000  -0.00179  -0.00183   1.95155
   A11        2.17580   0.00490   0.00000   0.00931   0.00933   2.18513
   A12        2.15384  -0.00356   0.00000  -0.00751  -0.00749   2.14636
   A13        1.62490  -0.00581   0.00000  -0.00397  -0.00419   1.62071
   A14        2.12886  -0.00150   0.00000  -0.00210  -0.00212   2.12674
   A15        2.24068  -0.00821   0.00000  -0.01221  -0.01224   2.22844
   A16        1.91298   0.00976   0.00000   0.01446   0.01449   1.92747
   A17        1.61906  -0.00765   0.00000  -0.00903  -0.00898   1.61008
   A18        1.96184  -0.01040   0.00000  -0.01359  -0.01378   1.94805
   A19        2.23830   0.00761   0.00000   0.01703   0.01676   2.25506
   A20        1.96562   0.00640   0.00000   0.00932   0.00941   1.97502
   A21        1.96605   0.00837   0.00000   0.01167   0.01167   1.97771
   A22        1.96734  -0.01367   0.00000  -0.01825  -0.01840   1.94894
   A23        2.23689   0.00892   0.00000   0.01928   0.01905   2.25594
   A24        1.96415  -0.00007   0.00000  -0.00350  -0.00339   1.96076
   A25        2.15988  -0.00569   0.00000  -0.00899  -0.00911   2.15077
   A26        2.14719   0.00633   0.00000   0.01489   0.01478   2.16197
   A27        1.59248   0.00090   0.00000   0.00306   0.00306   1.59554
   A28        1.95987   0.00168   0.00000   0.00165   0.00161   1.96148
   A29        2.13546  -0.00441   0.00000  -0.00702  -0.00714   2.12832
   A30        2.17044   0.00381   0.00000   0.00955   0.00946   2.17991
   A31        1.93914   0.00469   0.00000   0.00420   0.00430   1.94344
   A32        2.16633   0.00050   0.00000   0.00548   0.00527   2.17159
   A33        2.14114  -0.00330   0.00000  -0.00237  -0.00261   2.13853
   A34        2.32184  -0.06330   0.00000  -0.12575  -0.12575   2.19609
    D1        0.00683  -0.00085   0.00000  -0.00352  -0.00351   0.00333
    D2       -2.89394  -0.00369   0.00000  -0.01766  -0.01774  -2.91168
    D3       -3.13952   0.00038   0.00000   0.00203   0.00203  -3.13749
    D4        0.24290  -0.00246   0.00000  -0.01211  -0.01220   0.23069
    D5       -0.00671   0.00099   0.00000   0.00334   0.00328  -0.00343
    D6       -3.13020   0.00067   0.00000   0.00284   0.00282  -3.12737
    D7        3.13954  -0.00021   0.00000  -0.00207  -0.00214   3.13740
    D8        0.01605  -0.00053   0.00000  -0.00257  -0.00259   0.01346
    D9       -0.00388   0.00044   0.00000   0.00222   0.00221  -0.00167
   D10        3.11762   0.00042   0.00000  -0.00029  -0.00026   3.11736
   D11        2.91927   0.00387   0.00000   0.01645   0.01639   2.93566
   D12       -0.24242   0.00385   0.00000   0.01393   0.01393  -0.22849
   D13       -0.28016   0.00182   0.00000   0.00368   0.00359  -0.27656
   D14        3.11413  -0.00449   0.00000  -0.01574  -0.01565   3.09848
   D15        0.00006   0.00009   0.00000  -0.00032  -0.00031  -0.00025
   D16       -3.12486   0.00044   0.00000   0.00228   0.00232  -3.12254
   D17       -2.70537  -0.00131   0.00000   0.00000  -0.00000  -2.70537
   D18        0.39240   0.00055   0.00000   0.00496   0.00496   0.39736
   D19        0.41472  -0.00156   0.00000  -0.00303  -0.00303   0.41169
   D20       -2.77070   0.00030   0.00000   0.00192   0.00193  -2.76877
   D21        0.00376  -0.00057   0.00000  -0.00164  -0.00164   0.00211
   D22        3.12751  -0.00015   0.00000  -0.00095  -0.00100   3.12651
   D23        3.13748   0.00097   0.00000   0.00333   0.00334   3.14082
   D24        0.03235  -0.00022   0.00000  -0.00025  -0.00030   0.03205
   D25       -3.13833  -0.00161   0.00000  -0.00465  -0.00460   3.14026
   D26       -0.15823   0.00288   0.00000   0.01287   0.01283  -0.14540
   D27       -0.03620  -0.00011   0.00000  -0.00044  -0.00036  -0.03657
   D28        2.94390   0.00439   0.00000   0.01707   0.01706   2.96097
   D29       -0.02091   0.00096   0.00000   0.00154   0.00154  -0.01936
   D30       -2.61668  -0.00777   0.00000  -0.02703  -0.02704  -2.64372
   D31        0.00333  -0.00078   0.00000  -0.00159  -0.00156   0.00178
   D32       -2.68853  -0.01006   0.00000  -0.03054  -0.03018  -2.71871
   D33        2.68746   0.00794   0.00000   0.02627   0.02604   2.71350
   D34       -0.00441  -0.00134   0.00000  -0.00268  -0.00258  -0.00699
   D35        2.61416   0.00570   0.00000   0.02539   0.02564   2.63979
   D36       -0.24582  -0.00093   0.00000  -0.00164  -0.00153  -0.24734
   D37        0.01933   0.00119   0.00000   0.00253   0.00247   0.02181
   D38       -2.84064  -0.00545   0.00000  -0.02450  -0.02469  -2.86533
   D39        0.02181   0.00058   0.00000   0.00126   0.00120   0.02301
   D40       -2.95965  -0.00259   0.00000  -0.01357  -0.01379  -2.97344
   D41        2.62821   0.00444   0.00000   0.02330   0.02361   2.65182
   D42       -0.35325   0.00126   0.00000   0.00847   0.00862  -0.34463
   D43       -0.00899   0.00114   0.00000   0.00189   0.00184  -0.00715
   D44       -2.61507  -0.00818   0.00000  -0.02759  -0.02755  -2.64261
   D45        0.02008  -0.00033   0.00000  -0.00030  -0.00030   0.01978
   D46        2.97020   0.00602   0.00000   0.02367   0.02354   2.99374
   D47       -0.02601  -0.00030   0.00000  -0.00105  -0.00100  -0.02700
   D48        2.83873   0.00692   0.00000   0.02698   0.02702   2.86576
   D49       -2.97160  -0.00573   0.00000  -0.02342  -0.02349  -2.99509
   D50       -0.10687   0.00149   0.00000   0.00461   0.00453  -0.10233
         Item               Value     Threshold  Converged?
 Maximum Force            0.110686     0.000450     NO 
 RMS     Force            0.021882     0.000300     NO 
 Maximum Displacement     0.432541     0.001800     NO 
 RMS     Displacement     0.064354     0.001200     NO 
 Predicted change in Energy=-5.498385D-02
 GradGradGradGradGradGradGradGradGradGradGradGradGradGradGradGradGradGrad

                          Input orientation:                          
 ---------------------------------------------------------------------
 Center     Atomic      Atomic             Coordinates (Angstroms)
 Number     Number       Type             X           Y           Z
 ---------------------------------------------------------------------
      1          6           0       -4.198202   -1.330796   -0.202821
      2          6           0       -2.880157   -0.974164   -0.605575
      3          6           0       -1.964525   -2.054772   -0.619741
      4          6           0       -4.312627   -2.693321    0.102932
      5          1           0       -5.026902   -0.642479   -0.135900
      6         16           0       -2.813574   -3.527238   -0.108842
      7          1           0       -5.219881   -3.186355    0.417325
      8          6           0       -0.566891   -2.129727   -0.983632
      9         16           0        0.179269   -3.646210   -1.532218
     10          6           0        1.720773   -2.894002   -1.734634
     11          6           0        1.673354   -1.512990   -1.418947
     12          6           0        0.381549   -1.071899   -1.010735
     13          1           0        0.114710   -0.034233   -0.875717
     14         16           0        2.928979   -0.631634   -2.218344
     15          6           0        3.536581   -2.094274   -2.970448
     16          6           0        2.773461   -3.227110   -2.632971
     17          1           0        4.303518   -2.069839   -3.730683
     18          1           0        2.836497   -4.157987   -3.184936
     19          8           0       -2.334462    0.384921   -0.737102
     20          1           0       -2.908468    1.291109   -0.780010
 ---------------------------------------------------------------------
                    Distance matrix (angstroms):
                    1          2          3          4          5
     1  C    0.000000
     2  C    1.423601   0.000000
     3  C    2.384801   1.416438   0.000000
     4  C    1.401090   2.347223   2.538422   0.000000
     5  H    1.079354   2.222414   3.406880   2.184762   0.000000
     6  S    2.598150   2.601800   1.774840   1.728417   3.636123
     7  H    2.207149   3.378523   3.599073   1.079367   2.610479
     8  C    3.799260   2.613323   1.446174   3.940661   4.777265
     9  S    5.127444   4.166363   2.821549   4.874305   6.170602
    10  C    6.310652   5.111664   3.940649   6.310218   7.290846
    11  C    5.998943   4.656862   3.763831   6.288185   6.877313
    12  C    4.657668   3.288227   2.573515   5.089652   5.495551
    13  H    4.553578   3.150504   2.910554   5.256408   5.230054
    14  S    7.439615   6.038577   5.341090   7.879070   8.223913
    15  C    8.250425   6.929776   5.982437   8.450716   9.136499
    16  C    7.622710   6.414787   5.279771   7.614640   8.588443
    17  H    9.234242   7.910246   6.997610   9.451100  10.100325
    18  H    8.146963   7.033489   5.835542   8.004080   9.137202
    19  O    2.588951   1.470440   2.470371   3.754247   2.943846
    20  H    2.978414   2.272156   3.480178   4.315894   2.939627
                    6          7          8          9         10
     6  S    0.000000
     7  H    2.486638   0.000000
     8  C    2.786733   4.972873   0.000000
     9  S    3.316212   5.758733   1.776913   0.000000
    10  C    4.858445   7.272488   2.526168   1.727143   0.000000
    11  C    5.089802   7.327259   2.364013   2.606865   1.417428
    12  C    4.129275   6.155184   1.421011   2.634376   2.374365
    13  H    4.622124   6.329746   2.206200   3.671721   3.390495
    14  S    6.768415   8.937409   3.998738   4.137553   2.609990
    15  C    7.111022   9.452263   4.559295   3.968444   2.337511
    16  C    6.138099   8.555669   3.883622   2.849058   1.423419
    17  H    8.117557  10.447378   5.592026   4.932304   3.366605
    18  H    6.464016   8.878377   4.532397   3.170844   2.223932
    19  O    3.991146   4.734169   3.083592   4.816749   5.309552
    20  H    4.865793   5.179182   4.150490   5.871716   6.313187
                   11         12         13         14         15
    11  C    0.000000
    12  C    1.424765   0.000000
    13  H    2.216120   1.079900   0.000000
    14  S    1.729861   2.853341   3.174846   0.000000
    15  C    2.493324   3.852266   4.510085   1.753327   0.000000
    16  C    2.371139   3.605250   4.511248   2.632983   1.406969
    17  H    3.545697   4.876047   5.462658   2.498991   1.080160
    18  H    3.386389   4.503094   5.453986   3.657597   2.189756
    19  O    4.486598   3.094175   2.488644   5.561590   6.753028
    20  H    5.409648   4.057247   3.302317   6.312015   7.602466
                   16         17         18         19         20
    16  C    0.000000
    17  H    2.210277   0.000000
    18  H    1.084053   2.609665   0.000000
    19  O    6.536969   7.684409   7.305390   0.000000
    20  H    7.492135   8.486175   8.275321   1.073546   0.000000
 Stoichiometry    C10H6OS3
 Framework group  C1[X(C10H6OS3)]
 Deg. of freedom    54
 Full point group                 C1      NOp   1
 Largest Abelian subgroup         C1      NOp   1
 Largest concise Abelian subgroup C1      NOp   1
                         Standard orientation:                         
 ---------------------------------------------------------------------
 Center     Atomic      Atomic             Coordinates (Angstroms)
 Number     Number       Type             X           Y           Z
 ---------------------------------------------------------------------
      1          6           0        3.937561    0.867207    0.300039
      2          6           0        2.548176    1.173232    0.249099
      3          6           0        1.718369    0.061300   -0.036079
      4          6           0        4.195372   -0.487032    0.049792
      5          1           0        4.716859    1.584668    0.507284
      6         16           0        2.740999   -1.374946   -0.239747
      7          1           0        5.172929   -0.944652    0.049963
      8          6           0        0.282301   -0.066314   -0.149387
      9         16           0       -0.546280   -1.613853    0.126288
     10          6           0       -2.095635   -0.918078   -0.187433
     11          6           0       -1.998095    0.467164   -0.471497
     12          6           0       -0.660851    0.957476   -0.435028
     13          1           0       -0.402635    2.005239   -0.476268
     14         16           0       -3.477399    1.295337   -0.127679
     15          6           0       -4.243646   -0.195828    0.385594
     16          6           0       -3.371274   -1.297588    0.317383
     17          1           0       -5.217352   -0.206549    0.853065
     18          1           0       -3.577263   -2.236159    0.819202
     19          8           0        1.940197    2.510946    0.193619
     20          1           0        2.435107    3.436043    0.421126
 ---------------------------------------------------------------------
 Rotational constants (GHZ):           1.2288790           0.2841457           0.2342080
 Standard basis: 6-311+G(d,p) (5D, 7F)
 There are   382 symmetry adapted cartesian basis functions of A   symmetry.
 There are   368 symmetry adapted basis functions of A   symmetry.
   368 basis functions,   594 primitive gaussians,   382 cartesian basis functions
    61 alpha electrons       61 beta electrons
       nuclear repulsion energy      1118.6226086549 Hartrees.
 NAtoms=   20 NActive=   20 NUniq=   20 SFac= 1.00D+00 NAtFMM=   60 NAOKFM=F Big=F
 Integral buffers will be    131072 words long.
 Raffenetti 2 integral format.
 Two-electron integral symmetry is turned on.
 Nuclear repulsion after empirical dispersion term =     1118.6124248732 Hartrees.
 One-electron integrals computed using PRISM.
 NBasis=   368 RedAO= T EigKep=  2.32D-06  NBF=   368
 NBsUse=   367 1.00D-06 EigRej=  4.37D-07 NBFU=   367
 Initial guess from the checkpoint file:  "/tmp/pbs.4762174[20].pbs/Gau-2827508.chk"
 B after Tr=     0.000000   -0.000000   -0.000000
         Rot=    0.999999   -0.000720    0.000712   -0.001303 Ang=  -0.19 deg.
 ExpMin= 4.05D-02 ExpMax= 9.34D+04 ExpMxC= 3.17D+03 IAcc=3 IRadAn=         5 AccDes= 0.00D+00
 Harris functional with IExCor= 4639 and IRadAn=       5 diagonalized for initial guess.
 HarFok:  IExCor= 4639 AccDes= 0.00D+00 IRadAn=         5 IDoV= 1 UseB2=F ITyADJ=14
 ICtDFT=  3500011 ScaDFX=  1.000000  1.000000  1.000000  1.000000
 FoFCou: FMM=F IPFlag=           0 FMFlag=      100000 FMFlg1=           0
         NFxFlg=           0 DoJE=T BraDBF=F KetDBF=T FulRan=T
         wScrn=  0.000000 ICntrl=       500 IOpCl=  0 I1Cent=   200000004 NGrid=           0
         NMat0=    1 NMatS0=      1 NMatT0=    0 NMatD0=    1 NMtDS0=    0 NMtDT0=    0
 Petite list used in FoFCou.
 Requested convergence on RMS density matrix=1.00D-08 within 128 cycles.
 Requested convergence on MAX density matrix=1.00D-06.
 Requested convergence on             energy=1.00D-06.
 No special actions if energy rises.
 SCF Done:  E(RwB97XD) =  -1654.35990359     A.U. after   16 cycles
            NFock= 16  Conv=0.46D-08     -V/T= 2.0026
 Calling FoFJK, ICntrl=      2127 FMM=F ISym2X=0 I1Cent= 0 IOpClX= 0 NMat=1 NMatS=1 NMatT=0.
 ***** Axes restored to original set *****
 -------------------------------------------------------------------
 Center     Atomic                   Forces (Hartrees/Bohr)
 Number     Number              X              Y              Z
 -------------------------------------------------------------------
      1        6           0.005557618   -0.028698239    0.004336624
      2        6           0.032515310    0.033841207    0.009510445
      3        6          -0.030437569    0.007487714    0.001490440
      4        6           0.009363110    0.034607503   -0.012310702
      5        1          -0.000118808    0.001802468    0.000568281
      6       16          -0.003179873    0.017974809   -0.004068615
      7        1           0.002298797   -0.003315855    0.000101265
      8        6           0.036110003    0.030724884   -0.002696690
      9       16          -0.005883576    0.006599138    0.011397097
     10        6           0.000991682    0.026374074   -0.008149940
     11        6          -0.017021522   -0.021737677   -0.012510450
     12        6          -0.021488230   -0.029407083   -0.000632060
     13        1          -0.002763961   -0.001156155    0.005599114
     14       16           0.010298804   -0.011062990   -0.000269989
     15        6          -0.028810850   -0.028460120    0.010869699
     16        6           0.015950856    0.033764475   -0.013134284
     17        1           0.003787487    0.002869956    0.004438290
     18        1           0.005385611   -0.000975644    0.006013704
     19        8          -0.037818741    0.013036169   -0.004500259
     20        1           0.025263850   -0.084268634    0.003948029
 -------------------------------------------------------------------
 Cartesian Forces:  Max     0.084268634 RMS     0.020210299

 GradGradGradGradGradGradGradGradGradGradGradGradGradGradGradGradGradGrad
 Berny optimization.
 Using GEDIIS/GDIIS optimizer.
 FormGI is forming the generalized inverse of G from B-inverse, IUseBI=4.
 Internal  Forces:  Max     0.084797658 RMS     0.014890081
 Search for a local minimum.
 Step number   2 out of a maximum of  116
 All quantities printed in internal units (Hartrees-Bohrs-Radians)
 Mixed Optimization -- RFO/linear search
 Update second derivatives using D2CorX and points    1    2
 DE= -5.82D-02 DEPred=-5.50D-02 R= 1.06D+00
 TightC=F SS=  1.41D+00  RLast= 3.14D-01 DXNew= 5.0454D-01 9.4262D-01
 Trust test= 1.06D+00 RLast= 3.14D-01 DXMaxT set to 5.05D-01
 ITU=  1  0
 Use linear search instead of GDIIS.
     Eigenvalues ---    0.00230   0.00995   0.01053   0.01218   0.01269
     Eigenvalues ---    0.01291   0.01345   0.01402   0.01460   0.01487
     Eigenvalues ---    0.01498   0.01592   0.01593   0.01740   0.02124
     Eigenvalues ---    0.02508   0.14632   0.15267   0.15752   0.15821
     Eigenvalues ---    0.16000   0.16019   0.18327   0.21055   0.22458
     Eigenvalues ---    0.22539   0.23408   0.24107   0.24385   0.24933
     Eigenvalues ---    0.25053   0.25481   0.26247   0.26654   0.28374
     Eigenvalues ---    0.28536   0.30886   0.31316   0.31509   0.34896
     Eigenvalues ---    0.35245   0.35921   0.36005   0.36085   0.36117
     Eigenvalues ---    0.36184   0.36462   0.37558   0.38197   0.39296
     Eigenvalues ---    0.39549   0.40552   0.435231000.000001000.00000
     Eigenvalues --- 1000.000001000.000001000.000001000.000001000.00000
     Eigenvalues --- 1000.000001000.000001000.000001000.000001000.00000
     Eigenvalues --- 1000.000001000.000001000.000001000.000001000.00000
     Eigenvalues --- 1000.000001000.000001000.000001000.000001000.00000
     Eigenvalues --- 1000.000001000.000001000.000001000.000001000.00000
     Eigenvalues --- 1000.000001000.000001000.000001000.000001000.00000
     Eigenvalues --- 1000.000001000.000001000.000001000.000001000.00000
     Eigenvalues --- 1000.000001000.000001000.000001000.000001000.00000
     Eigenvalues --- 1000.000001000.000001000.000001000.000001000.00000
     Eigenvalues --- 1000.000001000.000001000.000001000.000001000.00000
     Eigenvalues --- 1000.00000
 RFO step:  Lambda=-1.06108034D-02 EMin= 2.30045912D-03
 Quartic linear search produced a step of  1.46093.
 Iteration  1 RMS(Cart)=  0.09192628 RMS(Int)=  0.01887372
 Iteration  2 RMS(Cart)=  0.02260744 RMS(Int)=  0.00108561
 Iteration  3 RMS(Cart)=  0.00043289 RMS(Int)=  0.00102776
 Iteration  4 RMS(Cart)=  0.00000072 RMS(Int)=  0.00102776
 Iteration  1 RMS(Cart)=  0.00003428 RMS(Int)=  0.00001397
 Iteration  2 RMS(Cart)=  0.00001870 RMS(Int)=  0.00001561
 Iteration  3 RMS(Cart)=  0.00001020 RMS(Int)=  0.00001763
 Iteration  4 RMS(Cart)=  0.00000556 RMS(Int)=  0.00001897
 Iteration  5 RMS(Cart)=  0.00000303 RMS(Int)=  0.00001975
 Iteration  6 RMS(Cart)=  0.00000165 RMS(Int)=  0.00002019
 Iteration  7 RMS(Cart)=  0.00000090 RMS(Int)=  0.00002043
 Variable       Old X    -DE/DX   Delta X   Delta X   Delta X     New X
                                 (Linear)    (Quad)   (Total)
    R1        2.69022  -0.01022  -0.04230   0.03720  -0.00470   2.68552
    R2        2.64768  -0.03539  -0.09677   0.02158  -0.07529   2.57239
    R3        2.03968   0.00128   0.00256   0.00200   0.00456   2.04424
    R4        2.67668  -0.04088  -0.12036   0.03261  -0.08731   2.58937
    R5        2.77873  -0.07045  -0.18755  -0.07337  -0.26092   2.51781
    R6        3.35396  -0.01753  -0.06110   0.01769  -0.04350   3.31046
    R7        2.73287  -0.00395  -0.02434   0.03478   0.01043   2.74330
    R8        3.26624  -0.00983  -0.02991   0.00770  -0.02271   3.24352
    R9        2.03971  -0.00039  -0.00149   0.00115  -0.00034   2.03937
   R10        3.35788  -0.01134  -0.03572   0.00684  -0.02977   3.32811
   R11        2.68532  -0.04380  -0.12019   0.01331  -0.10739   2.57793
   R12        3.26383  -0.00086  -0.00934   0.01924   0.01009   3.27392
   R13        2.67855  -0.02398  -0.06299   0.00105  -0.06026   2.61829
   R14        2.68987  -0.00005  -0.00686   0.01228   0.00595   2.69582
   R15        2.69242  -0.00465  -0.02216   0.02163  -0.00003   2.69238
   R16        3.26896  -0.00054  -0.00701   0.01637   0.00940   3.27837
   R17        2.04071   0.00027   0.00197  -0.00312  -0.00114   2.03957
   R18        3.31331  -0.01107  -0.03480   0.00867  -0.02694   3.28637
   R19        2.65879  -0.03998  -0.10563   0.01185  -0.09416   2.56463
   R20        2.04121  -0.00037  -0.00124   0.00064  -0.00060   2.04061
   R21        2.04856  -0.00191  -0.00623   0.00275  -0.00348   2.04508
   R22        2.02871  -0.08480  -0.22353  -0.09993  -0.32346   1.70525
    A1        1.96164  -0.00169  -0.01250   0.00859  -0.00327   1.95838
    A2        2.17564  -0.00028   0.00341  -0.01051  -0.00745   2.16819
    A3        2.14591   0.00197   0.00911   0.00192   0.01069   2.15659
    A4        1.99348   0.00632   0.03157  -0.03234  -0.00170   1.99178
    A5        2.21485  -0.00426  -0.00401  -0.01605  -0.02305   2.19180
    A6        2.05368  -0.00123  -0.02298   0.06701   0.04152   2.09520
    A7        1.89738  -0.00052  -0.01025   0.02343   0.01395   1.91134
    A8        2.30069  -0.00966  -0.02662  -0.01453  -0.04153   2.25917
    A9        2.08490   0.01018   0.03679  -0.00879   0.02760   2.11250
   A10        1.95155  -0.00004  -0.00268   0.00796   0.00512   1.95667
   A11        2.18513   0.00412   0.01363   0.01201   0.02571   2.21084
   A12        2.14636  -0.00408  -0.01094  -0.02011  -0.03097   2.11538
   A13        1.62071  -0.00407  -0.00612  -0.00771  -0.01434   1.60637
   A14        2.12674  -0.00276  -0.00310  -0.01675  -0.01989   2.10685
   A15        2.22844  -0.00372  -0.01788   0.01623  -0.00169   2.22675
   A16        1.92747   0.00653   0.02117   0.00096   0.02203   1.94949
   A17        1.61008  -0.00474  -0.01312  -0.00227  -0.01477   1.59532
   A18        1.94805  -0.00628  -0.02014   0.00760  -0.01356   1.93449
   A19        2.25506   0.00592   0.02448   0.01946   0.04081   2.29587
   A20        1.97502   0.00345   0.01374  -0.00675   0.00689   1.98192
   A21        1.97771   0.00428   0.01704  -0.00793   0.00843   1.98615
   A22        1.94894  -0.00775  -0.02688   0.01548  -0.01275   1.93619
   A23        2.25594   0.00661   0.02783   0.01757   0.04196   2.29790
   A24        1.96076   0.00023  -0.00495   0.00259  -0.00149   1.95927
   A25        2.15077  -0.00363  -0.01331   0.00672  -0.00759   2.14318
   A26        2.16197   0.00389   0.02159  -0.00632   0.01428   2.17625
   A27        1.59554  -0.00042   0.00448  -0.01511  -0.00977   1.58577
   A28        1.96148   0.00220   0.00235   0.01386   0.01560   1.97709
   A29        2.12832  -0.00448  -0.01043  -0.01679  -0.02856   2.09976
   A30        2.17991   0.00316   0.01382   0.00962   0.02230   2.20220
   A31        1.94344   0.00253   0.00628  -0.00682   0.00025   1.94368
   A32        2.17159   0.00011   0.00769  -0.00399   0.00193   2.17352
   A33        2.13853  -0.00113  -0.00381   0.01730   0.01182   2.15035
   A34        2.19609  -0.04811  -0.18372  -0.05134  -0.23506   1.96103
    D1        0.00333  -0.00039  -0.00512   0.02476   0.01960   0.02293
    D2       -2.91168  -0.00473  -0.02592  -0.08186  -0.10570  -3.01738
    D3       -3.13749   0.00078   0.00297   0.02457   0.02700  -3.11049
    D4        0.23069  -0.00356  -0.01783  -0.08206  -0.09830   0.13239
    D5       -0.00343   0.00047   0.00479  -0.02063  -0.01549  -0.01892
    D6       -3.12737   0.00047   0.00413  -0.01163  -0.00755  -3.13493
    D7        3.13740  -0.00068  -0.00312  -0.02044  -0.02284   3.11456
    D8        0.01346  -0.00068  -0.00379  -0.01145  -0.01490  -0.00145
    D9       -0.00167   0.00016   0.00322  -0.01721  -0.01426  -0.01593
   D10        3.11736   0.00035  -0.00038  -0.01110  -0.01201   3.10536
   D11        2.93566   0.00353   0.02395   0.06881   0.09486   3.03052
   D12       -0.22849   0.00372   0.02035   0.07493   0.09711  -0.13138
   D13       -0.27656   0.00152   0.00525   0.06062   0.06605  -0.21051
   D14        3.09848  -0.00379  -0.02287  -0.03754  -0.06059   3.03789
   D15       -0.00025   0.00009  -0.00045   0.00453   0.00460   0.00435
   D16       -3.12254   0.00021   0.00338  -0.00055   0.00359  -3.11894
   D17       -2.70537  -0.00134  -0.00000   0.00000   0.00000  -2.70537
   D18        0.39736   0.00052   0.00724   0.01586   0.02323   0.42058
   D19        0.41169  -0.00128  -0.00443   0.00697   0.00220   0.41389
   D20       -2.76877   0.00058   0.00282   0.02283   0.02542  -2.74335
   D21        0.00211  -0.00031  -0.00240   0.00918   0.00644   0.00855
   D22        3.12651  -0.00021  -0.00145   0.00079  -0.00036   3.12615
   D23        3.14082   0.00092   0.00488  -0.00698  -0.00229   3.13852
   D24        0.03205  -0.00048  -0.00044  -0.02078  -0.02178   0.01027
   D25        3.14026  -0.00119  -0.00672   0.01230   0.00560  -3.13733
   D26       -0.14540   0.00281   0.01874   0.03386   0.05230  -0.09310
   D27       -0.03657   0.00035  -0.00053   0.02629   0.02636  -0.01021
   D28        2.96097   0.00435   0.02493   0.04785   0.07306   3.03402
   D29       -0.01936   0.00077   0.00226   0.00976   0.01186  -0.00750
   D30       -2.64372  -0.00663  -0.03950  -0.03417  -0.07447  -2.71819
   D31        0.00178  -0.00045  -0.00227   0.00370   0.00144   0.00322
   D32       -2.71871  -0.00837  -0.04409  -0.05003  -0.09121  -2.80992
   D33        2.71350   0.00706   0.03804   0.04771   0.08329   2.79679
   D34       -0.00699  -0.00086  -0.00378  -0.00603  -0.00936  -0.01635
   D35        2.63979   0.00582   0.03745   0.03488   0.07382   2.71361
   D36       -0.24734  -0.00042  -0.00223   0.00495   0.00380  -0.24355
   D37        0.02181   0.00059   0.00361  -0.01311  -0.00988   0.01192
   D38       -2.86533  -0.00565  -0.03607  -0.04304  -0.07990  -2.94523
   D39        0.02301   0.00007   0.00176  -0.01978  -0.01839   0.00462
   D40       -2.97344  -0.00324  -0.02014  -0.04277  -0.06399  -3.03743
   D41        2.65182   0.00524   0.03449   0.04314   0.07931   2.73114
   D42       -0.34463   0.00193   0.01260   0.02015   0.03371  -0.31091
   D43       -0.00715   0.00088   0.00269   0.01760   0.01979   0.01264
   D44       -2.64261  -0.00694  -0.04024  -0.03905  -0.08021  -2.72282
   D45        0.01978  -0.00046  -0.00044  -0.02522  -0.02589  -0.00611
   D46        2.99374   0.00534   0.03439   0.01726   0.05006   3.04380
   D47       -0.02700   0.00010  -0.00145   0.02600   0.02503  -0.00197
   D48        2.86576   0.00639   0.03948   0.05174   0.09231   2.95806
   D49       -2.99509  -0.00504  -0.03431  -0.01499  -0.05040  -3.04549
   D50       -0.10233   0.00125   0.00662   0.01076   0.01688  -0.08546
         Item               Value     Threshold  Converged?
 Maximum Force            0.084798     0.000450     NO 
 RMS     Force            0.014960     0.000300     NO 
 Maximum Displacement     0.768711     0.001800     NO 
 RMS     Displacement     0.102766     0.001200     NO 
 Predicted change in Energy=-5.819425D-02
 GradGradGradGradGradGradGradGradGradGradGradGradGradGradGradGradGradGrad

                          Input orientation:                          
 ---------------------------------------------------------------------
 Center     Atomic      Atomic             Coordinates (Angstroms)
 Number     Number       Type             X           Y           Z
 ---------------------------------------------------------------------
      1          6           0       -4.138390   -1.273962   -0.174899
      2          6           0       -2.812247   -0.960322   -0.578062
      3          6           0       -1.967406   -2.038589   -0.611745
      4          6           0       -4.286543   -2.593536    0.124725
      5          1           0       -4.943568   -0.553751   -0.118287
      6         16           0       -2.832330   -3.475606   -0.106021
      7          1           0       -5.192075   -3.083222    0.448556
      8          6           0       -0.572744   -2.105389   -1.009073
      9         16           0        0.125033   -3.613409   -1.592739
     10          6           0        1.668233   -2.860157   -1.822176
     11          6           0        1.619856   -1.520609   -1.471474
     12          6           0        0.341084   -1.092522   -1.011703
     13          1           0        0.081644   -0.070507   -0.781374
     14         16           0        2.944291   -0.647679   -2.173987
     15          6           0        3.524798   -2.095489   -2.942898
     16          6           0        2.762493   -3.186446   -2.677294
     17          1           0        4.359520   -2.052266   -3.626590
     18          1           0        2.875000   -4.128916   -3.197173
     19          8           0       -2.339201    0.265053   -0.801412
     20          1           0       -2.994446    0.884325   -0.839375
 ---------------------------------------------------------------------
                    Distance matrix (angstroms):
                    1          2          3          4          5
     1  C    0.000000
     2  C    1.421114   0.000000
     3  C    2.342789   1.370238   0.000000
     4  C    1.361250   2.309728   2.495746   0.000000
     5  H    1.081767   2.217932   3.362408   2.156725   0.000000
     6  S    2.560815   2.559273   1.751819   1.716399   3.604818
     7  H    2.184576   3.350258   3.551617   1.079188   2.604091
     8  C    3.755124   2.551926   1.451694   3.913578   4.722837
     9  S    5.065576   4.086081   2.796553   4.842708   6.101331
    10  C    6.240705   5.023136   3.918926   6.270635   7.206848
    11  C    5.907567   4.555837   3.725035   6.211648   6.770855
    12  C    4.560576   3.185753   2.526685   4.995942   5.386652
    13  H    4.429989   3.034421   2.846177   5.125207   5.091755
    14  S    7.385997   5.981844   5.338539   7.832968   8.151874
    15  C    8.189089   6.858513   5.966726   8.406867   9.059173
    16  C    7.585629   6.359256   5.287345   7.608663   8.535982
    17  H    9.205130   7.868933   7.008529   9.440325  10.054909
    18  H    8.153070   7.017444   5.873909   8.042394   9.131887
    19  O    2.449115   1.332367   2.341147   3.580698   2.814219
    20  H    2.531469   1.871952   3.106453   3.833343   2.527273
                    6          7          8          9         10
     6  S    0.000000
     7  H    2.455589   0.000000
     8  C    2.792621   4.941565   0.000000
     9  S    3.312901   5.720107   1.761159   0.000000
    10  C    4.855824   7.229786   2.500557   1.732483   0.000000
    11  C    5.050588   7.247805   2.315875   2.574688   1.385540
    12  C    4.070615   6.058968   1.364180   2.595987   2.354298
    13  H    4.532334   6.196877   2.149608   3.634880   3.373823
    14  S    6.755961   8.888760   3.981391   4.132992   2.578208
    15  C    7.096878   9.405395   4.530963   3.960482   2.299472
    16  C    6.164180   8.547324   3.882711   2.883532   1.426569
    17  H    8.132836  10.435644   5.584035   4.950212   3.339405
    18  H    6.523470   8.914176   4.557343   3.225256   2.226355
    19  O    3.836571   4.572992   2.963527   4.662737   5.183476
    20  H    4.424148   4.714845   3.851212   5.525244   6.060331
                   11         12         13         14         15
    11  C    0.000000
    12  C    1.424748   0.000000
    13  H    2.223765   1.079295   0.000000
    14  S    1.734837   2.885390   3.235313   0.000000
    15  C    2.474749   3.856357   4.541812   1.739071   0.000000
    16  C    2.352580   3.608591   4.526648   2.594553   1.357144
    17  H    3.526038   4.889434   5.506619   2.466940   1.079844
    18  H    3.369969   4.518484   5.487223   3.629149   2.149817
    19  O    4.394509   3.011837   2.444073   5.534648   6.674175
[...]
    20  H    7.433679   8.696580   8.281060   0.957769   0.000000
 Stoichiometry    C10H6OS3
 Framework group  C1[X(C10H6OS3)]
 Deg. of freedom    54
 Full point group                 C1      NOp   1
 Largest Abelian subgroup         C1      NOp   1
 Largest concise Abelian subgroup C1      NOp   1
                         Standard orientation:                         
 ---------------------------------------------------------------------
 Center     Atomic      Atomic             Coordinates (Angstroms)
 Number     Number       Type             X           Y           Z
 ---------------------------------------------------------------------
      1          6           0        3.914867    0.869482    0.110340
      2          6           0        2.517807    1.137411    0.179281
      3          6           0        1.733222    0.032389   -0.036543
      4          6           0        4.175161   -0.437374   -0.159264
      5          1           0        4.682043    1.620060    0.255924
      6         16           0        2.737198   -1.353675   -0.351271
      7          1           0        5.137937   -0.912850   -0.265988
      8          6           0        0.283410   -0.043750   -0.025287
      9         16           0       -0.524044   -1.564672    0.327162
     10          6           0       -2.076891   -0.819322    0.158321
     11          6           0       -1.947031    0.524568   -0.129220
     12          6           0       -0.603497    0.974559   -0.238280
     13          1           0       -0.294602    1.984621   -0.461389
     14         16           0       -3.501097    1.270982   -0.289966
     15          6           0       -4.291928   -0.241905    0.032750
     16          6           0       -3.425323   -1.266391    0.252472
     17          1           0       -5.370829   -0.282169    0.041650
     18          1           0       -3.734642   -2.279109    0.469184
     19          8           0        1.979876    2.360419    0.427120
     20          1           0        2.669382    2.965934    0.701444
 ---------------------------------------------------------------------
 Rotational constants (GHZ):           1.3112086           0.2825282           0.2361053

 **********************************************************************

            Population analysis using the SCF Density.

 **********************************************************************

 Orbital symmetries:
       Occupied  (A) (A) (A) (A) (A) (A) (A) (A) (A) (A) (A) (A)
                 (A) (A) (A) (A) (A) (A) (A) (A) (A) (A) (A) (A)
                 (A) (A) (A) (A) (A) (A) (A) (A) (A) (A) (A) (A)
                 (A) (A) (A) (A) (A) (A) (A) (A) (A) (A) (A) (A)
                 (A) (A) (A) (A) (A) (A) (A) (A) (A) (A) (A) (A)
                 (A)
       Virtual   (A) (A) (A) (A) (A) (A) (A) (A) (A) (A) (A) (A)
                 (A) (A) (A) (A) (A) (A) (A) (A) (A) (A) (A) (A)
                 (A) (A) (A) (A) (A) (A) (A) (A) (A) (A) (A) (A)
                 (A) (A) (A) (A) (A) (A) (A) (A) (A) (A) (A) (A)
                 (A) (A) (A) (A) (A) (A) (A) (A) (A) (A) (A) (A)
                 (A) (A) (A) (A) (A) (A) (A) (A) (A) (A) (A) (A)
                 (A) (A) (A) (A) (A) (A) (A) (A) (A) (A) (A) (A)
                 (A) (A) (A) (A) (A) (A) (A) (A) (A) (A) (A) (A)
                 (A) (A) (A) (A) (A) (A) (A) (A) (A) (A) (A) (A)
                 (A) (A) (A) (A) (A) (A) (A) (A) (A) (A) (A) (A)
                 (A) (A) (A) (A) (A) (A) (A) (A) (A) (A) (A) (A)
                 (A) (A) (A) (A) (A) (A) (A) (A) (A) (A) (A) (A)
                 (A) (A) (A) (A) (A) (A) (A) (A) (A) (A) (A) (A)
                 (A) (A) (A) (A) (A) (A) (A) (A) (A) (A) (A) (A)
                 (A) (A) (A) (A) (A) (A) (A) (A) (A) (A) (A) (A)
                 (A) (A) (A) (A) (A) (A) (A) (A) (A) (A) (A) (A)
                 (A) (A) (A) (A) (A) (A) (A) (A) (A) (A) (A) (A)
                 (A) (A) (A) (A) (A) (A) (A) (A) (A) (A) (A) (A)
                 (A) (A) (A) (A) (A) (A) (A) (A) (A) (A) (A) (A)
                 (A) (A) (A) (A) (A) (A) (A) (A) (A) (A) (A) (A)
                 (A) (A) (A) (A) (A) (A) (A) (A) (A) (A) (A) (A)
                 (A) (A) (A) (A) (A) (A) (A) (A) (A) (A) (A) (A)
                 (A) (A) (A) (A) (A) (A) (A) (A) (A) (A) (A) (A)
                 (A) (A) (A) (A) (A) (A) (A) (A) (A) (A) (A) (A)
                 (A) (A) (A) (A) (A) (A) (A) (A) (A) (A) (A) (A)
                 (A) (A) (A) (A) (A)
 The electronic state is 1-A.
 Alpha  occ. eigenvalues --  -89.05369 -89.04604 -89.04562 -19.29539 -10.36187
 Alpha  occ. eigenvalues --  -10.33439 -10.32800 -10.32715 -10.31910 -10.31853
 Alpha  occ. eigenvalues --  -10.31846 -10.30514 -10.30107 -10.29619  -8.09440
 Alpha  occ. eigenvalues --   -8.08649  -8.08618  -6.04282  -6.03898  -6.03522
 Alpha  occ. eigenvalues --   -6.03497  -6.03478  -6.03125  -6.03107  -6.02713
 Alpha  occ. eigenvalues --   -6.02651  -1.18578  -1.01768  -0.99868  -0.94975
 Alpha  occ. eigenvalues --   -0.87006  -0.86058  -0.84163  -0.80562  -0.79825
 Alpha  occ. eigenvalues --   -0.71121  -0.70403  -0.66088  -0.65174  -0.62744
 Alpha  occ. eigenvalues --   -0.60740  -0.58110  -0.57090  -0.53714  -0.52870
 Alpha  occ. eigenvalues --   -0.51919  -0.50224  -0.49064  -0.47788  -0.47005
 Alpha  occ. eigenvalues --   -0.45821  -0.45074  -0.44665  -0.43677  -0.42651
 Alpha  occ. eigenvalues --   -0.41461  -0.36691  -0.34397  -0.32202  -0.30344
 Alpha  occ. eigenvalues --   -0.26881
 Alpha virt. eigenvalues --    0.00949   0.04652   0.05310   0.06080   0.06295
 Alpha virt. eigenvalues --    0.06956   0.07478   0.07619   0.08351   0.08846
 Alpha virt. eigenvalues --    0.09510   0.09602   0.09806   0.10564   0.10840
 Alpha virt. eigenvalues --    0.11290   0.11754   0.12101   0.12862   0.13233
 Alpha virt. eigenvalues --    0.13791   0.14023   0.14200   0.15249   0.15408
 Alpha virt. eigenvalues --    0.16030   0.16443   0.17051   0.17674   0.17893
 Alpha virt. eigenvalues --    0.18301   0.18706   0.19277   0.19879   0.20318
 Alpha virt. eigenvalues --    0.20457   0.20771   0.21401   0.21797   0.21956
 Alpha virt. eigenvalues --    0.22278   0.22726   0.23105   0.23218   0.24085
 Alpha virt. eigenvalues --    0.24174   0.24786   0.25539   0.25611   0.26441
 Alpha virt. eigenvalues --    0.26749   0.26953   0.27060   0.27557   0.27911
 Alpha virt. eigenvalues --    0.28592   0.29047   0.29486   0.30174   0.30344
 Alpha virt. eigenvalues --    0.30815   0.31905   0.32107   0.32679   0.33307
 Alpha virt. eigenvalues --    0.34050   0.34163   0.35254   0.36090   0.37831
 Alpha virt. eigenvalues --    0.38321   0.38501   0.39444   0.40188   0.40879
 Alpha virt. eigenvalues --    0.41359   0.41941   0.42680   0.43463   0.44257
 Alpha virt. eigenvalues --    0.45667   0.46699   0.47452   0.49519   0.50304
 Alpha virt. eigenvalues --    0.52028   0.52777   0.53691   0.54633   0.55560
 Alpha virt. eigenvalues --    0.57852   0.59841   0.60367   0.61589   0.62079
 Alpha virt. eigenvalues --    0.63072   0.63822   0.64437   0.64954   0.66211
 Alpha virt. eigenvalues --    0.67238   0.67841   0.68707   0.69537   0.70885
 Alpha virt. eigenvalues --    0.71563   0.72703   0.73285   0.74754   0.75720
 Alpha virt. eigenvalues --    0.78329   0.79086   0.79906   0.80673   0.80989
 Alpha virt. eigenvalues --    0.81732   0.82174   0.82856   0.84527   0.84889
 Alpha virt. eigenvalues --    0.85979   0.86606   0.87745   0.88009   0.88524
 Alpha virt. eigenvalues --    0.90503   0.91170   0.91603   0.92153   0.93217
 Alpha virt. eigenvalues --    0.94158   0.94599   0.94791   0.95181   0.96279
 Alpha virt. eigenvalues --    0.97630   0.98179   0.98792   0.99949   1.03000
 Alpha virt. eigenvalues --    1.04216   1.05365   1.06562   1.07220   1.08295
 Alpha virt. eigenvalues --    1.11037   1.11861   1.12480   1.12773   1.14691
 Alpha virt. eigenvalues --    1.15418   1.16168   1.16611   1.18156   1.19750
 Alpha virt. eigenvalues --    1.21986   1.23476   1.24304   1.25184   1.27942
 Alpha virt. eigenvalues --    1.30277   1.35923   1.38123   1.40018   1.43548
 Alpha virt. eigenvalues --    1.43712   1.44875   1.45883   1.47623   1.50553
 Alpha virt. eigenvalues --    1.52837   1.58400   1.60733   1.63366   1.65770
 Alpha virt. eigenvalues --    1.66549   1.67949   1.68521   1.70341   1.70422
 Alpha virt. eigenvalues --    1.73357   1.74088   1.75893   1.78464   1.79533
 Alpha virt. eigenvalues --    1.81708   1.82306   1.83060   1.84047   1.85630
 Alpha virt. eigenvalues --    1.87285   1.87572   1.89309   1.90687   1.92644
 Alpha virt. eigenvalues --    1.94463   1.95466   1.97276   1.98922   2.00495
 Alpha virt. eigenvalues --    2.01520   2.03074   2.04958   2.06497   2.07978
 Alpha virt. eigenvalues --    2.10586   2.12188   2.13221   2.15395   2.16800
 Alpha virt. eigenvalues --    2.17117   2.17583   2.18224   2.20054   2.21842
 Alpha virt. eigenvalues --    2.23139   2.24909   2.27068   2.27368   2.29716
 Alpha virt. eigenvalues --    2.31568   2.36220   2.40635   2.47172   2.51139
 Alpha virt. eigenvalues --    2.51765   2.56995   2.61075   2.63455   2.68323
 Alpha virt. eigenvalues --    2.71931   2.72262   2.76484   2.79104   2.79967
 Alpha virt. eigenvalues --    2.80792   2.81984   2.82133   2.82463   2.83697
 Alpha virt. eigenvalues --    2.85800   2.88165   2.91800   2.96055   3.00504
 Alpha virt. eigenvalues --    3.03300   3.06088   3.07428   3.07881   3.13054
 Alpha virt. eigenvalues --    3.17258   3.17341   3.23135   3.23828   3.27196
 Alpha virt. eigenvalues --    3.28273   3.31055   3.36220   3.40220   3.41485
 Alpha virt. eigenvalues --    3.45552   3.48169   3.54820   3.57558   3.59509
 Alpha virt. eigenvalues --    3.63222   3.68308   3.80276   3.97667   4.02259
 Alpha virt. eigenvalues --    4.07782   4.15299   4.21272   4.31087   4.47227
 Alpha virt. eigenvalues --    4.69859   5.11641   5.56722   5.85702   8.08923
 Alpha virt. eigenvalues --    8.11578   8.13933  17.42232  17.42773  17.44533
 Alpha virt. eigenvalues --   17.60283  17.60640  17.64473  17.66987  17.69676
 Alpha virt. eigenvalues --   17.72300  23.60224  23.76877  23.90988  23.94198
 Alpha virt. eigenvalues --   23.99094  24.18279  24.19502  24.27200  24.29399
 Alpha virt. eigenvalues --   24.30404  50.07762 189.33862 189.36674 189.39461
          Condensed to atoms (all electrons):
               1          2          3          4          5          6
     1  C    8.904533  -3.800608   0.825264  -0.874306   0.423311   0.631172
     2  C   -3.800608  17.899467  -4.258710   2.370889  -0.107213  -3.243695
     3  C    0.825264  -4.258710  11.081532  -1.183512   0.009849   0.177435
     4  C   -0.874306   2.370889  -1.183512   6.170297   0.029498  -0.393928
     5  H    0.423311  -0.107213   0.009849   0.029498   0.499159   0.007018
     6  S    0.631172  -3.243695   0.177435  -0.393928   0.007018  17.981429
     7  H    0.052421  -0.044381   0.033390   0.367414  -0.003816  -0.033322
     8  C    0.153810  -1.255964  -1.010701  -0.295404  -0.006563   1.070731
     9  S   -0.117904   0.924635   0.725514   0.081644  -0.000570  -0.415108
    10  C   -0.059594   0.155421  -0.414808   0.021602  -0.000315  -0.179640
    11  C   -0.027891  -0.588933   0.077272   0.018168   0.000442   0.246616
    12  C    0.299715  -2.124332  -0.988962  -0.146290   0.005035   0.636632
    13  H    0.001429   0.037540   0.001593   0.002260   0.000004  -0.002812
    14  S   -0.005255  -0.061022  -0.052581   0.002607   0.000011   0.014756
    15  C    0.000494   0.008597  -0.019528  -0.000344  -0.000001  -0.009590
    16  C   -0.015983   0.042126   0.465126   0.003767  -0.000015  -0.071112
    17  H   -0.000000  -0.000011  -0.000067  -0.000000   0.000000   0.000004
    18  H   -0.000006  -0.000106  -0.001160   0.000011  -0.000000   0.000130
    19  O    0.033413  -0.086579  -0.030892  -0.022569  -0.004512   0.050890
    20  H   -0.156530   0.124578   0.054033  -0.001009   0.002858  -0.007529
               7          8          9         10         11         12
     1  C    0.052421   0.153810  -0.117904  -0.059594  -0.027891   0.299715
     2  C   -0.044381  -1.255964   0.924635   0.155421  -0.588933  -2.124332
     3  C    0.033390  -1.010701   0.725514  -0.414808   0.077272  -0.988962
     4  C    0.367414  -0.295404   0.081644   0.021602   0.018168  -0.146290
     5  H   -0.003816  -0.006563  -0.000570  -0.000315   0.000442   0.005035
     6  S   -0.033322   1.070731  -0.415108  -0.179640   0.246616   0.636632
     7  H    0.443559  -0.003171  -0.000190   0.000039  -0.000292  -0.000708
     8  C   -0.003171  12.303876  -0.146936  -0.951136  -2.131324  -0.914450
     9  S   -0.000190  -0.146936  18.237252  -0.332264  -0.672114  -1.528787
    10  C    0.000039  -0.951136  -0.332264  15.058412  -5.072712   0.416883
    11  C   -0.000292  -2.131324  -0.672114  -5.072712  12.464620   1.077096
    12  C   -0.000708  -0.914450  -1.528787   0.416883   1.077096  10.280714
    13  H   -0.000000  -0.022196   0.008506  -0.064690   0.001163   0.381034
    14  S   -0.000004  -1.116203   0.051418   0.531400  -0.535612  -0.025020
    15  C    0.000001  -0.176484  -0.039183   0.362978  -0.757375  -0.009518
    16  C   -0.000002   0.141717  -0.181201  -3.947408   1.724194  -1.457874
    17  H    0.000000   0.004787  -0.000447   0.021034   0.025467  -0.000776
    18  H    0.000000  -0.006009   0.012756   0.020876  -0.049631   0.003235
    19  O   -0.000271  -0.009029  -0.017758  -0.009750   0.004004   0.062786
    20  H    0.000010   0.019965  -0.000806   0.000828  -0.002046   0.000099
              13         14         15         16         17         18
     1  C    0.001429  -0.005255   0.000494  -0.015983  -0.000000  -0.000006
     2  C    0.037540  -0.061022   0.008597   0.042126  -0.000011  -0.000106
     3  C    0.001593  -0.052581  -0.019528   0.465126  -0.000067  -0.001160
     4  C    0.002260   0.002607  -0.000344   0.003767  -0.000000   0.000011
     5  H    0.000004   0.000011  -0.000001  -0.000015   0.000000  -0.000000
     6  S   -0.002812   0.014756  -0.009590  -0.071112   0.000004   0.000130
     7  H   -0.000000  -0.000004   0.000001  -0.000002   0.000000   0.000000
     8  C   -0.022196  -1.116203  -0.176484   0.141717   0.004787  -0.006009
     9  S    0.008506   0.051418  -0.039183  -0.181201  -0.000447   0.012756
    10  C   -0.064690   0.531400   0.362978  -3.947408   0.021034   0.020876
    11  C    0.001163  -0.535612  -0.757375   1.724194   0.025467  -0.049631
    12  C    0.381034  -0.025020  -0.009518  -1.457874  -0.000776   0.003235
    13  H    0.466986   0.011987  -0.001839   0.006165  -0.000002   0.000001
    14  S    0.011987  17.629803   0.404504  -0.362479  -0.042989   0.008186
    15  C   -0.001839   0.404504   5.668426   0.302965   0.389184   0.020691
    16  C    0.006165  -0.362479   0.302965   9.383210  -0.028703   0.350815
    17  H   -0.000002  -0.042989   0.389184  -0.028703   0.444258  -0.003596
    18  H    0.000001   0.008186   0.020691   0.350815  -0.003596   0.483513
    19  O   -0.002062   0.000751   0.000102  -0.001871  -0.000000   0.000000
    20  H   -0.000301  -0.000250   0.000026  -0.000069  -0.000000  -0.000000
              19         20
     1  C    0.033413  -0.156530
     2  C   -0.086579   0.124578
     3  C   -0.030892   0.054033
     4  C   -0.022569  -0.001009
     5  H   -0.004512   0.002858
     6  S    0.050890  -0.007529
     7  H   -0.000271   0.000010
     8  C   -0.009029   0.019965
     9  S   -0.017758  -0.000806
    10  C   -0.009750   0.000828
    11  C    0.004004  -0.002046
    12  C    0.062786   0.000099
    13  H   -0.002062  -0.000301
    14  S    0.000751  -0.000250
    15  C    0.000102   0.000026
    16  C   -0.001871  -0.000069
    17  H   -0.000000  -0.000000
    18  H    0.000000  -0.000000
    19  O    8.071370   0.222893
    20  H    0.222893   0.470687
 Mulliken charges:
               1
     1  C   -0.267484
     2  C    0.008304
     3  C    0.509912
     4  C   -0.150796
     5  H    0.145819
     6  S   -0.460079
     7  H    0.189325
     8  C    0.350684
     9  S   -0.588457
    10  C    0.442842
    11  C    0.198887
    12  C    0.033489
    13  H    0.175236
    14  S   -0.454008
    15  C   -0.144104
    16  C   -0.353368
    17  H    0.191859
    18  H    0.160292
    19  O   -0.260915
    20  H    0.272564
 Sum of Mulliken charges =  -0.00000
 Mulliken charges with hydrogens summed into heavy atoms:
               1
     1  C   -0.121666
     2  C    0.008304
     3  C    0.509912
     4  C    0.038529
     6  S   -0.460079
     8  C    0.350684
     9  S   -0.588457
    10  C    0.442842
    11  C    0.198887
    12  C    0.208725
    14  S   -0.454008
    15  C    0.047755
    16  C   -0.193076
    19  O    0.011649
 Electronic spatial extent (au):  <R**2>=           4274.5662
 Charge=              0.0000 electrons
 Dipole moment (field-independent basis, Debye):
    X=              2.1492    Y=              1.0857    Z=              0.4223  Tot=              2.4446
 Quadrupole moment (field-independent basis, Debye-Ang):
   XX=            -77.8455   YY=            -93.1107   ZZ=           -107.3561
   XY=              9.5362   XZ=              0.9523   YZ=              0.9428
 Traceless Quadrupole moment (field-independent basis, Debye-Ang):
   XX=             14.9253   YY=             -0.3399   ZZ=            -14.5853
   XY=              9.5362   XZ=              0.9523   YZ=              0.9428
 Octapole moment (field-independent basis, Debye-Ang**2):
  XXX=             40.8009  YYY=             27.5612  ZZZ=              2.2114  XYY=             24.8407
  XXY=              8.2691  XXZ=              8.3636  XZZ=              5.1155  YZZ=              5.0531
  YYZ=              7.7732  XYZ=             13.6295
 Hexadecapole moment (field-independent basis, Debye-Ang**3):
 XXXX=          -3962.3078 YYYY=           -916.9934 ZZZZ=           -176.4732 XXXY=            110.9141
 XXXZ=              1.7620 YYYX=            119.1528 YYYZ=             20.4441 ZZZX=              7.6933
 ZZZY=              7.4427 XXYY=           -825.5395 XXZZ=           -886.2098 YYZZ=           -200.1987
 XXYZ=             27.0046 YYXZ=             17.6503 ZZXY=              8.2050
 N-N= 1.131323382622D+03 E-N=-6.174389066105D+03  KE= 1.651139642788D+03
 Unable to Open any file for archive entry.
 1\1\GINC-CX3-6-18\FOpt\RwB97XD\6-311+G(d,p)\C10H6O1S3\NS5018\25-Oct-20
 21\0\\# opt=modredundant wb97xd/6-311+g(d,p)\\pBTTT_-155.pdb\\0,1\C,-4
 .1106955785,-1.2699086541,-0.0238935547\C,-2.819645853,-0.9592858292,-
 0.5386919679\C,-1.9999682576,-2.0523091368,-0.6677522227\C,-4.25585752
 47,-2.5968218676,0.2340643971\H,-4.8878008077,-0.5341289794,0.14300947
 16\S,-2.8300251082,-3.481765763,-0.1238281095\H,-5.1235742903,-3.10450
 91902,0.6261445223\C,-0.6373370453,-2.0868631862,-1.1676715469\S,0.016
 4175687,-3.5618824182,-1.8650442705\C,1.5304312275,-2.7839868762,-2.17
 81384036\C,1.4945723699,-1.4628760721,-1.7794381455\C,0.2620932368,-1.
 057815202,-1.1994447242\H,0.0384315926,-0.0712166211,-0.8225935997\S,3
 .0070122456,-0.6834224677,-2.1004847773\C,3.6550167946,-2.1525865623,-
 2.7638343426\C,2.7725019705,-3.186844051,-2.7455637109\H,4.6687443616,
 -2.1619082042,-3.1353142653\H,2.9987285897,-4.1764458988,-3.1167098709
 \O,-2.4050086878,0.2905183857,-0.8742657492\H,-3.1510368043,0.89105859
 43,-0.8635491294\\Version=ES64L-G16RevC.01\State=1-A\HF=-1654.412253\R
 MSD=5.317e-09\RMSF=3.728e-05\Dipole=-0.8554644,0.4119552,0.1533448\Qua
 drupole=9.1787779,-0.5987833,-8.5799946,-6.4271624,-6.8142906,2.190450
 2\PG=C01 [X(C10H6O1S3)]\\@
 The archive entry for this job was punched.


 GOD DOES NOT PLAY WITH DICE.
               -- A. EINSTEIN
 Job cpu time:       0 days  2 hours 51 minutes 50.0 seconds.
 Elapsed time:       0 days  0 hours 21 minutes 38.3 seconds.
 File lengths (MBytes):  RWF=     86 Int=      0 D2E=      0 Chk=     11 Scr=      1
 Normal termination of Gaussian 16 at Mon Oct 25 23:38:36 2021.
