 Entering Gaussian System, Link 0=g16
 Input=pBTTT_20.gjf
 Output=pBTTT_20.log
 Initial command:
 /apps/gaussian/g16-c01-avx/g16/l1.exe "/tmp/pbs.4762174[195].pbs/Gau-2078977.inp" -scrdir="/tmp/pbs.4762174[195].pbs/"
 Entering Link 1 = /apps/gaussian/g16-c01-avx/g16/l1.exe PID=   2078978.
  
 Copyright (c) 1988-2019, Gaussian, Inc.  All Rights Reserved.
  
 This is part of the Gaussian(R) 16 program.  It is based on
 the Gaussian(R) 09 system (copyright 2009, Gaussian, Inc.),
 the Gaussian(R) 03 system (copyright 2003, Gaussian, Inc.),
 the Gaussian(R) 98 system (copyright 1998, Gaussian, Inc.),
 the Gaussian(R) 94 system (copyright 1995, Gaussian, Inc.),
 the Gaussian 92(TM) system (copyright 1992, Gaussian, Inc.),
 the Gaussian 90(TM) system (copyright 1990, Gaussian, Inc.),
 the Gaussian 88(TM) system (copyright 1988, Gaussian, Inc.),
 the Gaussian 86(TM) system (copyright 1986, Carnegie Mellon
 University), and the Gaussian 82(TM) system (copyright 1983,
 Carnegie Mellon University). Gaussian is a federally registered
 trademark of Gaussian, Inc.
  
 This software contains proprietary and confidential information,
 including trade secrets, belonging to Gaussian, Inc.
  
 This software is provided under written license and may be
 used, copied, transmitted, or stored only in accord with that
 written license.
  
 The following legend is applicable only to US Government
 contracts under FAR:
  
                    RESTRICTED RIGHTS LEGEND
  
 Use, reproduction and disclosure by the US Government is
 subject to restrictions as set forth in subparagraphs (a)
 and (c) of the Commercial Computer Software - Restricted
 Rights clause in FAR 52.227-19.
  
 Gaussian, Inc.
 340 Quinnipiac St., Bldg. 40, Wallingford CT 06492
  
  
 ---------------------------------------------------------------
 Warning -- This program may not be used in any manner that
 competes with the business of Gaussian, Inc. or will provide
 assistance to any competitor of Gaussian, Inc.  The licensee
 of this program is prohibited from giving any competitor of
 Gaussian, Inc. access to this program.  By using this program,
 the user acknowledges that Gaussian, Inc. is engaged in the
 business of creating and licensing software in the field of
 computational chemistry and represents and warrants to the
 licensee that it is not a competitor of Gaussian, Inc. and that
 it will not use this program in any manner prohibited above.
 ---------------------------------------------------------------
  

 Cite this work as:
 Gaussian 16, Revision C.01,
 M. J. Frisch, G. W. Trucks, H. B. Schlegel, G. E. Scuseria, 
 M. A. Robb, J. R. Cheeseman, G. Scalmani, V. Barone, 
 G. A. Petersson, H. Nakatsuji, X. Li, M. Caricato, A. V. Marenich, 
 J. Bloino, B. G. Janesko, R. Gomperts, B. Mennucci, H. P. Hratchian, 
 J. V. Ortiz, A. F. Izmaylov, J. L. Sonnenberg, D. Williams-Young, 
 F. Ding, F. Lipparini, F. Egidi, J. Goings, B. Peng, A. Petrone, 
 T. Henderson, D. Ranasinghe, V. G. Zakrzewski, J. Gao, N. Rega, 
 G. Zheng, W. Liang, M. Hada, M. Ehara, K. Toyota, R. Fukuda, 
 J. Hasegawa, M. Ishida, T. Nakajima, Y. Honda, O. Kitao, H. Nakai, 
 T. Vreven, K. Throssell, J. A. Montgomery, Jr., J. E. Peralta, 
 F. Ogliaro, M. J. Bearpark, J. J. Heyd, E. N. Brothers, K. N. Kudin, 
 V. N. Staroverov, T. A. Keith, R. Kobayashi, J. Normand, 
 K. Raghavachari, A. P. Rendell, J. C. Burant, S. S. Iyengar, 
 J. Tomasi, M. Cossi, J. M. Millam, M. Klene, C. Adamo, R. Cammi, 
 J. W. Ochterski, R. L. Martin, K. Morokuma, O. Farkas, 
 J. B. Foresman, and D. J. Fox, Gaussian, Inc., Wallingford CT, 2019.
 
 ******************************************
 Gaussian 16:  ES64L-G16RevC.01  3-Jul-2019
                25-Oct-2021 
 ******************************************
 %mem=10GB
 %nprocshared=8
 Will use up to    8 processors via shared memory.
 --------------------------------------
 # opt=modredundant wb97xd/6-311+g(d,p)
 --------------------------------------
 1/18=120,19=15,26=3,38=1/1,3;
 2/9=110,12=2,17=6,18=5,40=1/2;
 3/5=4,6=6,7=111,11=2,25=1,30=1,71=1,74=-58/1,2,3;
 4//1;
 5/5=2,38=5/2;
 6/7=2,8=2,9=2,10=2,28=1/1;
 7//1,2,3,16;
 1/18=20,19=15,26=3/3(2);
 2/9=110/2;
 99//99;
 2/9=110/2;
 3/5=4,6=6,7=111,11=2,25=1,30=1,71=1,74=-58/1,2,3;
 4/5=5,16=3,69=1/1;
 5/5=2,38=5/2;
 7//1,2,3,16;
 1/18=20,19=15,26=3/3(-5);
 2/9=110/2;
 6/7=2,8=2,9=2,10=2,19=2,28=1/1;
 99/9=1/99;
 ------------
 pBTTT_20.pdb
 ------------
 Symbolic Z-matrix:
 Charge =  0 Multiplicity = 1
 C                    -4.25     -1.36     -0.21 
 C                    -2.93     -0.95     -0.61 
 C                    -1.97     -2.05     -0.62 
 C                    -4.33     -2.76      0.1 
 H                    -5.1      -0.7      -0.14 
 S                    -2.8      -3.56     -0.11 
 H                    -5.23     -3.27      0.41 
 C                    -0.56     -2.13     -0.97 
 S                     0.49     -0.681    -1.012 
 C                     1.882    -1.6      -1.472 
 C                     1.6      -3.009    -1.577 
 C                     0.233    -3.321    -1.281 
 H                    -0.123    -4.331    -1.149 
 S                     3.003    -3.992    -1.322 
 C                     4.01     -2.562    -1.083 
 C                     3.252    -1.336    -1.176 
 H                     5.027    -2.625    -0.723 
 H                     3.621    -0.387    -0.794 
 O                    -2.4       0.49     -0.72 
 H                    -2.92      1.52     -0.76 
 
 Add virtual bond connecting atoms H20        and O19        Dist= 2.18D+00.
 The following ModRedundant input section has been read:
 D       2       3       8       9 F                                           
 

 GradGradGradGradGradGradGradGradGradGradGradGradGradGradGradGradGradGrad
 Berny optimization.
 Initialization pass.
                           ----------------------------
                           !    Initial Parameters    !
                           ! (Angstroms and Degrees)  !
 --------------------------                            --------------------------
 ! Name  Definition              Value          Derivative Info.                !
 --------------------------------------------------------------------------------
 ! R1    R(1,2)                  1.4389         estimate D2E/DX2                !
 ! R2    R(1,4)                  1.4361         estimate D2E/DX2                !
 ! R3    R(1,5)                  1.0784         estimate D2E/DX2                !
 ! R4    R(2,3)                  1.46           estimate D2E/DX2                !
 ! R5    R(2,19)                 1.5384         estimate D2E/DX2                !
 ! R6    R(3,6)                  1.797          estimate D2E/DX2                !
 ! R7    R(3,8)                  1.455          estimate D2E/DX2                !
 ! R8    R(4,6)                  1.7393         estimate D2E/DX2                !
 ! R9    R(4,7)                  1.0799         estimate D2E/DX2                !
 ! R10   R(8,9)                  1.7899         estimate D2E/DX2                !
 ! R11   R(8,12)                 1.4643         estimate D2E/DX2                !
 ! R12   R(9,10)                 1.7303         estimate D2E/DX2                !
 ! R13   R(10,11)                1.4408         estimate D2E/DX2                !
 ! R14   R(10,16)                1.4263         estimate D2E/DX2                !
 ! R15   R(11,12)                1.4331         estimate D2E/DX2                !
 ! R16   R(11,14)                1.732          estimate D2E/DX2                !
 ! R17   R(12,13)                1.079          estimate D2E/DX2                !
 ! R18   R(14,15)                1.7652         estimate D2E/DX2                !
 ! R19   R(15,16)                1.4444         estimate D2E/DX2                !
 ! R20   R(15,17)                1.0807         estimate D2E/DX2                !
 ! R21   R(16,18)                1.0875         estimate D2E/DX2                !
 ! R22   R(19,20)                1.1545         estimate D2E/DX2                !
 ! A1    A(2,1,4)              112.8843         estimate D2E/DX2                !
 ! A2    A(2,1,5)              124.5209         estimate D2E/DX2                !
 ! A3    A(4,1,5)              122.5942         estimate D2E/DX2                !
 ! A4    A(1,2,3)              112.9799         estimate D2E/DX2                !
 ! A5    A(1,2,19)             127.059          estimate D2E/DX2                !
 ! A6    A(3,2,19)             118.5686         estimate D2E/DX2                !
 ! A7    A(2,3,6)              109.1138         estimate D2E/DX2                !
 ! A8    A(2,3,8)              132.8639         estimate D2E/DX2                !
 ! A9    A(6,3,8)              118.0132         estimate D2E/DX2                !
 ! A10   A(1,4,6)              111.9209         estimate D2E/DX2                !
 ! A11   A(1,4,7)              124.6643         estimate D2E/DX2                !
 ! A12   A(6,4,7)              123.4062         estimate D2E/DX2                !
 ! A13   A(3,6,4)               93.0997         estimate D2E/DX2                !
 ! A14   A(3,8,9)              121.979          estimate D2E/DX2                !
 ! A15   A(3,8,12)             128.3628         estimate D2E/DX2                !
 ! A16   A(9,8,12)             109.6198         estimate D2E/DX2                !
 ! A17   A(8,9,10)              92.7629         estimate D2E/DX2                !
 ! A18   A(9,10,11)            112.4161         estimate D2E/DX2                !
 ! A19   A(9,10,16)            128.2636         estimate D2E/DX2                !
 ! A20   A(11,10,16)           112.591          estimate D2E/DX2                !
 ! A21   A(10,11,12)           112.6169         estimate D2E/DX2                !
 ! A22   A(10,11,14)           112.6911         estimate D2E/DX2                !
 ! A23   A(12,11,14)           128.2243         estimate D2E/DX2                !
 ! A24   A(8,12,11)            112.5439         estimate D2E/DX2                !
 ! A25   A(8,12,13)            123.8276         estimate D2E/DX2                !
 ! A26   A(11,12,13)           122.9417         estimate D2E/DX2                !
 ! A27   A(11,14,15)            91.2759         estimate D2E/DX2                !
 ! A28   A(14,15,16)           112.3035         estimate D2E/DX2                !
 ! A29   A(14,15,17)           122.3253         estimate D2E/DX2                !
 ! A30   A(16,15,17)           124.3881         estimate D2E/DX2                !
 ! A31   A(10,16,15)           111.1209         estimate D2E/DX2                !
 ! A32   A(10,16,18)           124.0797         estimate D2E/DX2                !
 ! A33   A(15,16,18)           122.6842         estimate D2E/DX2                !
 ! A34   A(2,19,20)            133.0318         estimate D2E/DX2                !
 ! D1    D(4,1,2,3)              0.3915         estimate D2E/DX2                !
 ! D2    D(4,1,2,19)          -165.8104         estimate D2E/DX2                !
 ! D3    D(5,1,2,3)           -179.8811         estimate D2E/DX2                !
 ! D4    D(5,1,2,19)            13.9169         estimate D2E/DX2                !
 ! D5    D(2,1,4,6)             -0.3845         estimate D2E/DX2                !
 ! D6    D(2,1,4,7)           -179.3471         estimate D2E/DX2                !
 ! D7    D(5,1,4,6)            179.8822         estimate D2E/DX2                !
 ! D8    D(5,1,4,7)              0.9196         estimate D2E/DX2                !
 ! D9    D(1,2,3,6)             -0.2224         estimate D2E/DX2                !
 ! D10   D(1,2,3,8)            178.6265         estimate D2E/DX2                !
 ! D11   D(19,2,3,6)           167.2616         estimate D2E/DX2                !
 ! D12   D(19,2,3,8)           -13.8895         estimate D2E/DX2                !
 ! D13   D(1,2,19,20)          -16.0519         estimate D2E/DX2                !
 ! D14   D(3,2,19,20)          178.4264         estimate D2E/DX2                !
 ! D15   D(2,3,6,4)              0.0033         estimate D2E/DX2                !
 ! D16   D(8,3,6,4)           -179.041          estimate D2E/DX2                !
 ! D17   D(2,3,8,9)             19.9833         Frozen                          !
 ! D18   D(2,3,8,12)          -162.513          estimate D2E/DX2                !
 ! D19   D(6,3,8,9)           -161.2487         estimate D2E/DX2                !
 ! D20   D(6,3,8,12)            16.255          estimate D2E/DX2                !
 ! D21   D(1,4,6,3)              0.2153         estimate D2E/DX2                !
 ! D22   D(7,4,6,3)            179.1932         estimate D2E/DX2                !
 ! D23   D(3,8,9,10)           179.7677         estimate D2E/DX2                !
 ! D24   D(12,8,9,10)            1.8455         estimate D2E/DX2                !
 ! D25   D(3,8,12,11)         -179.8107         estimate D2E/DX2                !
 ! D26   D(3,8,12,13)           -9.0808         estimate D2E/DX2                !
 ! D27   D(9,8,12,11)           -2.0586         estimate D2E/DX2                !
 ! D28   D(9,8,12,13)          168.6713         estimate D2E/DX2                !
 ! D29   D(8,9,10,11)           -1.199          estimate D2E/DX2                !
 ! D30   D(8,9,10,16)         -149.9139         estimate D2E/DX2                !
 ! D31   D(9,10,11,12)           0.2022         estimate D2E/DX2                !
 ! D32   D(9,10,11,14)        -154.0505         estimate D2E/DX2                !
 ! D33   D(16,10,11,12)        153.9948         estimate D2E/DX2                !
 ! D34   D(16,10,11,14)         -0.2579         estimate D2E/DX2                !
 ! D35   D(9,10,16,15)         149.758          estimate D2E/DX2                !
 ! D36   D(9,10,16,18)         -14.0366         estimate D2E/DX2                !
 ! D37   D(11,10,16,15)          1.0872         estimate D2E/DX2                !
 ! D38   D(11,10,16,18)       -162.7074         estimate D2E/DX2                !
 ! D39   D(10,11,12,8)           1.232          estimate D2E/DX2                !
 ! D40   D(10,11,12,13)       -169.5926         estimate D2E/DX2                !
 ! D41   D(14,11,12,8)         150.5576         estimate D2E/DX2                !
 ! D42   D(14,11,12,13)        -20.2671         estimate D2E/DX2                !
 ! D43   D(10,11,14,15)         -0.4916         estimate D2E/DX2                !
 ! D44   D(12,11,14,15)       -149.7988         estimate D2E/DX2                !
 ! D45   D(11,14,15,16)          1.1161         estimate D2E/DX2                !
 ! D46   D(11,14,15,17)        170.2273         estimate D2E/DX2                !
 ! D47   D(14,15,16,10)         -1.4525         estimate D2E/DX2                !
 ! D48   D(14,15,16,18)        162.6071         estimate D2E/DX2                !
 ! D49   D(17,15,16,10)       -170.2992         estimate D2E/DX2                !
 ! D50   D(17,15,16,18)         -6.2396         estimate D2E/DX2                !
 --------------------------------------------------------------------------------
 Trust Radius=3.00D-01 FncErr=1.00D-07 GrdErr=1.00D-06 EigMax=2.50D+02 EigMin=1.00D-04
 Number of steps in this run=    116 maximum allowed number of steps=    120.
 GradGradGradGradGradGradGradGradGradGradGradGradGradGradGradGradGradGrad

                          Input orientation:                          
 ---------------------------------------------------------------------
 Center     Atomic      Atomic             Coordinates (Angstroms)
 Number     Number       Type             X           Y           Z
 ---------------------------------------------------------------------
      1          6           0       -4.250000   -1.360000   -0.210000
      2          6           0       -2.930000   -0.950000   -0.610000
      3          6           0       -1.970000   -2.050000   -0.620000
      4          6           0       -4.330000   -2.760000    0.100000
      5          1           0       -5.100000   -0.700000   -0.140000
      6         16           0       -2.800000   -3.560000   -0.110000
      7          1           0       -5.230000   -3.270000    0.410000
      8          6           0       -0.560000   -2.130000   -0.970000
      9         16           0        0.490000   -0.681000   -1.012000
     10          6           0        1.882000   -1.600000   -1.472000
     11          6           0        1.600000   -3.009000   -1.577000
     12          6           0        0.233000   -3.321000   -1.281000
     13          1           0       -0.123000   -4.331000   -1.149000
     14         16           0        3.003000   -3.992000   -1.322000
     15          6           0        4.010000   -2.562000   -1.083000
     16          6           0        3.252000   -1.336000   -1.176000
     17          1           0        5.027000   -2.625000   -0.723000
     18          1           0        3.621000   -0.387000   -0.794000
     19          8           0       -2.400000    0.490000   -0.720000
     20          1           0       -2.920000    1.520000   -0.760000
 ---------------------------------------------------------------------
                    Distance matrix (angstroms):
                    1          2          3          4          5
     1  C    0.000000
     2  C    1.438923   0.000000
     3  C    2.417147   1.460034   0.000000
     4  C    1.436141   2.395871   2.567509   0.000000
     5  H    1.078425   2.234346   3.442354   2.212261   0.000000
     6  S    2.636759   2.660639   1.796970   1.739253   3.670218
     7  H    2.234480   3.422397   3.630000   1.079907   2.631406
     8  C    3.845335   2.671872   1.454991   3.969219   4.831708
     9  S    4.855084   3.454036   2.842433   5.365742   5.657636
    10  C    6.265115   4.931621   3.970681   6.511968   7.164674
    11  C    6.229799   5.069070   3.818433   6.167595   7.230937
    12  C    5.008977   4.009545   2.627845   4.800297   6.050819
    13  H    5.171140   4.427294   2.982316   4.661211   6.242818
    14  S    7.795510   6.705311   5.384691   7.570522   8.825701
    15  C    8.392528   7.140439   6.019710   8.425811   9.346036
    16  C    7.563976   6.219845   5.299832   7.819378   8.440006
    17  H    9.376893   8.132173   7.021342   9.394094  10.324807
    18  H    7.952385   6.577722   5.835677   8.345584   8.751087
    19  O    2.665539   1.538376   2.578081   3.867790   3.007075
    20  H    3.219596   2.474571   3.696891   4.587603   3.172570
                    6          7          8          9         10
     6  S    0.000000
     7  H    2.501879   0.000000
     8  C    2.793224   5.001290   0.000000
     9  S    4.463893   6.437655   1.789934   0.000000
    10  C    5.255261   7.543962   2.548778   1.730267   0.000000
    11  C    4.670727   7.117948   2.409707   2.640248   1.440774
    12  C    3.259977   5.718955   1.464258   2.666085   2.391134
    13  H    2.973263   5.444047   2.251091   3.703652   3.403339
    14  S    5.943936   8.444134   4.035581   4.168212   2.645903
    15  C    6.951175   9.386582   4.591764   3.991692   2.367520
    16  C    6.535230   8.843081   3.899258   2.843337   1.426258
    17  H    7.906448  10.339524   5.614321   4.944393   3.391556
    18  H    7.194792   9.386240   4.533187   3.152320   2.226022
    19  O    4.115167   4.839773   3.211308   3.131869   4.823808
    20  H    5.122821   5.445099   4.351574   4.066449   5.770663
                   11         12         13         14         15
    11  C    0.000000
    12  C    1.433056   0.000000
    13  H    2.213503   1.079009   0.000000
    14  S    1.731971   2.850407   3.149083   0.000000
    15  C    2.500389   3.857592   4.496155   1.765239   0.000000
    16  C    2.385128   3.614638   4.512358   2.671639   1.444399
    17  H    3.552619   4.876291   5.441913   2.514770   1.080675
    18  H    3.401825   4.508222   5.449651   3.695502   2.228333
    19  O    5.383071   4.665954   5.348907   7.045789   7.108767
    20  H    6.450560   5.800701   6.496825   8.110482   8.049345
                   16         17         18         19         20
    16  C    0.000000
    17  H    2.239945   0.000000
    18  H    1.087514   2.643959   0.000000
    19  O    5.957123   8.053792   6.084985   0.000000
    20  H    6.813470   8.963102   6.813405   1.154513   0.000000
 Stoichiometry    C10H6OS3
 Framework group  C1[X(C10H6OS3)]
 Deg. of freedom    54
 Full point group                 C1      NOp   1
 Largest Abelian subgroup         C1      NOp   1
 Largest concise Abelian subgroup C1      NOp   1
                         Standard orientation:                         
 ---------------------------------------------------------------------
 Center     Atomic      Atomic             Coordinates (Angstroms)
 Number     Number       Type             X           Y           Z
 ---------------------------------------------------------------------
      1          6           0       -4.113810    0.250615    0.009932
      2          6           0       -2.815706    0.852146   -0.143649
      3          6           0       -1.725801   -0.116112   -0.064391
      4          6           0       -4.050510   -1.169199    0.216378
      5          1           0       -5.045787    0.792431   -0.019269
      6         16           0       -2.412490   -1.753876    0.209994
      7          1           0       -4.910158   -1.810294    0.343676
      8          6           0       -0.281051    0.007877   -0.184085
      9         16           0        0.557325    1.574149    0.034506
     10          6           0        2.114760    0.875222   -0.247846
     11          6           0        2.045310   -0.544445   -0.483539
     12          6           0        0.703933   -1.046346   -0.434027
     13          1           0        0.471705   -2.100020   -0.423960
     14         16           0        3.512313   -1.363937   -0.063944
     15          6           0        4.267995    0.155184    0.423178
     16          6           0        3.374609    1.281478    0.283144
     17          1           0        5.216681    0.189150    0.939609
     18          1           0        3.548837    2.234285    0.777604
     19          8           0       -2.474662    2.350777   -0.077341
     20          1           0       -3.116735    3.308333   -0.138395
 ---------------------------------------------------------------------
 Rotational constants (GHZ):           1.1605915           0.2809344           0.2289790
 Standard basis: 6-311+G(d,p) (5D, 7F)
 There are   382 symmetry adapted cartesian basis functions of A   symmetry.
 There are   368 symmetry adapted basis functions of A   symmetry.
   368 basis functions,   594 primitive gaussians,   382 cartesian basis functions
    61 alpha electrons       61 beta electrons
       nuclear repulsion energy      1104.9654060260 Hartrees.
 NAtoms=   20 NActive=   20 NUniq=   20 SFac= 1.00D+00 NAtFMM=   60 NAOKFM=F Big=F
 Integral buffers will be    131072 words long.
 Raffenetti 2 integral format.
 Two-electron integral symmetry is turned on.
 Nuclear repulsion after empirical dispersion term =     1104.9554638402 Hartrees.
 One-electron integrals computed using PRISM.
 NBasis=   368 RedAO= T EigKep=  2.65D-06  NBF=   368
 NBsUse=   367 1.00D-06 EigRej=  4.39D-07 NBFU=   367
 ExpMin= 4.05D-02 ExpMax= 9.34D+04 ExpMxC= 3.17D+03 IAcc=3 IRadAn=         5 AccDes= 0.00D+00
 Harris functional with IExCor= 4639 and IRadAn=       5 diagonalized for initial guess.
 HarFok:  IExCor= 4639 AccDes= 0.00D+00 IRadAn=         5 IDoV= 1 UseB2=F ITyADJ=14
 ICtDFT=  3500011 ScaDFX=  1.000000  1.000000  1.000000  1.000000
 FoFCou: FMM=F IPFlag=           0 FMFlag=      100000 FMFlg1=           0
         NFxFlg=           0 DoJE=T BraDBF=F KetDBF=T FulRan=T
         wScrn=  0.000000 ICntrl=       500 IOpCl=  0 I1Cent=   200000004 NGrid=           0
         NMat0=    1 NMatS0=      1 NMatT0=    0 NMatD0=    1 NMtDS0=    0 NMtDT0=    0
 Petite list used in FoFCou.
 Requested convergence on RMS density matrix=1.00D-08 within 128 cycles.
 Requested convergence on MAX density matrix=1.00D-06.
 Requested convergence on             energy=1.00D-06.
 No special actions if energy rises.
 SCF Done:  E(RwB97XD) =  -1654.30199622     A.U. after   19 cycles
            NFock= 19  Conv=0.50D-08     -V/T= 2.0031

 **********************************************************************

            Population analysis using the SCF Density.

 **********************************************************************

 Orbital symmetries:
       Occupied  (A) (A) (A) (A) (A) (A) (A) (A) (A) (A) (A) (A)
                 (A) (A) (A) (A) (A) (A) (A) (A) (A) (A) (A) (A)
                 (A) (A) (A) (A) (A) (A) (A) (A) (A) (A) (A) (A)
                 (A) (A) (A) (A) (A) (A) (A) (A) (A) (A) (A) (A)
                 (A) (A) (A) (A) (A) (A) (A) (A) (A) (A) (A) (A)
                 (A)
       Virtual   (A) (A) (A) (A) (A) (A) (A) (A) (A) (A) (A) (A)
                 (A) (A) (A) (A) (A) (A) (A) (A) (A) (A) (A) (A)
                 (A) (A) (A) (A) (A) (A) (A) (A) (A) (A) (A) (A)
                 (A) (A) (A) (A) (A) (A) (A) (A) (A) (A) (A) (A)
                 (A) (A) (A) (A) (A) (A) (A) (A) (A) (A) (A) (A)
                 (A) (A) (A) (A) (A) (A) (A) (A) (A) (A) (A) (A)
                 (A) (A) (A) (A) (A) (A) (A) (A) (A) (A) (A) (A)
                 (A) (A) (A) (A) (A) (A) (A) (A) (A) (A) (A) (A)
                 (A) (A) (A) (A) (A) (A) (A) (A) (A) (A) (A) (A)
                 (A) (A) (A) (A) (A) (A) (A) (A) (A) (A) (A) (A)
                 (A) (A) (A) (A) (A) (A) (A) (A) (A) (A) (A) (A)
                 (A) (A) (A) (A) (A) (A) (A) (A) (A) (A) (A) (A)
                 (A) (A) (A) (A) (A) (A) (A) (A) (A) (A) (A) (A)
                 (A) (A) (A) (A) (A) (A) (A) (A) (A) (A) (A) (A)
                 (A) (A) (A) (A) (A) (A) (A) (A) (A) (A) (A) (A)
                 (A) (A) (A) (A) (A) (A) (A) (A) (A) (A) (A) (A)
                 (A) (A) (A) (A) (A) (A) (A) (A) (A) (A) (A) (A)
                 (A) (A) (A) (A) (A) (A) (A) (A) (A) (A) (A) (A)
                 (A) (A) (A) (A) (A) (A) (A) (A) (A) (A) (A) (A)
                 (A) (A) (A) (A) (A) (A) (A) (A) (A) (A) (A) (A)
                 (A) (A) (A) (A) (A) (A) (A) (A) (A) (A) (A) (A)
                 (A) (A) (A) (A) (A) (A) (A) (A) (A) (A) (A) (A)
                 (A) (A) (A) (A) (A) (A) (A) (A) (A) (A) (A) (A)
                 (A) (A) (A) (A) (A) (A) (A) (A) (A) (A) (A) (A)
                 (A) (A) (A) (A) (A) (A) (A) (A) (A) (A) (A) (A)
                 (A) (A) (A) (A) (A) (A)
 The electronic state is 1-A.
 Alpha  occ. eigenvalues --  -89.06653 -89.05449 -89.05044 -19.28619 -10.39082
 Alpha  occ. eigenvalues --  -10.35633 -10.35338 -10.34091 -10.33232 -10.33095
 Alpha  occ. eigenvalues --  -10.32849 -10.31977 -10.31517 -10.31326  -8.10523
 Alpha  occ. eigenvalues --   -8.09398  -8.08950  -6.05377  -6.05002  -6.04610
 Alpha  occ. eigenvalues --   -6.04251  -6.03888  -6.03820  -6.03462  -6.03437
 Alpha  occ. eigenvalues --   -6.02995  -1.08396  -1.00328  -0.97961  -0.93298
 Alpha  occ. eigenvalues --   -0.86998  -0.85047  -0.83878  -0.80155  -0.78259
 Alpha  occ. eigenvalues --   -0.70976  -0.67577  -0.66258  -0.62973  -0.61791
 Alpha  occ. eigenvalues --   -0.60226  -0.57446  -0.54387  -0.52945  -0.51363
 Alpha  occ. eigenvalues --   -0.50486  -0.48606  -0.48170  -0.47349  -0.46808
 Alpha  occ. eigenvalues --   -0.45171  -0.43941  -0.43198  -0.42320  -0.41688
 Alpha  occ. eigenvalues --   -0.40965  -0.37033  -0.33795  -0.32784  -0.30150
 Alpha  occ. eigenvalues --   -0.25909
 Alpha virt. eigenvalues --   -0.01363   0.02137   0.03521   0.05652   0.05949
 Alpha virt. eigenvalues --    0.06325   0.06961   0.07480   0.07885   0.08267
 Alpha virt. eigenvalues --    0.08790   0.09282   0.09386   0.09894   0.10068
 Alpha virt. eigenvalues --    0.10747   0.11449   0.11942   0.12161   0.12580
 Alpha virt. eigenvalues --    0.12844   0.13258   0.13840   0.14299   0.14658
 Alpha virt. eigenvalues --    0.15183   0.15898   0.16399   0.17109   0.17246
 Alpha virt. eigenvalues --    0.17681   0.18265   0.18333   0.19246   0.19430
 Alpha virt. eigenvalues --    0.19669   0.20310   0.20685   0.21500   0.21870
 Alpha virt. eigenvalues --    0.22243   0.22539   0.22668   0.23474   0.23635
 Alpha virt. eigenvalues --    0.23992   0.24820   0.25076   0.25412   0.25668
 Alpha virt. eigenvalues --    0.26037   0.26304   0.26563   0.27017   0.27747
 Alpha virt. eigenvalues --    0.28040   0.28159   0.28688   0.28997   0.29305
 Alpha virt. eigenvalues --    0.29353   0.30207   0.30417   0.31369   0.31560
 Alpha virt. eigenvalues --    0.32738   0.32860   0.33930   0.34622   0.34970
 Alpha virt. eigenvalues --    0.35279   0.36518   0.37253   0.38694   0.38997
 Alpha virt. eigenvalues --    0.39563   0.40590   0.41308   0.42059   0.42516
 Alpha virt. eigenvalues --    0.43002   0.43637   0.44091   0.45417   0.47736
 Alpha virt. eigenvalues --    0.49072   0.49513   0.49754   0.51588   0.52395
 Alpha virt. eigenvalues --    0.53435   0.54092   0.56184   0.58989   0.60514
 Alpha virt. eigenvalues --    0.61822   0.62564   0.63343   0.63565   0.64507
 Alpha virt. eigenvalues --    0.64707   0.65560   0.67717   0.68387   0.69257
 Alpha virt. eigenvalues --    0.69911   0.71136   0.71334   0.71749   0.72381
 Alpha virt. eigenvalues --    0.75029   0.76284   0.76843   0.77842   0.78545
 Alpha virt. eigenvalues --    0.79216   0.79580   0.80242   0.80493   0.81692
 Alpha virt. eigenvalues --    0.82343   0.83669   0.83856   0.84350   0.85290
 Alpha virt. eigenvalues --    0.86516   0.87081   0.88197   0.88662   0.90268
 Alpha virt. eigenvalues --    0.90902   0.91686   0.91876   0.93208   0.94579
 Alpha virt. eigenvalues --    0.95569   0.96543   0.98035   0.99447   0.99887
 Alpha virt. eigenvalues --    1.00868   1.02064   1.03167   1.03931   1.06116
 Alpha virt. eigenvalues --    1.06239   1.07707   1.08366   1.09621   1.10502
 Alpha virt. eigenvalues --    1.11232   1.11946   1.13843   1.15743   1.17294
 Alpha virt. eigenvalues --    1.19688   1.19829   1.22993   1.25403   1.26857
 Alpha virt. eigenvalues --    1.28941   1.33307   1.34415   1.36608   1.38445
 Alpha virt. eigenvalues --    1.41481   1.44023   1.46711   1.47075   1.48661
 Alpha virt. eigenvalues --    1.52576   1.54763   1.57114   1.58880   1.59433
 Alpha virt. eigenvalues --    1.61625   1.62494   1.63365   1.65569   1.66842
 Alpha virt. eigenvalues --    1.69295   1.70606   1.72343   1.73533   1.74288
 Alpha virt. eigenvalues --    1.75514   1.77929   1.78111   1.78747   1.80395
 Alpha virt. eigenvalues --    1.82166   1.82739   1.84481   1.85923   1.87962
 Alpha virt. eigenvalues --    1.88442   1.89318   1.91098   1.92494   1.94437
 Alpha virt. eigenvalues --    1.96328   1.98273   1.99312   1.99638   2.01199
 Alpha virt. eigenvalues --    2.02721   2.03896   2.07097   2.08132   2.09702
 Alpha virt. eigenvalues --    2.10514   2.11762   2.12708   2.14817   2.15271
 Alpha virt. eigenvalues --    2.16416   2.19301   2.19704   2.21552   2.23243
 Alpha virt. eigenvalues --    2.24327   2.25624   2.32033   2.37687   2.41657
 Alpha virt. eigenvalues --    2.45370   2.45941   2.49936   2.55508   2.56840
 Alpha virt. eigenvalues --    2.61633   2.63432   2.65728   2.69631   2.74628
 Alpha virt. eigenvalues --    2.75782   2.77397   2.79119   2.80407   2.81557
 Alpha virt. eigenvalues --    2.82005   2.83730   2.85500   2.86182   2.89883
 Alpha virt. eigenvalues --    2.91271   2.94857   2.97875   3.01795   3.03014
 Alpha virt. eigenvalues --    3.04612   3.07529   3.08477   3.11879   3.13669
 Alpha virt. eigenvalues --    3.14199   3.15382   3.20171   3.22696   3.29628
 Alpha virt. eigenvalues --    3.31961   3.35706   3.37013   3.43817   3.47027
 Alpha virt. eigenvalues --    3.50319   3.56213   3.64014   3.73001   3.81855
 Alpha virt. eigenvalues --    3.99281   4.03806   4.10761   4.14844   4.22872
 Alpha virt. eigenvalues --    4.41406   4.57862   5.13144   5.30936   5.54981
 Alpha virt. eigenvalues --    8.05856   8.05919   8.08649  17.40894  17.42985
 Alpha virt. eigenvalues --   17.44067  17.56778  17.58627  17.60953  17.61447
 Alpha virt. eigenvalues --   17.65651  17.67055  23.57442  23.71356  23.83631
 Alpha virt. eigenvalues --   23.90095  23.92676  23.97846  23.99912  24.07577
 Alpha virt. eigenvalues --   24.08525  24.09592  49.99690 189.30102 189.30733
 Alpha virt. eigenvalues --  189.33361
          Condensed to atoms (all electrons):
               1          2          3          4          5          6
     1  C    8.851675  -3.812672   1.351090  -0.648430   0.463173   0.643651
     2  C   -3.812672  17.995207  -6.921246   2.280206  -0.138914  -2.711836
     3  C    1.351090  -6.921246  12.332544  -1.479757   0.047805   0.755202
     4  C   -0.648430   2.280206  -1.479757   6.203382  -0.017854  -0.372416
     5  H    0.463173  -0.138914   0.047805  -0.017854   0.479085   0.006032
     6  S    0.643651  -2.711836   0.755202  -0.372416   0.006032  17.626090
     7  H    0.043147  -0.053187   0.030087   0.372470  -0.002997  -0.022434
     8  C    0.005368  -1.810567   0.040553  -0.167782  -0.001613   0.744258
     9  S   -0.088891  -0.155701   0.470451   0.066795   0.000371  -0.003139
    10  C    0.047655  -0.692144  -0.206225  -0.064383   0.000200   0.257847
    11  C   -0.101051   0.590923   0.051803   0.022830  -0.000147  -0.513241
    12  C   -0.087028   0.172332  -0.561536  -0.187050   0.000537   0.122245
    13  H   -0.002844  -0.003572   0.006575   0.003049  -0.000000   0.006345
    14  S   -0.002444   0.059815   0.007639   0.000113  -0.000004  -0.049472
    15  C   -0.001263  -0.031356  -0.037332  -0.000859   0.000001   0.004072
    16  C    0.014941  -0.071044   0.126195  -0.003989   0.000000   0.047942
    17  H   -0.000002   0.000055   0.000329   0.000001   0.000000  -0.000014
    18  H   -0.000003  -0.000112  -0.000466   0.000002  -0.000000   0.000054
    19  O   -0.162723   0.573894  -0.248227   0.010207  -0.001201   0.014260
    20  H   -0.082954  -0.036640   0.087813  -0.003305  -0.000145  -0.003403
               7          8          9         10         11         12
     1  C    0.043147   0.005368  -0.088891   0.047655  -0.101051  -0.087028
     2  C   -0.053187  -1.810567  -0.155701  -0.692144   0.590923   0.172332
     3  C    0.030087   0.040553   0.470451  -0.206225   0.051803  -0.561536
     4  C    0.372470  -0.167782   0.066795  -0.064383   0.022830  -0.187050
     5  H   -0.002997  -0.001613   0.000371   0.000200  -0.000147   0.000537
     6  S   -0.022434   0.744258  -0.003139   0.257847  -0.513241   0.122245
     7  H    0.436932  -0.002060  -0.000413  -0.000023   0.000186   0.000626
     8  C   -0.002060  10.892945   0.489005  -0.660655   0.660190  -3.874869
     9  S   -0.000413   0.489005  17.507891  -0.953119   1.243158  -2.384167
    10  C   -0.000023  -0.660655  -0.953119  13.950608  -5.240947   1.197113
    11  C    0.000186   0.660190   1.243158  -5.240947  16.681446  -6.770872
    12  C    0.000626  -3.874869  -2.384167   1.197113  -6.770872  17.479921
    13  H    0.000002   0.127765   0.009321  -0.057269   0.085401   0.180152
    14  S    0.000009  -0.351824   0.137939   0.796323  -0.456920  -0.250596
    15  C   -0.000000   0.131577   0.029454   0.916728  -0.303363  -0.546971
    16  C   -0.000005   0.113616   0.051411  -3.333845   0.029342   0.866708
    17  H    0.000000  -0.003226   0.000434  -0.040206   0.015299   0.019152
    18  H    0.000000   0.004275   0.011128  -0.003402  -0.029571   0.003267
    19  O   -0.000083  -0.019138  -0.041844   0.022158  -0.020714   0.029038
    20  H   -0.000003   0.015306   0.015075  -0.001638   0.002291  -0.004184
              13         14         15         16         17         18
     1  C   -0.002844  -0.002444  -0.001263   0.014941  -0.000002  -0.000003
     2  C   -0.003572   0.059815  -0.031356  -0.071044   0.000055  -0.000112
     3  C    0.006575   0.007639  -0.037332   0.126195   0.000329  -0.000466
     4  C    0.003049   0.000113  -0.000859  -0.003989   0.000001   0.000002
     5  H   -0.000000  -0.000004   0.000001   0.000000   0.000000  -0.000000
     6  S    0.006345  -0.049472   0.004072   0.047942  -0.000014   0.000054
     7  H    0.000002   0.000009  -0.000000  -0.000005   0.000000   0.000000
     8  C    0.127765  -0.351824   0.131577   0.113616  -0.003226   0.004275
     9  S    0.009321   0.137939   0.029454   0.051411   0.000434   0.011128
    10  C   -0.057269   0.796323   0.916728  -3.333845  -0.040206  -0.003402
    11  C    0.085401  -0.456920  -0.303363   0.029342   0.015299  -0.029571
    12  C    0.180152  -0.250596  -0.546971   0.866708   0.019152   0.003267
    13  H    0.481748   0.001715   0.000512  -0.007302  -0.000002   0.000008
    14  S    0.001715  16.676954   0.433743  -0.803036  -0.023020  -0.000178
    15  C    0.000512   0.433743   5.662520  -0.326691   0.367072   0.009779
    16  C   -0.007302  -0.803036  -0.326691   9.114926   0.026863   0.364538
    17  H   -0.000002  -0.023020   0.367072   0.026863   0.440043  -0.002725
    18  H    0.000008  -0.000178   0.009779   0.364538  -0.002725   0.475999
    19  O   -0.000001  -0.000180  -0.000339   0.002797   0.000000  -0.000006
    20  H   -0.000002   0.000012   0.000047   0.000048   0.000000  -0.000000
              19         20
     1  C   -0.162723  -0.082954
     2  C    0.573894  -0.036640
     3  C   -0.248227   0.087813
     4  C    0.010207  -0.003305
     5  H   -0.001201  -0.000145
     6  S    0.014260  -0.003403
     7  H   -0.000083  -0.000003
     8  C   -0.019138   0.015306
     9  S   -0.041844   0.015075
    10  C    0.022158  -0.001638
    11  C   -0.020714   0.002291
    12  C    0.029038  -0.004184
    13  H   -0.000001  -0.000002
    14  S   -0.000180   0.000012
    15  C   -0.000339   0.000047
    16  C    0.002797   0.000048
    17  H    0.000000   0.000000
    18  H   -0.000006  -0.000000
    19  O    8.028408   0.233140
    20  H    0.233140   0.455604
 Mulliken charges:
               1
     1  C   -0.430394
     2  C    0.766557
     3  C    0.146702
     4  C   -0.013230
     5  H    0.165671
     6  S   -0.552045
     7  H    0.197746
     8  C   -0.333124
     9  S   -0.405161
    10  C    0.065223
    11  C    0.053957
    12  C    0.596183
    13  H    0.168399
    14  S   -0.176587
    15  C   -0.307332
    16  C   -0.213415
    17  H    0.199946
    18  H    0.167411
    19  O   -0.419446
    20  H    0.322939
 Sum of Mulliken charges =  -0.00000
 Mulliken charges with hydrogens summed into heavy atoms:
               1
     1  C   -0.264722
     2  C    0.766557
     3  C    0.146702
     4  C    0.184516
     6  S   -0.552045
     8  C   -0.333124
     9  S   -0.405161
    10  C    0.065223
    11  C    0.053957
    12  C    0.764581
    14  S   -0.176587
    15  C   -0.107386
    16  C   -0.046004
    19  O   -0.096507
 Electronic spatial extent (au):  <R**2>=           4395.9323
 Charge=              0.0000 electrons
 Dipole moment (field-independent basis, Debye):
    X=             -2.3151    Y=              0.5680    Z=              1.1078  Tot=              2.6286
 Quadrupole moment (field-independent basis, Debye-Ang):
   XX=            -79.4623   YY=            -90.1400   ZZ=           -108.8216
   XY=             -2.7311   XZ=              4.6221   YZ=              0.6861
 Traceless Quadrupole moment (field-independent basis, Debye-Ang):
   XX=             13.3457   YY=              2.6679   ZZ=            -16.0136
   XY=             -2.7311   XZ=              4.6221   YZ=              0.6861
 Octapole moment (field-independent basis, Debye-Ang**2):
  XXX=            -72.3272  YYY=             37.0200  ZZZ=              3.3606  XYY=            -38.7571
  XXY=             27.9537  XXZ=             29.5737  XZZ=              3.6010  YZZ=              2.7917
  YYZ=              3.5999  XYZ=              9.9874
 Hexadecapole moment (field-independent basis, Debye-Ang**3):
 XXXX=          -4093.9013 YYYY=           -966.7440 ZZZZ=           -178.8516 XXXY=            -65.8247
 XXXZ=            120.5042 YYYX=           -121.4021 YYYZ=              1.2568 ZZZX=              6.9287
 ZZZY=             -0.3969 XXYY=           -806.3473 XXZZ=           -882.9373 YYZZ=           -232.2727
 XXYZ=             -7.3127 YYXZ=             12.8160 ZZXY=             -6.2558
 N-N= 1.104955463840D+03 E-N=-6.120094131358D+03  KE= 1.649268796230D+03
 Calling FoFJK, ICntrl=      2127 FMM=F ISym2X=0 I1Cent= 0 IOpClX= 0 NMat=1 NMatS=1 NMatT=0.
 ***** Axes restored to original set *****
 -------------------------------------------------------------------
 Center     Atomic                   Forces (Hartrees/Bohr)
 Number     Number              X              Y              Z
 -------------------------------------------------------------------
      1        6           0.017197854   -0.046047104    0.006123189
      2        6           0.031740233    0.021796839    0.013725629
      3        6          -0.038097191    0.024510146    0.000218543
      4        6           0.015824371    0.058017990   -0.018654632
      5        1          -0.000468668    0.001759865    0.000530635
      6       16          -0.004833394    0.032281931   -0.006987844
      7        1           0.002849277   -0.003221422   -0.000029960
      8        6           0.042968834   -0.033336462   -0.013691701
      9       16          -0.014624808   -0.013445193   -0.009152575
     10        6           0.003714075   -0.038309220    0.012788162
     11        6          -0.018355692    0.034220269    0.020587717
     12        6          -0.020880942    0.054873805    0.010039043
     13        1          -0.005145836   -0.000812810   -0.004249784
     14       16           0.012469787    0.018959905   -0.005369863
     15        6          -0.042847048    0.048534472   -0.001636616
     16        6           0.025405242   -0.055858909    0.009887154
     17        1           0.001082971   -0.003921044   -0.006006255
     18        1           0.002620942   -0.002480671   -0.008921769
     19        8          -0.035042467    0.014070350   -0.003162745
     20        1           0.024422458   -0.111592736    0.003963671
 -------------------------------------------------------------------
 Cartesian Forces:  Max     0.111592736 RMS     0.027482929

 GradGradGradGradGradGradGradGradGradGradGradGradGradGradGradGradGradGrad
 Berny optimization.
 FormGI is forming the generalized inverse of G from B-inverse, IUseBI=4.
 Internal  Forces:  Max     0.110694628 RMS     0.021697844
 Search for a local minimum.
 Step number   1 out of a maximum of  116
 All quantities printed in internal units (Hartrees-Bohrs-Radians)
 Mixed Optimization -- RFO/linear search
 Second derivative matrix not updated -- first step.
 ITU=  0
     Eigenvalues ---    0.00230   0.00994   0.01058   0.01222   0.01275
     Eigenvalues ---    0.01300   0.01362   0.01426   0.01458   0.01492
     Eigenvalues ---    0.01500   0.01592   0.01595   0.01773   0.02198
     Eigenvalues ---    0.02650   0.15073   0.15683   0.15737   0.15997
     Eigenvalues ---    0.16000   0.16000   0.17998   0.22444   0.22526
     Eigenvalues ---    0.23322   0.23979   0.24118   0.24633   0.24979
     Eigenvalues ---    0.24995   0.26145   0.26577   0.28307   0.28383
     Eigenvalues ---    0.28663   0.30910   0.31350   0.31555   0.34839
     Eigenvalues ---    0.35102   0.35872   0.35913   0.36006   0.36114
     Eigenvalues ---    0.36185   0.36350   0.37598   0.38337   0.38435
     Eigenvalues ---    0.39456   0.39643   0.406041000.000001000.00000
     Eigenvalues --- 1000.000001000.000001000.000001000.000001000.00000
     Eigenvalues --- 1000.000001000.000001000.000001000.000001000.00000
     Eigenvalues --- 1000.000001000.000001000.000001000.000001000.00000
     Eigenvalues --- 1000.000001000.000001000.000001000.000001000.00000
     Eigenvalues --- 1000.000001000.000001000.000001000.000001000.00000
     Eigenvalues --- 1000.000001000.000001000.000001000.000001000.00000
     Eigenvalues --- 1000.000001000.000001000.000001000.000001000.00000
     Eigenvalues --- 1000.000001000.000001000.000001000.000001000.00000
     Eigenvalues --- 1000.000001000.000001000.000001000.000001000.00000
     Eigenvalues --- 1000.000001000.000001000.000001000.000001000.00000
     Eigenvalues --- 1000.00000
 RFO step:  Lambda=-1.20759264D-01 EMin= 2.30000000D-03
 Linear search not attempted -- first point.
 Maximum step size (   0.300) exceeded in Quadratic search.
    -- Step size scaled by   0.562
 Iteration  1 RMS(Cart)=  0.06239805 RMS(Int)=  0.00144928
 Iteration  2 RMS(Cart)=  0.00165016 RMS(Int)=  0.00010574
 Iteration  3 RMS(Cart)=  0.00000904 RMS(Int)=  0.00010554
 Iteration  4 RMS(Cart)=  0.00000000 RMS(Int)=  0.00010554
 Iteration  1 RMS(Cart)=  0.00000126 RMS(Int)=  0.00000059
 Iteration  2 RMS(Cart)=  0.00000069 RMS(Int)=  0.00000066
 Variable       Old X    -DE/DX   Delta X   Delta X   Delta X     New X
                                 (Linear)    (Quad)   (Total)
    R1        2.71917  -0.02543   0.00000  -0.02889  -0.02881   2.69036
    R2        2.71391  -0.06215   0.00000  -0.06740  -0.06739   2.64652
    R3        2.03793   0.00148   0.00000   0.00172   0.00172   2.03965
    R4        2.75906  -0.07219   0.00000  -0.08326  -0.08320   2.67586
    R5        2.90711  -0.09500   0.00000  -0.13101  -0.13101   2.77610
    R6        3.39578  -0.03037   0.00000  -0.04307  -0.04312   3.35266
    R7        2.74954  -0.01466   0.00000  -0.01659  -0.01659   2.73295
    R8        3.28671  -0.01628   0.00000  -0.01985  -0.01993   3.26679
    R9        2.04073  -0.00086   0.00000  -0.00101  -0.00101   2.03972
   R10        3.38249  -0.01939   0.00000  -0.02636  -0.02643   3.35606
   R11        2.76705  -0.06840   0.00000  -0.07932  -0.07935   2.68770
   R12        3.26973  -0.00561   0.00000  -0.00637  -0.00637   3.26336
   R13        2.72267  -0.03920   0.00000  -0.04394  -0.04378   2.67889
   R14        2.69524  -0.00305   0.00000  -0.00432  -0.00423   2.69100
   R15        2.70808  -0.01536   0.00000  -0.01763  -0.01758   2.69050
   R16        3.27295  -0.00374   0.00000  -0.00371  -0.00373   3.26922
   R17        2.03903   0.00194   0.00000   0.00226   0.00226   2.04129
   R18        3.33582  -0.01760   0.00000  -0.02305  -0.02316   3.31266
   R19        2.72952  -0.06518   0.00000  -0.07222  -0.07224   2.65728
   R20        2.04218  -0.00075   0.00000  -0.00088  -0.00088   2.04130
   R21        2.05510  -0.00441   0.00000  -0.00525  -0.00525   2.04985
   R22        2.18171  -0.11069   0.00000  -0.15400  -0.15400   2.02772
    A1        1.97020  -0.00405   0.00000  -0.00962  -0.00951   1.96069
    A2        2.17330   0.00108   0.00000   0.00292   0.00286   2.17616
    A3        2.13967   0.00298   0.00000   0.00672   0.00666   2.14634
    A4        1.97187   0.01601   0.00000   0.02234   0.02247   1.99434
    A5        2.21760  -0.00272   0.00000  -0.00200  -0.00210   2.21549
    A6        2.06941  -0.01248   0.00000  -0.01719  -0.01732   2.05209
    A7        1.90440  -0.00501   0.00000  -0.00724  -0.00721   1.89719
    A8        2.31891  -0.00815   0.00000  -0.01256  -0.01258   2.30634
    A9        2.05972   0.01315   0.00000   0.01973   0.01972   2.07943
   A10        1.95339  -0.00106   0.00000  -0.00136  -0.00141   1.95198
   A11        2.17580   0.00483   0.00000   0.00928   0.00931   2.18511
   A12        2.15384  -0.00377   0.00000  -0.00792  -0.00790   2.14595
   A13        1.62490  -0.00588   0.00000  -0.00411  -0.00432   1.62057
   A14        2.12894  -0.00523   0.00000  -0.00784  -0.00786   2.12107
   A15        2.24035  -0.00446   0.00000  -0.00669  -0.00672   2.23364
   A16        1.91323   0.00975   0.00000   0.01472   0.01476   1.92798
   A17        1.61902  -0.00843   0.00000  -0.01031  -0.01025   1.60877
   A18        1.96203  -0.00893   0.00000  -0.01130  -0.01151   1.95052
   A19        2.23862   0.00749   0.00000   0.01735   0.01704   2.25567
   A20        1.96508   0.00529   0.00000   0.00781   0.00788   1.97297
   A21        1.96554   0.00741   0.00000   0.01005   0.01004   1.97557
   A22        1.96683  -0.01257   0.00000  -0.01669  -0.01683   1.95000
   A23        2.23794   0.00880   0.00000   0.01951   0.01926   2.25719
   A24        1.96426   0.00024   0.00000  -0.00302  -0.00290   1.96137
   A25        2.16120  -0.00291   0.00000  -0.00341  -0.00352   2.15768
   A26        2.14574   0.00321   0.00000   0.00872   0.00860   2.15434
   A27        1.59306   0.00024   0.00000   0.00205   0.00206   1.59513
   A28        1.96007   0.00168   0.00000   0.00163   0.00159   1.96165
   A29        2.13498  -0.00445   0.00000  -0.00711  -0.00724   2.12774
   A30        2.17098   0.00387   0.00000   0.00978   0.00968   2.18066
   A31        1.93942   0.00536   0.00000   0.00518   0.00529   1.94471
   A32        2.16560   0.00008   0.00000   0.00493   0.00470   2.17030
   A33        2.14124  -0.00350   0.00000  -0.00259  -0.00285   2.13840
   A34        2.32184  -0.06204   0.00000  -0.12414  -0.12414   2.19770
    D1        0.00683  -0.00078   0.00000  -0.00339  -0.00338   0.00346
    D2       -2.89394  -0.00335   0.00000  -0.01682  -0.01691  -2.91085
    D3       -3.13952   0.00030   0.00000   0.00168   0.00169  -3.13783
    D4        0.24290  -0.00228   0.00000  -0.01175  -0.01185   0.23105
    D5       -0.00671   0.00081   0.00000   0.00253   0.00247  -0.00424
    D6       -3.13020   0.00053   0.00000   0.00237   0.00236  -3.12784
    D7        3.13954  -0.00023   0.00000  -0.00241  -0.00248   3.13706
    D8        0.01605  -0.00051   0.00000  -0.00257  -0.00260   0.01345
    D9       -0.00388   0.00050   0.00000   0.00279   0.00278  -0.00110
   D10        3.11762   0.00033   0.00000  -0.00097  -0.00093   3.11669
   D11        2.91927   0.00388   0.00000   0.01668   0.01662   2.93588
   D12       -0.24242   0.00371   0.00000   0.01291   0.01290  -0.22952
   D13       -0.28016   0.00172   0.00000   0.00317   0.00308  -0.27708
   D14        3.11413  -0.00450   0.00000  -0.01583  -0.01574   3.09839
   D15        0.00006  -0.00005   0.00000  -0.00119  -0.00118  -0.00112
   D16       -3.12486   0.00034   0.00000   0.00231   0.00235  -3.12251
   D17        0.34877  -0.00170   0.00000   0.00000  -0.00000   0.34877
   D18       -2.83639   0.00067   0.00000   0.00645   0.00646  -2.82992
   D19       -2.81432  -0.00207   0.00000  -0.00431  -0.00432  -2.81864
   D20        0.28370   0.00030   0.00000   0.00214   0.00215   0.28585
   D21        0.00376  -0.00039   0.00000  -0.00067  -0.00067   0.00309
   D22        3.12751  -0.00001   0.00000  -0.00030  -0.00035   3.12716
   D23        3.13754   0.00064   0.00000   0.00141   0.00141   3.13895
   D24        0.03221  -0.00108   0.00000  -0.00358  -0.00364   0.02857
   D25       -3.13829  -0.00118   0.00000  -0.00277  -0.00275  -3.14104
   D26       -0.15849   0.00279   0.00000   0.01341   0.01340  -0.14509
   D27       -0.03593   0.00070   0.00000   0.00264   0.00273  -0.03320
   D28        2.94387   0.00467   0.00000   0.01882   0.01888   2.96275
   D29       -0.02093   0.00159   0.00000   0.00422   0.00419  -0.01674
   D30       -2.61649  -0.00742   0.00000  -0.02637  -0.02644  -2.64293
   D31        0.00353  -0.00106   0.00000  -0.00295  -0.00292   0.00061
   D32       -2.68869  -0.01034   0.00000  -0.03226  -0.03189  -2.72058
   D33        2.68772   0.00806   0.00000   0.02697   0.02672   2.71444
   D34       -0.00450  -0.00121   0.00000  -0.00234  -0.00225  -0.00675
   D35        2.61377   0.00643   0.00000   0.02774   0.02798   2.64175
   D36       -0.24498  -0.00034   0.00000   0.00010   0.00019  -0.24479
   D37        0.01897   0.00098   0.00000   0.00191   0.00186   0.02083
   D38       -2.83978  -0.00579   0.00000  -0.02574  -0.02593  -2.86571
   D39        0.02150   0.00021   0.00000   0.00005   0.00000   0.02150
   D40       -2.95995  -0.00307   0.00000  -0.01468  -0.01482  -2.97477
   D41        2.62773   0.00439   0.00000   0.02285   0.02313   2.65086
   D42       -0.35373   0.00111   0.00000   0.00812   0.00831  -0.34542
   D43       -0.00858   0.00112   0.00000   0.00191   0.00186  -0.00672
   D44       -2.61448  -0.00801   0.00000  -0.02753  -0.02749  -2.64197
   D45        0.01948  -0.00044   0.00000  -0.00069  -0.00069   0.01879
   D46        2.97103   0.00607   0.00000   0.02403   0.02389   2.99492
   D47       -0.02535  -0.00012   0.00000  -0.00043  -0.00039  -0.02574
   D48        2.83803   0.00720   0.00000   0.02817   0.02821   2.86624
   D49       -2.97228  -0.00571   0.00000  -0.02356  -0.02364  -2.99592
   D50       -0.10890   0.00160   0.00000   0.00504   0.00496  -0.10395
         Item               Value     Threshold  Converged?
 Maximum Force            0.110695     0.000450     NO 
 RMS     Force            0.021800     0.000300     NO 
 Maximum Displacement     0.443775     0.001800     NO 
 RMS     Displacement     0.062548     0.001200     NO 
 Predicted change in Energy=-5.477523D-02
 GradGradGradGradGradGradGradGradGradGradGradGradGradGradGradGradGradGrad

                          Input orientation:                          
 ---------------------------------------------------------------------
 Center     Atomic      Atomic             Coordinates (Angstroms)
 Number     Number       Type             X           Y           Z
 ---------------------------------------------------------------------
      1          6           0       -4.206089   -1.343705   -0.222244
      2          6           0       -2.882971   -0.979958   -0.601596
      3          6           0       -1.962144   -2.055660   -0.605433
      4          6           0       -4.318513   -2.707512    0.075638
      5          1           0       -5.038899   -0.659449   -0.165755
      6         16           0       -2.812306   -3.533960   -0.116079
      7          1           0       -5.228213   -3.206371    0.373355
      8          6           0       -0.558491   -2.130266   -0.945625
      9         16           0        0.469246   -0.682123   -0.970693
     10          6           0        1.860493   -1.597009   -1.428503
     11          6           0        1.566664   -2.979244   -1.541222
     12          6           0        0.206813   -3.288593   -1.254552
     13          1           0       -0.163557   -4.297276   -1.143976
     14         16           0        2.980561   -3.953742   -1.331111
     15          6           0        3.979218   -2.531258   -1.102700
     16          6           0        3.235540   -1.339341   -1.162647
     17          1           0        5.010468   -2.601962   -0.789053
     18          1           0        3.622258   -0.391959   -0.802697
     19          8           0       -2.340272    0.380224   -0.717733
     20          1           0       -2.914807    1.285165   -0.766374
 ---------------------------------------------------------------------
                    Distance matrix (angstroms):
                    1          2          3          4          5
     1  C    0.000000
     2  C    1.423679   0.000000
     3  C    2.385164   1.416005   0.000000
     4  C    1.400480   2.346033   2.537961   0.000000
     5  H    1.079338   2.222771   3.407220   2.184443   0.000000
     6  S    2.598292   2.600701   1.774152   1.728709   3.636345
     7  H    2.206581   3.377515   3.598523   1.079374   2.610229
     8  C    3.800912   2.616251   1.446215   3.938776   4.779703
     9  S    4.780861   3.385602   2.816323   5.302797   5.566696
    10  C    6.190529   4.854377   3.937049   6.455678   7.076381
    11  C    6.143238   4.967826   3.765793   6.109287   7.134902
    12  C    4.931729   3.911893   2.577955   4.752435   5.967862
    13  H    5.090701   4.323654   2.924002   4.612859   6.161142
    14  S    7.725919   6.614876   5.344123   7.537142   8.747694
    15  C    8.317737   7.053175   5.981074   8.382834   9.257860
    16  C    7.500815   6.154681   5.276316   7.776179   8.361961
    17  H    9.319303   8.060546   6.996390   9.369564  10.254347
    18  H    7.907324   6.534844   5.830297   8.317999   8.688665
    19  O    2.588188   1.469050   2.467615   3.751932   2.944179
    20  H    2.979000   2.271332   3.477726   4.315188   2.941773
                    6          7          8          9         10
     6  S    0.000000
     7  H    2.486658   0.000000
     8  C    2.781759   4.970313   0.000000
     9  S    4.430793   6.374899   1.775948   0.000000
    10  C    5.225829   7.489092   2.523692   1.726898   0.000000
    11  C    4.638332   7.063112   2.364695   2.608945   1.417608
    12  C    3.235955   5.674182   1.422268   2.634982   2.371997
    13  H    2.941954   5.398435   2.211617   3.674208   3.386617
    14  S    5.933786   8.417109   3.999819   4.140060   2.611173
    15  C    6.935678   9.349401   4.558100   3.969462   2.338368
    16  C    6.518289   8.802284   3.881666   2.849765   1.424018
    17  H    7.906788  10.322165   5.591092   4.933707   3.367665
    18  H    7.193555   9.361349   4.529990   3.170789   2.224319
    19  O    3.988188   4.732266   3.086947   3.014293   4.696922
    20  H    4.863883   5.179259   4.153255   3.919666   5.616835
                   11         12         13         14         15
    11  C    0.000000
    12  C    1.423753   0.000000
    13  H    2.211036   1.080205   0.000000
    14  S    1.729999   2.853412   3.168361   0.000000
    15  C    2.492671   3.850670   4.503678   1.752983   0.000000
    16  C    2.370179   3.602945   4.505950   2.632202   1.406171
    17  H    3.545121   4.874757   5.456244   2.498332   1.080208
    18  H    3.385990   4.501103   5.449805   3.657499   2.189525
    19  O    5.218075   4.498448   5.176754   6.889903   6.968564
    20  H    6.234513   5.558964   6.235031   7.906986   7.887064
                   16         17         18         19         20
    16  C    0.000000
    17  H    2.210012   0.000000
    18  H    1.084734   2.609870   0.000000
    19  O    5.851882   7.932962   6.012924   0.000000
    20  H    6.698644   8.827245   6.748873   1.073021   0.000000
 Stoichiometry    C10H6OS3
 Framework group  C1[X(C10H6OS3)]
 Deg. of freedom    54
 Full point group                 C1      NOp   1
 Largest Abelian subgroup         C1      NOp   1
 Largest concise Abelian subgroup C1      NOp   1
                         Standard orientation:                         
 ---------------------------------------------------------------------
 Center     Atomic      Atomic             Coordinates (Angstroms)
 Number     Number       Type             X           Y           Z
 ---------------------------------------------------------------------
      1          6           0       -4.063114    0.295884   -0.001427
      2          6           0       -2.755160    0.840147   -0.142474
      3          6           0       -1.714372   -0.115937   -0.054526
      4          6           0       -4.044058   -1.089634    0.201848
      5          1           0       -4.975535    0.870903   -0.043985
      6         16           0       -2.432850   -1.716001    0.212310
      7          1           0       -4.917084   -1.712876    0.322025
      8          6           0       -0.277292    0.000901   -0.167168
      9         16           0        0.547731    1.558433    0.050602
     10          6           0        2.098516    0.850183   -0.224396
     11          6           0        2.005263   -0.545264   -0.456009
     12          6           0        0.668574   -1.033279   -0.409350
     13          1           0        0.418113   -2.084039   -0.413510
     14         16           0        3.483304   -1.358312   -0.072287
     15          6           0        4.244197    0.151985    0.389228
     16          6           0        3.371862    1.248743    0.273163
     17          1           0        5.215486    0.181212    0.861025
     18          1           0        3.573941    2.206601    0.740409
     19          8           0       -2.380093    2.259795   -0.097388
     20          1           0       -3.051628    3.091542   -0.190190
 ---------------------------------------------------------------------
 Rotational constants (GHZ):           1.2165020           0.2855980           0.2339412
 Standard basis: 6-311+G(d,p) (5D, 7F)
 There are   382 symmetry adapted cartesian basis functions of A   symmetry.
 There are   368 symmetry adapted basis functions of A   symmetry.
   368 basis functions,   594 primitive gaussians,   382 cartesian basis functions
    61 alpha electrons       61 beta electrons
       nuclear repulsion energy      1119.5037272201 Hartrees.
 NAtoms=   20 NActive=   20 NUniq=   20 SFac= 1.00D+00 NAtFMM=   60 NAOKFM=F Big=F
 Integral buffers will be    131072 words long.
 Raffenetti 2 integral format.
 Two-electron integral symmetry is turned on.
 Nuclear repulsion after empirical dispersion term =     1119.4936737150 Hartrees.
 One-electron integrals computed using PRISM.
 NBasis=   368 RedAO= T EigKep=  2.23D-06  NBF=   368
 NBsUse=   367 1.00D-06 EigRej=  3.79D-07 NBFU=   367
 Initial guess from the checkpoint file:  "/tmp/pbs.4762174[195].pbs/Gau-2078978.chk"
 B after Tr=     0.000000   -0.000000   -0.000000
         Rot=    0.999994    0.001183   -0.000029    0.003219 Ang=   0.39 deg.
 ExpMin= 4.05D-02 ExpMax= 9.34D+04 ExpMxC= 3.17D+03 IAcc=3 IRadAn=         5 AccDes= 0.00D+00
 Harris functional with IExCor= 4639 and IRadAn=       5 diagonalized for initial guess.
 HarFok:  IExCor= 4639 AccDes= 0.00D+00 IRadAn=         5 IDoV= 1 UseB2=F ITyADJ=14
 ICtDFT=  3500011 ScaDFX=  1.000000  1.000000  1.000000  1.000000
 FoFCou: FMM=F IPFlag=           0 FMFlag=      100000 FMFlg1=           0
         NFxFlg=           0 DoJE=T BraDBF=F KetDBF=T FulRan=T
         wScrn=  0.000000 ICntrl=       500 IOpCl=  0 I1Cent=   200000004 NGrid=           0
         NMat0=    1 NMatS0=      1 NMatT0=    0 NMatD0=    1 NMtDS0=    0 NMtDT0=    0
 Petite list used in FoFCou.
 Requested convergence on RMS density matrix=1.00D-08 within 128 cycles.
 Requested convergence on MAX density matrix=1.00D-06.
 Requested convergence on             energy=1.00D-06.
 No special actions if energy rises.
 SCF Done:  E(RwB97XD) =  -1654.35998419     A.U. after   16 cycles
            NFock= 16  Conv=0.59D-08     -V/T= 2.0026
 Calling FoFJK, ICntrl=      2127 FMM=F ISym2X=0 I1Cent= 0 IOpClX= 0 NMat=1 NMatS=1 NMatT=0.
 ***** Axes restored to original set *****
 -------------------------------------------------------------------
 Center     Atomic                   Forces (Hartrees/Bohr)
 Number     Number              X              Y              Z
 -------------------------------------------------------------------
      1        6           0.004943875   -0.028936191    0.004235136
      2        6           0.031870367    0.033739991    0.010320499
      3        6          -0.030681041    0.010323987   -0.000285676
      4        6           0.009245159    0.035233001   -0.011887058
      5        1          -0.000118982    0.001744012    0.000515605
      6       16          -0.002118292    0.017305703   -0.004432261
      7        1           0.002341352   -0.003360054    0.000227812
      8        6           0.031425935   -0.020049282   -0.009752448
      9       16          -0.010969265   -0.006174977   -0.008277550
     10        6           0.001127559   -0.026019211    0.011053151
     11        6          -0.007437001    0.023019611    0.016660302
     12        6          -0.016457719    0.033834772    0.007455657
     13        1          -0.003709397   -0.000398561   -0.004440097
     14       16           0.010104395    0.008764019   -0.005871447
     15        6          -0.027689144    0.031346928    0.000908303
     16        6           0.017933749   -0.034348860    0.007532094
     17        1           0.000961582   -0.003561598   -0.005288070
     18        1           0.001813094   -0.000355960   -0.008035288
     19        8          -0.038416525    0.011675066   -0.004562380
     20        1           0.025830299   -0.083782395    0.003923715
 -------------------------------------------------------------------
 Cartesian Forces:  Max     0.083782395 RMS     0.019935834

 GradGradGradGradGradGradGradGradGradGradGradGradGradGradGradGradGradGrad
 Berny optimization.
 Using GEDIIS/GDIIS optimizer.
 FormGI is forming the generalized inverse of G from B-inverse, IUseBI=4.
 Internal  Forces:  Max     0.084666888 RMS     0.014805115
 Search for a local minimum.
 Step number   2 out of a maximum of  116
 All quantities printed in internal units (Hartrees-Bohrs-Radians)
 Mixed Optimization -- RFO/linear search
 Update second derivatives using D2CorX and points    1    2
 DE= -5.80D-02 DEPred=-5.48D-02 R= 1.06D+00
 TightC=F SS=  1.41D+00  RLast= 3.15D-01 DXNew= 5.0454D-01 9.4470D-01
 Trust test= 1.06D+00 RLast= 3.15D-01 DXMaxT set to 5.05D-01
 ITU=  1  0
 Use linear search instead of GDIIS.
     Eigenvalues ---    0.00230   0.00996   0.01054   0.01219   0.01273
     Eigenvalues ---    0.01296   0.01347   0.01407   0.01460   0.01485
     Eigenvalues ---    0.01499   0.01592   0.01592   0.01743   0.02119
     Eigenvalues ---    0.02501   0.14713   0.15266   0.15746   0.15821
     Eigenvalues ---    0.16000   0.16022   0.18340   0.20986   0.22457
     Eigenvalues ---    0.22543   0.23425   0.24103   0.24378   0.24946
     Eigenvalues ---    0.25018   0.25395   0.26255   0.26695   0.28428
     Eigenvalues ---    0.28532   0.30886   0.31353   0.31532   0.34865
     Eigenvalues ---    0.35104   0.35913   0.36005   0.36108   0.36118
     Eigenvalues ---    0.36184   0.36431   0.37564   0.38220   0.39291
     Eigenvalues ---    0.39506   0.40507   0.435801000.000001000.00000
     Eigenvalues --- 1000.000001000.000001000.000001000.000001000.00000
     Eigenvalues --- 1000.000001000.000001000.000001000.000001000.00000
     Eigenvalues --- 1000.000001000.000001000.000001000.000001000.00000
     Eigenvalues --- 1000.000001000.000001000.000001000.000001000.00000
     Eigenvalues --- 1000.000001000.000001000.000001000.000001000.00000
     Eigenvalues --- 1000.000001000.000001000.000001000.000001000.00000
     Eigenvalues --- 1000.000001000.000001000.000001000.000001000.00000
     Eigenvalues --- 1000.000001000.000001000.000001000.000001000.00000
     Eigenvalues --- 1000.000001000.000001000.000001000.000001000.00000
     Eigenvalues --- 1000.000001000.000001000.000001000.000001000.00000
     Eigenvalues --- 1000.00000
 RFO step:  Lambda=-1.03867562D-02 EMin= 2.30053844D-03
 Quartic linear search produced a step of  1.45046.
 Iteration  1 RMS(Cart)=  0.09126936 RMS(Int)=  0.01905983
 Iteration  2 RMS(Cart)=  0.02266878 RMS(Int)=  0.00102812
 Iteration  3 RMS(Cart)=  0.00020691 RMS(Int)=  0.00100829
 Iteration  4 RMS(Cart)=  0.00000022 RMS(Int)=  0.00100829
 Iteration  1 RMS(Cart)=  0.00000502 RMS(Int)=  0.00000248
 Iteration  2 RMS(Cart)=  0.00000273 RMS(Int)=  0.00000277
 Iteration  3 RMS(Cart)=  0.00000149 RMS(Int)=  0.00000312
 Iteration  4 RMS(Cart)=  0.00000081 RMS(Int)=  0.00000336
 Variable       Old X    -DE/DX   Delta X   Delta X   Delta X     New X
                                 (Linear)    (Quad)   (Total)
    R1        2.69036  -0.00979  -0.04178   0.03835  -0.00304   2.68733
    R2        2.64652  -0.03561  -0.09775   0.02234  -0.07549   2.57103
    R3        2.03965   0.00122   0.00250   0.00181   0.00431   2.04397
    R4        2.67586  -0.04097  -0.12068   0.03238  -0.08789   2.58797
    R5        2.77610  -0.07136  -0.19002  -0.07477  -0.26479   2.51131
    R6        3.35266  -0.01761  -0.06254   0.02066  -0.04200   3.31066
    R7        2.73295  -0.00358  -0.02406   0.03622   0.01217   2.74512
    R8        3.26679  -0.00941  -0.02890   0.00807  -0.02130   3.24548
    R9        2.03972  -0.00036  -0.00146   0.00127  -0.00019   2.03953
   R10        3.35606  -0.01150  -0.03834   0.01274  -0.02652   3.32953
   R11        2.68770  -0.04264  -0.11509   0.00811  -0.10754   2.58016
   R12        3.26336  -0.00091  -0.00924   0.01847   0.00945   3.27281
   R13        2.67889  -0.02410  -0.06350   0.00094  -0.06079   2.61810
   R14        2.69100   0.00032  -0.00614   0.01252   0.00694   2.69794
   R15        2.69050  -0.00583  -0.02550   0.02245  -0.00254   2.68796
   R16        3.26922   0.00000  -0.00540   0.01614   0.01079   3.28001
   R17        2.04129   0.00119   0.00328  -0.00033   0.00295   2.04425
   R18        3.31266  -0.01055  -0.03359   0.00982  -0.02463   3.28803
   R19        2.65728  -0.03970  -0.10478   0.01166  -0.09352   2.56376
   R20        2.04130  -0.00038  -0.00128   0.00064  -0.00064   2.04066
   R21        2.04985  -0.00233  -0.00762   0.00334  -0.00428   2.04557
   R22        2.02772  -0.08467  -0.22337  -0.09987  -0.32324   1.70448
    A1        1.96069  -0.00197  -0.01380   0.00959  -0.00359   1.95710
    A2        2.17616  -0.00012   0.00415  -0.01111  -0.00730   2.16887
    A3        2.14634   0.00209   0.00966   0.00153   0.01086   2.15720
    A4        1.99434   0.00663   0.03259  -0.03206  -0.00042   1.99392
    A5        2.21549  -0.00381  -0.00305  -0.01449  -0.02041   2.19508
    A6        2.05209  -0.00202  -0.02512   0.06507   0.03751   2.08960
    A7        1.89719  -0.00068  -0.01046   0.02238   0.01261   1.90980
    A8        2.30634  -0.00630  -0.01824  -0.00697  -0.02555   2.28079
    A9        2.07943   0.00698   0.02860  -0.01529   0.01294   2.09238
   A10        1.95198   0.00003  -0.00204   0.00682   0.00463   1.95661
   A11        2.18511   0.00415   0.01350   0.01300   0.02657   2.21168
   A12        2.14595  -0.00419  -0.01145  -0.01989  -0.03127   2.11468
   A13        1.62057  -0.00401  -0.00627  -0.00679  -0.01361   1.60696
   A14        2.12107  -0.00195  -0.01141   0.01417   0.00280   2.12387
   A15        2.23364  -0.00409  -0.00974  -0.01062  -0.02033   2.21330
   A16        1.92798   0.00609   0.02140  -0.00376   0.01757   1.94555
   A17        1.60877  -0.00505  -0.01487  -0.00022  -0.01445   1.59432
   A18        1.95052  -0.00547  -0.01670   0.00601  -0.01179   1.93873
   A19        2.25567   0.00592   0.02472   0.01986   0.04122   2.29689
   A20        1.97297   0.00283   0.01144  -0.00539   0.00581   1.97878
   A21        1.97557   0.00356   0.01456  -0.00874   0.00525   1.98083
   A22        1.95000  -0.00706  -0.02441   0.01448  -0.01119   1.93881
   A23        2.25719   0.00664   0.02793   0.01801   0.04253   2.29973
   A24        1.96137   0.00091  -0.00420   0.00720   0.00389   1.96526
   A25        2.15768  -0.00206  -0.00510   0.00218  -0.00390   2.15379
   A26        2.15434   0.00162   0.01248  -0.00623   0.00521   2.15954
   A27        1.59513  -0.00083   0.00299  -0.01459  -0.01077   1.58436
   A28        1.96165   0.00218   0.00230   0.01360   0.01533   1.97699
   A29        2.12774  -0.00449  -0.01051  -0.01686  -0.02862   2.09911
   A30        2.18066   0.00319   0.01404   0.00923   0.02221   2.20287
   A31        1.94471   0.00289   0.00767  -0.00748   0.00103   1.94574
   A32        2.17030  -0.00010   0.00682  -0.00340   0.00165   2.17196
   A33        2.13840  -0.00126  -0.00413   0.01690   0.01110   2.14950
   A34        2.19770  -0.04675  -0.18006  -0.04571  -0.22577   1.97193
    D1        0.00346  -0.00028  -0.00490   0.02940   0.02446   0.02792
    D2       -2.91085  -0.00438  -0.02453  -0.07633  -0.09908  -3.00993
    D3       -3.13783   0.00074   0.00245   0.02845   0.03045  -3.10738
    D4        0.23105  -0.00336  -0.01718  -0.07727  -0.09309   0.13796
    D5       -0.00424   0.00035   0.00359  -0.01578  -0.01187  -0.01611
    D6       -3.12784   0.00035   0.00342  -0.01113  -0.00773  -3.13557
    D7        3.13706  -0.00065  -0.00360  -0.01486  -0.01782   3.11924
    D8        0.01345  -0.00065  -0.00377  -0.01021  -0.01368  -0.00023
    D9       -0.00110   0.00011   0.00404  -0.02873  -0.02493  -0.02603
   D10        3.11669   0.00018  -0.00135  -0.02231  -0.02415   3.09254
   D11        2.93588   0.00341   0.02410   0.05681   0.08277   3.01865
   D12       -0.22952   0.00349   0.01871   0.06324   0.08355  -0.14596
   D13       -0.27708   0.00143   0.00447   0.06404   0.06864  -0.20844
   D14        3.09839  -0.00375  -0.02283  -0.03332  -0.05628   3.04211
   D15       -0.00112   0.00008  -0.00171   0.01649   0.01523   0.01411
   D16       -3.12251   0.00021   0.00341   0.01099   0.01516  -3.10735
   D17        0.34877  -0.00171  -0.00000   0.00000   0.00001   0.34878
   D18       -2.82992   0.00038   0.00938  -0.00821   0.00148  -2.82844
   D19       -2.81864  -0.00173  -0.00626   0.00738   0.00078  -2.81786
   D20        0.28585   0.00035   0.00312  -0.00082   0.00225   0.28811
   D21        0.00309  -0.00024  -0.00097  -0.00061  -0.00176   0.00133
   D22        3.12716  -0.00014  -0.00050  -0.00475  -0.00497   3.12220
   D23        3.13895   0.00044   0.00205  -0.01874  -0.01675   3.12220
   D24        0.02857  -0.00115  -0.00528  -0.01163  -0.01732   0.01126
   D25       -3.14104  -0.00084  -0.00399   0.02184   0.01801  -3.12303
   D26       -0.14509   0.00284   0.01944   0.04454   0.06407  -0.08101
   D27       -0.03320   0.00094   0.00396   0.01471   0.01919  -0.01401
   D28        2.96275   0.00462   0.02739   0.03742   0.06526   3.02801
   D29       -0.01674   0.00127   0.00608   0.00538   0.01129  -0.00544
   D30       -2.64293  -0.00647  -0.03835  -0.03952  -0.07882  -2.72175
   D31        0.00061  -0.00073  -0.00423   0.00219  -0.00201  -0.00140
   D32       -2.72058  -0.00864  -0.04626  -0.04898  -0.09226  -2.81284
   D33        2.71444   0.00716   0.03876   0.04677   0.08297   2.79741
   D34       -0.00675  -0.00075  -0.00326  -0.00440  -0.00728  -0.01403
   D35        2.64175   0.00633   0.04059   0.03433   0.07638   2.71813
   D36       -0.24479   0.00002   0.00028   0.00654   0.00788  -0.23691
   D37        0.02083   0.00043   0.00270  -0.01381  -0.01152   0.00931
   D38       -2.86571  -0.00588  -0.03761  -0.04161  -0.08002  -2.94573
   D39        0.02150  -0.00014   0.00000  -0.01105  -0.01135   0.01015
   D40       -2.97477  -0.00345  -0.02150  -0.03452  -0.05671  -3.03149
   D41        2.65086   0.00517   0.03355   0.04826   0.08333   2.73418
   D42       -0.34542   0.00186   0.01205   0.02479   0.03797  -0.30745
   D43       -0.00672   0.00085   0.00270   0.01599   0.01824   0.01152
   D44       -2.64197  -0.00679  -0.03987  -0.03722  -0.07810  -2.72007
   D45        0.01879  -0.00054  -0.00100  -0.02400  -0.02524  -0.00645
   D46        2.99492   0.00534   0.03465   0.01453   0.04764   3.04255
   D47       -0.02574   0.00023  -0.00056   0.02553   0.02545  -0.00028
   D48        2.86624   0.00658   0.04092   0.04937   0.09133   2.95757
   D49       -2.99592  -0.00499  -0.03429  -0.01147  -0.04682  -3.04274
   D50       -0.10395   0.00136   0.00719   0.01236   0.01906  -0.08489
         Item               Value     Threshold  Converged?
 Maximum Force            0.084667     0.000450     NO 
 RMS     Force            0.014873     0.000300     NO 
 Maximum Displacement     0.763143     0.001800     NO 
 RMS     Displacement     0.101793     0.001200     NO 
 Predicted change in Energy=-5.725745D-02
 GradGradGradGradGradGradGradGradGradGradGradGradGradGradGradGradGradGrad

                          Input orientation:                          
 ---------------------------------------------------------------------
 Center     Atomic      Atomic             Coordinates (Angstroms)
 Number     Number       Type             X           Y           Z
 ---------------------------------------------------------------------
      1          6           0       -4.166858   -1.313020   -0.235782
      2          6           0       -2.826269   -0.968600   -0.562107
      3          6           0       -1.958679   -2.028213   -0.566834
      4          6           0       -4.302739   -2.638083    0.041320
      5          1           0       -4.988391   -0.609786   -0.214573
      6         16           0       -2.817597   -3.486480   -0.114112
      7          1           0       -5.213431   -3.151005    0.310365
      8          6           0       -0.545698   -2.093607   -0.897605
      9         16           0        0.474441   -0.657095   -0.888496
     10          6           0        1.865418   -1.592162   -1.324727
     11          6           0        1.542827   -2.932935   -1.457780
     12          6           0        0.171223   -3.213764   -1.206612
     13          1           0       -0.239818   -4.213620   -1.167169
     14         16           0        2.961885   -3.928441   -1.368766
     15          6           0        3.961480   -2.523725   -1.134223
     16          6           0        3.261096   -1.361811   -1.131561
     17          1           0        5.014849   -2.634210   -0.923683
     18          1           0        3.689885   -0.412734   -0.836371
     19          8           0       -2.361999    0.263964   -0.739007
     20          1           0       -3.016625    0.881327   -0.801277
 ---------------------------------------------------------------------
                    Distance matrix (angstroms):
                    1          2          3          4          5
     1  C    0.000000
     2  C    1.422073   0.000000
     3  C    2.344601   1.369494   0.000000
     4  C    1.360530   2.308952   2.497281   0.000000
     5  H    1.081621   2.219076   3.363804   2.156291   0.000000
     6  S    2.561100   2.557438   1.751925   1.717435   3.605247
     7  H    2.184441   3.350021   3.552964   1.079275   2.604611
     8  C    3.762994   2.564996   1.452653   3.910677   4.733474
     9  S    4.732646   3.331405   2.811317   5.254553   5.504448
    10  C    6.136129   4.793991   3.922787   6.403608   7.012289
    11  C    6.059530   4.873381   3.724627   6.041927   7.042683
    12  C    4.834697   3.800146   2.520185   4.680287   5.863997
    13  H    4.970172   4.193565   2.844449   4.522178   6.036887
    14  S    7.677439   6.550885   5.335346   7.511866   8.692095
    15  C    8.266975   6.987079   5.967893   8.348191   9.198321
    16  C    7.481932   6.126574   5.292358   7.759905   8.334293
    17  H    9.301747   8.024222   7.008899   9.367428  10.230637
    18  H    7.930929   6.545569   5.881216   8.342935   8.702755
    19  O    2.449006   1.328930   2.333749   3.577326   2.817163
    20  H    2.541255   1.875011   3.104776   3.840612   2.540767
                    6          7          8          9         10
     6  S    0.000000
     7  H    2.456165   0.000000
     8  C    2.777675   4.936093   0.000000
     9  S    4.409377   6.325247   1.761913   0.000000
    10  C    5.194676   7.430587   2.499472   1.731896   0.000000
    11  C    4.596211   6.987196   2.319527   2.577786   1.385438
    12  C    3.193897   5.594610   1.365362   2.594166   2.348157
    13  H    2.877952   5.296139   2.158862   3.638228   3.365841
    14  S    5.930591   8.382105   3.986446   4.137601   2.581158
    15  C    6.922673   9.309098   4.533833   3.962843   2.301647
    16  C    6.519197   8.780545   3.883548   2.884640   1.427688
    17  H    7.920163  10.315409   5.586826   4.952325   3.341499
    18  H    7.233042   9.385211   4.557330   3.225137   2.226707
    19  O    3.829346   4.570981   2.980309   2.985982   4.653958
    20  H    4.426007   4.724553   3.868461   3.816005   5.497862
                   11         12         13         14         15
    11  C    0.000000
    12  C    1.422409   0.000000
    13  H    2.214144   1.081768   0.000000
    14  S    1.735708   2.885282   3.220694   0.000000
    15  C    2.474272   3.853237   4.528547   1.739950   0.000000
    16  C    2.351021   3.603148   4.515582   2.594876   1.356684
    17  H    3.525540   4.886373   5.492299   2.467345   1.079871
    18  H    3.368593   4.512630   5.477110   3.629549   2.149131
    19  O    5.097495   4.327870   4.973503   6.805630   6.921978
    20  H    5.980651   5.205424   5.814036   7.694056   7.771691
                   16         17         18         19         20
    16  C    0.000000
[...]
 Stoichiometry    C10H6OS3
 Framework group  C1[X(C10H6OS3)]
 Deg. of freedom    54
 Full point group                 C1      NOp   1
 Largest Abelian subgroup         C1      NOp   1
 Largest concise Abelian subgroup C1      NOp   1
                         Standard orientation:                         
 ---------------------------------------------------------------------
 Center     Atomic      Atomic             Coordinates (Angstroms)
 Number     Number       Type             X           Y           Z
 ---------------------------------------------------------------------
      1          6           0       -4.013789    0.368008   -0.125128
      2          6           0       -2.674109    0.849794   -0.175928
      3          6           0       -1.727226   -0.128023   -0.009024
      4          6           0       -4.068608   -0.973338    0.086123
      5          1           0       -4.887212    0.997233   -0.244153
      6         16           0       -2.505222   -1.666150    0.234474
      7          1           0       -4.946490   -1.595658    0.167261
      8          6           0       -0.278957   -0.019920   -0.021181
      9         16           0        0.521303    1.520709    0.245556
     10          6           0        2.075190    0.767284    0.141390
     11          6           0        1.956881   -0.588657   -0.088505
     12          6           0        0.616142   -1.042612   -0.187056
     13          1           0        0.322216   -2.065923   -0.377575
     14         16           0        3.515650   -1.332354   -0.217431
     15          6           0        4.295852    0.199491    0.040355
     16          6           0        3.422008    1.226212    0.213327
     17          1           0        5.374475    0.246456    0.051680
     18          1           0        3.724848    2.249432    0.385757
     19          8           0       -2.325726    2.146252   -0.376202
     20          1           0       -3.110044    2.693735   -0.421185
 ---------------------------------------------------------------------
 Rotational constants (GHZ):           1.3022634           0.2837072           0.2351219

 **********************************************************************

            Population analysis using the SCF Density.

 **********************************************************************

 Orbital symmetries:
       Occupied  (A) (A) (A) (A) (A) (A) (A) (A) (A) (A) (A) (A)
                 (A) (A) (A) (A) (A) (A) (A) (A) (A) (A) (A) (A)
                 (A) (A) (A) (A) (A) (A) (A) (A) (A) (A) (A) (A)
                 (A) (A) (A) (A) (A) (A) (A) (A) (A) (A) (A) (A)
                 (A) (A) (A) (A) (A) (A) (A) (A) (A) (A) (A) (A)
                 (A)
       Virtual   (A) (A) (A) (A) (A) (A) (A) (A) (A) (A) (A) (A)
                 (A) (A) (A) (A) (A) (A) (A) (A) (A) (A) (A) (A)
                 (A) (A) (A) (A) (A) (A) (A) (A) (A) (A) (A) (A)
                 (A) (A) (A) (A) (A) (A) (A) (A) (A) (A) (A) (A)
                 (A) (A) (A) (A) (A) (A) (A) (A) (A) (A) (A) (A)
                 (A) (A) (A) (A) (A) (A) (A) (A) (A) (A) (A) (A)
                 (A) (A) (A) (A) (A) (A) (A) (A) (A) (A) (A) (A)
                 (A) (A) (A) (A) (A) (A) (A) (A) (A) (A) (A) (A)
                 (A) (A) (A) (A) (A) (A) (A) (A) (A) (A) (A) (A)
                 (A) (A) (A) (A) (A) (A) (A) (A) (A) (A) (A) (A)
                 (A) (A) (A) (A) (A) (A) (A) (A) (A) (A) (A) (A)
                 (A) (A) (A) (A) (A) (A) (A) (A) (A) (A) (A) (A)
                 (A) (A) (A) (A) (A) (A) (A) (A) (A) (A) (A) (A)
                 (A) (A) (A) (A) (A) (A) (A) (A) (A) (A) (A) (A)
                 (A) (A) (A) (A) (A) (A) (A) (A) (A) (A) (A) (A)
                 (A) (A) (A) (A) (A) (A) (A) (A) (A) (A) (A) (A)
                 (A) (A) (A) (A) (A) (A) (A) (A) (A) (A) (A) (A)
                 (A) (A) (A) (A) (A) (A) (A) (A) (A) (A) (A) (A)
                 (A) (A) (A) (A) (A) (A) (A) (A) (A) (A) (A) (A)
                 (A) (A) (A) (A) (A) (A) (A) (A) (A) (A) (A) (A)
                 (A) (A) (A) (A) (A) (A) (A) (A) (A) (A) (A) (A)
                 (A) (A) (A) (A) (A) (A) (A) (A) (A) (A) (A) (A)
                 (A) (A) (A) (A) (A) (A) (A) (A) (A) (A) (A) (A)
                 (A) (A) (A) (A) (A) (A) (A) (A) (A) (A) (A) (A)
                 (A) (A) (A) (A) (A) (A) (A) (A) (A) (A) (A) (A)
                 (A) (A) (A) (A) (A)
 The electronic state is 1-A.
 Alpha  occ. eigenvalues --  -89.05379 -89.04512 -89.04347 -19.29526 -10.36249
 Alpha  occ. eigenvalues --  -10.33561 -10.32885 -10.32745 -10.31797 -10.31755
 Alpha  occ. eigenvalues --  -10.31588 -10.30568 -10.29979 -10.29809  -8.09452
 Alpha  occ. eigenvalues --   -8.08557  -8.08363  -6.04297  -6.03912  -6.03528
 Alpha  occ. eigenvalues --   -6.03407  -6.03227  -6.03035  -6.02844  -6.02617
 Alpha  occ. eigenvalues --   -6.02400  -1.18653  -1.01675  -0.99884  -0.94902
 Alpha  occ. eigenvalues --   -0.86991  -0.86012  -0.84204  -0.80475  -0.79861
 Alpha  occ. eigenvalues --   -0.71104  -0.70525  -0.66286  -0.65141  -0.62104
 Alpha  occ. eigenvalues --   -0.61026  -0.58067  -0.57335  -0.53635  -0.52951
 Alpha  occ. eigenvalues --   -0.52057  -0.50148  -0.49120  -0.47383  -0.46921
 Alpha  occ. eigenvalues --   -0.46077  -0.45320  -0.44671  -0.43456  -0.42705
 Alpha  occ. eigenvalues --   -0.41123  -0.36660  -0.34426  -0.32234  -0.30154
 Alpha  occ. eigenvalues --   -0.26737
 Alpha virt. eigenvalues --    0.00868   0.04821   0.05623   0.05871   0.06109
 Alpha virt. eigenvalues --    0.06663   0.07510   0.08286   0.08456   0.09085
 Alpha virt. eigenvalues --    0.09407   0.09683   0.09934   0.10529   0.10770
 Alpha virt. eigenvalues --    0.11164   0.11483   0.12254   0.12552   0.13335
 Alpha virt. eigenvalues --    0.13956   0.13991   0.14202   0.14612   0.15224
 Alpha virt. eigenvalues --    0.16100   0.16602   0.17148   0.17604   0.17800
 Alpha virt. eigenvalues --    0.18067   0.18596   0.19146   0.19688   0.20066
 Alpha virt. eigenvalues --    0.20714   0.21174   0.21469   0.21791   0.22006
 Alpha virt. eigenvalues --    0.22500   0.22792   0.22919   0.23309   0.23879
 Alpha virt. eigenvalues --    0.24591   0.24651   0.25355   0.26009   0.26312
 Alpha virt. eigenvalues --    0.26575   0.26873   0.27192   0.27738   0.28296
 Alpha virt. eigenvalues --    0.28634   0.29021   0.29362   0.29995   0.30208
 Alpha virt. eigenvalues --    0.31170   0.31431   0.31628   0.33118   0.33475
 Alpha virt. eigenvalues --    0.34561   0.34730   0.35304   0.36584   0.37346
 Alpha virt. eigenvalues --    0.37820   0.38410   0.40156   0.40487   0.41177
 Alpha virt. eigenvalues --    0.41628   0.42652   0.42973   0.43649   0.44450
 Alpha virt. eigenvalues --    0.44717   0.46967   0.47278   0.49338   0.51229
 Alpha virt. eigenvalues --    0.52110   0.52793   0.53833   0.54600   0.56232
 Alpha virt. eigenvalues --    0.57721   0.58596   0.60192   0.61095   0.62339
 Alpha virt. eigenvalues --    0.63004   0.63900   0.64541   0.64932   0.66754
 Alpha virt. eigenvalues --    0.67336   0.68306   0.69139   0.70523   0.71299
 Alpha virt. eigenvalues --    0.71874   0.72400   0.73714   0.73739   0.76510
 Alpha virt. eigenvalues --    0.78709   0.79145   0.79581   0.80089   0.81262
 Alpha virt. eigenvalues --    0.82021   0.82142   0.82996   0.83589   0.84501
 Alpha virt. eigenvalues --    0.85748   0.86058   0.87518   0.88271   0.88544
 Alpha virt. eigenvalues --    0.90478   0.90979   0.91561   0.92010   0.92063
 Alpha virt. eigenvalues --    0.93774   0.94310   0.94845   0.96012   0.97722
 Alpha virt. eigenvalues --    0.98428   0.98878   0.99992   1.01537   1.03591
 Alpha virt. eigenvalues --    1.04203   1.06086   1.06764   1.07731   1.09648
 Alpha virt. eigenvalues --    1.10518   1.12077   1.12384   1.12783   1.13932
 Alpha virt. eigenvalues --    1.15400   1.16060   1.16427   1.17902   1.19879
 Alpha virt. eigenvalues --    1.21505   1.23006   1.23701   1.26515   1.28371
 Alpha virt. eigenvalues --    1.30606   1.34537   1.35463   1.39784   1.43370
 Alpha virt. eigenvalues --    1.43710   1.44961   1.47008   1.50193   1.51668
 Alpha virt. eigenvalues --    1.53160   1.58585   1.62076   1.63199   1.64145
 Alpha virt. eigenvalues --    1.66101   1.68080   1.68369   1.69259   1.69555
 Alpha virt. eigenvalues --    1.73162   1.74580   1.75071   1.79463   1.79755
 Alpha virt. eigenvalues --    1.81149   1.82535   1.82828   1.83397   1.85367
 Alpha virt. eigenvalues --    1.86400   1.87364   1.88437   1.90193   1.92618
 Alpha virt. eigenvalues --    1.95443   1.96370   1.97276   1.99335   2.00389
 Alpha virt. eigenvalues --    2.01237   2.03999   2.05164   2.06572   2.08074
 Alpha virt. eigenvalues --    2.11008   2.12885   2.13452   2.14945   2.15834
 Alpha virt. eigenvalues --    2.17076   2.18257   2.19354   2.21245   2.21807
 Alpha virt. eigenvalues --    2.23627   2.24560   2.25278   2.27065   2.29522
 Alpha virt. eigenvalues --    2.30623   2.36176   2.42239   2.45715   2.51800
 Alpha virt. eigenvalues --    2.52252   2.57915   2.60988   2.63448   2.68214
 Alpha virt. eigenvalues --    2.72274   2.73275   2.75241   2.78223   2.79725
 Alpha virt. eigenvalues --    2.80691   2.81625   2.81846   2.82348   2.84247
 Alpha virt. eigenvalues --    2.85152   2.87649   2.91777   2.96079   3.00694
 Alpha virt. eigenvalues --    3.02763   3.05303   3.07800   3.08236   3.13169
 Alpha virt. eigenvalues --    3.17159   3.17667   3.23420   3.23580   3.26952
 Alpha virt. eigenvalues --    3.28520   3.31303   3.39286   3.40320   3.41608
 Alpha virt. eigenvalues --    3.44775   3.47475   3.55258   3.57575   3.58724
 Alpha virt. eigenvalues --    3.62934   3.68094   3.79504   3.98041   4.02473
 Alpha virt. eigenvalues --    4.07900   4.15342   4.21105   4.31278   4.47760
 Alpha virt. eigenvalues --    4.67564   5.11279   5.57027   5.85921   8.10018
 Alpha virt. eigenvalues --    8.11387   8.12802  17.42051  17.42658  17.44589
 Alpha virt. eigenvalues --   17.60369  17.61834  17.64612  17.68247  17.70477
 Alpha virt. eigenvalues --   17.72108  23.60365  23.76384  23.90726  23.94223
 Alpha virt. eigenvalues --   23.99289  24.18363  24.20321  24.26816  24.29465
 Alpha virt. eigenvalues --   24.30553  50.07945 189.34838 189.36480 189.38089
          Condensed to atoms (all electrons):
               1          2          3          4          5          6
     1  C   11.499350  -6.527865   1.594207  -1.167081   0.430332   0.623489
     2  C   -6.527865  21.509912  -5.750663   2.608335  -0.104473  -2.962743
     3  C    1.594207  -5.750663  11.070088  -1.189083  -0.000194   0.535571
     4  C   -1.167081   2.608335  -1.189083   6.260857   0.035608  -0.282706
     5  H    0.430332  -0.104473  -0.000194   0.035608   0.499449   0.005833
     6  S    0.623489  -2.962743   0.535571  -0.282706   0.005833  17.661045
     7  H    0.073779  -0.059601   0.041237   0.349911  -0.003754  -0.033232
     8  C    0.246871  -1.888105   0.056490  -0.265979  -0.006711   0.882461
     9  S   -0.095883   0.018533   0.374405   0.085882   0.000124   0.043067
    10  C    0.061739  -1.005074  -0.510625  -0.051551   0.000057   0.231710
    11  C   -0.204101   0.220973   0.038424   0.004834  -0.000248  -0.131003
    12  C   -0.103408  -0.426178  -1.129616  -0.238846   0.000725  -0.068394
    13  H   -0.003715   0.001137   0.022797   0.004025  -0.000001   0.004839
    14  S   -0.011680   0.035264   0.009449   0.002531  -0.000003  -0.024165
    15  C   -0.002089  -0.025765  -0.054887  -0.000100   0.000000   0.004832
    16  C   -0.021046   0.015797   0.316258   0.006613   0.000006   0.000262
    17  H   -0.000001   0.000020   0.000010  -0.000000   0.000000  -0.000002
    18  H    0.000023  -0.000389  -0.001106  -0.000006   0.000000   0.000035
    19  O    0.175610  -0.183649   0.042218  -0.034300  -0.004900   0.050292
    20  H   -0.254106   0.305346  -0.033053   0.016211   0.003071  -0.016083
               7          8          9         10         11         12
     1  C    0.073779   0.246871  -0.095883   0.061739  -0.204101  -0.103408
     2  C   -0.059601  -1.888105   0.018533  -1.005074   0.220973  -0.426178
     3  C    0.041237   0.056490   0.374405  -0.510625   0.038424  -1.129616
     4  C    0.349911  -0.265979   0.085882  -0.051551   0.004834  -0.238846
     5  H   -0.003754  -0.006711   0.000124   0.000057  -0.000248   0.000725
     6  S   -0.033232   0.882461   0.043067   0.231710  -0.131003  -0.068394
     7  H    0.443806  -0.002163  -0.000646  -0.000152   0.000030   0.000816
     8  C   -0.002163  12.345516   0.665072  -1.042006  -2.676438  -1.305605
     9  S   -0.000646   0.665072  17.797060  -0.424667  -0.786673  -0.877018
    10  C   -0.000152  -1.042006  -0.424667  16.153975  -5.177095   0.660049
    11  C    0.000030  -2.676438  -0.786673  -5.177095  12.886416   0.788027
    12  C    0.000816  -1.305605  -0.877018   0.660049   0.788027   9.544143
    13  H    0.000003   0.026224   0.014681  -0.071676  -0.020520   0.357200
    14  S    0.000004  -1.215108   0.050784   0.209194  -0.392406   0.081004
    15  C   -0.000001  -0.242343  -0.077927   0.786399  -0.851575   0.076800
    16  C   -0.000009   0.293405  -0.308640  -4.163518   2.071665  -1.357018
    17  H    0.000000   0.004929  -0.000562   0.021721   0.025746  -0.000382
    18  H    0.000000  -0.007223   0.015119   0.021662  -0.056773   0.002115
    19  O   -0.000287   0.019392  -0.044353   0.013079  -0.023571  -0.014050
    20  H    0.000010   0.016044   0.005532  -0.006717  -0.000254  -0.004362
              13         14         15         16         17         18
     1  C   -0.003715  -0.011680  -0.002089  -0.021046  -0.000001   0.000023
     2  C    0.001137   0.035264  -0.025765   0.015797   0.000020  -0.000389
     3  C    0.022797   0.009449  -0.054887   0.316258   0.000010  -0.001106
     4  C    0.004025   0.002531  -0.000100   0.006613  -0.000000  -0.000006
     5  H   -0.000001  -0.000003   0.000000   0.000006   0.000000   0.000000
     6  S    0.004839  -0.024165   0.004832   0.000262  -0.000002   0.000035
     7  H    0.000003   0.000004  -0.000001  -0.000009   0.000000   0.000000
     8  C    0.026224  -1.215108  -0.242343   0.293405   0.004929  -0.007223
     9  S    0.014681   0.050784  -0.077927  -0.308640  -0.000562   0.015119
    10  C   -0.071676   0.209194   0.786399  -4.163518   0.021721   0.021662
    11  C   -0.020520  -0.392406  -0.851575   2.071665   0.025746  -0.056773
    12  C    0.357200   0.081004   0.076800  -1.357018  -0.000382   0.002115
    13  H    0.484565   0.009971  -0.003235   0.010526  -0.000003   0.000002
    14  S    0.009971  17.723826   0.406554  -0.373948  -0.041839   0.008100
    15  C   -0.003235   0.406554   5.684630   0.027046   0.389628   0.023950
    16  C    0.010526  -0.373948   0.027046   9.454589  -0.031831   0.354496
    17  H   -0.000003  -0.041839   0.389628  -0.031831   0.444956  -0.003592
    18  H    0.000002   0.008100   0.023950   0.354496  -0.003592   0.484041
    19  O    0.000042  -0.000894  -0.000615   0.000507  -0.000000  -0.000002
    20  H   -0.000003  -0.000037  -0.000034   0.000551  -0.000000  -0.000000
              19         20
     1  C    0.175610  -0.254106
     2  C   -0.183649   0.305346
     3  C    0.042218  -0.033053
     4  C   -0.034300   0.016211
     5  H   -0.004900   0.003071
     6  S    0.050292  -0.016083
     7  H   -0.000287   0.000010
     8  C    0.019392   0.016044
     9  S   -0.044353   0.005532
    10  C    0.013079  -0.006717
    11  C   -0.023571  -0.000254
    12  C   -0.014050  -0.004362
    13  H    0.000042  -0.000003
    14  S   -0.000894  -0.000037
    15  C   -0.000615  -0.000034
    16  C    0.000507   0.000551
    17  H   -0.000000  -0.000000
    18  H   -0.000002  -0.000000
    19  O    8.038708   0.214215
    20  H    0.214215   0.477850
 Mulliken charges:
               1
     1  C   -0.314426
     2  C    0.219189
     3  C    0.568074
     4  C   -0.145154
     5  H    0.145078
     6  S   -0.525107
     7  H    0.190248
     8  C    0.095276
     9  S   -0.453891
    10  C    0.293494
    11  C    0.284541
    12  C    0.013996
    13  H    0.163138
    14  S   -0.476600
    15  C   -0.141269
    16  C   -0.295710
    17  H    0.191199
    18  H    0.159547
    19  O   -0.247442
    20  H    0.275818
 Sum of Mulliken charges =  -0.00000
 Mulliken charges with hydrogens summed into heavy atoms:
               1
     1  C   -0.169347
     2  C    0.219189
     3  C    0.568074
     4  C    0.045095
     6  S   -0.525107
     8  C    0.095276
     9  S   -0.453891
    10  C    0.293494
    11  C    0.284541
    12  C    0.177135
    14  S   -0.476600
    15  C    0.049930
    16  C   -0.136163
    19  O    0.028375
 Electronic spatial extent (au):  <R**2>=           4279.4037
 Charge=              0.0000 electrons
 Dipole moment (field-independent basis, Debye):
    X=             -2.4804    Y=              0.9583    Z=             -0.0904  Tot=              2.6606
 Quadrupole moment (field-independent basis, Debye-Ang):
   XX=            -76.2771   YY=            -93.6070   ZZ=           -108.1018
   XY=             -1.6276   XZ=              1.4533   YZ=              0.2700
 Traceless Quadrupole moment (field-independent basis, Debye-Ang):
   XX=             16.3849   YY=             -0.9450   ZZ=            -15.4399
   XY=             -1.6276   XZ=              1.4533   YZ=              0.2700
 Octapole moment (field-independent basis, Debye-Ang**2):
  XXX=            -54.0466  YYY=             21.7181  ZZZ=             -1.5641  XYY=            -25.9261
  XXY=             36.9610  XXZ=             -1.8146  XZZ=             -4.1354  YZZ=              3.1671
  YYZ=             -1.3371  XYZ=              8.3190
 Hexadecapole moment (field-independent basis, Debye-Ang**3):
 XXXX=          -3926.5792 YYYY=           -960.9501 ZZZZ=           -159.2322 XXXY=            -28.6069
 XXXZ=             26.9786 YYYX=            -51.3844 YYYZ=             -4.2551 ZZZX=              1.4872
 ZZZY=             -4.3244 XXYY=           -812.6664 XXZZ=           -888.9221 YYZZ=           -209.2630
 XXYZ=            -16.5415 YYXZ=             12.3589 ZZXY=            -12.9754
 N-N= 1.132145364828D+03 E-N=-6.176079274025D+03  KE= 1.651139017552D+03
 Unable to Open any file for archive entry.
 1\1\GINC-CX3-2-27\FOpt\RwB97XD\6-311+G(d,p)\C10H6O1S3\NS5018\26-Oct-20
 21\0\\# opt=modredundant wb97xd/6-311+g(d,p)\\pBTTT_20.pdb\\0,1\C,-4.1
 775953839,-1.2930850772,-0.3183601635\C,-2.810976579,-0.9798715235,-0.
 5707334505\C,-1.9748652345,-2.0654840873,-0.5165566217\C,-4.3628085054
 ,-2.6161151286,-0.0691042887\H,-4.9767069506,-0.5621266673,-0.32717712
 29\S,-2.889467525,-3.4947465918,-0.1278220192\H,-5.2884359136,-3.12532
 74657,0.1510334683\C,-0.5411021225,-2.1361990284,-0.7370965405\S,0.469
 1725813,-0.7038266713,-0.6241553502\C,1.8894948907,-1.6431063655,-0.92
 99358679\C,1.5766115852,-2.9757278705,-1.1078353151\C,0.1907949541,-3.
 2621767351,-1.0037734739\H,-0.2487813292,-4.2428611684,-1.1257816971\S
 ,2.9993357941,-3.9061177865,-1.4390450386\C,3.987560533,-2.4800567971,
 -1.3318972768\C,3.2780477046,-1.3526448276,-1.0613168436\H,5.054268865
 4,-2.5658809922,-1.4751720049\H,3.7237619101,-0.373265362,-0.958474515
 2\O,-2.3412608064,0.2626202086,-0.8497775831\H,-3.0520484682,0.9019999
 375,-0.7960182952\\Version=ES64L-G16RevC.01\State=1-A\HF=-1654.4118503
 \RMSD=7.698e-09\RMSF=4.648e-05\Dipole=-0.9181104,0.4938092,0.0944242\Q
 uadrupole=11.5292527,-0.21269,-11.3165627,-2.7096648,-2.234543,0.38662
 9\PG=C01 [X(C10H6O1S3)]\\@
 The archive entry for this job was punched.


 ONE THORN OF EXPERIENCE IS WORTH A WHOLE WILDERNESS OF
 WARNING....  LOWELL - AMONG MY BOOKS
 Job cpu time:       0 days  3 hours  2 minutes 13.4 seconds.
 Elapsed time:       0 days  0 hours 23 minutes  0.4 seconds.
 File lengths (MBytes):  RWF=     86 Int=      0 D2E=      0 Chk=     11 Scr=      1
 Normal termination of Gaussian 16 at Tue Oct 26 00:02:54 2021.
