 Entering Gaussian System, Link 0=g16
 Input=pBTTT_-25.gjf
 Output=pBTTT_-25.log
 Initial command:
 /apps/gaussian/g16-c01-avx/g16/l1.exe "/tmp/pbs.4762174[150].pbs/Gau-2851722.inp" -scrdir="/tmp/pbs.4762174[150].pbs/"
 Entering Link 1 = /apps/gaussian/g16-c01-avx/g16/l1.exe PID=   2851723.
  
 Copyright (c) 1988-2019, Gaussian, Inc.  All Rights Reserved.
  
 This is part of the Gaussian(R) 16 program.  It is based on
 the Gaussian(R) 09 system (copyright 2009, Gaussian, Inc.),
 the Gaussian(R) 03 system (copyright 2003, Gaussian, Inc.),
 the Gaussian(R) 98 system (copyright 1998, Gaussian, Inc.),
 the Gaussian(R) 94 system (copyright 1995, Gaussian, Inc.),
 the Gaussian 92(TM) system (copyright 1992, Gaussian, Inc.),
 the Gaussian 90(TM) system (copyright 1990, Gaussian, Inc.),
 the Gaussian 88(TM) system (copyright 1988, Gaussian, Inc.),
 the Gaussian 86(TM) system (copyright 1986, Carnegie Mellon
 University), and the Gaussian 82(TM) system (copyright 1983,
 Carnegie Mellon University). Gaussian is a federally registered
 trademark of Gaussian, Inc.
  
 This software contains proprietary and confidential information,
 including trade secrets, belonging to Gaussian, Inc.
  
 This software is provided under written license and may be
 used, copied, transmitted, or stored only in accord with that
 written license.
  
 The following legend is applicable only to US Government
 contracts under FAR:
  
                    RESTRICTED RIGHTS LEGEND
  
 Use, reproduction and disclosure by the US Government is
 subject to restrictions as set forth in subparagraphs (a)
 and (c) of the Commercial Computer Software - Restricted
 Rights clause in FAR 52.227-19.
  
 Gaussian, Inc.
 340 Quinnipiac St., Bldg. 40, Wallingford CT 06492
  
  
 ---------------------------------------------------------------
 Warning -- This program may not be used in any manner that
 competes with the business of Gaussian, Inc. or will provide
 assistance to any competitor of Gaussian, Inc.  The licensee
 of this program is prohibited from giving any competitor of
 Gaussian, Inc. access to this program.  By using this program,
 the user acknowledges that Gaussian, Inc. is engaged in the
 business of creating and licensing software in the field of
 computational chemistry and represents and warrants to the
 licensee that it is not a competitor of Gaussian, Inc. and that
 it will not use this program in any manner prohibited above.
 ---------------------------------------------------------------
  

 Cite this work as:
 Gaussian 16, Revision C.01,
 M. J. Frisch, G. W. Trucks, H. B. Schlegel, G. E. Scuseria, 
 M. A. Robb, J. R. Cheeseman, G. Scalmani, V. Barone, 
 G. A. Petersson, H. Nakatsuji, X. Li, M. Caricato, A. V. Marenich, 
 J. Bloino, B. G. Janesko, R. Gomperts, B. Mennucci, H. P. Hratchian, 
 J. V. Ortiz, A. F. Izmaylov, J. L. Sonnenberg, D. Williams-Young, 
 F. Ding, F. Lipparini, F. Egidi, J. Goings, B. Peng, A. Petrone, 
 T. Henderson, D. Ranasinghe, V. G. Zakrzewski, J. Gao, N. Rega, 
 G. Zheng, W. Liang, M. Hada, M. Ehara, K. Toyota, R. Fukuda, 
 J. Hasegawa, M. Ishida, T. Nakajima, Y. Honda, O. Kitao, H. Nakai, 
 T. Vreven, K. Throssell, J. A. Montgomery, Jr., J. E. Peralta, 
 F. Ogliaro, M. J. Bearpark, J. J. Heyd, E. N. Brothers, K. N. Kudin, 
 V. N. Staroverov, T. A. Keith, R. Kobayashi, J. Normand, 
 K. Raghavachari, A. P. Rendell, J. C. Burant, S. S. Iyengar, 
 J. Tomasi, M. Cossi, J. M. Millam, M. Klene, C. Adamo, R. Cammi, 
 J. W. Ochterski, R. L. Martin, K. Morokuma, O. Farkas, 
 J. B. Foresman, and D. J. Fox, Gaussian, Inc., Wallingford CT, 2019.
 
 ******************************************
 Gaussian 16:  ES64L-G16RevC.01  3-Jul-2019
                25-Oct-2021 
 ******************************************
 %mem=10GB
 %nprocshared=8
 Will use up to    8 processors via shared memory.
 --------------------------------------
 # opt=modredundant wb97xd/6-311+g(d,p)
 --------------------------------------
 1/18=120,19=15,26=3,38=1/1,3;
 2/9=110,12=2,17=6,18=5,40=1/2;
 3/5=4,6=6,7=111,11=2,25=1,30=1,71=1,74=-58/1,2,3;
 4//1;
 5/5=2,38=5/2;
 6/7=2,8=2,9=2,10=2,28=1/1;
 7//1,2,3,16;
 1/18=20,19=15,26=3/3(2);
 2/9=110/2;
 99//99;
 2/9=110/2;
 3/5=4,6=6,7=111,11=2,25=1,30=1,71=1,74=-58/1,2,3;
 4/5=5,16=3,69=1/1;
 5/5=2,38=5/2;
 7//1,2,3,16;
 1/18=20,19=15,26=3/3(-5);
 2/9=110/2;
 6/7=2,8=2,9=2,10=2,19=2,28=1/1;
 99/9=1/99;
 -------------
 pBTTT_-25.pdb
 -------------
 Symbolic Z-matrix:
 Charge =  0 Multiplicity = 1
 C                    -4.25     -1.36     -0.21 
 C                    -2.93     -0.95     -0.61 
 C                    -1.97     -2.05     -0.62 
 C                    -4.33     -2.76      0.1 
 H                    -5.1      -0.7      -0.14 
 S                    -2.8      -3.56     -0.11 
 H                    -5.23     -3.27      0.41 
 C                    -0.56     -2.13     -0.97 
 S                     0.204    -0.97     -2.1 
 C                     1.755    -1.723    -1.956 
 C                     1.742    -2.837    -1.042 
 C                     0.449    -3.065    -0.468 
 H                     0.283    -3.744     0.353 
 S                     3.295    -3.14     -0.338 
 C                     4.012    -1.808    -1.247 
 C                     3.042    -1.12     -2.069 
 H                     5.012    -1.447    -1.053 
 H                     3.217    -0.129    -2.478 
 O                    -2.4       0.49     -0.72 
 H                    -2.92      1.52     -0.76 
 
 Add virtual bond connecting atoms H20        and O19        Dist= 2.18D+00.
 The following ModRedundant input section has been read:
 D       2       3       8       9 F                                           
 

 GradGradGradGradGradGradGradGradGradGradGradGradGradGradGradGradGradGrad
 Berny optimization.
 Initialization pass.
                           ----------------------------
                           !    Initial Parameters    !
                           ! (Angstroms and Degrees)  !
 --------------------------                            --------------------------
 ! Name  Definition              Value          Derivative Info.                !
 --------------------------------------------------------------------------------
 ! R1    R(1,2)                  1.4389         estimate D2E/DX2                !
 ! R2    R(1,4)                  1.4361         estimate D2E/DX2                !
 ! R3    R(1,5)                  1.0784         estimate D2E/DX2                !
 ! R4    R(2,3)                  1.46           estimate D2E/DX2                !
 ! R5    R(2,19)                 1.5384         estimate D2E/DX2                !
 ! R6    R(3,6)                  1.797          estimate D2E/DX2                !
 ! R7    R(3,8)                  1.455          estimate D2E/DX2                !
 ! R8    R(4,6)                  1.7393         estimate D2E/DX2                !
 ! R9    R(4,7)                  1.0799         estimate D2E/DX2                !
 ! R10   R(8,9)                  1.7906         estimate D2E/DX2                !
 ! R11   R(8,12)                 1.4643         estimate D2E/DX2                !
 ! R12   R(9,10)                 1.7301         estimate D2E/DX2                !
 ! R13   R(10,11)                1.441          estimate D2E/DX2                !
 ! R14   R(10,16)                1.4257         estimate D2E/DX2                !
 ! R15   R(11,12)                1.4329         estimate D2E/DX2                !
 ! R16   R(11,14)                1.7318         estimate D2E/DX2                !
 ! R17   R(12,13)                1.0783         estimate D2E/DX2                !
 ! R18   R(14,15)                1.7648         estimate D2E/DX2                !
 ! R19   R(15,16)                1.4457         estimate D2E/DX2                !
 ! R20   R(15,17)                1.0807         estimate D2E/DX2                !
 ! R21   R(16,18)                1.0863         estimate D2E/DX2                !
 ! R22   R(19,20)                1.1545         estimate D2E/DX2                !
 ! A1    A(2,1,4)              112.8843         estimate D2E/DX2                !
 ! A2    A(2,1,5)              124.5209         estimate D2E/DX2                !
 ! A3    A(4,1,5)              122.5942         estimate D2E/DX2                !
 ! A4    A(1,2,3)              112.9799         estimate D2E/DX2                !
 ! A5    A(1,2,19)             127.059          estimate D2E/DX2                !
 ! A6    A(3,2,19)             118.5686         estimate D2E/DX2                !
 ! A7    A(2,3,6)              109.1138         estimate D2E/DX2                !
 ! A8    A(2,3,8)              132.8639         estimate D2E/DX2                !
 ! A9    A(6,3,8)              118.0132         estimate D2E/DX2                !
 ! A10   A(1,4,6)              111.9209         estimate D2E/DX2                !
 ! A11   A(1,4,7)              124.6643         estimate D2E/DX2                !
 ! A12   A(6,4,7)              123.4062         estimate D2E/DX2                !
 ! A13   A(3,6,4)               93.0997         estimate D2E/DX2                !
 ! A14   A(3,8,9)              121.9831         estimate D2E/DX2                !
 ! A15   A(3,8,12)             128.3439         estimate D2E/DX2                !
 ! A16   A(9,8,12)             109.6329         estimate D2E/DX2                !
 ! A17   A(8,9,10)              92.7524         estimate D2E/DX2                !
 ! A18   A(9,10,11)            112.4056         estimate D2E/DX2                !
 ! A19   A(9,10,16)            128.2108         estimate D2E/DX2                !
 ! A20   A(11,10,16)           112.6667         estimate D2E/DX2                !
 ! A21   A(10,11,12)           112.6573         estimate D2E/DX2                !
 ! A22   A(10,11,14)           112.6437         estimate D2E/DX2                !
 ! A23   A(12,11,14)           128.206          estimate D2E/DX2                !
 ! A24   A(8,12,11)            112.5094         estimate D2E/DX2                !
 ! A25   A(8,12,13)            123.8504         estimate D2E/DX2                !
 ! A26   A(11,12,13)           122.9645         estimate D2E/DX2                !
 ! A27   A(11,14,15)            91.3118         estimate D2E/DX2                !
 ! A28   A(14,15,16)           112.3002         estimate D2E/DX2                !
 ! A29   A(14,15,17)           122.3835         estimate D2E/DX2                !
 ! A30   A(16,15,17)           124.3299         estimate D2E/DX2                !
 ! A31   A(10,16,15)           111.0594         estimate D2E/DX2                !
 ! A32   A(10,16,18)           124.1325         estimate D2E/DX2                !
 ! A33   A(15,16,18)           122.6946         estimate D2E/DX2                !
 ! A34   A(2,19,20)            133.0318         estimate D2E/DX2                !
 ! D1    D(4,1,2,3)              0.3915         estimate D2E/DX2                !
 ! D2    D(4,1,2,19)          -165.8104         estimate D2E/DX2                !
 ! D3    D(5,1,2,3)           -179.8811         estimate D2E/DX2                !
 ! D4    D(5,1,2,19)            13.9169         estimate D2E/DX2                !
 ! D5    D(2,1,4,6)             -0.3845         estimate D2E/DX2                !
 ! D6    D(2,1,4,7)           -179.3471         estimate D2E/DX2                !
 ! D7    D(5,1,4,6)            179.8822         estimate D2E/DX2                !
 ! D8    D(5,1,4,7)              0.9196         estimate D2E/DX2                !
 ! D9    D(1,2,3,6)             -0.2224         estimate D2E/DX2                !
 ! D10   D(1,2,3,8)            178.6265         estimate D2E/DX2                !
 ! D11   D(19,2,3,6)           167.2616         estimate D2E/DX2                !
 ! D12   D(19,2,3,8)           -13.8895         estimate D2E/DX2                !
 ! D13   D(1,2,19,20)          -16.0519         estimate D2E/DX2                !
 ! D14   D(3,2,19,20)          178.4264         estimate D2E/DX2                !
 ! D15   D(2,3,6,4)              0.0033         estimate D2E/DX2                !
 ! D16   D(8,3,6,4)           -179.041          estimate D2E/DX2                !
 ! D17   D(2,3,8,9)            -24.9861         Frozen                          !
 ! D18   D(2,3,8,12)           152.4642         estimate D2E/DX2                !
 ! D19   D(6,3,8,9)            153.7819         estimate D2E/DX2                !
 ! D20   D(6,3,8,12)           -28.7678         estimate D2E/DX2                !
 ! D21   D(1,4,6,3)              0.2153         estimate D2E/DX2                !
 ! D22   D(7,4,6,3)            179.1932         estimate D2E/DX2                !
 ! D23   D(3,8,9,10)           179.7623         estimate D2E/DX2                !
 ! D24   D(12,8,9,10)            1.8853         estimate D2E/DX2                !
 ! D25   D(3,8,12,11)         -179.83           estimate D2E/DX2                !
 ! D26   D(3,8,12,13)           -9.024          estimate D2E/DX2                !
 ! D27   D(9,8,12,11)           -2.1261         estimate D2E/DX2                !
 ! D28   D(9,8,12,13)          168.68           estimate D2E/DX2                !
 ! D29   D(8,9,10,11)           -1.2005         estimate D2E/DX2                !
 ! D30   D(8,9,10,16)         -149.9672         estimate D2E/DX2                !
 ! D31   D(9,10,11,12)           0.1643         estimate D2E/DX2                !
 ! D32   D(9,10,11,14)        -154.0366         estimate D2E/DX2                !
 ! D33   D(16,10,11,12)        153.9628         estimate D2E/DX2                !
 ! D34   D(16,10,11,14)         -0.238          estimate D2E/DX2                !
 ! D35   D(9,10,16,15)         149.7925         estimate D2E/DX2                !
 ! D36   D(9,10,16,18)         -14.008          estimate D2E/DX2                !
 ! D37   D(11,10,16,15)          1.0916         estimate D2E/DX2                !
 ! D38   D(11,10,16,18)       -162.7089         estimate D2E/DX2                !
 ! D39   D(10,11,12,8)           1.3006         estimate D2E/DX2                !
 ! D40   D(10,11,12,13)       -169.5996         estimate D2E/DX2                !
 ! D41   D(14,11,12,8)         150.5591         estimate D2E/DX2                !
 ! D42   D(14,11,12,13)        -20.3411         estimate D2E/DX2                !
 ! D43   D(10,11,14,15)         -0.5223         estimate D2E/DX2                !
 ! D44   D(12,11,14,15)       -149.7842         estimate D2E/DX2                !
 ! D45   D(11,14,15,16)          1.1494         estimate D2E/DX2                !
 ! D46   D(11,14,15,17)        170.2348         estimate D2E/DX2                !
 ! D47   D(14,15,16,10)         -1.4791         estimate D2E/DX2                !
 ! D48   D(14,15,16,18)        162.5945         estimate D2E/DX2                !
 ! D49   D(17,15,16,10)       -170.3145         estimate D2E/DX2                !
 ! D50   D(17,15,16,18)         -6.2409         estimate D2E/DX2                !
 --------------------------------------------------------------------------------
 Trust Radius=3.00D-01 FncErr=1.00D-07 GrdErr=1.00D-06 EigMax=2.50D+02 EigMin=1.00D-04
 Number of steps in this run=    116 maximum allowed number of steps=    120.
 GradGradGradGradGradGradGradGradGradGradGradGradGradGradGradGradGradGrad

                          Input orientation:                          
 ---------------------------------------------------------------------
 Center     Atomic      Atomic             Coordinates (Angstroms)
 Number     Number       Type             X           Y           Z
 ---------------------------------------------------------------------
      1          6           0       -4.250000   -1.360000   -0.210000
      2          6           0       -2.930000   -0.950000   -0.610000
      3          6           0       -1.970000   -2.050000   -0.620000
      4          6           0       -4.330000   -2.760000    0.100000
      5          1           0       -5.100000   -0.700000   -0.140000
      6         16           0       -2.800000   -3.560000   -0.110000
      7          1           0       -5.230000   -3.270000    0.410000
      8          6           0       -0.560000   -2.130000   -0.970000
      9         16           0        0.204000   -0.970000   -2.100000
     10          6           0        1.755000   -1.723000   -1.956000
     11          6           0        1.742000   -2.837000   -1.042000
     12          6           0        0.449000   -3.065000   -0.468000
     13          1           0        0.283000   -3.744000    0.353000
     14         16           0        3.295000   -3.140000   -0.338000
     15          6           0        4.012000   -1.808000   -1.247000
     16          6           0        3.042000   -1.120000   -2.069000
     17          1           0        5.012000   -1.447000   -1.053000
     18          1           0        3.217000   -0.129000   -2.478000
     19          8           0       -2.400000    0.490000   -0.720000
     20          1           0       -2.920000    1.520000   -0.760000
 ---------------------------------------------------------------------
                    Distance matrix (angstroms):
                    1          2          3          4          5
     1  C    0.000000
     2  C    1.438923   0.000000
     3  C    2.417147   1.460034   0.000000
     4  C    1.436141   2.395871   2.567509   0.000000
     5  H    1.078425   2.234346   3.442354   2.212261   0.000000
     6  S    2.636759   2.660639   1.796970   1.739253   3.670218
     7  H    2.234480   3.422397   3.630000   1.079907   2.631406
     8  C    3.845335   2.671872   1.454991   3.969219   4.831708
     9  S    4.854103   3.470224   2.843075   5.348014   5.661000
    10  C    6.264209   4.935430   3.970825   6.506130   7.164873
    11  C    6.227184   5.057171   3.817905   6.178938   7.224496
    12  C    5.005416   3.988863   2.627716   4.822291   6.040878
    13  H    5.152525   4.365452   2.982008   4.723562   6.203682
    14  S    7.753181   6.604598   5.384036   7.647017   8.744646
    15  C    8.338868   7.023767   6.019636   8.503510   9.245629
    16  C    7.529060   6.149989   5.299495   7.857515   8.377924
    17  H    9.300691   7.969857   7.021355   9.504017  10.180576
    18  H    7.900334   6.476810   5.835013   8.397943   8.658220
    19  O    2.665539   1.538376   2.578081   3.867790   3.007075
    20  H    3.219596   2.474571   3.696891   4.587603   3.172570
                    6          7          8          9         10
     6  S    0.000000
     7  H    2.501879   0.000000
     8  C    2.793224   5.001290   0.000000
     9  S    4.437591   6.412367   1.790585   0.000000
    10  C    5.246933   7.535343   2.548935   1.730129   0.000000
    11  C    4.692666   7.134744   2.409198   2.640170   1.441028
    12  C    3.305933   5.750126   1.464346   2.666922   2.391808
    13  H    3.122998   5.533633   2.250772   3.703853   3.403337
    14  S    6.113707   8.558740   4.034916   4.167472   2.645262
    15  C    7.124999   9.502508   4.591688   3.991330   2.367267
    16  C    6.627235   8.899097   3.899013   2.842130   1.425744
    17  H    8.147476  10.505344   5.614318   4.943744   3.391111
    18  H    7.320073   9.463521   4.532526   3.150926   2.225031
    19  O    4.115167   4.839773   3.211308   3.288893   4.867144
    20  H    5.122821   5.445099   4.351574   4.213677   5.814042
                   11         12         13         14         15
    11  C    0.000000
    12  C    1.432937   0.000000
    13  H    2.212997   1.078257   0.000000
    14  S    1.731830   2.849955   3.148721   0.000000
    15  C    2.500753   3.857701   4.495947   1.764821   0.000000
    16  C    2.385963   3.615228   4.512598   2.672222   1.445658
    17  H    3.553185   4.876589   5.442103   2.515067   1.080721
    18  H    3.401615   4.507995   5.448958   3.694835   2.228548
    19  O    5.322478   4.562711   5.126068   6.764307   6.831711
    20  H    6.387270   5.697162   6.261603   7.779454   7.704893
                   16         17         18         19         20
    16  C    0.000000
    17  H    2.240555   0.000000
    18  H    1.086272   2.643818   0.000000
    19  O    5.833289   7.668155   5.918143   0.000000
    20  H    6.650453   8.473816   6.582818   1.154513   0.000000
 Stoichiometry    C10H6OS3
 Framework group  C1[X(C10H6OS3)]
 Deg. of freedom    54
 Full point group                 C1      NOp   1
 Largest Abelian subgroup         C1      NOp   1
 Largest concise Abelian subgroup C1      NOp   1
                         Standard orientation:                         
 ---------------------------------------------------------------------
 Center     Atomic      Atomic             Coordinates (Angstroms)
 Number     Number       Type             X           Y           Z
 ---------------------------------------------------------------------
      1          6           0       -4.069591    0.408134    0.290589
      2          6           0       -2.724892    0.920122    0.278154
      3          6           0       -1.729565   -0.099755   -0.039457
      4          6           0       -4.135291   -0.996022   -0.003570
      5          1           0       -4.946709    0.999308    0.500771
      6         16           0       -2.560479   -1.671343   -0.301740
      7          1           0       -5.048048   -1.570931   -0.054119
      8          6           0       -0.283126   -0.057787   -0.191285
      9         16           0        0.580185    1.445390   -0.640005
     10          6           0        2.126035    0.669657   -0.596058
     11          6           0        2.033626   -0.718176   -0.219305
     12          6           0        0.684910   -1.134503    0.027569
     13          1           0        0.436385   -2.084075    0.473874
     14         16           0        3.487875   -1.308609    0.512666
     15          6           0        4.267945    0.263473    0.326543
     16          6           0        3.391592    1.242833   -0.275777
     17          1           0        5.217418    0.496645    0.787073
     18          1           0        3.580934    2.311149   -0.222515
     19          8           0       -2.242327    2.271687    0.832231
     20          1           0       -2.792511    3.239548    1.137915
 ---------------------------------------------------------------------
 Rotational constants (GHZ):           1.1607537           0.2758903           0.2326216
 Standard basis: 6-311+G(d,p) (5D, 7F)
 There are   382 symmetry adapted cartesian basis functions of A   symmetry.
 There are   368 symmetry adapted basis functions of A   symmetry.
   368 basis functions,   594 primitive gaussians,   382 cartesian basis functions
    61 alpha electrons       61 beta electrons
       nuclear repulsion energy      1103.7782695387 Hartrees.
 NAtoms=   20 NActive=   20 NUniq=   20 SFac= 1.00D+00 NAtFMM=   60 NAOKFM=F Big=F
 Integral buffers will be    131072 words long.
 Raffenetti 2 integral format.
 Two-electron integral symmetry is turned on.
 Nuclear repulsion after empirical dispersion term =     1103.7682837204 Hartrees.
 One-electron integrals computed using PRISM.
 NBasis=   368 RedAO= T EigKep=  2.84D-06  NBF=   368
 NBsUse=   367 1.00D-06 EigRej=  5.06D-07 NBFU=   367
 ExpMin= 4.05D-02 ExpMax= 9.34D+04 ExpMxC= 3.17D+03 IAcc=3 IRadAn=         5 AccDes= 0.00D+00
 Harris functional with IExCor= 4639 and IRadAn=       5 diagonalized for initial guess.
 HarFok:  IExCor= 4639 AccDes= 0.00D+00 IRadAn=         5 IDoV= 1 UseB2=F ITyADJ=14
 ICtDFT=  3500011 ScaDFX=  1.000000  1.000000  1.000000  1.000000
 FoFCou: FMM=F IPFlag=           0 FMFlag=      100000 FMFlg1=           0
         NFxFlg=           0 DoJE=T BraDBF=F KetDBF=T FulRan=T
         wScrn=  0.000000 ICntrl=       500 IOpCl=  0 I1Cent=   200000004 NGrid=           0
         NMat0=    1 NMatS0=      1 NMatT0=    0 NMatD0=    1 NMtDS0=    0 NMtDT0=    0
 Petite list used in FoFCou.
 Requested convergence on RMS density matrix=1.00D-08 within 128 cycles.
 Requested convergence on MAX density matrix=1.00D-06.
 Requested convergence on             energy=1.00D-06.
 No special actions if energy rises.
 SCF Done:  E(RwB97XD) =  -1654.30233086     A.U. after   18 cycles
            NFock= 18  Conv=0.88D-08     -V/T= 2.0031

 **********************************************************************

            Population analysis using the SCF Density.

 **********************************************************************

 Orbital symmetries:
       Occupied  (A) (A) (A) (A) (A) (A) (A) (A) (A) (A) (A) (A)
                 (A) (A) (A) (A) (A) (A) (A) (A) (A) (A) (A) (A)
                 (A) (A) (A) (A) (A) (A) (A) (A) (A) (A) (A) (A)
                 (A) (A) (A) (A) (A) (A) (A) (A) (A) (A) (A) (A)
                 (A) (A) (A) (A) (A) (A) (A) (A) (A) (A) (A) (A)
                 (A)
       Virtual   (A) (A) (A) (A) (A) (A) (A) (A) (A) (A) (A) (A)
                 (A) (A) (A) (A) (A) (A) (A) (A) (A) (A) (A) (A)
                 (A) (A) (A) (A) (A) (A) (A) (A) (A) (A) (A) (A)
                 (A) (A) (A) (A) (A) (A) (A) (A) (A) (A) (A) (A)
                 (A) (A) (A) (A) (A) (A) (A) (A) (A) (A) (A) (A)
                 (A) (A) (A) (A) (A) (A) (A) (A) (A) (A) (A) (A)
                 (A) (A) (A) (A) (A) (A) (A) (A) (A) (A) (A) (A)
                 (A) (A) (A) (A) (A) (A) (A) (A) (A) (A) (A) (A)
                 (A) (A) (A) (A) (A) (A) (A) (A) (A) (A) (A) (A)
                 (A) (A) (A) (A) (A) (A) (A) (A) (A) (A) (A) (A)
                 (A) (A) (A) (A) (A) (A) (A) (A) (A) (A) (A) (A)
                 (A) (A) (A) (A) (A) (A) (A) (A) (A) (A) (A) (A)
                 (A) (A) (A) (A) (A) (A) (A) (A) (A) (A) (A) (A)
                 (A) (A) (A) (A) (A) (A) (A) (A) (A) (A) (A) (A)
                 (A) (A) (A) (A) (A) (A) (A) (A) (A) (A) (A) (A)
                 (A) (A) (A) (A) (A) (A) (A) (A) (A) (A) (A) (A)
                 (A) (A) (A) (A) (A) (A) (A) (A) (A) (A) (A) (A)
                 (A) (A) (A) (A) (A) (A) (A) (A) (A) (A) (A) (A)
                 (A) (A) (A) (A) (A) (A) (A) (A) (A) (A) (A) (A)
                 (A) (A) (A) (A) (A) (A) (A) (A) (A) (A) (A) (A)
                 (A) (A) (A) (A) (A) (A) (A) (A) (A) (A) (A) (A)
                 (A) (A) (A) (A) (A) (A) (A) (A) (A) (A) (A) (A)
                 (A) (A) (A) (A) (A) (A) (A) (A) (A) (A) (A) (A)
                 (A) (A) (A) (A) (A) (A) (A) (A) (A) (A) (A) (A)
                 (A) (A) (A) (A) (A) (A) (A) (A) (A) (A) (A) (A)
                 (A) (A) (A) (A) (A) (A)
 The electronic state is 1-A.
 Alpha  occ. eigenvalues --  -89.06654 -89.05483 -89.05038 -19.28516 -10.39107
 Alpha  occ. eigenvalues --  -10.35550 -10.35307 -10.34100 -10.33256 -10.33114
 Alpha  occ. eigenvalues --  -10.32896 -10.31976 -10.31567 -10.31314  -8.10513
 Alpha  occ. eigenvalues --   -8.09430  -8.08958  -6.05361  -6.04989  -6.04611
 Alpha  occ. eigenvalues --   -6.04283  -6.03919  -6.03828  -6.03495  -6.03445
 Alpha  occ. eigenvalues --   -6.03001  -1.08287  -1.00333  -0.97933  -0.93291
 Alpha  occ. eigenvalues --   -0.87004  -0.85043  -0.83849  -0.80166  -0.78255
 Alpha  occ. eigenvalues --   -0.70963  -0.67486  -0.66304  -0.62938  -0.61852
 Alpha  occ. eigenvalues --   -0.60190  -0.57458  -0.54355  -0.52945  -0.51414
 Alpha  occ. eigenvalues --   -0.50292  -0.48776  -0.48008  -0.47427  -0.46729
 Alpha  occ. eigenvalues --   -0.45078  -0.44016  -0.42833  -0.42647  -0.41552
 Alpha  occ. eigenvalues --   -0.41110  -0.36971  -0.33684  -0.32699  -0.30107
 Alpha  occ. eigenvalues --   -0.26167
 Alpha virt. eigenvalues --   -0.01406   0.02174   0.03760   0.05545   0.06156
 Alpha virt. eigenvalues --    0.06422   0.06772   0.07115   0.07883   0.08444
 Alpha virt. eigenvalues --    0.08901   0.09067   0.09461   0.09603   0.10645
 Alpha virt. eigenvalues --    0.10741   0.10926   0.11492   0.11861   0.12542
 Alpha virt. eigenvalues --    0.13011   0.13238   0.13514   0.14461   0.14594
 Alpha virt. eigenvalues --    0.15136   0.15951   0.16571   0.17128   0.17262
 Alpha virt. eigenvalues --    0.17819   0.18062   0.18467   0.18921   0.19231
 Alpha virt. eigenvalues --    0.19793   0.20278   0.20695   0.21159   0.21453
 Alpha virt. eigenvalues --    0.21891   0.22987   0.23108   0.23370   0.23781
 Alpha virt. eigenvalues --    0.23949   0.24693   0.24820   0.25642   0.25918
 Alpha virt. eigenvalues --    0.26148   0.26432   0.26720   0.26865   0.27226
 Alpha virt. eigenvalues --    0.27692   0.28154   0.28672   0.28713   0.29051
 Alpha virt. eigenvalues --    0.29663   0.30305   0.30753   0.31015   0.31466
 Alpha virt. eigenvalues --    0.31837   0.32642   0.33374   0.33744   0.35024
 Alpha virt. eigenvalues --    0.35338   0.36129   0.36872   0.37739   0.38894
 Alpha virt. eigenvalues --    0.39836   0.40488   0.41128   0.41272   0.41926
 Alpha virt. eigenvalues --    0.42057   0.44006   0.44607   0.45884   0.47035
 Alpha virt. eigenvalues --    0.48410   0.49339   0.50017   0.50940   0.52062
 Alpha virt. eigenvalues --    0.52777   0.53751   0.56009   0.57549   0.59723
 Alpha virt. eigenvalues --    0.61623   0.62193   0.63216   0.64031   0.64440
 Alpha virt. eigenvalues --    0.64875   0.66433   0.67688   0.68331   0.68861
 Alpha virt. eigenvalues --    0.70195   0.70771   0.71631   0.72022   0.72297
 Alpha virt. eigenvalues --    0.75040   0.76546   0.76887   0.77457   0.77996
 Alpha virt. eigenvalues --    0.79016   0.79316   0.80160   0.81242   0.81888
 Alpha virt. eigenvalues --    0.82592   0.82918   0.83630   0.84534   0.85351
 Alpha virt. eigenvalues --    0.85637   0.87013   0.88299   0.88648   0.89905
 Alpha virt. eigenvalues --    0.90196   0.91044   0.91692   0.93287   0.94225
 Alpha virt. eigenvalues --    0.94544   0.97492   0.98545   0.99211   0.99949
 Alpha virt. eigenvalues --    1.01001   1.01613   1.02312   1.03312   1.04013
 Alpha virt. eigenvalues --    1.05665   1.07147   1.08853   1.09410   1.09874
 Alpha virt. eigenvalues --    1.11124   1.12452   1.13951   1.15082   1.16460
 Alpha virt. eigenvalues --    1.19325   1.20858   1.22200   1.23908   1.27453
 Alpha virt. eigenvalues --    1.31081   1.31691   1.33790   1.36107   1.38345
 Alpha virt. eigenvalues --    1.41572   1.44057   1.46535   1.47403   1.48853
 Alpha virt. eigenvalues --    1.52676   1.55696   1.57936   1.58645   1.59758
 Alpha virt. eigenvalues --    1.62104   1.62261   1.62852   1.65799   1.66252
 Alpha virt. eigenvalues --    1.69198   1.70333   1.72629   1.73386   1.74098
 Alpha virt. eigenvalues --    1.75792   1.77460   1.78377   1.78619   1.79838
 Alpha virt. eigenvalues --    1.81642   1.83638   1.84443   1.85783   1.87532
 Alpha virt. eigenvalues --    1.88332   1.89778   1.90352   1.92980   1.93948
 Alpha virt. eigenvalues --    1.96124   1.97708   1.98793   2.00001   2.00780
 Alpha virt. eigenvalues --    2.02607   2.04426   2.06354   2.08399   2.09364
 Alpha virt. eigenvalues --    2.09882   2.11695   2.13311   2.14941   2.15549
 Alpha virt. eigenvalues --    2.16730   2.19102   2.19995   2.21523   2.23058
 Alpha virt. eigenvalues --    2.24005   2.27740   2.29216   2.37149   2.41480
 Alpha virt. eigenvalues --    2.45576   2.45793   2.49705   2.55257   2.56683
 Alpha virt. eigenvalues --    2.61642   2.62953   2.65519   2.68903   2.74507
 Alpha virt. eigenvalues --    2.76786   2.76959   2.79742   2.80569   2.81481
 Alpha virt. eigenvalues --    2.82273   2.84532   2.85755   2.86027   2.90325
 Alpha virt. eigenvalues --    2.90824   2.95106   2.97819   3.02034   3.03282
 Alpha virt. eigenvalues --    3.04779   3.07957   3.08428   3.11893   3.13081
 Alpha virt. eigenvalues --    3.14517   3.15327   3.20419   3.22361   3.29378
 Alpha virt. eigenvalues --    3.31684   3.35220   3.36326   3.43471   3.47081
 Alpha virt. eigenvalues --    3.49891   3.56301   3.64154   3.72527   3.80957
 Alpha virt. eigenvalues --    3.98887   4.03901   4.10826   4.14745   4.22784
 Alpha virt. eigenvalues --    4.41088   4.56370   5.13340   5.30785   5.54957
 Alpha virt. eigenvalues --    8.04420   8.06964   8.09144  17.41181  17.42862
 Alpha virt. eigenvalues --   17.44611  17.56798  17.58466  17.61052  17.61330
 Alpha virt. eigenvalues --   17.64636  17.65698  23.57160  23.71263  23.84050
 Alpha virt. eigenvalues --   23.89872  23.92473  23.97749  23.99649  24.07571
 Alpha virt. eigenvalues --   24.08538  24.09541  49.99860 189.28760 189.31562
 Alpha virt. eigenvalues --  189.34153
          Condensed to atoms (all electrons):
               1          2          3          4          5          6
     1  C    8.879683  -3.545086   1.208132  -0.606724   0.455864   0.389635
     2  C   -3.545086  15.885974  -5.967087   1.927474  -0.120952  -2.069339
     3  C    1.208132  -5.967087  11.780160  -1.362050   0.043612   0.722051
     4  C   -0.606724   1.927474  -1.362050   6.041165  -0.020126  -0.224848
     5  H    0.455864  -0.120952   0.043612  -0.020126   0.479353   0.004042
     6  S    0.389635  -2.069339   0.722051  -0.224848   0.004042  17.273531
     7  H    0.044541  -0.056822   0.036373   0.372823  -0.003068  -0.025633
     8  C    0.024120  -1.530247   0.135486  -0.160685  -0.002714   0.531065
     9  S    0.008185  -0.581243   0.823688   0.009692   0.000062   0.063266
    10  C   -0.025992   0.050968  -0.461834   0.011633  -0.000105   0.069872
    11  C   -0.043836  -0.472802   0.567608  -0.057969   0.000036  -0.020587
    12  C   -0.184466   1.307326  -1.422682   0.058826   0.000311  -0.249449
    13  H   -0.001112  -0.005658   0.019722   0.001081   0.000001  -0.002153
    14  S   -0.012135   0.026208   0.007692   0.004691  -0.000003  -0.006470
    15  C    0.000467  -0.008587  -0.015221  -0.000712   0.000000  -0.004442
    16  C   -0.014268   0.160710  -0.036561   0.011193  -0.000011  -0.003475
    17  H    0.000001  -0.000033  -0.000023  -0.000001   0.000000   0.000026
    18  H    0.000049  -0.000047  -0.000792  -0.000012   0.000000   0.000009
    19  O   -0.165915   0.601831  -0.210548   0.019436  -0.001576   0.006434
    20  H   -0.077793  -0.039904   0.075725  -0.003549  -0.000053  -0.005016
               7          8          9         10         11         12
     1  C    0.044541   0.024120   0.008185  -0.025992  -0.043836  -0.184466
     2  C   -0.056822  -1.530247  -0.581243   0.050968  -0.472802   1.307326
     3  C    0.036373   0.135486   0.823688  -0.461834   0.567608  -1.422682
     4  C    0.372823  -0.160685   0.009692   0.011633  -0.057969   0.058826
     5  H   -0.003068  -0.002714   0.000062  -0.000105   0.000036   0.000311
     6  S   -0.025633   0.531065   0.063266   0.069872  -0.020587  -0.249449
     7  H    0.436845  -0.002984  -0.000290  -0.000051   0.000016   0.000314
     8  C   -0.002984  12.033785   1.137473  -0.514752   2.123684  -6.584003
     9  S   -0.000290   1.137473  18.024884  -0.858920   1.705016  -3.361630
    10  C   -0.000051  -0.514752  -0.858920  13.936940  -6.152632   1.939489
    11  C    0.000016   2.123684   1.705016  -6.152632  18.837530  -9.133148
    12  C    0.000314  -6.584003  -3.361630   1.939489  -9.133148  20.811764
    13  H    0.000003   0.127897   0.010459  -0.049150   0.135310   0.118853
    14  S   -0.000002  -0.530197   0.054878   0.567323  -1.229281   0.736252
    15  C    0.000000   0.292060   0.036732   0.870786  -0.286799  -0.532455
    16  C   -0.000006  -0.994167  -0.578614  -3.407457  -0.146371   2.167967
    17  H    0.000000  -0.003743   0.000278  -0.037793   0.015964   0.012771
    18  H    0.000000   0.007064   0.014385   0.021133  -0.031583  -0.005765
    19  O   -0.000044  -0.000446  -0.015939  -0.017859   0.006922  -0.067955
    20  H   -0.000002   0.028498   0.009681  -0.000631   0.000903   0.002910
              13         14         15         16         17         18
     1  C   -0.001112  -0.012135   0.000467  -0.014268   0.000001   0.000049
     2  C   -0.005658   0.026208  -0.008587   0.160710  -0.000033  -0.000047
     3  C    0.019722   0.007692  -0.015221  -0.036561  -0.000023  -0.000792
     4  C    0.001081   0.004691  -0.000712   0.011193  -0.000001  -0.000012
     5  H    0.000001  -0.000003   0.000000  -0.000011   0.000000   0.000000
     6  S   -0.002153  -0.006470  -0.004442  -0.003475   0.000026   0.000009
     7  H    0.000003  -0.000002   0.000000  -0.000006   0.000000   0.000000
     8  C    0.127897  -0.530197   0.292060  -0.994167  -0.003743   0.007064
     9  S    0.010459   0.054878   0.036732  -0.578614   0.000278   0.014385
    10  C   -0.049150   0.567323   0.870786  -3.407457  -0.037793   0.021133
    11  C    0.135310  -1.229281  -0.286799  -0.146371   0.015964  -0.031583
    12  C    0.118853   0.736252  -0.532455   2.167967   0.012771  -0.005765
    13  H    0.475781   0.006124   0.001177  -0.012330   0.000000   0.000010
    14  S    0.006124  16.706946   0.292510  -0.397058  -0.025172  -0.000726
    15  C    0.001177   0.292510   5.666069  -0.360940   0.363101   0.009795
    16  C   -0.012330  -0.397058  -0.360940   9.218077   0.037563   0.344651
    17  H    0.000000  -0.025172   0.363101   0.037563   0.440162  -0.002664
    18  H    0.000010  -0.000726   0.009795   0.344651  -0.002664   0.476288
    19  O    0.000002  -0.000914   0.000543  -0.007722  -0.000001   0.000007
    20  H   -0.000002  -0.000001   0.000070  -0.000513  -0.000000  -0.000000
              19         20
     1  C   -0.165915  -0.077793
     2  C    0.601831  -0.039904
     3  C   -0.210548   0.075725
     4  C    0.019436  -0.003549
     5  H   -0.001576  -0.000053
     6  S    0.006434  -0.005016
     7  H   -0.000044  -0.000002
     8  C   -0.000446   0.028498
     9  S   -0.015939   0.009681
    10  C   -0.017859  -0.000631
    11  C    0.006922   0.000903
    12  C   -0.067955   0.002910
    13  H    0.000002  -0.000002
    14  S   -0.000914  -0.000001
    15  C    0.000543   0.000070
    16  C   -0.007722  -0.000513
    17  H   -0.000001  -0.000000
    18  H    0.000007  -0.000000
    19  O    8.033291   0.234952
    20  H    0.234952   0.457041
 Mulliken charges:
               1
     1  C   -0.333351
     2  C    0.437318
     3  C    0.056549
     4  C   -0.021339
     5  H    0.165328
     6  S   -0.448518
     7  H    0.197986
     8  C   -0.117196
     9  S   -0.502043
    10  C    0.059033
    11  C    0.182020
    12  C    0.384770
    13  H    0.173985
    14  S   -0.200664
    15  C   -0.324155
    16  C    0.019334
    17  H    0.199563
    18  H    0.168197
    19  O   -0.414500
    20  H    0.317683
 Sum of Mulliken charges =  -0.00000
 Mulliken charges with hydrogens summed into heavy atoms:
               1
     1  C   -0.168023
     2  C    0.437318
     3  C    0.056549
     4  C    0.176646
     6  S   -0.448518
     8  C   -0.117196
     9  S   -0.502043
    10  C    0.059033
    11  C    0.182020
    12  C    0.558755
    14  S   -0.200664
    15  C   -0.124592
    16  C    0.187531
    19  O   -0.096816
 Electronic spatial extent (au):  <R**2>=           4392.6736
 Charge=              0.0000 electrons
 Dipole moment (field-independent basis, Debye):
    X=             -2.2196    Y=              1.0840    Z=              1.3924  Tot=              2.8356
 Quadrupole moment (field-independent basis, Debye-Ang):
   XX=            -80.1988   YY=            -90.1572   ZZ=           -108.2593
   XY=             -0.4565   XZ=              1.1927   YZ=              1.9110
 Traceless Quadrupole moment (field-independent basis, Debye-Ang):
   XX=             12.6730   YY=              2.7146   ZZ=            -15.3876
   XY=             -0.4565   XZ=              1.1927   YZ=              1.9110
 Octapole moment (field-independent basis, Debye-Ang**2):
  XXX=            -65.0682  YYY=             40.6643  ZZZ=              6.5043  XYY=            -32.1350
  XXY=             32.8234  XXZ=             34.5743  XZZ=             -1.5415  YZZ=              5.5711
  YYZ=             15.7413  XYZ=            -14.3605
 Hexadecapole moment (field-independent basis, Debye-Ang**3):
 XXXX=          -4114.1806 YYYY=           -901.8334 ZZZZ=           -258.8859 XXXY=             26.4044
 XXXZ=             69.1789 YYYX=            -90.3654 YYYZ=             53.6070 ZZZX=              3.6905
 ZZZY=             11.8892 XXYY=           -817.9962 XXZZ=           -889.7874 YYZZ=           -213.1676
 XXYZ=             51.7531 YYXZ=            -38.8567 ZZXY=            -25.8193
 N-N= 1.103768283720D+03 E-N=-6.117725993270D+03  KE= 1.649265598971D+03
 Calling FoFJK, ICntrl=      2127 FMM=F ISym2X=0 I1Cent= 0 IOpClX= 0 NMat=1 NMatS=1 NMatT=0.
 ***** Axes restored to original set *****
 -------------------------------------------------------------------
 Center     Atomic                   Forces (Hartrees/Bohr)
 Number     Number              X              Y              Z
 -------------------------------------------------------------------
      1        6           0.017714038   -0.045251616    0.005204133
      2        6           0.031066449    0.022219107    0.012412674
      3        6          -0.037973329    0.023368978    0.001813239
      4        6           0.017084841    0.056696672   -0.017039298
      5        1          -0.000460235    0.001798806    0.000534825
      6       16          -0.005635205    0.031905341   -0.009450472
      7        1           0.002884946   -0.002971399    0.000682289
      8        6           0.050868259   -0.023674514    0.015212302
      9       16          -0.011187458   -0.017694532    0.006278185
     10        6           0.010318876   -0.017754574    0.033741217
     11        6          -0.024836751    0.034501452   -0.008240892
     12        6          -0.031777545    0.042311428   -0.029056452
     13        1          -0.005161173   -0.003195355   -0.000510886
     14       16           0.008725651    0.011638521   -0.018130603
     15        6          -0.051507366    0.027043137   -0.030112665
     16        6           0.035691904   -0.029800842    0.043795835
     17        1           0.001935689   -0.006817831   -0.001705582
     18        1           0.003389101   -0.006778739   -0.005330161
     19        8          -0.035239413    0.014181042   -0.004164949
     20        1           0.024098723   -0.111725082    0.004067258
 -------------------------------------------------------------------
 Cartesian Forces:  Max     0.111725082 RMS     0.027542207

 GradGradGradGradGradGradGradGradGradGradGradGradGradGradGradGradGradGrad
 Berny optimization.
 FormGI is forming the generalized inverse of G from B-inverse, IUseBI=4.
 Internal  Forces:  Max     0.110670789 RMS     0.021717052
 Search for a local minimum.
 Step number   1 out of a maximum of  116
 All quantities printed in internal units (Hartrees-Bohrs-Radians)
 Mixed Optimization -- RFO/linear search
 Second derivative matrix not updated -- first step.
 ITU=  0
     Eigenvalues ---    0.00230   0.00994   0.01055   0.01221   0.01273
     Eigenvalues ---    0.01296   0.01362   0.01420   0.01458   0.01491
     Eigenvalues ---    0.01500   0.01592   0.01594   0.01769   0.02199
     Eigenvalues ---    0.02651   0.15072   0.15686   0.15736   0.15997
     Eigenvalues ---    0.16000   0.16000   0.18002   0.22444   0.22526
     Eigenvalues ---    0.23320   0.23979   0.24118   0.24633   0.24978
     Eigenvalues ---    0.24995   0.26145   0.26531   0.28307   0.28413
     Eigenvalues ---    0.28663   0.30910   0.31360   0.31567   0.34821
     Eigenvalues ---    0.35247   0.35872   0.35907   0.36006   0.36185
     Eigenvalues ---    0.36206   0.36309   0.37598   0.38222   0.38435
     Eigenvalues ---    0.39456   0.39658   0.406631000.000001000.00000
     Eigenvalues --- 1000.000001000.000001000.000001000.000001000.00000
     Eigenvalues --- 1000.000001000.000001000.000001000.000001000.00000
     Eigenvalues --- 1000.000001000.000001000.000001000.000001000.00000
     Eigenvalues --- 1000.000001000.000001000.000001000.000001000.00000
     Eigenvalues --- 1000.000001000.000001000.000001000.000001000.00000
     Eigenvalues --- 1000.000001000.000001000.000001000.000001000.00000
     Eigenvalues --- 1000.000001000.000001000.000001000.000001000.00000
     Eigenvalues --- 1000.000001000.000001000.000001000.000001000.00000
     Eigenvalues --- 1000.000001000.000001000.000001000.000001000.00000
     Eigenvalues --- 1000.000001000.000001000.000001000.000001000.00000
     Eigenvalues --- 1000.00000
 RFO step:  Lambda=-1.21030138D-01 EMin= 2.30000000D-03
 Linear search not attempted -- first point.
 Maximum step size (   0.300) exceeded in Quadratic search.
    -- Step size scaled by   0.561
 Iteration  1 RMS(Cart)=  0.05919451 RMS(Int)=  0.00165300
 Iteration  2 RMS(Cart)=  0.00197145 RMS(Int)=  0.00009898
 Iteration  3 RMS(Cart)=  0.00001159 RMS(Int)=  0.00009865
 Iteration  4 RMS(Cart)=  0.00000000 RMS(Int)=  0.00009865
 Iteration  1 RMS(Cart)=  0.00000131 RMS(Int)=  0.00000063
 Iteration  2 RMS(Cart)=  0.00000071 RMS(Int)=  0.00000070
 Variable       Old X    -DE/DX   Delta X   Delta X   Delta X     New X
                                 (Linear)    (Quad)   (Total)
    R1        2.71917  -0.02590   0.00000  -0.02934  -0.02926   2.68991
    R2        2.71391  -0.06105   0.00000  -0.06609  -0.06608   2.64783
    R3        2.03793   0.00150   0.00000   0.00174   0.00174   2.03967
    R4        2.75906  -0.07155   0.00000  -0.08236  -0.08231   2.67676
    R5        2.90711  -0.09514   0.00000  -0.13094  -0.13094   2.77617
    R6        3.39578  -0.03044   0.00000  -0.04310  -0.04315   3.35263
    R7        2.74954  -0.01509   0.00000  -0.01703  -0.01703   2.73250
    R8        3.28671  -0.01730   0.00000  -0.02113  -0.02121   3.26550
    R9        2.04073  -0.00081   0.00000  -0.00094  -0.00094   2.03979
   R10        3.38372  -0.01982   0.00000  -0.02706  -0.02712   3.35659
   R11        2.76721  -0.06958   0.00000  -0.08066  -0.08067   2.68654
   R12        3.26947  -0.00550   0.00000  -0.00614  -0.00615   3.26332
   R13        2.72315  -0.03921   0.00000  -0.04373  -0.04360   2.67955
   R14        2.69427  -0.00275   0.00000  -0.00396  -0.00387   2.69039
   R15        2.70786  -0.01487   0.00000  -0.01705  -0.01700   2.69085
   R16        3.27268  -0.00395   0.00000  -0.00396  -0.00398   3.26870
   R17        2.03761   0.00242   0.00000   0.00281   0.00281   2.04042
   R18        3.33503  -0.01765   0.00000  -0.02312  -0.02322   3.31181
   R19        2.73190  -0.06583   0.00000  -0.07308  -0.07309   2.65881
   R20        2.04227  -0.00079   0.00000  -0.00093  -0.00093   2.04134
   R21        2.05276  -0.00363   0.00000  -0.00430  -0.00430   2.04845
   R22        2.18171  -0.11067   0.00000  -0.15366  -0.15366   2.02805
    A1        1.97020  -0.00372   0.00000  -0.00905  -0.00896   1.96125
    A2        2.17330   0.00088   0.00000   0.00257   0.00252   2.17582
    A3        2.13967   0.00285   0.00000   0.00650   0.00645   2.14612
    A4        1.97187   0.01519   0.00000   0.02105   0.02116   1.99304
    A5        2.21760  -0.00325   0.00000  -0.00291  -0.00300   2.21460
    A6        2.06941  -0.01116   0.00000  -0.01511  -0.01523   2.05419
    A7        1.90440  -0.00445   0.00000  -0.00636  -0.00634   1.89806
    A8        2.31891  -0.00677   0.00000  -0.01044  -0.01045   2.30846
    A9        2.05972   0.01120   0.00000   0.01673   0.01672   2.07644
   A10        1.95339  -0.00103   0.00000  -0.00132  -0.00137   1.95202
   A11        2.17580   0.00464   0.00000   0.00889   0.00892   2.18472
   A12        2.15384  -0.00363   0.00000  -0.00762  -0.00760   2.14625
   A13        1.62490  -0.00599   0.00000  -0.00432  -0.00453   1.62037
   A14        2.12901  -0.00380   0.00000  -0.00557  -0.00560   2.12340
   A15        2.24002  -0.00580   0.00000  -0.00860  -0.00863   2.23139
   A16        1.91345   0.00968   0.00000   0.01448   0.01451   1.92797
   A17        1.61884  -0.00815   0.00000  -0.00979  -0.00973   1.60911
   A18        1.96185  -0.00932   0.00000  -0.01194  -0.01215   1.94970
   A19        2.23770   0.00792   0.00000   0.01776   0.01750   2.25520
   A20        1.96640   0.00507   0.00000   0.00736   0.00744   1.97384
   A21        1.96624   0.00724   0.00000   0.00979   0.00979   1.97603
   A22        1.96600  -0.01251   0.00000  -0.01657  -0.01669   1.94931
   A23        2.23762   0.00868   0.00000   0.01877   0.01855   2.25616
   A24        1.96366   0.00055   0.00000  -0.00251  -0.00240   1.96126
   A25        2.16160  -0.00385   0.00000  -0.00526  -0.00537   2.15623
   A26        2.14613   0.00387   0.00000   0.01014   0.01002   2.15616
   A27        1.59369   0.00022   0.00000   0.00203   0.00203   1.59572
   A28        1.96001   0.00174   0.00000   0.00170   0.00166   1.96167
   A29        2.13599  -0.00460   0.00000  -0.00739  -0.00751   2.12848
   A30        2.16997   0.00393   0.00000   0.00988   0.00979   2.17975
   A31        1.93835   0.00547   0.00000   0.00546   0.00555   1.94390
   A32        2.16652   0.00003   0.00000   0.00476   0.00454   2.17106
   A33        2.14142  -0.00357   0.00000  -0.00273  -0.00297   2.13845
   A34        2.32184  -0.06282   0.00000  -0.12541  -0.12541   2.19643
    D1        0.00683  -0.00098   0.00000  -0.00377  -0.00375   0.00308
    D2       -2.89394  -0.00360   0.00000  -0.01693  -0.01699  -2.91092
    D3       -3.13952  -0.00016   0.00000  -0.00014  -0.00014  -3.13966
    D4        0.24290  -0.00278   0.00000  -0.01330  -0.01337   0.22952
    D5       -0.00671  -0.00032   0.00000  -0.00206  -0.00213  -0.00884
    D6       -3.13020   0.00021   0.00000   0.00077   0.00075  -3.12944
    D7        3.13954  -0.00111   0.00000  -0.00560  -0.00566   3.13388
    D8        0.01605  -0.00059   0.00000  -0.00277  -0.00278   0.01327
    D9       -0.00388   0.00188   0.00000   0.00773   0.00774   0.00386
   D10        3.11762   0.00110   0.00000   0.00386   0.00392   3.12154
   D11        2.91927   0.00505   0.00000   0.02097   0.02093   2.94020
   D12       -0.24242   0.00428   0.00000   0.01709   0.01711  -0.22531
   D13       -0.28016   0.00167   0.00000   0.00312   0.00304  -0.27712
   D14        3.11413  -0.00432   0.00000  -0.01515  -0.01507   3.09906
   D15        0.00006  -0.00176   0.00000  -0.00760  -0.00754  -0.00749
   D16       -3.12486  -0.00092   0.00000  -0.00407  -0.00400  -3.12885
   D17       -0.43609  -0.00035   0.00000   0.00000   0.00000  -0.43609
   D18        2.66100   0.00233   0.00000   0.01031   0.01030   2.67131
   D19        2.68400  -0.00133   0.00000  -0.00438  -0.00438   2.67962
   D20       -0.50209   0.00134   0.00000   0.00593   0.00592  -0.49617
   D21        0.00376   0.00126   0.00000   0.00569   0.00570   0.00945
   D22        3.12751   0.00084   0.00000   0.00310   0.00308   3.13060
   D23        3.13744   0.00160   0.00000   0.00691   0.00694  -3.13880
   D24        0.03290  -0.00033   0.00000  -0.00123  -0.00129   0.03162
   D25       -3.13863  -0.00252   0.00000  -0.00970  -0.00966   3.13489
   D26       -0.15750   0.00174   0.00000   0.00727   0.00725  -0.15025
   D27       -0.03711  -0.00035   0.00000  -0.00075  -0.00066  -0.03777
   D28        2.94402   0.00392   0.00000   0.01621   0.01625   2.96027
   D29       -0.02095   0.00133   0.00000   0.00349   0.00349  -0.01747
   D30       -2.61742  -0.00717   0.00000  -0.02547  -0.02552  -2.64294
   D31        0.00287  -0.00136   0.00000  -0.00408  -0.00404  -0.00117
   D32       -2.68845  -0.01015   0.00000  -0.03152  -0.03117  -2.71962
   D33        2.68716   0.00757   0.00000   0.02480   0.02457   2.71173
   D34       -0.00415  -0.00123   0.00000  -0.00264  -0.00256  -0.00671
   D35        2.61437   0.00600   0.00000   0.02663   0.02687   2.64125
   D36       -0.24449  -0.00072   0.00000  -0.00090  -0.00080  -0.24528
   D37        0.01905   0.00110   0.00000   0.00245   0.00241   0.02146
   D38       -2.83981  -0.00562   0.00000  -0.02508  -0.02526  -2.86507
   D39        0.02270   0.00109   0.00000   0.00301   0.00296   0.02566
   D40       -2.96007  -0.00231   0.00000  -0.01217  -0.01232  -2.97239
   D41        2.62775   0.00475   0.00000   0.02387   0.02412   2.65188
   D42       -0.35502   0.00135   0.00000   0.00870   0.00885  -0.34617
   D43       -0.00912   0.00106   0.00000   0.00190   0.00187  -0.00725
   D44       -2.61423  -0.00750   0.00000  -0.02549  -0.02545  -2.63968
   D45        0.02006  -0.00030   0.00000  -0.00036  -0.00037   0.01969
   D46        2.97116   0.00604   0.00000   0.02378   0.02364   2.99479
   D47       -0.02582  -0.00029   0.00000  -0.00099  -0.00094  -0.02675
   D48        2.83781   0.00697   0.00000   0.02747   0.02752   2.86533
   D49       -2.97255  -0.00568   0.00000  -0.02344  -0.02352  -2.99606
   D50       -0.10892   0.00159   0.00000   0.00502   0.00494  -0.10398
         Item               Value     Threshold  Converged?
 Maximum Force            0.110671     0.000450     NO 
 RMS     Force            0.021820     0.000300     NO 
 Maximum Displacement     0.433845     0.001800     NO 
 RMS     Displacement     0.059229     0.001200     NO 
 Predicted change in Energy=-5.486082D-02
 GradGradGradGradGradGradGradGradGradGradGradGradGradGradGradGradGradGrad

                          Input orientation:                          
 ---------------------------------------------------------------------
 Center     Atomic      Atomic             Coordinates (Angstroms)
 Number     Number       Type             X           Y           Z
 ---------------------------------------------------------------------
      1          6           0       -4.206802   -1.349237   -0.215649
      2          6           0       -2.889152   -0.973611   -0.601508
      3          6           0       -1.959340   -2.042170   -0.607957
      4          6           0       -4.305982   -2.714382    0.084054
      5          1           0       -5.045132   -0.672141   -0.154555
      6         16           0       -2.795854   -3.528985   -0.120938
      7          1           0       -5.209837   -3.220275    0.387769
      8          6           0       -0.555602   -2.107803   -0.948638
      9         16           0        0.189830   -0.939383   -2.059551
     10          6           0        1.738076   -1.690803   -1.916731
     11          6           0        1.705411   -2.794377   -1.026978
     12          6           0        0.417999   -3.022943   -0.463126
     13          1           0        0.234678   -3.716844    0.343558
     14         16           0        3.266972   -3.124286   -0.360174
     15          6           0        3.981292   -1.805988   -1.267487
     16          6           0        3.033564   -1.114228   -2.043934
     17          1           0        4.998253   -1.482192   -1.100617
     18          1           0        3.229404   -0.135743   -2.467322
     19          8           0       -2.360814    0.391970   -0.720931
     20          1           0       -2.945962    1.290419   -0.767286
 ---------------------------------------------------------------------
                    Distance matrix (angstroms):
                    1          2          3          4          5
     1  C    0.000000
     2  C    1.423441   0.000000
     3  C    2.384355   1.416478   0.000000
     4  C    1.401171   2.346845   2.537217   0.000000
     5  H    1.079346   2.222364   3.406562   2.184954   0.000000
     6  S    2.598279   2.601844   1.774137   1.728030   3.636199
     7  H    2.207029   3.378128   3.597934   1.079411   2.610408
     8  C    3.800520   2.617699   1.445978   3.936970   4.779913
     9  S    4.785220   3.406933   2.818191   5.287531   5.577209
    10  C    6.192893   4.863683   3.937923   6.448370   7.082009
    11  C    6.140110   4.960466   3.764545   6.113725   7.129855
    12  C    4.924563   3.893092   2.575778   4.765565   5.955442
    13  H    5.064092   4.263425   2.919526   4.657237   6.115123
    14  S    7.683032   6.525451   5.342912   7.597038   8.668700
    15  C    8.268003   6.952653   5.981796   8.445753   9.165182
    16  C    7.471329   6.097453   5.277518   7.807544   8.308461
    17  H    9.248453   7.919528   6.997456   9.459942  10.120316
    18  H    7.863826   6.451357   5.832218   8.363069   8.608400
    19  O    2.587427   1.469086   2.469612   3.752478   2.942563
    20  H    2.976878   2.270802   3.479218   4.314263   2.938299
                    6          7          8          9         10
     6  S    0.000000
     7  H    2.486243   0.000000
     8  C    2.779132   4.968449   0.000000
     9  S    4.402110   6.352028   1.776233   0.000000
    10  C    5.211555   7.478202   2.524292   1.726875   0.000000
    11  C    4.649940   7.071319   2.364255   2.608485   1.417957
    12  C    3.271394   5.695218   1.421655   2.634740   2.372797
    13  H    3.071672   5.467292   2.209826   3.673042   3.387323
    14  S    6.081025   8.510284   3.998950   4.138899   2.610606
    15  C    7.086113   9.445472   4.558088   3.969075   2.338120
    16  C    6.596292   8.848857   3.881878   2.849147   1.423695
    17  H    8.117711  10.461421   5.591046   4.933064   3.367241
    18  H    7.302283   9.427973   4.530087   3.170350   2.223830
    19  O    3.990381   4.732279   3.091844   3.173356   4.750661
    20  H    4.864870   5.177417   4.158680   4.058960   5.670019
                   11         12         13         14         15
    11  C    0.000000
    12  C    1.423939   0.000000
    13  H    2.211871   1.079743   0.000000
    14  S    1.729723   2.852633   3.168781   0.000000
    15  C    2.492868   3.850329   4.503771   1.752534   0.000000
    16  C    2.370883   3.603238   4.506383   2.632462   1.406979
    17  H    3.545428   4.874323   5.456277   2.498411   1.080230
    18  H    3.386071   4.500747   5.449194   3.656894   2.189672
    19  O    5.175003   4.410203   4.975145   6.645764   6.734394
    20  H    6.195827   5.478489   6.035158   7.632556   7.604261
                   16         17         18         19         20
    16  C    0.000000
    17  H    2.210259   0.000000
    18  H    1.083995   2.609528   0.000000
    19  O    5.754849   7.603454   5.880382   0.000000
    20  H    6.570151   8.420750   6.561951   1.073200   0.000000
 Stoichiometry    C10H6OS3
 Framework group  C1[X(C10H6OS3)]
 Deg. of freedom    54
 Full point group                 C1      NOp   1
 Largest Abelian subgroup         C1      NOp   1
 Largest concise Abelian subgroup C1      NOp   1
                         Standard orientation:                         
 ---------------------------------------------------------------------
 Center     Atomic      Atomic             Coordinates (Angstroms)
 Number     Number       Type             X           Y           Z
 ---------------------------------------------------------------------
      1          6           0       -4.021243    0.424807    0.291778
      2          6           0       -2.677671    0.894714    0.278212
      3          6           0       -1.717894   -0.100056   -0.031098
      4          6           0       -4.111241   -0.941852   -0.003894
      5          1           0       -4.883839    1.037660    0.504680
      6         16           0       -2.559015   -1.637178   -0.309187
      7          1           0       -5.029284   -1.506827   -0.059822
      8          6           0       -0.279406   -0.053596   -0.170541
      9         16           0        0.567890    1.447899   -0.597865
     10          6           0        2.108244    0.668276   -0.557946
     11          6           0        1.994395   -0.700380   -0.205213
     12          6           0        0.651254   -1.108851    0.032959
     13          1           0        0.384854   -2.066076    0.455565
     14         16           0        3.461481   -1.307850    0.480774
     15          6           0        4.244883    0.248654    0.293815
     16          6           0        3.387456    1.217307   -0.259468
     17          1           0        5.217383    0.453699    0.717014
     18          1           0        3.603863    2.278698   -0.218705
     19          8           0       -2.187343    2.178869    0.796611
     20          1           0       -2.792595    3.031829    1.037206
 ---------------------------------------------------------------------
 Rotational constants (GHZ):           1.2169123           0.2808954           0.2373279
 Standard basis: 6-311+G(d,p) (5D, 7F)
 There are   382 symmetry adapted cartesian basis functions of A   symmetry.
 There are   368 symmetry adapted basis functions of A   symmetry.
   368 basis functions,   594 primitive gaussians,   382 cartesian basis functions
    61 alpha electrons       61 beta electrons
       nuclear repulsion energy      1118.2974656891 Hartrees.
 NAtoms=   20 NActive=   20 NUniq=   20 SFac= 1.00D+00 NAtFMM=   60 NAOKFM=F Big=F
 Integral buffers will be    131072 words long.
 Raffenetti 2 integral format.
 Two-electron integral symmetry is turned on.
 Nuclear repulsion after empirical dispersion term =     1118.2873598243 Hartrees.
 One-electron integrals computed using PRISM.
 NBasis=   368 RedAO= T EigKep=  2.39D-06  NBF=   368
 NBsUse=   367 1.00D-06 EigRej=  4.35D-07 NBFU=   367
 Initial guess from the checkpoint file:  "/tmp/pbs.4762174[150].pbs/Gau-2851723.chk"
 B after Tr=     0.000000    0.000000   -0.000000
         Rot=    0.999988   -0.004601   -0.000512    0.001663 Ang=  -0.56 deg.
 ExpMin= 4.05D-02 ExpMax= 9.34D+04 ExpMxC= 3.17D+03 IAcc=3 IRadAn=         5 AccDes= 0.00D+00
 Harris functional with IExCor= 4639 and IRadAn=       5 diagonalized for initial guess.
 HarFok:  IExCor= 4639 AccDes= 0.00D+00 IRadAn=         5 IDoV= 1 UseB2=F ITyADJ=14
 ICtDFT=  3500011 ScaDFX=  1.000000  1.000000  1.000000  1.000000
 FoFCou: FMM=F IPFlag=           0 FMFlag=      100000 FMFlg1=           0
         NFxFlg=           0 DoJE=T BraDBF=F KetDBF=T FulRan=T
         wScrn=  0.000000 ICntrl=       500 IOpCl=  0 I1Cent=   200000004 NGrid=           0
         NMat0=    1 NMatS0=      1 NMatT0=    0 NMatD0=    1 NMtDS0=    0 NMtDT0=    0
 Petite list used in FoFCou.
 Requested convergence on RMS density matrix=1.00D-08 within 128 cycles.
 Requested convergence on MAX density matrix=1.00D-06.
 Requested convergence on             energy=1.00D-06.
 No special actions if energy rises.
 SCF Done:  E(RwB97XD) =  -1654.36048113     A.U. after   16 cycles
            NFock= 16  Conv=0.64D-08     -V/T= 2.0026
 Calling FoFJK, ICntrl=      2127 FMM=F ISym2X=0 I1Cent= 0 IOpClX= 0 NMat=1 NMatS=1 NMatT=0.
 ***** Axes restored to original set *****
 -------------------------------------------------------------------
 Center     Atomic                   Forces (Hartrees/Bohr)
 Number     Number              X              Y              Z
 -------------------------------------------------------------------
      1        6           0.005568923   -0.028578016    0.003810494
      2        6           0.030900957    0.034158340    0.008897010
      3        6          -0.030827636    0.009210061    0.000578023
      4        6           0.009694050    0.034621515   -0.010786442
      5        1          -0.000128833    0.001775655    0.000571758
      6       16          -0.002847899    0.017150742   -0.006159052
      7        1           0.002378652   -0.003132719    0.000685785
      8        6           0.036780121   -0.013696866    0.009664139
      9       16          -0.009688109   -0.011136359    0.001439817
     10        6           0.005444189   -0.011007870    0.024241061
     11        6          -0.012007083    0.025680845   -0.004305635
     12        6          -0.023055707    0.025798268   -0.017129186
     13        1          -0.003567226   -0.002858924   -0.001320583
     14       16           0.008434496    0.003725782   -0.011203818
     15        6          -0.033398461    0.019033983   -0.018092035
     16        6           0.024133170   -0.017016645    0.028032546
     17        1           0.001747807   -0.006089011   -0.001469385
     18        1           0.002128766   -0.005098144   -0.005975806
     19        8          -0.038210839    0.011212100   -0.005429637
     20        1           0.026520665   -0.083752738    0.003950947
 -------------------------------------------------------------------
 Cartesian Forces:  Max     0.083752738 RMS     0.019968888

 GradGradGradGradGradGradGradGradGradGradGradGradGradGradGradGradGradGrad
 Berny optimization.
 Using GEDIIS/GDIIS optimizer.
 FormGI is forming the generalized inverse of G from B-inverse, IUseBI=4.
 Internal  Forces:  Max     0.084745992 RMS     0.014872609
 Search for a local minimum.
 Step number   2 out of a maximum of  116
 All quantities printed in internal units (Hartrees-Bohrs-Radians)
 Mixed Optimization -- RFO/linear search
 Update second derivatives using D2CorX and points    1    2
 DE= -5.82D-02 DEPred=-5.49D-02 R= 1.06D+00
 TightC=F SS=  1.41D+00  RLast= 3.15D-01 DXNew= 5.0454D-01 9.4487D-01
 Trust test= 1.06D+00 RLast= 3.15D-01 DXMaxT set to 5.05D-01
 ITU=  1  0
 Use linear search instead of GDIIS.
     Eigenvalues ---    0.00230   0.00996   0.01052   0.01218   0.01271
     Eigenvalues ---    0.01292   0.01347   0.01402   0.01460   0.01485
     Eigenvalues ---    0.01498   0.01591   0.01592   0.01739   0.02124
     Eigenvalues ---    0.02511   0.14684   0.15264   0.15752   0.15821
     Eigenvalues ---    0.15999   0.16019   0.18310   0.21059   0.22458
     Eigenvalues ---    0.22542   0.23412   0.24103   0.24338   0.24987
     Eigenvalues ---    0.25012   0.25269   0.26244   0.26621   0.28457
     Eigenvalues ---    0.28533   0.30890   0.31362   0.31543   0.34856
     Eigenvalues ---    0.35249   0.35907   0.36005   0.36077   0.36184
     Eigenvalues ---    0.36206   0.36398   0.37554   0.38153   0.39292
     Eigenvalues ---    0.39515   0.40566   0.434021000.000001000.00000
     Eigenvalues --- 1000.000001000.000001000.000001000.000001000.00000
     Eigenvalues --- 1000.000001000.000001000.000001000.000001000.00000
     Eigenvalues --- 1000.000001000.000001000.000001000.000001000.00000
     Eigenvalues --- 1000.000001000.000001000.000001000.000001000.00000
     Eigenvalues --- 1000.000001000.000001000.000001000.000001000.00000
     Eigenvalues --- 1000.000001000.000001000.000001000.000001000.00000
     Eigenvalues --- 1000.000001000.000001000.000001000.000001000.00000
     Eigenvalues --- 1000.000001000.000001000.000001000.000001000.00000
     Eigenvalues --- 1000.000001000.000001000.000001000.000001000.00000
     Eigenvalues --- 1000.000001000.000001000.000001000.000001000.00000
     Eigenvalues --- 1000.00000
 RFO step:  Lambda=-9.76670605D-03 EMin= 2.30051834D-03
 Quartic linear search produced a step of  1.45974.
 Iteration  1 RMS(Cart)=  0.09546837 RMS(Int)=  0.01908933
 Iteration  2 RMS(Cart)=  0.02305005 RMS(Int)=  0.00094052
 Iteration  3 RMS(Cart)=  0.00023659 RMS(Int)=  0.00091420
 Iteration  4 RMS(Cart)=  0.00000027 RMS(Int)=  0.00091420
 Iteration  1 RMS(Cart)=  0.00002917 RMS(Int)=  0.00001467
 Iteration  2 RMS(Cart)=  0.00001592 RMS(Int)=  0.00001639
 Iteration  3 RMS(Cart)=  0.00000868 RMS(Int)=  0.00001852
 Iteration  4 RMS(Cart)=  0.00000474 RMS(Int)=  0.00001992
 Iteration  5 RMS(Cart)=  0.00000259 RMS(Int)=  0.00002074
 Iteration  6 RMS(Cart)=  0.00000141 RMS(Int)=  0.00002120
 Iteration  7 RMS(Cart)=  0.00000077 RMS(Int)=  0.00002146
 Variable       Old X    -DE/DX   Delta X   Delta X   Delta X     New X
                                 (Linear)    (Quad)   (Total)
    R1        2.68991  -0.01011  -0.04271   0.03914  -0.00317   2.68674
    R2        2.64783  -0.03503  -0.09647   0.02345  -0.07310   2.57472
    R3        2.03967   0.00125   0.00254   0.00185   0.00440   2.04406
    R4        2.67676  -0.04123  -0.12015   0.03023  -0.08951   2.58725
    R5        2.77617  -0.07152  -0.19114  -0.07226  -0.26340   2.51277
    R6        3.35263  -0.01776  -0.06299   0.02103  -0.04207   3.31057
    R7        2.73250  -0.00421  -0.02486   0.03461   0.00974   2.74225
    R8        3.26550  -0.00992  -0.03096   0.00988  -0.02155   3.24395
    R9        2.03979  -0.00033  -0.00137   0.00124  -0.00013   2.03966
   R10        3.35659  -0.01225  -0.03959   0.00927  -0.03110   3.32549
   R11        2.68654  -0.04324  -0.11776   0.01105  -0.10712   2.57942
   R12        3.26332  -0.00082  -0.00898   0.01897   0.01010   3.27342
   R13        2.67955  -0.02400  -0.06364   0.00308  -0.05910   2.62045
   R14        2.69039   0.00045  -0.00565   0.01243   0.00725   2.69765
   R15        2.69085  -0.00552  -0.02482   0.02306  -0.00129   2.68957
   R16        3.26870  -0.00011  -0.00581   0.01655   0.01079   3.27949
   R17        2.04042   0.00146   0.00410  -0.00065   0.00345   2.04386
   R18        3.31181  -0.01055  -0.03389   0.01039  -0.02423   3.28758
   R19        2.65881  -0.04023  -0.10670   0.01285  -0.09419   2.56461
   R20        2.04134  -0.00041  -0.00135   0.00069  -0.00067   2.04067
   R21        2.04845  -0.00188  -0.00628   0.00310  -0.00318   2.04528
   R22        2.02805  -0.08475  -0.22430  -0.09721  -0.32151   1.70654
    A1        1.96125  -0.00187  -0.01307   0.00883  -0.00363   1.95761
    A2        2.17582  -0.00018   0.00367  -0.01053  -0.00722   2.16860
    A3        2.14612   0.00206   0.00941   0.00171   0.01077   2.15689
    A4        1.99304   0.00622   0.03089  -0.03168  -0.00171   1.99133
    A5        2.21460  -0.00352  -0.00438  -0.00812  -0.01532   2.19928
    A6        2.05419  -0.00192  -0.02223   0.05840   0.03371   2.08790
    A7        1.89806  -0.00018  -0.00925   0.02374   0.01517   1.91323
    A8        2.30846  -0.00661  -0.01525  -0.01813  -0.03373   2.27473
    A9        2.07644   0.00678   0.02440  -0.00538   0.01866   2.09510
   A10        1.95202   0.00004  -0.00200   0.00716   0.00500   1.95701
   A11        2.18472   0.00399   0.01302   0.01216   0.02526   2.20998
   A12        2.14625  -0.00404  -0.01109  -0.01923  -0.03024   2.11601
   A13        1.62037  -0.00421  -0.00661  -0.00779  -0.01495   1.60542
   A14        2.12340  -0.00245  -0.00818   0.00105  -0.00734   2.11607
   A15        2.23139  -0.00387  -0.01260   0.00037  -0.01244   2.21895
   A16        1.92797   0.00638   0.02119  -0.00098   0.02020   1.94817
   A17        1.60911  -0.00499  -0.01420  -0.00116  -0.01478   1.59432
   A18        1.94970  -0.00564  -0.01774   0.00672  -0.01190   1.93780
   A19        2.25520   0.00610   0.02554   0.01622   0.03895   2.29415
   A20        1.97384   0.00264   0.01085  -0.00649   0.00436   1.97820
   A21        1.97603   0.00342   0.01428  -0.00896   0.00470   1.98072
   A22        1.94931  -0.00702  -0.02437   0.01537  -0.01029   1.93903
   A23        2.25616   0.00658   0.02707   0.01787   0.04191   2.29807
   A24        1.96126   0.00085  -0.00351   0.00470   0.00208   1.96334
   A25        2.15623  -0.00255  -0.00784   0.00418  -0.00469   2.15153
   A26        2.15616   0.00219   0.01463  -0.00566   0.00791   2.16407
   A27        1.59572  -0.00089   0.00296  -0.01515  -0.01139   1.58433
   A28        1.96167   0.00227   0.00242   0.01398   0.01586   1.97752
   A29        2.12848  -0.00462  -0.01097  -0.01704  -0.02924   2.09924
   A30        2.17975   0.00322   0.01429   0.00899   0.02225   2.20200
   A31        1.94390   0.00300   0.00810  -0.00707   0.00170   1.94560
   A32        2.17106  -0.00016   0.00662  -0.00419   0.00080   2.17186
   A33        2.13845  -0.00130  -0.00434   0.01683   0.01096   2.14941
   A34        2.19643  -0.04756  -0.18307  -0.04549  -0.22856   1.96787
    D1        0.00308  -0.00057  -0.00548   0.01965   0.01410   0.01718
    D2       -2.91092  -0.00453  -0.02480  -0.08519  -0.10849  -3.01942
    D3       -3.13966   0.00030  -0.00021   0.02937   0.02870  -3.11096
    D4        0.22952  -0.00366  -0.01952  -0.07546  -0.09389   0.13563
    D5       -0.00884  -0.00043  -0.00311   0.00476   0.00191  -0.00693
    D6       -3.12944   0.00018   0.00110   0.00061   0.00167  -3.12777
    D7        3.13388  -0.00128  -0.00826  -0.00477  -0.01256   3.12131
    D8        0.01327  -0.00068  -0.00405  -0.00892  -0.01280   0.00047
    D9        0.00386   0.00128   0.01130  -0.03384  -0.02279  -0.01893
   D10        3.12154   0.00094   0.00572  -0.02178  -0.01648   3.10506
   D11        2.94020   0.00451   0.03055   0.05275   0.08478   3.02497
   D12       -0.22531   0.00417   0.02497   0.06481   0.09109  -0.13422
   D13       -0.27712   0.00140   0.00443   0.06809   0.07274  -0.20439
   D14        3.09906  -0.00360  -0.02199  -0.02936  -0.05157   3.04749
   D15       -0.00749  -0.00125  -0.01101   0.03061   0.02004   0.01255
   D16       -3.12885  -0.00076  -0.00583   0.02068   0.01531  -3.11354
   D17       -0.43609  -0.00066   0.00000   0.00000   0.00000  -0.43609
   D18        2.67131   0.00199   0.01504   0.01793   0.03297   2.70428
   D19        2.67962  -0.00113  -0.00639   0.01334   0.00673   2.68635
   D20       -0.49617   0.00152   0.00864   0.03127   0.03970  -0.45647
   D21        0.00945   0.00099   0.00831  -0.02072  -0.01258  -0.00313
   D22        3.13060   0.00051   0.00450  -0.01625  -0.01161   3.11898
   D23       -3.13880   0.00165   0.01014   0.01171   0.02201  -3.11678
   D24        0.03162  -0.00043  -0.00188  -0.00342  -0.00575   0.02587
   D25        3.13489  -0.00225  -0.01411  -0.00572  -0.01979   3.11510
   D26       -0.15025   0.00163   0.01058   0.01786   0.02832  -0.12193
   D27       -0.03777   0.00004  -0.00096   0.01060   0.01015  -0.02762
   D28        2.96027   0.00391   0.02372   0.03418   0.05826   3.01853
   D29       -0.01747   0.00096   0.00509  -0.00483   0.00037  -0.01710
   D30       -2.64294  -0.00629  -0.03725  -0.04026  -0.07813  -2.72106
   D31       -0.00117  -0.00086  -0.00590   0.01198   0.00605   0.00488
   D32       -2.71962  -0.00840  -0.04550  -0.03991  -0.08278  -2.80240
   D33        2.71173   0.00674   0.03587   0.04783   0.08145   2.79318
   D34       -0.00671  -0.00081  -0.00374  -0.00406  -0.00739  -0.01410
   D35        2.64125   0.00597   0.03923   0.02524   0.06573   2.70698
   D36       -0.24528  -0.00033  -0.00116  -0.00067  -0.00091  -0.24619
   D37        0.02146   0.00057   0.00352  -0.01379  -0.01066   0.01080
   D38       -2.86507  -0.00573  -0.03688  -0.03970  -0.07730  -2.94237
   D39        0.02566   0.00054   0.00432  -0.01464  -0.01066   0.01500
   D40       -2.97239  -0.00288  -0.01798  -0.03917  -0.05797  -3.03035
   D41        2.65188   0.00541   0.03522   0.04581   0.08247   2.73435
   D42       -0.34617   0.00199   0.01292   0.02128   0.03516  -0.31101
   D43       -0.00725   0.00083   0.00272   0.01553   0.01779   0.01054
   D44       -2.63968  -0.00634  -0.03715  -0.03849  -0.07674  -2.71641
   D45        0.01969  -0.00043  -0.00053  -0.02351  -0.02425  -0.00456
   D46        2.99479   0.00533   0.03450   0.01447   0.04744   3.04223
   D47       -0.02675   0.00007  -0.00137   0.02512   0.02422  -0.00253
   D48        2.86533   0.00641   0.04017   0.04698   0.08815   2.95348
   D49       -2.99606  -0.00500  -0.03433  -0.01127  -0.04663  -3.04269
   D50       -0.10398   0.00134   0.00722   0.01059   0.01730  -0.08668
         Item               Value     Threshold  Converged?
 Maximum Force            0.084746     0.000450     NO 
 RMS     Force            0.014943     0.000300     NO 
 Maximum Displacement     0.764124     0.001800     NO 
 RMS     Displacement     0.105332     0.001200     NO 
 Predicted change in Energy=-5.743665D-02
 GradGradGradGradGradGradGradGradGradGradGradGradGradGradGradGradGradGrad

                          Input orientation:                          
 ---------------------------------------------------------------------
 Center     Atomic      Atomic             Coordinates (Angstroms)
 Number     Number       Type             X           Y           Z
 ---------------------------------------------------------------------
      1          6           0       -4.169012   -1.323289   -0.221222
      2          6           0       -2.836111   -0.959299   -0.556328
      3          6           0       -1.954348   -2.006657   -0.558117
      4          6           0       -4.285446   -2.653002    0.052041
      5          1           0       -5.000986   -0.632454   -0.197106
      6         16           0       -2.788497   -3.478648   -0.103683
      7          1           0       -5.189455   -3.178657    0.319313
      8          6           0       -0.540569   -2.043588   -0.883163
      9         16           0        0.181700   -0.846909   -1.952317
     10          6           0        1.731676   -1.609996   -1.826401
     11          6           0        1.677668   -2.710197   -0.984066
     12          6           0        0.383275   -2.946043   -0.441311
     13          1           0        0.169617   -3.694679    0.309476
     14         16           0        3.261038   -3.145404   -0.422594
     15          6           0        3.965410   -1.829222   -1.315976
     16          6           0        3.052974   -1.101081   -2.008137
     17          1           0        5.016777   -1.604077   -1.215605
     18          1           0        3.284888   -0.154179   -2.478239
     19          8           0       -2.387114    0.278321   -0.742878
     20          1           0       -3.052484    0.886062   -0.801687
 ---------------------------------------------------------------------
                    Distance matrix (angstroms):
                    1          2          3          4          5
     1  C    0.000000
     2  C    1.421764   0.000000
     3  C    2.342056   1.369112   0.000000
     4  C    1.362485   2.310696   2.494809   0.000000
     5  H    1.081672   2.218683   3.361661   2.157935   0.000000
     6  S    2.562266   2.560131   1.751876   1.716624   3.606197
     7  H    2.185377   3.351198   3.550969   1.079342   2.604872
     8  C    3.758005   2.559691   1.451135   3.907698   4.728350
     9  S    4.706626   3.326950   2.802055   5.218699   5.476038
    10  C    6.121839   4.785516   3.918246   6.389222   6.995636
    11  C    6.057154   4.860330   3.723969   6.052728   7.038519
    12  C    4.837880   3.784815   2.522017   4.703852   5.865372
    13  H    4.972810   4.155277   2.848397   4.582462   6.030671
    14  S    7.652862   6.478593   5.339978   7.577411   8.638681
    15  C    8.223338   6.898878   5.970709   8.403970   9.114844
    16  C    7.443086   6.067056   5.291115   7.778509   8.268356
    17  H    9.243720   7.906847   7.013626   9.446615  10.116174
    18  H    7.875377   6.465956   5.879467   8.363993   8.607440
    19  O    2.452028   1.329700   2.332927   3.581650   2.821295
    20  H    2.542599   1.874133   3.103716   3.843699   2.543240
                    6          7          8          9         10
     6  S    0.000000
     7  H    2.456323   0.000000
     8  C    2.778519   4.934215   0.000000
     9  S    4.377849   6.280657   1.759773   0.000000
    10  C    5.185708   7.413962   2.498158   1.732219   0.000000
    11  C    4.616516   7.005400   2.318431   2.578230   1.386681
    12  C    3.233851   5.629207   1.364971   2.594250   2.349826
    13  H    2.994630   5.383868   2.157048   3.636708   3.368664
    14  S    6.067094   8.483064   3.984763   4.135874   2.582073
    15  C    7.057302   9.397164   4.531790   3.960597   2.301774
    16  C    6.588061   8.813114   3.881679   2.883042   1.427534
    17  H    8.103868  10.440424   5.584602   4.949143   3.341406
    18  H    7.319604   9.422752   4.555024   3.222770   2.226379
    19  O    3.832035   4.575157   2.969961   3.054127   4.658776
    20  H    4.428046   4.727074   3.859949   3.845398   5.492589
                   11         12         13         14         15
    11  C    0.000000
    12  C    1.423257   0.000000
    13  H    2.217358   1.081567   0.000000
    14  S    1.735430   2.884721   3.224052   0.000000
    15  C    2.473872   3.852794   4.531012   1.739714   0.000000
    16  C    2.351476   3.603627   4.517945   2.595476   1.357135
    17  H    3.525161   4.885668   5.494674   2.467220   1.079878
    18  H    3.368818   4.512531   5.478267   3.629555   2.149356
    19  O    5.050927   4.261751   4.840357   6.612571   6.717495
[...]
 Largest concise Abelian subgroup C1      NOp   1
                         Standard orientation:                         
 ---------------------------------------------------------------------
 Center     Atomic      Atomic             Coordinates (Angstroms)
 Number     Number       Type             X           Y           Z
 ---------------------------------------------------------------------
      1          6           0       -4.013538    0.361793    0.157071
      2          6           0       -2.674675    0.844578    0.218640
      3          6           0       -1.727548   -0.124560    0.008648
      4          6           0       -4.067006   -0.970876   -0.105151
      5          1           0       -4.887654    0.983775    0.305657
      6         16           0       -2.503418   -1.653285   -0.291340
      7          1           0       -4.944374   -1.591258   -0.204832
      8          6           0       -0.278853   -0.016648    0.022497
      9         16           0        0.522191    1.510194   -0.309199
     10          6           0        2.075668    0.760927   -0.174737
     11          6           0        1.956114   -0.584448    0.110785
     12          6           0        0.614813   -1.032650    0.229647
     13          1           0        0.318698   -2.046144    0.464021
     14         16           0        3.514257   -1.323066    0.271836
     15          6           0        4.295692    0.196326   -0.047516
     16          6           0        3.422884    1.215806   -0.263231
     17          1           0        5.374363    0.242022   -0.059839
     18          1           0        3.726629    2.230891   -0.477107
     19          8           0       -2.327919    2.133128    0.467132
     20          1           0       -3.114110    2.672718    0.554375
 ---------------------------------------------------------------------
 Rotational constants (GHZ):           1.3017119           0.2829073           0.2357648

 **********************************************************************

            Population analysis using the SCF Density.

 **********************************************************************

 Orbital symmetries:
       Occupied  (A) (A) (A) (A) (A) (A) (A) (A) (A) (A) (A) (A)
                 (A) (A) (A) (A) (A) (A) (A) (A) (A) (A) (A) (A)
                 (A) (A) (A) (A) (A) (A) (A) (A) (A) (A) (A) (A)
                 (A) (A) (A) (A) (A) (A) (A) (A) (A) (A) (A) (A)
                 (A) (A) (A) (A) (A) (A) (A) (A) (A) (A) (A) (A)
                 (A)
       Virtual   (A) (A) (A) (A) (A) (A) (A) (A) (A) (A) (A) (A)
                 (A) (A) (A) (A) (A) (A) (A) (A) (A) (A) (A) (A)
                 (A) (A) (A) (A) (A) (A) (A) (A) (A) (A) (A) (A)
                 (A) (A) (A) (A) (A) (A) (A) (A) (A) (A) (A) (A)
                 (A) (A) (A) (A) (A) (A) (A) (A) (A) (A) (A) (A)
                 (A) (A) (A) (A) (A) (A) (A) (A) (A) (A) (A) (A)
                 (A) (A) (A) (A) (A) (A) (A) (A) (A) (A) (A) (A)
                 (A) (A) (A) (A) (A) (A) (A) (A) (A) (A) (A) (A)
                 (A) (A) (A) (A) (A) (A) (A) (A) (A) (A) (A) (A)
                 (A) (A) (A) (A) (A) (A) (A) (A) (A) (A) (A) (A)
                 (A) (A) (A) (A) (A) (A) (A) (A) (A) (A) (A) (A)
                 (A) (A) (A) (A) (A) (A) (A) (A) (A) (A) (A) (A)
                 (A) (A) (A) (A) (A) (A) (A) (A) (A) (A) (A) (A)
                 (A) (A) (A) (A) (A) (A) (A) (A) (A) (A) (A) (A)
                 (A) (A) (A) (A) (A) (A) (A) (A) (A) (A) (A) (A)
                 (A) (A) (A) (A) (A) (A) (A) (A) (A) (A) (A) (A)
                 (A) (A) (A) (A) (A) (A) (A) (A) (A) (A) (A) (A)
                 (A) (A) (A) (A) (A) (A) (A) (A) (A) (A) (A) (A)
                 (A) (A) (A) (A) (A) (A) (A) (A) (A) (A) (A) (A)
                 (A) (A) (A) (A) (A) (A) (A) (A) (A) (A) (A) (A)
                 (A) (A) (A) (A) (A) (A) (A) (A) (A) (A) (A) (A)
                 (A) (A) (A) (A) (A) (A) (A) (A) (A) (A) (A) (A)
                 (A) (A) (A) (A) (A) (A) (A) (A) (A) (A) (A) (A)
                 (A) (A) (A) (A) (A) (A) (A) (A) (A) (A) (A) (A)
                 (A) (A) (A) (A) (A) (A) (A) (A) (A) (A) (A) (A)
                 (A) (A) (A) (A) (A)
 The electronic state is 1-A.
 Alpha  occ. eigenvalues --  -89.05367 -89.04533 -89.04354 -19.29467 -10.36225
 Alpha  occ. eigenvalues --  -10.33539 -10.32857 -10.32699 -10.31813 -10.31779
 Alpha  occ. eigenvalues --  -10.31631 -10.30545 -10.29998 -10.29834  -8.09438
 Alpha  occ. eigenvalues --   -8.08578  -8.08374  -6.04282  -6.03897  -6.03516
 Alpha  occ. eigenvalues --   -6.03428  -6.03237  -6.03056  -6.02855  -6.02639
 Alpha  occ. eigenvalues --   -6.02411  -1.18596  -1.01688  -0.99868  -0.94915
 Alpha  occ. eigenvalues --   -0.86984  -0.86009  -0.84179  -0.80490  -0.79865
 Alpha  occ. eigenvalues --   -0.71089  -0.70481  -0.66280  -0.65118  -0.62152
 Alpha  occ. eigenvalues --   -0.61007  -0.58054  -0.57316  -0.53624  -0.52902
 Alpha  occ. eigenvalues --   -0.52055  -0.50149  -0.49137  -0.47383  -0.46925
 Alpha  occ. eigenvalues --   -0.46031  -0.45294  -0.44668  -0.43518  -0.42635
 Alpha  occ. eigenvalues --   -0.41195  -0.36633  -0.34373  -0.32190  -0.30158
 Alpha  occ. eigenvalues --   -0.26833
 Alpha virt. eigenvalues --    0.00939   0.04847   0.05575   0.05882   0.06103
 Alpha virt. eigenvalues --    0.06665   0.07506   0.08184   0.08433   0.09126
 Alpha virt. eigenvalues --    0.09396   0.09681   0.09948   0.10437   0.10757
 Alpha virt. eigenvalues --    0.11151   0.11513   0.12304   0.12454   0.13293
 Alpha virt. eigenvalues --    0.13890   0.13894   0.14227   0.14601   0.15228
 Alpha virt. eigenvalues --    0.16140   0.16656   0.17140   0.17620   0.17883
 Alpha virt. eigenvalues --    0.17966   0.18670   0.19077   0.19775   0.20135
 Alpha virt. eigenvalues --    0.20559   0.21106   0.21393   0.21755   0.21985
 Alpha virt. eigenvalues --    0.22516   0.22777   0.23054   0.23289   0.23847
 Alpha virt. eigenvalues --    0.24634   0.24659   0.25312   0.26004   0.26283
 Alpha virt. eigenvalues --    0.26632   0.26798   0.27006   0.27746   0.28228
 Alpha virt. eigenvalues --    0.28692   0.29239   0.29379   0.29951   0.30194
 Alpha virt. eigenvalues --    0.31034   0.31441   0.31532   0.32760   0.33483
 Alpha virt. eigenvalues --    0.34485   0.34713   0.35404   0.36531   0.37196
 Alpha virt. eigenvalues --    0.37628   0.37850   0.40155   0.40461   0.41103
 Alpha virt. eigenvalues --    0.41464   0.42596   0.42805   0.43528   0.44259
 Alpha virt. eigenvalues --    0.44600   0.46833   0.47151   0.48900   0.51051
 Alpha virt. eigenvalues --    0.52150   0.52537   0.53565   0.54574   0.55915
 Alpha virt. eigenvalues --    0.57560   0.58318   0.60204   0.60920   0.62517
 Alpha virt. eigenvalues --    0.63136   0.63873   0.64517   0.64877   0.66780
 Alpha virt. eigenvalues --    0.67316   0.68189   0.69139   0.70341   0.71290
 Alpha virt. eigenvalues --    0.72168   0.72638   0.73506   0.73830   0.76496
 Alpha virt. eigenvalues --    0.78673   0.78977   0.79591   0.79916   0.81089
 Alpha virt. eigenvalues --    0.82063   0.82198   0.83034   0.83489   0.84258
 Alpha virt. eigenvalues --    0.85622   0.86061   0.87490   0.88165   0.88308
 Alpha virt. eigenvalues --    0.90455   0.91050   0.91524   0.91804   0.92012
 Alpha virt. eigenvalues --    0.93569   0.94182   0.94781   0.95975   0.97637
 Alpha virt. eigenvalues --    0.98279   0.98913   0.99813   1.01157   1.03504
 Alpha virt. eigenvalues --    1.04077   1.05840   1.06421   1.07474   1.09663
 Alpha virt. eigenvalues --    1.10481   1.12078   1.12096   1.12563   1.13906
 Alpha virt. eigenvalues --    1.15432   1.15943   1.16539   1.17898   1.19651
 Alpha virt. eigenvalues --    1.21378   1.22898   1.23857   1.26186   1.28332
 Alpha virt. eigenvalues --    1.30309   1.34766   1.35509   1.39865   1.43456
 Alpha virt. eigenvalues --    1.43712   1.44963   1.46970   1.50239   1.51726
 Alpha virt. eigenvalues --    1.53188   1.58576   1.62433   1.62912   1.64179
 Alpha virt. eigenvalues --    1.66189   1.68134   1.68355   1.69292   1.69592
 Alpha virt. eigenvalues --    1.73223   1.74451   1.75162   1.79465   1.79641
 Alpha virt. eigenvalues --    1.81063   1.82426   1.82902   1.83232   1.85202
 Alpha virt. eigenvalues --    1.86351   1.87378   1.88540   1.90084   1.92358
 Alpha virt. eigenvalues --    1.95343   1.96222   1.97438   1.99119   2.00299
 Alpha virt. eigenvalues --    2.01196   2.03750   2.05177   2.06522   2.08023
 Alpha virt. eigenvalues --    2.10860   2.12634   2.13454   2.14893   2.15837
 Alpha virt. eigenvalues --    2.16821   2.18217   2.19266   2.21110   2.21582
 Alpha virt. eigenvalues --    2.23644   2.24632   2.25124   2.27026   2.29518
 Alpha virt. eigenvalues --    2.30335   2.36511   2.41826   2.45310   2.51737
 Alpha virt. eigenvalues --    2.52069   2.57705   2.60843   2.63275   2.68041
 Alpha virt. eigenvalues --    2.72134   2.73249   2.74665   2.78394   2.79606
 Alpha virt. eigenvalues --    2.80721   2.81690   2.82090   2.82368   2.84175
 Alpha virt. eigenvalues --    2.85364   2.87690   2.91923   2.96219   3.00618
 Alpha virt. eigenvalues --    3.02843   3.05603   3.07747   3.08360   3.13282
 Alpha virt. eigenvalues --    3.17231   3.17609   3.23312   3.23494   3.27002
 Alpha virt. eigenvalues --    3.28555   3.30856   3.39278   3.40251   3.41577
 Alpha virt. eigenvalues --    3.44678   3.47338   3.55160   3.57544   3.58654
 Alpha virt. eigenvalues --    3.62874   3.68018   3.79541   3.97925   4.02478
 Alpha virt. eigenvalues --    4.07867   4.15265   4.20991   4.31157   4.47536
 Alpha virt. eigenvalues --    4.66683   5.11378   5.56887   5.85882   8.09871
 Alpha virt. eigenvalues --    8.11196   8.12698  17.42175  17.42675  17.44692
 Alpha virt. eigenvalues --   17.60385  17.61716  17.64611  17.67743  17.70132
 Alpha virt. eigenvalues --   17.71748  23.60272  23.76354  23.90708  23.94207
 Alpha virt. eigenvalues --   23.99159  24.18263  24.20338  24.26861  24.29359
 Alpha virt. eigenvalues --   24.30520  50.07951 189.34643 189.36259 189.37982
          Condensed to atoms (all electrons):
               1          2          3          4          5          6
     1  C   10.903034  -5.949822   1.430838  -1.131228   0.425418   0.613281
     2  C   -5.949822  20.364075  -5.308704   2.561482  -0.096029  -2.807134
     3  C    1.430838  -5.308704  10.869247  -1.179562  -0.002427   0.454793
     4  C   -1.131228   2.561482  -1.179562   6.266698   0.035213  -0.299776
     5  H    0.425418  -0.096029  -0.002427   0.035213   0.499494   0.005176
     6  S    0.613281  -2.807134   0.454793  -0.299776   0.005176  17.601147
     7  H    0.067956  -0.055021   0.039668   0.353509  -0.003734  -0.033696
     8  C    0.317938  -2.079228   0.111585  -0.289554  -0.006816   0.838844
     9  S   -0.083854   0.087815   0.369096   0.083198   0.000174   0.030140
    10  C    0.023948  -0.689004  -0.542600  -0.031177  -0.000004   0.167873
    11  C   -0.164457   0.113607   0.107912   0.001178  -0.000257  -0.086176
    12  C   -0.052702  -0.408820  -1.233560  -0.228614   0.000654  -0.001834
    13  H   -0.002272  -0.001200   0.021632   0.003000  -0.000001   0.003130
    14  S   -0.009762   0.021238   0.006072   0.001731  -0.000003  -0.017795
    15  C   -0.002244  -0.011801  -0.044685   0.000226   0.000000   0.002442
    16  C   -0.027936   0.034131   0.328245   0.009263   0.000003  -0.007990
    17  H   -0.000001   0.000009  -0.000024  -0.000000   0.000000   0.000002
    18  H    0.000018  -0.000342  -0.001047  -0.000005   0.000000   0.000037
    19  O    0.169528  -0.164358   0.026095  -0.038886  -0.005115   0.049723
    20  H   -0.242812   0.290809  -0.030610   0.018502   0.003166  -0.016935
               7          8          9         10         11         12
     1  C    0.067956   0.317938  -0.083854   0.023948  -0.164457  -0.052702
     2  C   -0.055021  -2.079228   0.087815  -0.689004   0.113607  -0.408820
     3  C    0.039668   0.111585   0.369096  -0.542600   0.107912  -1.233560
     4  C    0.353509  -0.289554   0.083198  -0.031177   0.001178  -0.228614
     5  H   -0.003734  -0.006816   0.000174  -0.000004  -0.000257   0.000654
     6  S   -0.033696   0.838844   0.030140   0.167873  -0.086176  -0.001834
     7  H    0.443786  -0.002166  -0.000588  -0.000158   0.000005   0.000516
     8  C   -0.002166  12.474216   0.549587  -1.137546  -2.567891  -1.357115
     9  S   -0.000588   0.549587  17.767285  -0.470769  -0.638329  -0.918965
    10  C   -0.000158  -1.137546  -0.470769  15.957075  -5.211910   0.755395
    11  C    0.000005  -2.567891  -0.638329  -5.211910  12.856157   0.633552
    12  C    0.000516  -1.357115  -0.918965   0.755395   0.633552   9.825761
    13  H    0.000003   0.014097   0.013083  -0.067572  -0.004008   0.354406
    14  S    0.000004  -1.181125   0.070275   0.250660  -0.425798   0.021500
    15  C   -0.000001  -0.214831  -0.070188   0.704132  -0.852401   0.061717
    16  C   -0.000009   0.285816  -0.312442  -4.108126   2.069036  -1.388394
    17  H    0.000000   0.004766  -0.000614   0.023480   0.025145  -0.000100
    18  H    0.000000  -0.007261   0.014526   0.019725  -0.055460   0.002594
    19  O   -0.000296   0.038046  -0.046316   0.009078  -0.022270  -0.021856
    20  H    0.000014   0.013059   0.005827  -0.004351  -0.000689  -0.004254
              13         14         15         16         17         18
     1  C   -0.002272  -0.009762  -0.002244  -0.027936  -0.000001   0.000018
     2  C   -0.001200   0.021238  -0.011801   0.034131   0.000009  -0.000342
     3  C    0.021632   0.006072  -0.044685   0.328245  -0.000024  -0.001047
     4  C    0.003000   0.001731   0.000226   0.009263  -0.000000  -0.000005
     5  H   -0.000001  -0.000003   0.000000   0.000003   0.000000   0.000000
     6  S    0.003130  -0.017795   0.002442  -0.007990   0.000002   0.000037
     7  H    0.000003   0.000004  -0.000001  -0.000009   0.000000   0.000000
     8  C    0.014097  -1.181125  -0.214831   0.285816   0.004766  -0.007261
     9  S    0.013083   0.070275  -0.070188  -0.312442  -0.000614   0.014526
    10  C   -0.067572   0.250660   0.704132  -4.108126   0.023480   0.019725
    11  C   -0.004008  -0.425798  -0.852401   2.069036   0.025145  -0.055460
    12  C    0.354406   0.021500   0.061717  -1.388394  -0.000100   0.002594
    13  H    0.482984   0.010165  -0.003145   0.011348  -0.000003   0.000002
    14  S    0.010165  17.694338   0.402937  -0.336369  -0.041936   0.008183
    15  C   -0.003145   0.402937   5.650750   0.102292   0.389917   0.023626
    16  C    0.011348  -0.336369   0.102292   9.325378  -0.033185   0.355332
    17  H   -0.000003  -0.041936   0.389917  -0.033185   0.444855  -0.003580
    18  H    0.000002   0.008183   0.023626   0.355332  -0.003580   0.483762
    19  O    0.000011  -0.000941  -0.000491   0.001052  -0.000000  -0.000002
    20  H   -0.000004  -0.000040  -0.000008   0.000577  -0.000000  -0.000000
              19         20
     1  C    0.169528  -0.242812
     2  C   -0.164358   0.290809
     3  C    0.026095  -0.030610
     4  C   -0.038886   0.018502
     5  H   -0.005115   0.003166
     6  S    0.049723  -0.016935
     7  H   -0.000296   0.000014
     8  C    0.038046   0.013059
     9  S   -0.046316   0.005827
    10  C    0.009078  -0.004351
    11  C   -0.022270  -0.000689
    12  C   -0.021856  -0.004254
    13  H    0.000011  -0.000004
    14  S   -0.000941  -0.000040
    15  C   -0.000491  -0.000008
    16  C    0.001052   0.000577
    17  H   -0.000000  -0.000000
    18  H   -0.000002  -0.000000
    19  O    8.036696   0.218277
    20  H    0.218277   0.475374
 Mulliken charges:
               1
     1  C   -0.284869
     2  C    0.098298
     3  C    0.578037
     4  C   -0.135197
     5  H    0.145086
     6  S   -0.495252
     7  H    0.190210
     8  C    0.195579
     9  S   -0.448940
    10  C    0.351854
    11  C    0.223054
    12  C   -0.039880
    13  H    0.164341
    14  S   -0.473334
    15  C   -0.138244
    16  C   -0.308022
    17  H    0.191268
    18  H    0.159892
    19  O   -0.247975
    20  H    0.274096
 Sum of Mulliken charges =  -0.00000
 Mulliken charges with hydrogens summed into heavy atoms:
               1
     1  C   -0.139783
     2  C    0.098298
     3  C    0.578037
     4  C    0.055013
     6  S   -0.495252
     8  C    0.195579
     9  S   -0.448940
    10  C    0.351854
    11  C    0.223054
    12  C    0.124461
    14  S   -0.473334
    15  C    0.053025
    16  C   -0.148130
    19  O    0.026121
 Electronic spatial extent (au):  <R**2>=           4278.8657
 Charge=             -0.0000 electrons
 Dipole moment (field-independent basis, Debye):
    X=             -2.4393    Y=              0.9283    Z=              0.1605  Tot=              2.6149
 Quadrupole moment (field-independent basis, Debye-Ang):
   XX=            -76.2778   YY=            -93.8729   ZZ=           -107.8384
   XY=             -1.5563   XZ=             -1.9810   YZ=             -0.1756
 Traceless Quadrupole moment (field-independent basis, Debye-Ang):
   XX=             16.3852   YY=             -1.2099   ZZ=            -15.1753
   XY=             -1.5563   XZ=             -1.9810   YZ=             -0.1756
 Octapole moment (field-independent basis, Debye-Ang**2):
  XXX=            -53.3926  YYY=             21.1391  ZZZ=              2.0025  XYY=            -25.4914
  XXY=             36.5352  XXZ=              2.9658  XZZ=             -4.4905  YZZ=              3.4301
  YYZ=              2.0834  XYZ=            -10.7579
 Hexadecapole moment (field-independent basis, Debye-Ang**3):
 XXXX=          -3925.6170 YYYY=           -952.2102 ZZZZ=           -173.4413 XXXY=            -28.1364
 XXXZ=            -35.4253 YYYX=            -50.1191 YYYZ=              6.6366 ZZZX=             -2.3595
 ZZZY=              5.4576 XXYY=           -813.6542 XXZZ=           -887.2222 YYZZ=           -206.8009
 XXYZ=             22.0825 YYXZ=            -16.6951 ZZXY=            -13.6149
 N-N= 1.131861579964D+03 E-N=-6.175516224014D+03  KE= 1.651139079682D+03
 Unable to Open any file for archive entry.
 1\1\GINC-CX3-7-9\FOpt\RwB97XD\6-311+G(d,p)\C10H6O1S3\NS5018\26-Oct-202
 1\0\\# opt=modredundant wb97xd/6-311+g(d,p)\\pBTTT_-25.pdb\\0,1\C,-4.2
 019599195,-1.3716162223,-0.2715308058\C,-2.8704491057,-0.9586381364,-0
 .5647114649\C,-1.9543528008,-1.9782531346,-0.5256408279\C,-4.281791879
 ,-2.7046637512,-0.0180825674\H,-5.0517860875,-0.7005524434,-0.24945658
 24\S,-2.753668765,-3.4758251433,-0.1417959529\H,-5.1604046691,-3.27974
 62471,0.2307266236\C,-0.5180444599,-1.9362507217,-0.7396738316\S,0.220
 1124903,-0.671302383,-1.7081613921\C,1.7823750961,-1.3875961233,-1.510
 6060052\C,1.7118274043,-2.5303356955,-0.7392314077\C,0.4022682496,-2.8
 453985504,-0.292140755\H,0.1476272387,-3.6902046408,0.3333546963\S,3.2
 822671391,-3.2272542656,-0.5216788166\C,4.0027305697,-1.9638884901,-1.
 473529269\C,3.1018907942,-1.0555338998,-1.9329239866\H,5.0693244081,-1
 .9730913221,-1.6410565104\H,3.3668731369,-0.2021252026,-2.5411010932\O
 ,-2.5016503512,0.3155197513,-0.8525614037\H,-3.2721884895,0.8837566217
 ,-0.8681986473\\Version=ES64L-G16RevC.01\State=1-A\HF=-1654.4118219\RM
 SD=9.347e-09\RMSF=7.509e-05\Dipole=-0.9445494,0.4048332,0.0484572\Quad
 rupole=11.3631235,-2.1953149,-9.1678086,-2.6874275,-3.8717032,-3.25132
 06\PG=C01 [X(C10H6O1S3)]\\@
 The archive entry for this job was punched.


 ALL OUR THINKING ABOUT NATURE MUST NECESSARILY MOVE IN CIRCLES OR SPIRALS;
 FOR WE CAN ONLY UNDERSTAND NATURE IF WE THINK ABOUT HER, AND WE CAN ONLY
 THINK BECAUSE OUR BRAIN IS BUILT IN ACCORDANCE WITH NATURE'S LAWS.

                                             -- TIMOTHY FERRIS, "GALAXIES"
 Job cpu time:       0 days  2 hours 46 minutes 55.2 seconds.
 Elapsed time:       0 days  0 hours 21 minutes  1.0 seconds.
 File lengths (MBytes):  RWF=     86 Int=      0 D2E=      0 Chk=     11 Scr=      1
 Normal termination of Gaussian 16 at Tue Oct 26 00:01:03 2021.
