 Entering Gaussian System, Link 0=g16
 Input=NDI_-40.gjf
 Output=NDI_-40.log
 Initial command:
 /apps/gaussian/g16-c01-avx/g16/l1.exe "/tmp/pbs.4643761[135].pbs/Gau-3850199.inp" -scrdir="/tmp/pbs.4643761[135].pbs/"
 Entering Link 1 = /apps/gaussian/g16-c01-avx/g16/l1.exe PID=   3850200.
  
 Copyright (c) 1988-2019, Gaussian, Inc.  All Rights Reserved.
  
 This is part of the Gaussian(R) 16 program.  It is based on
 the Gaussian(R) 09 system (copyright 2009, Gaussian, Inc.),
 the Gaussian(R) 03 system (copyright 2003, Gaussian, Inc.),
 the Gaussian(R) 98 system (copyright 1998, Gaussian, Inc.),
 the Gaussian(R) 94 system (copyright 1995, Gaussian, Inc.),
 the Gaussian 92(TM) system (copyright 1992, Gaussian, Inc.),
 the Gaussian 90(TM) system (copyright 1990, Gaussian, Inc.),
 the Gaussian 88(TM) system (copyright 1988, Gaussian, Inc.),
 the Gaussian 86(TM) system (copyright 1986, Carnegie Mellon
 University), and the Gaussian 82(TM) system (copyright 1983,
 Carnegie Mellon University). Gaussian is a federally registered
 trademark of Gaussian, Inc.
  
 This software contains proprietary and confidential information,
 including trade secrets, belonging to Gaussian, Inc.
  
 This software is provided under written license and may be
 used, copied, transmitted, or stored only in accord with that
 written license.
  
 The following legend is applicable only to US Government
 contracts under FAR:
  
                    RESTRICTED RIGHTS LEGEND
  
 Use, reproduction and disclosure by the US Government is
 subject to restrictions as set forth in subparagraphs (a)
 and (c) of the Commercial Computer Software - Restricted
 Rights clause in FAR 52.227-19.
  
 Gaussian, Inc.
 340 Quinnipiac St., Bldg. 40, Wallingford CT 06492
  
  
 ---------------------------------------------------------------
 Warning -- This program may not be used in any manner that
 competes with the business of Gaussian, Inc. or will provide
 assistance to any competitor of Gaussian, Inc.  The licensee
 of this program is prohibited from giving any competitor of
 Gaussian, Inc. access to this program.  By using this program,
 the user acknowledges that Gaussian, Inc. is engaged in the
 business of creating and licensing software in the field of
 computational chemistry and represents and warrants to the
 licensee that it is not a competitor of Gaussian, Inc. and that
 it will not use this program in any manner prohibited above.
 ---------------------------------------------------------------
  

 Cite this work as:
 Gaussian 16, Revision C.01,
 M. J. Frisch, G. W. Trucks, H. B. Schlegel, G. E. Scuseria, 
 M. A. Robb, J. R. Cheeseman, G. Scalmani, V. Barone, 
 G. A. Petersson, H. Nakatsuji, X. Li, M. Caricato, A. V. Marenich, 
 J. Bloino, B. G. Janesko, R. Gomperts, B. Mennucci, H. P. Hratchian, 
 J. V. Ortiz, A. F. Izmaylov, J. L. Sonnenberg, D. Williams-Young, 
 F. Ding, F. Lipparini, F. Egidi, J. Goings, B. Peng, A. Petrone, 
 T. Henderson, D. Ranasinghe, V. G. Zakrzewski, J. Gao, N. Rega, 
 G. Zheng, W. Liang, M. Hada, M. Ehara, K. Toyota, R. Fukuda, 
 J. Hasegawa, M. Ishida, T. Nakajima, Y. Honda, O. Kitao, H. Nakai, 
 T. Vreven, K. Throssell, J. A. Montgomery, Jr., J. E. Peralta, 
 F. Ogliaro, M. J. Bearpark, J. J. Heyd, E. N. Brothers, K. N. Kudin, 
 V. N. Staroverov, T. A. Keith, R. Kobayashi, J. Normand, 
 K. Raghavachari, A. P. Rendell, J. C. Burant, S. S. Iyengar, 
 J. Tomasi, M. Cossi, J. M. Millam, M. Klene, C. Adamo, R. Cammi, 
 J. W. Ochterski, R. L. Martin, K. Morokuma, O. Farkas, 
 J. B. Foresman, and D. J. Fox, Gaussian, Inc., Wallingford CT, 2019.
 
 ******************************************
 Gaussian 16:  ES64L-G16RevC.01  3-Jul-2019
                 4-Oct-2021 
 ******************************************
 %mem=10GB
 %nprocshared=8
 Will use up to    8 processors via shared memory.
 -------------------------------------
 # opt=modredundant b3lyp/6-311+g(d,p)
 -------------------------------------
 1/18=120,19=15,26=3,38=1/1,3;
 2/9=110,12=2,17=6,18=5,40=1/2;
 3/5=4,6=6,7=111,11=2,25=1,30=1,71=1,74=-5/1,2,3;
 4//1;
 5/5=2,38=5/2;
 6/7=2,8=2,9=2,10=2,28=1/1;
 7//1,2,3,16;
 1/18=20,19=15,26=3/3(2);
 2/9=110/2;
 99//99;
 2/9=110/2;
 3/5=4,6=6,7=111,11=2,25=1,30=1,71=1,74=-5/1,2,3;
 4/5=5,16=3,69=1/1;
 5/5=2,38=5/2;
 7//1,2,3,16;
 1/18=20,19=15,26=3/3(-5);
 2/9=110/2;
 6/7=2,8=2,9=2,10=2,19=2,28=1/1;
 99/9=1/99;
 -----------
 NDI_-40.pdb
 -----------
 Symbolic Z-matrix:
 Charge = -1 Multiplicity = 2
 C                    -2.563    -2.994    -0.409 
 C                    -2.257    -1.551    -0.224 
 C                    -3.301    -0.607    -0.083 
 C                    -4.65     -1.024    -0.115 
 C                    -4.992    -2.459    -0.304 
 C                    -0.949    -1.137    -0.215 
 C                    -2.962     0.764     0.102 
 C                    -1.595     1.188     0.123 
 C                    -0.561     0.232    -0.072 
 C                    -1.328     2.616     0.446 
 C                    -3.777     3.115     0.508 
 C                    -4.035     1.679     0.268 
 C                    -5.356     1.252     0.23 
 C                    -5.672    -0.098     0.036 
 H                    -6.699    -0.442     0.008 
 H                    -6.133     1.997     0.361 
 H                    -0.19     -1.895    -0.369 
 N                    -2.432     3.476     0.608 
 N                    -3.916    -3.353    -0.438 
 O                    -1.695    -3.847    -0.532 
 O                    -6.149    -2.85     -0.34 
 O                    -4.676     3.938     0.629 
 O                    -0.212     3.097     0.596 
 C                    -2.111     4.875     0.912 
 H                    -1.54      4.931     1.84 
 H                    -1.5       5.299     0.111 
 H                    -3.05      5.414     1.003 
 C                    -4.206    -4.779    -0.625 
 H                    -3.759    -5.126    -1.559 
 H                    -3.775    -5.355     0.196 
 H                    -5.286    -4.897    -0.649 
 C                     0.876     0.482    -0.178 
 C                     1.574     1.49     -0.815 
 S                     1.997    -0.723     0.455 
 C                     2.97      1.308    -0.793 
 H                     1.088     2.336    -1.274 
 C                     3.393     0.152    -0.13 
 O                     3.902     2.133    -1.342 
 C                     4.741    -0.286     0.097 
 C                     3.448     3.37     -1.883 
 C                     5.16     -1.451     0.738 
 S                     6.151     0.63     -0.428 
 H                     4.344     3.909    -2.192 
 H                     2.802     3.209    -2.755 
 H                     2.905     3.956    -1.132 
 C                     6.574    -1.603     0.806 
 O                     4.229    -2.31      1.23 
 C                     7.229    -0.555     0.217 
 H                     7.078    -2.442     1.265 
 C                     4.686    -3.508     1.848 
 H                     8.298    -0.416     0.124 
 H                     5.299    -3.29      2.732 
 H                     3.792    -4.05      2.152 
 H                     5.264    -4.122     1.146 
 
 The following ModRedundant input section has been read:
 D       8       9      32      33 F                                           
 

 GradGradGradGradGradGradGradGradGradGradGradGradGradGradGradGradGradGrad
 Berny optimization.
 Initialization pass.
                           ----------------------------
                           !    Initial Parameters    !
                           ! (Angstroms and Degrees)  !
 --------------------------                            --------------------------
 ! Name  Definition              Value          Derivative Info.                !
 --------------------------------------------------------------------------------
 ! R1    R(1,2)                  1.4866         estimate D2E/DX2                !
 ! R2    R(1,19)                 1.4001         estimate D2E/DX2                !
 ! R3    R(1,20)                 1.2232         estimate D2E/DX2                !
 ! R4    R(2,3)                  1.4146         estimate D2E/DX2                !
 ! R5    R(2,6)                  1.372          estimate D2E/DX2                !
 ! R6    R(3,4)                  1.4123         estimate D2E/DX2                !
 ! R7    R(3,7)                  1.4244         estimate D2E/DX2                !
 ! R8    R(4,5)                  1.4872         estimate D2E/DX2                !
 ! R9    R(4,14)                 1.3874         estimate D2E/DX2                !
 ! R10   R(5,19)                 1.4053         estimate D2E/DX2                !
 ! R11   R(5,21)                 1.2218         estimate D2E/DX2                !
 ! R12   R(6,9)                  1.4301         estimate D2E/DX2                !
 ! R13   R(6,17)                 1.0837         estimate D2E/DX2                !
 ! R14   R(7,8)                  1.4314         estimate D2E/DX2                !
 ! R15   R(7,12)                 1.4199         estimate D2E/DX2                !
 ! R16   R(8,9)                  1.4217         estimate D2E/DX2                !
 ! R17   R(8,10)                 1.4882         estimate D2E/DX2                !
 ! R18   R(9,32)                 1.4624         estimate D2E/DX2                !
 ! R19   R(10,18)                1.4088         estimate D2E/DX2                !
 ! R20   R(10,23)                1.2245         estimate D2E/DX2                !
 ! R21   R(11,12)                1.4786         estimate D2E/DX2                !
 ! R22   R(11,18)                1.3962         estimate D2E/DX2                !
 ! R23   R(11,22)                1.2248         estimate D2E/DX2                !
 ! R24   R(12,13)                1.3888         estimate D2E/DX2                !
 ! R25   R(13,14)                1.4            estimate D2E/DX2                !
 ! R26   R(13,16)                1.0844         estimate D2E/DX2                !
 ! R27   R(14,15)                1.0834         estimate D2E/DX2                !
 ! R28   R(18,24)                1.4672         estimate D2E/DX2                !
 ! R29   R(19,28)                1.4672         estimate D2E/DX2                !
 ! R30   R(24,25)                1.091          estimate D2E/DX2                !
 ! R31   R(24,26)                1.093          estimate D2E/DX2                !
 ! R32   R(24,27)                1.0865         estimate D2E/DX2                !
 ! R33   R(28,29)                1.0921         estimate D2E/DX2                !
 ! R34   R(28,30)                1.0916         estimate D2E/DX2                !
 ! R35   R(28,31)                1.0867         estimate D2E/DX2                !
 ! R36   R(32,33)                1.3817         estimate D2E/DX2                !
 ! R37   R(32,34)                1.7633         estimate D2E/DX2                !
 ! R38   R(33,35)                1.408          estimate D2E/DX2                !
 ! R39   R(33,36)                1.0782         estimate D2E/DX2                !
 ! R40   R(34,37)                1.7483         estimate D2E/DX2                !
 ! R41   R(35,37)                1.3982         estimate D2E/DX2                !
 ! R42   R(35,38)                1.3604         estimate D2E/DX2                !
 ! R43   R(37,39)                1.4354         estimate D2E/DX2                !
 ! R44   R(38,40)                1.4244         estimate D2E/DX2                !
 ! R45   R(39,41)                1.3942         estimate D2E/DX2                !
 ! R46   R(39,42)                1.7615         estimate D2E/DX2                !
 ! R47   R(40,43)                1.0903         estimate D2E/DX2                !
 ! R48   R(40,44)                1.0971         estimate D2E/DX2                !
 ! R49   R(40,45)                1.0965         estimate D2E/DX2                !
 ! R50   R(41,46)                1.4238         estimate D2E/DX2                !
 ! R51   R(41,47)                1.3589         estimate D2E/DX2                !
 ! R52   R(42,48)                1.7269         estimate D2E/DX2                !
 ! R53   R(46,48)                1.369          estimate D2E/DX2                !
 ! R54   R(46,49)                1.081          estimate D2E/DX2                !
 ! R55   R(47,50)                1.4234         estimate D2E/DX2                !
 ! R56   R(48,51)                1.082          estimate D2E/DX2                !
 ! R57   R(50,52)                1.0976         estimate D2E/DX2                !
 ! R58   R(50,53)                1.0888         estimate D2E/DX2                !
 ! R59   R(50,54)                1.0972         estimate D2E/DX2                !
 ! A1    A(2,1,19)             116.767          estimate D2E/DX2                !
 ! A2    A(2,1,20)             122.9113         estimate D2E/DX2                !
 ! A3    A(19,1,20)            120.3217         estimate D2E/DX2                !
 ! A4    A(1,2,3)              120.5473         estimate D2E/DX2                !
 ! A5    A(1,2,6)              119.3369         estimate D2E/DX2                !
 ! A6    A(3,2,6)              120.1056         estimate D2E/DX2                !
 ! A7    A(2,3,4)              120.3743         estimate D2E/DX2                !
 ! A8    A(2,3,7)              118.662          estimate D2E/DX2                !
 ! A9    A(4,3,7)              120.9617         estimate D2E/DX2                !
 ! A10   A(3,4,5)              120.4909         estimate D2E/DX2                !
 ! A11   A(3,4,14)             120.2702         estimate D2E/DX2                !
 ! A12   A(5,4,14)             119.2382         estimate D2E/DX2                !
 ! A13   A(4,5,19)             116.7341         estimate D2E/DX2                !
 ! A14   A(4,5,21)             122.024          estimate D2E/DX2                !
 ! A15   A(19,5,21)            121.2418         estimate D2E/DX2                !
 ! A16   A(2,6,9)              123.2421         estimate D2E/DX2                !
 ! A17   A(2,6,17)             117.1119         estimate D2E/DX2                !
 ! A18   A(9,6,17)             119.589          estimate D2E/DX2                !
 ! A19   A(3,7,8)              120.9519         estimate D2E/DX2                !
 ! A20   A(3,7,12)             117.1037         estimate D2E/DX2                !
 ! A21   A(8,7,12)             121.944          estimate D2E/DX2                !
 ! A22   A(7,8,9)              119.5639         estimate D2E/DX2                !
 ! A23   A(7,8,10)             117.3064         estimate D2E/DX2                !
 ! A24   A(9,8,10)             122.9922         estimate D2E/DX2                !
 ! A25   A(6,9,8)              117.3944         estimate D2E/DX2                !
 ! A26   A(6,9,32)             115.0236         estimate D2E/DX2                !
 ! A27   A(8,9,32)             127.5648         estimate D2E/DX2                !
 ! A28   A(8,10,18)            118.042          estimate D2E/DX2                !
 ! A29   A(8,10,23)            124.5436         estimate D2E/DX2                !
 ! A30   A(18,10,23)           117.4097         estimate D2E/DX2                !
 ! A31   A(12,11,18)           115.5202         estimate D2E/DX2                !
 ! A32   A(12,11,22)           122.7205         estimate D2E/DX2                !
 ! A33   A(18,11,22)           121.7534         estimate D2E/DX2                !
 ! A34   A(7,12,11)            120.8614         estimate D2E/DX2                !
 ! A35   A(7,12,13)            121.162          estimate D2E/DX2                !
 ! A36   A(11,12,13)           117.9699         estimate D2E/DX2                !
 ! A37   A(12,13,14)           120.9948         estimate D2E/DX2                !
 ! A38   A(12,13,16)           117.8401         estimate D2E/DX2                !
 ! A39   A(14,13,16)           121.1642         estimate D2E/DX2                !
 ! A40   A(4,14,13)            119.5003         estimate D2E/DX2                !
 ! A41   A(4,14,15)            118.9169         estimate D2E/DX2                !
 ! A42   A(13,14,15)           121.5811         estimate D2E/DX2                !
 ! A43   A(10,18,11)           126.0753         estimate D2E/DX2                !
 ! A44   A(10,18,24)           115.7508         estimate D2E/DX2                !
 ! A45   A(11,18,24)           118.1737         estimate D2E/DX2                !
 ! A46   A(1,19,5)             125.0856         estimate D2E/DX2                !
 ! A47   A(1,19,28)            116.2868         estimate D2E/DX2                !
 ! A48   A(5,19,28)            118.6276         estimate D2E/DX2                !
 ! A49   A(18,24,25)           109.8574         estimate D2E/DX2                !
 ! A50   A(18,24,26)           109.8979         estimate D2E/DX2                !
 ! A51   A(18,24,27)           107.5355         estimate D2E/DX2                !
 ! A52   A(25,24,26)           108.1108         estimate D2E/DX2                !
 ! A53   A(25,24,27)           110.8301         estimate D2E/DX2                !
 ! A54   A(26,24,27)           110.6124         estimate D2E/DX2                !
 ! A55   A(19,28,29)           109.6906         estimate D2E/DX2                !
 ! A56   A(19,28,30)           109.8136         estimate D2E/DX2                !
 ! A57   A(19,28,31)           107.7461         estimate D2E/DX2                !
 ! A58   A(29,28,30)           108.2991         estimate D2E/DX2                !
 ! A59   A(29,28,31)           110.6959         estimate D2E/DX2                !
 ! A60   A(30,28,31)           110.5924         estimate D2E/DX2                !
 ! A61   A(9,32,33)            130.8839         estimate D2E/DX2                !
 ! A62   A(9,32,34)            118.8051         estimate D2E/DX2                !
 ! A63   A(33,32,34)           110.053          estimate D2E/DX2                !
 ! A64   A(32,33,35)           113.5391         estimate D2E/DX2                !
 ! A65   A(32,33,36)           122.7496         estimate D2E/DX2                !
 ! A66   A(35,33,36)           123.7088         estimate D2E/DX2                !
 ! A67   A(32,34,37)            92.6072         estimate D2E/DX2                !
 ! A68   A(33,35,37)           114.4721         estimate D2E/DX2                !
 ! A69   A(33,35,38)           126.4821         estimate D2E/DX2                !
 ! A70   A(37,35,38)           119.0458         estimate D2E/DX2                !
 ! A71   A(34,37,35)           109.323          estimate D2E/DX2                !
 ! A72   A(34,37,39)           122.9708         estimate D2E/DX2                !
 ! A73   A(35,37,39)           127.69           estimate D2E/DX2                !
 ! A74   A(35,38,40)           117.4883         estimate D2E/DX2                !
 ! A75   A(37,39,41)           127.5839         estimate D2E/DX2                !
 ! A76   A(37,39,42)           123.0862         estimate D2E/DX2                !
 ! A77   A(41,39,42)           109.3299         estimate D2E/DX2                !
 ! A78   A(38,40,43)           105.9632         estimate D2E/DX2                !
 ! A79   A(38,40,44)           111.2299         estimate D2E/DX2                !
 ! A80   A(38,40,45)           111.2125         estimate D2E/DX2                !
 ! A81   A(43,40,44)           109.3399         estimate D2E/DX2                !
 ! A82   A(43,40,45)           109.6863         estimate D2E/DX2                !
 ! A83   A(44,40,45)           109.3431         estimate D2E/DX2                !
 ! A84   A(39,41,46)           114.1827         estimate D2E/DX2                !
 ! A85   A(39,41,47)           119.2601         estimate D2E/DX2                !
 ! A86   A(46,41,47)           126.5567         estimate D2E/DX2                !
 ! A87   A(39,42,48)            91.8065         estimate D2E/DX2                !
 ! A88   A(41,46,48)           111.8936         estimate D2E/DX2                !
 ! A89   A(41,46,49)           124.4829         estimate D2E/DX2                !
 ! A90   A(48,46,49)           123.6235         estimate D2E/DX2                !
 ! A91   A(41,47,50)           117.9862         estimate D2E/DX2                !
 ! A92   A(42,48,46)           112.7872         estimate D2E/DX2                !
 ! A93   A(42,48,51)           119.7667         estimate D2E/DX2                !
 ! A94   A(46,48,51)           127.4458         estimate D2E/DX2                !
 ! A95   A(47,50,52)           111.2126         estimate D2E/DX2                !
 ! A96   A(47,50,53)           106.0565         estimate D2E/DX2                !
 ! A97   A(47,50,54)           111.244          estimate D2E/DX2                !
 ! A98   A(52,50,53)           109.4252         estimate D2E/DX2                !
 ! A99   A(52,50,54)           109.404          estimate D2E/DX2                !
 ! A100  A(53,50,54)           109.4278         estimate D2E/DX2                !
 ! D1    D(19,1,2,3)             0.1578         estimate D2E/DX2                !
 ! D2    D(19,1,2,6)          -178.6792         estimate D2E/DX2                !
 ! D3    D(20,1,2,3)          -179.8231         estimate D2E/DX2                !
 ! D4    D(20,1,2,6)             1.3399         estimate D2E/DX2                !
 ! D5    D(2,1,19,5)            -0.124          estimate D2E/DX2                !
 ! D6    D(2,1,19,28)          179.8267         estimate D2E/DX2                !
 ! D7    D(20,1,19,5)          179.8575         estimate D2E/DX2                !
 ! D8    D(20,1,19,28)          -0.1919         estimate D2E/DX2                !
 ! D9    D(1,2,3,4)              0.0571         estimate D2E/DX2                !
 ! D10   D(1,2,3,7)            179.5453         estimate D2E/DX2                !
 ! D11   D(6,2,3,4)            178.8851         estimate D2E/DX2                !
 ! D12   D(6,2,3,7)             -1.6266         estimate D2E/DX2                !
 ! D13   D(1,2,6,9)            178.625          estimate D2E/DX2                !
 ! D14   D(1,2,6,17)             1.3881         estimate D2E/DX2                !
 ! D15   D(3,2,6,9)             -0.2173         estimate D2E/DX2                !
 ! D16   D(3,2,6,17)          -177.4541         estimate D2E/DX2                !
 ! D17   D(2,3,4,5)             -0.3074         estimate D2E/DX2                !
 ! D18   D(2,3,4,14)           179.3968         estimate D2E/DX2                !
 ! D19   D(7,3,4,5)           -179.7837         estimate D2E/DX2                !
 ! D20   D(7,3,4,14)            -0.0795         estimate D2E/DX2                !
 ! D21   D(2,3,7,8)              1.0523         estimate D2E/DX2                !
 ! D22   D(2,3,7,12)          -178.712          estimate D2E/DX2                !
 ! D23   D(4,3,7,8)           -179.4626         estimate D2E/DX2                !
 ! D24   D(4,3,7,12)             0.7731         estimate D2E/DX2                !
 ! D25   D(3,4,5,19)             0.3343         estimate D2E/DX2                !
 ! D26   D(3,4,5,21)          -179.7799         estimate D2E/DX2                !
 ! D27   D(14,4,5,19)         -179.3729         estimate D2E/DX2                !
 ! D28   D(14,4,5,21)            0.5129         estimate D2E/DX2                !
 ! D29   D(3,4,14,13)           -0.4559         estimate D2E/DX2                !
 ! D30   D(3,4,14,15)         -179.9937         estimate D2E/DX2                !
 ! D31   D(5,4,14,13)          179.252          estimate D2E/DX2                !
 ! D32   D(5,4,14,15)           -0.2858         estimate D2E/DX2                !
 ! D33   D(4,5,19,1)            -0.1141         estimate D2E/DX2                !
 ! D34   D(4,5,19,28)          179.9364         estimate D2E/DX2                !
 ! D35   D(21,5,19,1)          179.9992         estimate D2E/DX2                !
 ! D36   D(21,5,19,28)           0.0496         estimate D2E/DX2                !
 ! D37   D(2,6,9,8)              2.5984         estimate D2E/DX2                !
 ! D38   D(2,6,9,32)          -176.0103         estimate D2E/DX2                !
 ! D39   D(17,6,9,8)           179.77           estimate D2E/DX2                !
 ! D40   D(17,6,9,32)            1.1613         estimate D2E/DX2                !
 ! D41   D(3,7,8,9)              1.3551         estimate D2E/DX2                !
 ! D42   D(3,7,8,10)          -174.5099         estimate D2E/DX2                !
 ! D43   D(12,7,8,9)          -178.8921         estimate D2E/DX2                !
 ! D44   D(12,7,8,10)            5.2428         estimate D2E/DX2                !
 ! D45   D(3,7,12,11)          178.0768         estimate D2E/DX2                !
 ! D46   D(3,7,12,13)           -0.9621         estimate D2E/DX2                !
 ! D47   D(8,7,12,11)           -1.685          estimate D2E/DX2                !
 ! D48   D(8,7,12,13)          179.2761         estimate D2E/DX2                !
 ! D49   D(7,8,9,6)             -3.0809         estimate D2E/DX2                !
 ! D50   D(7,8,9,32)           175.3285         estimate D2E/DX2                !
 ! D51   D(10,8,9,6)           172.5381         estimate D2E/DX2                !
 ! D52   D(10,8,9,32)           -9.0525         estimate D2E/DX2                !
 ! D53   D(7,8,10,18)           -4.7549         estimate D2E/DX2                !
 ! D54   D(7,8,10,23)          174.4235         estimate D2E/DX2                !
 ! D55   D(9,8,10,18)          179.5335         estimate D2E/DX2                !
 ! D56   D(9,8,10,23)           -1.2882         estimate D2E/DX2                !
 ! D57   D(6,9,32,33)          138.4239         estimate D2E/DX2                !
 ! D58   D(6,9,32,34)          -35.1016         estimate D2E/DX2                !
 ! D59   D(8,9,32,33)          -40.0176         Frozen                          !
 ! D60   D(8,9,32,34)          146.4569         estimate D2E/DX2                !
 ! D61   D(8,10,18,11)           0.7189         estimate D2E/DX2                !
 ! D62   D(8,10,18,24)        -179.4089         estimate D2E/DX2                !
 ! D63   D(23,10,18,11)       -178.5188         estimate D2E/DX2                !
 ! D64   D(23,10,18,24)          1.3535         estimate D2E/DX2                !
 ! D65   D(18,11,12,7)          -2.3856         estimate D2E/DX2                !
 ! D66   D(18,11,12,13)        176.6833         estimate D2E/DX2                !
 ! D67   D(22,11,12,7)         178.4862         estimate D2E/DX2                !
 ! D68   D(22,11,12,13)         -2.445          estimate D2E/DX2                !
 ! D69   D(12,11,18,10)          2.8444         estimate D2E/DX2                !
 ! D70   D(12,11,18,24)       -177.0251         estimate D2E/DX2                !
 ! D71   D(22,11,18,10)       -178.0181         estimate D2E/DX2                !
 ! D72   D(22,11,18,24)          2.1124         estimate D2E/DX2                !
 ! D73   D(7,12,13,14)           0.461          estimate D2E/DX2                !
 ! D74   D(7,12,13,16)        -179.8781         estimate D2E/DX2                !
 ! D75   D(11,12,13,14)       -178.6049         estimate D2E/DX2                !
 ! D76   D(11,12,13,16)          1.056          estimate D2E/DX2                !
 ! D77   D(12,13,14,4)           0.2708         estimate D2E/DX2                !
 ! D78   D(12,13,14,15)        179.7958         estimate D2E/DX2                !
 ! D79   D(16,13,14,4)        -179.3788         estimate D2E/DX2                !
 ! D80   D(16,13,14,15)          0.1463         estimate D2E/DX2                !
 ! D81   D(10,18,24,25)        -59.609          estimate D2E/DX2                !
 ! D82   D(10,18,24,26)         59.2209         estimate D2E/DX2                !
 ! D83   D(10,18,24,27)        179.6858         estimate D2E/DX2                !
 ! D84   D(11,18,24,25)        120.2739         estimate D2E/DX2                !
 ! D85   D(11,18,24,26)       -120.8962         estimate D2E/DX2                !
 ! D86   D(11,18,24,27)         -0.4313         estimate D2E/DX2                !
 ! D87   D(1,19,28,29)         -58.1407         estimate D2E/DX2                !
 ! D88   D(1,19,28,30)          60.7668         estimate D2E/DX2                !
 ! D89   D(1,19,28,31)        -178.7139         estimate D2E/DX2                !
 ! D90   D(5,19,28,29)         121.8132         estimate D2E/DX2                !
 ! D91   D(5,19,28,30)        -119.2792         estimate D2E/DX2                !
 ! D92   D(5,19,28,31)           1.2401         estimate D2E/DX2                !
 ! D93   D(9,32,33,35)        -174.2298         estimate D2E/DX2                !
 ! D94   D(9,32,33,36)           6.3205         estimate D2E/DX2                !
 ! D95   D(34,32,33,35)         -0.2676         estimate D2E/DX2                !
 ! D96   D(34,32,33,36)       -179.7174         estimate D2E/DX2                !
 ! D97   D(9,32,34,37)         175.3544         estimate D2E/DX2                !
 ! D98   D(33,32,34,37)          0.5614         estimate D2E/DX2                !
 ! D99   D(32,33,35,37)         -0.2805         estimate D2E/DX2                !
 ! D100  D(32,33,35,38)        179.7476         estimate D2E/DX2                !
 ! D101  D(36,33,35,37)        179.1632         estimate D2E/DX2                !
 ! D102  D(36,33,35,38)         -0.8087         estimate D2E/DX2                !
 ! D103  D(32,34,37,35)         -0.7035         estimate D2E/DX2                !
 ! D104  D(32,34,37,39)        177.9318         estimate D2E/DX2                !
 ! D105  D(33,35,37,34)          0.6907         estimate D2E/DX2                !
 ! D106  D(33,35,37,39)       -177.8624         estimate D2E/DX2                !
 ! D107  D(38,35,37,34)       -179.3351         estimate D2E/DX2                !
 ! D108  D(38,35,37,39)          2.1118         estimate D2E/DX2                !
 ! D109  D(33,35,38,40)          6.534          estimate D2E/DX2                !
 ! D110  D(37,35,38,40)       -173.4368         estimate D2E/DX2                !
 ! D111  D(34,37,39,41)          2.852          estimate D2E/DX2                !
 ! D112  D(34,37,39,42)       -177.1668         estimate D2E/DX2                !
 ! D113  D(35,37,39,41)       -178.7755         estimate D2E/DX2                !
 ! D114  D(35,37,39,42)          1.2057         estimate D2E/DX2                !
 ! D115  D(35,38,40,43)        175.4575         estimate D2E/DX2                !
 ! D116  D(35,38,40,44)        -65.8142         estimate D2E/DX2                !
 ! D117  D(35,38,40,45)         56.3225         estimate D2E/DX2                !
 ! D118  D(37,39,41,46)       -179.9866         estimate D2E/DX2                !
 ! D119  D(37,39,41,47)         -0.2025         estimate D2E/DX2                !
 ! D120  D(42,39,41,46)          0.0301         estimate D2E/DX2                !
 ! D121  D(42,39,41,47)        179.8143         estimate D2E/DX2                !
 ! D122  D(37,39,42,48)        179.9907         estimate D2E/DX2                !
 ! D123  D(41,39,42,48)         -0.0251         estimate D2E/DX2                !
 ! D124  D(39,41,46,48)         -0.02           estimate D2E/DX2                !
 ! D125  D(39,41,46,49)       -179.9829         estimate D2E/DX2                !
 ! D126  D(47,41,46,48)       -179.7856         estimate D2E/DX2                !
 ! D127  D(47,41,46,49)          0.2515         estimate D2E/DX2                !
 ! D128  D(39,41,47,50)        178.3764         estimate D2E/DX2                !
 ! D129  D(46,41,47,50)         -1.8687         estimate D2E/DX2                !
 ! D130  D(39,42,48,46)          0.0147         estimate D2E/DX2                !
 ! D131  D(39,42,48,51)        179.8259         estimate D2E/DX2                !
 ! D132  D(41,46,48,42)         -0.0002         estimate D2E/DX2                !
 ! D133  D(41,46,48,51)       -179.7938         estimate D2E/DX2                !
 ! D134  D(49,46,48,42)        179.963          estimate D2E/DX2                !
 ! D135  D(49,46,48,51)          0.1695         estimate D2E/DX2                !
 ! D136  D(41,47,50,52)         62.0092         estimate D2E/DX2                !
 ! D137  D(41,47,50,53)       -179.1134         estimate D2E/DX2                !
 ! D138  D(41,47,50,54)        -60.2157         estimate D2E/DX2                !
 --------------------------------------------------------------------------------
 Trust Radius=3.00D-01 FncErr=1.00D-07 GrdErr=1.00D-06 EigMax=2.50D+02 EigMin=1.00D-04
 Number of steps in this run=    307 maximum allowed number of steps=    324.
 GradGradGradGradGradGradGradGradGradGradGradGradGradGradGradGradGradGrad

 Stoichiometry    C26H18N2O6S2(1-,2)
 Framework group  C1[X(C26H18N2O6S2)]
 Deg. of freedom   156
 Full point group                 C1      NOp   1
 Largest Abelian subgroup         C1      NOp   1
 Largest concise Abelian subgroup C1      NOp   1
                         Standard orientation:                         
 ---------------------------------------------------------------------
 Center     Atomic      Atomic             Coordinates (Angstroms)
 Number     Number       Type             X           Y           Z
 ---------------------------------------------------------------------
      1          6           0        2.583379   -2.984229    0.449323
      2          6           0        2.267910   -1.545266    0.249389
      3          6           0        3.305450   -0.597656    0.086598
      4          6           0        4.656904   -1.007172    0.110733
      5          6           0        5.008365   -2.437898    0.314219
      6          6           0        0.957691   -1.138248    0.247892
      7          6           0        2.957368    0.769142   -0.112123
      8          6           0        1.587983    1.185701   -0.125173
      9          6           0        0.561026    0.226817    0.091665
     10          6           0        1.310268    2.608149   -0.463280
     11          6           0        3.755859    3.119124   -0.555135
     12          6           0        4.023820    1.687595   -0.299831
     13          6           0        5.347387    1.268008   -0.269302
     14          6           0        5.672444   -0.077800   -0.061621
     15          1           0        6.701489   -0.416054   -0.039279
     16          1           0        6.119102    2.015366   -0.417044
     17          1           0        0.204265   -1.898225    0.418619
     18          7           0        2.408051    3.471818   -0.646606
     19          7           0        3.938494   -3.335767    0.469700
     20          8           0        1.721170   -3.840152    0.591286
     21          8           0        6.167731   -2.822369    0.343887
     22          8           0        4.649245    3.945237   -0.695026
     23          8           0        0.190325    3.081406   -0.608447
     24          6           0        2.076676    4.865224   -0.964833
     25          1           0        1.496504    4.906669   -1.887895
     26          1           0        1.471136    5.295978   -0.163291
     27          1           0        3.011866    5.407946   -1.071588
     28          6           0        4.237892   -4.757791    0.671577
     29          1           0        3.801738   -5.095452    1.614089
     30          1           0        3.802115   -5.346224   -0.138005
     31          1           0        5.318687   -4.869839    0.686601
     32          6           0       -0.876206    0.470609    0.208436
     33          6           0       -1.573436    1.482811    0.839589
     34         16           0       -1.996775   -0.748028   -0.398693
     35          6           0       -2.968590    1.293261    0.833343
     36          1           0       -1.087580    2.336994    1.283333
     37          6           0       -3.391751    0.126892    0.188864
     38          8           0       -3.899673    2.120160    1.381041
     39          6           0       -4.739508   -0.320939   -0.019643
     40          6           0       -3.447117    3.366162    1.902229
     41          6           0       -5.158410   -1.496012   -0.642051
     42         16           0       -6.149279    0.594155    0.507548
     43          1           0       -4.342978    3.904284    2.213159
     44          1           0       -2.791926    3.219421    2.769877
     45          1           0       -2.914490    3.945584    1.138800
     46          6           0       -6.572165   -1.656232   -0.694490
     47          8           0       -4.227599   -2.356203   -1.132324
     48          6           0       -7.227072   -0.604408   -0.112243
     49          1           0       -7.076057   -2.503510   -1.138147
     50          6           0       -4.684101   -3.564184   -1.730959
     51          1           0       -8.295858   -0.469846   -0.010649
     52          1           0       -5.306715   -3.360426   -2.611631
     53          1           0       -3.790177   -4.105254   -2.036833
     54          1           0       -5.252047   -4.172397   -1.015837
 ---------------------------------------------------------------------
 Rotational constants (GHZ):           0.1535524           0.0587312           0.0445036
 Standard basis: 6-311+G(d,p) (5D, 7F)
 There are   952 symmetry adapted cartesian basis functions of A   symmetry.
 There are   916 symmetry adapted basis functions of A   symmetry.
   916 basis functions,  1468 primitive gaussians,   952 cartesian basis functions
   135 alpha electrons      134 beta electrons
       nuclear repulsion energy      4082.4937826254 Hartrees.
 NAtoms=   54 NActive=   54 NUniq=   54 SFac= 1.00D+00 NAtFMM=   60 NAOKFM=F Big=F
 Integral buffers will be    131072 words long.
 Raffenetti 2 integral format.
 Two-electron integral symmetry is turned on.
 One-electron integrals computed using PRISM.
 NBasis=   916 RedAO= T EigKep=  1.63D-06  NBF=   916
 NBsUse=   901 1.00D-06 EigRej=  9.23D-07 NBFU=   901
 ExpMin= 4.05D-02 ExpMax= 9.34D+04 ExpMxC= 3.17D+03 IAcc=3 IRadAn=         5 AccDes= 0.00D+00
 Harris functional with IExCor=  402 and IRadAn=       5 diagonalized for initial guess.
 HarFok:  IExCor=  402 AccDes= 0.00D+00 IRadAn=         5 IDoV= 1 UseB2=F ITyADJ=14
 ICtDFT=  3500011 ScaDFX=  1.000000  1.000000  1.000000  1.000000
 FoFCou: FMM=F IPFlag=           0 FMFlag=      100000 FMFlg1=           0
         NFxFlg=           0 DoJE=T BraDBF=F KetDBF=T FulRan=T
         wScrn=  0.000000 ICntrl=       500 IOpCl=  0 I1Cent=   200000004 NGrid=           0
         NMat0=    1 NMatS0=      1 NMatT0=    0 NMatD0=    1 NMtDS0=    0 NMtDT0=    0
 Petite list used in FoFCou.
 Initial guess <Sx>= 0.0000 <Sy>= 0.0000 <Sz>= 0.5000 <S**2>= 0.7500 S= 0.5000
 Requested convergence on RMS density matrix=1.00D-08 within 128 cycles.
 Requested convergence on MAX density matrix=1.00D-06.
 Requested convergence on             energy=1.00D-06.
 No special actions if energy rises.
 Restarting incremental Fock formation.
 SCF Done:  E(UB3LYP) =  -2359.42432182     A.U. after   22 cycles
            NFock= 22  Conv=0.99D-08     -V/T= 2.0031
 <Sx>= 0.0000 <Sy>= 0.0000 <Sz>= 0.5000 <S**2>= 0.7585 S= 0.5042
 <L.S>=  0.00000000000    
 Annihilation of the first spin contaminant:
 S**2 before annihilation     0.7585,   after     0.7501

 **********************************************************************

            Population analysis using the SCF Density.

 **********************************************************************

 Orbital symmetries:
 Alpha Orbitals:
       Occupied  (A) (A) (A) (A) (A) (A) (A) (A) (A) (A) (A) (A)
                 (A) (A) (A) (A) (A) (A) (A) (A) (A) (A) (A) (A)
                 (A) (A) (A) (A) (A) (A) (A) (A) (A) (A) (A) (A)
                 (A) (A) (A) (A) (A) (A) (A) (A) (A) (A) (A) (A)
                 (A) (A) (A) (A) (A) (A) (A) (A) (A) (A) (A) (A)
                 (A) (A) (A) (A) (A) (A) (A) (A) (A) (A) (A) (A)
                 (A) (A) (A) (A) (A) (A) (A) (A) (A) (A) (A) (A)
                 (A) (A) (A) (A) (A) (A) (A) (A) (A) (A) (A) (A)
                 (A) (A) (A) (A) (A) (A) (A) (A) (A) (A) (A) (A)
                 (A) (A) (A) (A) (A) (A) (A) (A) (A) (A) (A) (A)
                 (A) (A) (A) (A) (A) (A) (A) (A) (A) (A) (A) (A)
                 (A) (A) (A)
       Virtual   (A) (A) (A) (A) (A) (A) (A) (A) (A) (A) (A) (A)
                 (A) (A) (A) (A) (A) (A) (A) (A) (A) (A) (A) (A)
                 (A) (A) (A) (A) (A) (A) (A) (A) (A) (A) (A) (A)
                 (A) (A) (A) (A) (A) (A) (A) (A) (A) (A) (A) (A)
                 (A) (A) (A) (A) (A) (A) (A) (A) (A) (A) (A) (A)
                 (A) (A) (A) (A) (A) (A) (A) (A) (A) (A) (A) (A)
                 (A) (A) (A) (A) (A) (A) (A) (A) (A) (A) (A) (A)
                 (A) (A) (A) (A) (A) (A) (A) (A) (A) (A) (A) (A)
                 (A) (A) (A) (A) (A) (A) (A) (A) (A) (A) (A) (A)
                 (A) (A) (A) (A) (A) (A) (A) (A) (A) (A) (A) (A)
                 (A) (A) (A) (A) (A) (A) (A) (A) (A) (A) (A) (A)
                 (A) (A) (A) (A) (A) (A) (A) (A) (A) (A) (A) (A)
                 (A) (A) (A) (A) (A) (A) (A) (A) (A) (A) (A) (A)
                 (A) (A) (A) (A) (A) (A) (A) (A) (A) (A) (A) (A)
                 (A) (A) (A) (A) (A) (A) (A) (A) (A) (A) (A) (A)
                 (A) (A) (A) (A) (A) (A) (A) (A) (A) (A) (A) (A)
                 (A) (A) (A) (A) (A) (A) (A) (A) (A) (A) (A) (A)
                 (A) (A) (A) (A) (A) (A) (A) (A) (A) (A) (A) (A)
                 (A) (A) (A) (A) (A) (A) (A) (A) (A) (A) (A) (A)
                 (A) (A) (A) (A) (A) (A) (A) (A) (A) (A) (A) (A)
                 (A) (A) (A) (A) (A) (A) (A) (A) (A) (A) (A) (A)
                 (A) (A) (A) (A) (A) (A) (A) (A) (A) (A) (A) (A)
                 (A) (A) (A) (A) (A) (A) (A) (A) (A) (A) (A) (A)
                 (A) (A) (A) (A) (A) (A) (A) (A) (A) (A) (A) (A)
                 (A) (A) (A) (A) (A) (A) (A) (A) (A) (A) (A) (A)
                 (A) (A) (A) (A) (A) (A) (A) (A) (A) (A) (A) (A)
                 (A) (A) (A) (A) (A) (A) (A) (A) (A) (A) (A) (A)
                 (A) (A) (A) (A) (A) (A) (A) (A) (A) (A) (A) (A)
                 (A) (A) (A) (A) (A) (A) (A) (A) (A) (A) (A) (A)
                 (A) (A) (A) (A) (A) (A) (A) (A) (A) (A) (A) (A)
                 (A) (A) (A) (A) (A) (A) (A) (A) (A) (A) (A) (A)
                 (A) (A) (A) (A) (A) (A) (A) (A) (A) (A) (A) (A)
                 (A) (A) (A) (A) (A) (A) (A) (A) (A) (A) (A) (A)
                 (A) (A) (A) (A) (A) (A) (A) (A) (A) (A) (A) (A)
                 (A) (A) (A) (A) (A) (A) (A) (A) (A) (A) (A) (A)
                 (A) (A) (A) (A) (A) (A) (A) (A) (A) (A) (A) (A)
                 (A) (A) (A) (A) (A) (A) (A) (A) (A) (A) (A) (A)
                 (A) (A) (A) (A) (A) (A) (A) (A) (A) (A) (A) (A)
                 (A) (A) (A) (A) (A) (A) (A) (A) (A) (A) (A) (A)
                 (A) (A) (A) (A) (A) (A) (A) (A) (A) (A) (A) (A)
                 (A) (A) (A) (A) (A) (A) (A) (A) (A) (A) (A) (A)
                 (A) (A) (A) (A) (A) (A) (A) (A) (A) (A) (A) (A)
                 (A) (A) (A) (A) (A) (A) (A) (A) (A) (A) (A) (A)
                 (A) (A) (A) (A) (A) (A) (A) (A) (A) (A) (A) (A)
                 (A) (A) (A) (A) (A) (A) (A) (A) (A) (A) (A) (A)
                 (A) (A) (A) (A) (A) (A) (A) (A) (A) (A) (A) (A)
                 (A) (A) (A) (A) (A) (A) (A) (A) (A) (A) (A) (A)
                 (A) (A) (A) (A) (A) (A) (A) (A) (A) (A) (A) (A)
                 (A) (A) (A) (A) (A) (A) (A) (A) (A) (A) (A) (A)
                 (A) (A) (A) (A) (A) (A) (A) (A) (A) (A) (A) (A)
                 (A) (A) (A) (A) (A) (A) (A) (A) (A) (A) (A) (A)
                 (A) (A) (A) (A) (A) (A) (A) (A) (A) (A) (A) (A)
                 (A) (A) (A) (A) (A) (A) (A) (A) (A) (A) (A) (A)
                 (A) (A) (A) (A) (A) (A) (A) (A) (A) (A) (A) (A)
                 (A) (A) (A) (A) (A) (A) (A) (A) (A) (A) (A) (A)
                 (A) (A) (A) (A) (A) (A) (A) (A) (A) (A) (A) (A)
                 (A) (A) (A) (A) (A) (A) (A) (A) (A) (A) (A) (A)
                 (A) (A) (A) (A) (A) (A) (A) (A) (A) (A) (A) (A)
                 (A) (A) (A) (A) (A) (A) (A) (A) (A) (A) (A) (A)
                 (A) (A) (A) (A) (A) (A) (A) (A) (A) (A) (A) (A)
                 (A) (A) (A) (A) (A) (A) (A) (A) (A) (A) (A) (A)
                 (A) (A) (A) (A) (A) (A) (A) (A) (A) (A) (A) (A)
                 (A) (A) (A) (A) (A) (A) (A) (A) (A) (A) (A) (A)
                 (A) (A) (A) (A) (A) (A) (A) (A) (A) (A)
 Beta  Orbitals:
       Occupied  (A) (A) (A) (A) (A) (A) (A) (A) (A) (A) (A) (A)
                 (A) (A) (A) (A) (A) (A) (A) (A) (A) (A) (A) (A)
                 (A) (A) (A) (A) (A) (A) (A) (A) (A) (A) (A) (A)
                 (A) (A) (A) (A) (A) (A) (A) (A) (A) (A) (A) (A)
                 (A) (A) (A) (A) (A) (A) (A) (A) (A) (A) (A) (A)
                 (A) (A) (A) (A) (A) (A) (A) (A) (A) (A) (A) (A)
                 (A) (A) (A) (A) (A) (A) (A) (A) (A) (A) (A) (A)
                 (A) (A) (A) (A) (A) (A) (A) (A) (A) (A) (A) (A)
                 (A) (A) (A) (A) (A) (A) (A) (A) (A) (A) (A) (A)
                 (A) (A) (A) (A) (A) (A) (A) (A) (A) (A) (A) (A)
                 (A) (A) (A) (A) (A) (A) (A) (A) (A) (A) (A) (A)
                 (A) (A)
       Virtual   (A) (A) (A) (A) (A) (A) (A) (A) (A) (A) (A) (A)
                 (A) (A) (A) (A) (A) (A) (A) (A) (A) (A) (A) (A)
                 (A) (A) (A) (A) (A) (A) (A) (A) (A) (A) (A) (A)
                 (A) (A) (A) (A) (A) (A) (A) (A) (A) (A) (A) (A)
                 (A) (A) (A) (A) (A) (A) (A) (A) (A) (A) (A) (A)
                 (A) (A) (A) (A) (A) (A) (A) (A) (A) (A) (A) (A)
                 (A) (A) (A) (A) (A) (A) (A) (A) (A) (A) (A) (A)
                 (A) (A) (A) (A) (A) (A) (A) (A) (A) (A) (A) (A)
                 (A) (A) (A) (A) (A) (A) (A) (A) (A) (A) (A) (A)
                 (A) (A) (A) (A) (A) (A) (A) (A) (A) (A) (A) (A)
                 (A) (A) (A) (A) (A) (A) (A) (A) (A) (A) (A) (A)
                 (A) (A) (A) (A) (A) (A) (A) (A) (A) (A) (A) (A)
                 (A) (A) (A) (A) (A) (A) (A) (A) (A) (A) (A) (A)
                 (A) (A) (A) (A) (A) (A) (A) (A) (A) (A) (A) (A)
                 (A) (A) (A) (A) (A) (A) (A) (A) (A) (A) (A) (A)
                 (A) (A) (A) (A) (A) (A) (A) (A) (A) (A) (A) (A)
                 (A) (A) (A) (A) (A) (A) (A) (A) (A) (A) (A) (A)
                 (A) (A) (A) (A) (A) (A) (A) (A) (A) (A) (A) (A)
                 (A) (A) (A) (A) (A) (A) (A) (A) (A) (A) (A) (A)
                 (A) (A) (A) (A) (A) (A) (A) (A) (A) (A) (A) (A)
                 (A) (A) (A) (A) (A) (A) (A) (A) (A) (A) (A) (A)
                 (A) (A) (A) (A) (A) (A) (A) (A) (A) (A) (A) (A)
                 (A) (A) (A) (A) (A) (A) (A) (A) (A) (A) (A) (A)
                 (A) (A) (A) (A) (A) (A) (A) (A) (A) (A) (A) (A)
                 (A) (A) (A) (A) (A) (A) (A) (A) (A) (A) (A) (A)
                 (A) (A) (A) (A) (A) (A) (A) (A) (A) (A) (A) (A)
                 (A) (A) (A) (A) (A) (A) (A) (A) (A) (A) (A) (A)
                 (A) (A) (A) (A) (A) (A) (A) (A) (A) (A) (A) (A)
                 (A) (A) (A) (A) (A) (A) (A) (A) (A) (A) (A) (A)
                 (A) (A) (A) (A) (A) (A) (A) (A) (A) (A) (A) (A)
                 (A) (A) (A) (A) (A) (A) (A) (A) (A) (A) (A) (A)
                 (A) (A) (A) (A) (A) (A) (A) (A) (A) (A) (A) (A)
                 (A) (A) (A) (A) (A) (A) (A) (A) (A) (A) (A) (A)
                 (A) (A) (A) (A) (A) (A) (A) (A) (A) (A) (A) (A)
                 (A) (A) (A) (A) (A) (A) (A) (A) (A) (A) (A) (A)
                 (A) (A) (A) (A) (A) (A) (A) (A) (A) (A) (A) (A)
                 (A) (A) (A) (A) (A) (A) (A) (A) (A) (A) (A) (A)
                 (A) (A) (A) (A) (A) (A) (A) (A) (A) (A) (A) (A)
                 (A) (A) (A) (A) (A) (A) (A) (A) (A) (A) (A) (A)
                 (A) (A) (A) (A) (A) (A) (A) (A) (A) (A) (A) (A)
                 (A) (A) (A) (A) (A) (A) (A) (A) (A) (A) (A) (A)
                 (A) (A) (A) (A) (A) (A) (A) (A) (A) (A) (A) (A)
                 (A) (A) (A) (A) (A) (A) (A) (A) (A) (A) (A) (A)
                 (A) (A) (A) (A) (A) (A) (A) (A) (A) (A) (A) (A)
                 (A) (A) (A) (A) (A) (A) (A) (A) (A) (A) (A) (A)
                 (A) (A) (A) (A) (A) (A) (A) (A) (A) (A) (A) (A)
                 (A) (A) (A) (A) (A) (A) (A) (A) (A) (A) (A) (A)
                 (A) (A) (A) (A) (A) (A) (A) (A) (A) (A) (A) (A)
                 (A) (A) (A) (A) (A) (A) (A) (A) (A) (A) (A) (A)
                 (A) (A) (A) (A) (A) (A) (A) (A) (A) (A) (A) (A)
                 (A) (A) (A) (A) (A) (A) (A) (A) (A) (A) (A) (A)
                 (A) (A) (A) (A) (A) (A) (A) (A) (A) (A) (A) (A)
                 (A) (A) (A) (A) (A) (A) (A) (A) (A) (A) (A) (A)
                 (A) (A) (A) (A) (A) (A) (A) (A) (A) (A) (A) (A)
                 (A) (A) (A) (A) (A) (A) (A) (A) (A) (A) (A) (A)
                 (A) (A) (A) (A) (A) (A) (A) (A) (A) (A) (A) (A)
                 (A) (A) (A) (A) (A) (A) (A) (A) (A) (A) (A) (A)
                 (A) (A) (A) (A) (A) (A) (A) (A) (A) (A) (A) (A)
                 (A) (A) (A) (A) (A) (A) (A) (A) (A) (A) (A) (A)
                 (A) (A) (A) (A) (A) (A) (A) (A) (A) (A) (A) (A)
                 (A) (A) (A) (A) (A) (A) (A) (A) (A) (A) (A) (A)
                 (A) (A) (A) (A) (A) (A) (A) (A) (A) (A) (A) (A)
                 (A) (A) (A) (A) (A) (A) (A) (A) (A) (A) (A) (A)
                 (A) (A) (A) (A) (A) (A) (A) (A) (A) (A) (A)
 The electronic state is 2-A.
 Alpha  occ. eigenvalues --  -88.79985 -88.77886 -19.08619 -19.08002 -18.99724
 Alpha  occ. eigenvalues --  -18.99551 -18.99132 -18.98868 -14.26659 -14.26171
 Alpha  occ. eigenvalues --  -10.18167 -10.17893 -10.17662 -10.17516 -10.16368
 Alpha  occ. eigenvalues --  -10.15785 -10.15397 -10.14711 -10.13088 -10.12418
 Alpha  occ. eigenvalues --  -10.11676 -10.11536 -10.10879 -10.10871 -10.10467
 Alpha  occ. eigenvalues --  -10.10360 -10.09865 -10.09463 -10.09110 -10.08398
 Alpha  occ. eigenvalues --  -10.08246 -10.08192 -10.08058 -10.08001 -10.07670
 Alpha  occ. eigenvalues --  -10.07617  -7.88540  -7.86455  -5.84847  -5.84467
 Alpha  occ. eigenvalues --   -5.84111  -5.82773  -5.82386  -5.82007  -1.00269
 Alpha  occ. eigenvalues --   -0.99502  -0.96087  -0.95679  -0.94140  -0.93650
 Alpha  occ. eigenvalues --   -0.84046  -0.83466  -0.81043  -0.79459  -0.78396
 Alpha  occ. eigenvalues --   -0.73796  -0.71305  -0.69551  -0.68203  -0.66631
 Alpha  occ. eigenvalues --   -0.65588  -0.65273  -0.63791  -0.63462  -0.61783
 Alpha  occ. eigenvalues --   -0.61278  -0.59922  -0.57842  -0.55141  -0.53713
 Alpha  occ. eigenvalues --   -0.53456  -0.52223  -0.51302  -0.49707  -0.48014
 Alpha  occ. eigenvalues --   -0.47282  -0.45701  -0.45526  -0.45041  -0.42863
 Alpha  occ. eigenvalues --   -0.41713  -0.40769  -0.40583  -0.39789  -0.39515
 Alpha  occ. eigenvalues --   -0.39193  -0.38446  -0.37990  -0.37697  -0.37326
 Alpha  occ. eigenvalues --   -0.36909  -0.36721  -0.36557  -0.34871  -0.34271
 Alpha  occ. eigenvalues --   -0.34154  -0.33654  -0.33104  -0.32887  -0.32677
 Alpha  occ. eigenvalues --   -0.32502  -0.32229  -0.31264  -0.30728  -0.30508
 Alpha  occ. eigenvalues --   -0.30382  -0.30009  -0.29854  -0.29472  -0.29287
 Alpha  occ. eigenvalues --   -0.29143  -0.28459  -0.27769  -0.27461  -0.26826
 Alpha  occ. eigenvalues --   -0.26032  -0.25439  -0.25118  -0.24611  -0.23587
 Alpha  occ. eigenvalues --   -0.22770  -0.20101  -0.19378  -0.18605  -0.17963
 Alpha  occ. eigenvalues --   -0.17611  -0.17362  -0.16820  -0.16464  -0.15905
 Alpha  occ. eigenvalues --   -0.15578  -0.14430  -0.13879  -0.09787  -0.04203
 Alpha virt. eigenvalues --    0.03038   0.05159   0.05852   0.06453   0.06934
 Alpha virt. eigenvalues --    0.07398   0.07563   0.08679   0.09044   0.09086
 Alpha virt. eigenvalues --    0.09460   0.09676   0.10166   0.10368   0.10696
 Alpha virt. eigenvalues --    0.11107   0.11396   0.11639   0.11907   0.12250
 Alpha virt. eigenvalues --    0.12453   0.12540   0.12701   0.12810   0.13148
 Alpha virt. eigenvalues --    0.13262   0.13481   0.13711   0.13987   0.14310
 Alpha virt. eigenvalues --    0.14565   0.14752   0.15063   0.15330   0.15395
 Alpha virt. eigenvalues --    0.15583   0.15833   0.16365   0.16813   0.17099
 Alpha virt. eigenvalues --    0.17263   0.17666   0.17829   0.18050   0.18485
 Alpha virt. eigenvalues --    0.18648   0.18863   0.19070   0.19361   0.19607
 Alpha virt. eigenvalues --    0.19761   0.20150   0.20341   0.20504   0.20557
 Alpha virt. eigenvalues --    0.21052   0.21303   0.21678   0.21941   0.22099
 Alpha virt. eigenvalues --    0.22390   0.22599   0.22990   0.23029   0.23508
 Alpha virt. eigenvalues --    0.23713   0.23754   0.24131   0.24210   0.24400
 Alpha virt. eigenvalues --    0.24514   0.24841   0.25118   0.25539   0.25603
 Alpha virt. eigenvalues --    0.25785   0.25949   0.26007   0.26103   0.26570
 Alpha virt. eigenvalues --    0.26669   0.26887   0.27368   0.27551   0.27642
 Alpha virt. eigenvalues --    0.27907   0.28068   0.28285   0.28340   0.28736
 Alpha virt. eigenvalues --    0.29013   0.29449   0.29543   0.29752   0.29778
 Alpha virt. eigenvalues --    0.29982   0.30177   0.30351   0.30545   0.30859
 Alpha virt. eigenvalues --    0.31205   0.31404   0.31570   0.32211   0.32260
 Alpha virt. eigenvalues --    0.32408   0.32679   0.32722   0.32861   0.33061
 Alpha virt. eigenvalues --    0.33155   0.33446   0.33499   0.33957   0.34012
 Alpha virt. eigenvalues --    0.34248   0.34603   0.34671   0.34873   0.35256
 Alpha virt. eigenvalues --    0.35443   0.35621   0.35671   0.36050   0.36186
 Alpha virt. eigenvalues --    0.36361   0.36526   0.36800   0.37005   0.37235
 Alpha virt. eigenvalues --    0.37390   0.37525   0.37659   0.37917   0.38232
 Alpha virt. eigenvalues --    0.38442   0.38645   0.38883   0.38924   0.39193
 Alpha virt. eigenvalues --    0.39425   0.39762   0.39950   0.40141   0.40358
 Alpha virt. eigenvalues --    0.40935   0.41084   0.41378   0.41782   0.41934
 Alpha virt. eigenvalues --    0.42286   0.42435   0.42582   0.42787   0.43012
 Alpha virt. eigenvalues --    0.43254   0.43353   0.43661   0.44096   0.44418
 Alpha virt. eigenvalues --    0.44725   0.44905   0.44983   0.45442   0.46061
 Alpha virt. eigenvalues --    0.46195   0.46826   0.47142   0.47463   0.47983
 Alpha virt. eigenvalues --    0.48258   0.48732   0.49052   0.49419   0.49629
 Alpha virt. eigenvalues --    0.50173   0.50477   0.50696   0.50850   0.51292
 Alpha virt. eigenvalues --    0.51981   0.52135   0.52504   0.52749   0.53312
 Alpha virt. eigenvalues --    0.53862   0.54002   0.54393   0.54621   0.55155
 Alpha virt. eigenvalues --    0.55385   0.55578   0.55880   0.56228   0.56612
 Alpha virt. eigenvalues --    0.57155   0.57447   0.58435   0.58912   0.59730
 Alpha virt. eigenvalues --    0.59739   0.60232   0.61002   0.61040   0.61856
 Alpha virt. eigenvalues --    0.62611   0.63168   0.63537   0.63588   0.64365
 Alpha virt. eigenvalues --    0.64865   0.65042   0.65261   0.65521   0.66123
 Alpha virt. eigenvalues --    0.66380   0.66662   0.66782   0.67095   0.67999
 Alpha virt. eigenvalues --    0.68457   0.68716   0.69194   0.69368   0.69661
 Alpha virt. eigenvalues --    0.69896   0.70644   0.71164   0.71374   0.71687
 Alpha virt. eigenvalues --    0.71820   0.72532   0.72873   0.73168   0.73926
 Alpha virt. eigenvalues --    0.74059   0.74278   0.74816   0.74954   0.75462
 Alpha virt. eigenvalues --    0.75551   0.75808   0.76279   0.76932   0.77131
 Alpha virt. eigenvalues --    0.77253   0.78070   0.78261   0.78716   0.79243
 Alpha virt. eigenvalues --    0.79376   0.80037   0.80461   0.80621   0.80833
 Alpha virt. eigenvalues --    0.81377   0.81574   0.82151   0.82636   0.83009
 Alpha virt. eigenvalues --    0.83231   0.83530   0.84301   0.84405   0.84613
 Alpha virt. eigenvalues --    0.85056   0.85248   0.85578   0.85882   0.86227
 Alpha virt. eigenvalues --    0.86808   0.86921   0.87383   0.87676   0.87850
 Alpha virt. eigenvalues --    0.88768   0.89076   0.89634   0.89997   0.90418
 Alpha virt. eigenvalues --    0.90454   0.91303   0.91683   0.91957   0.92507
 Alpha virt. eigenvalues --    0.93233   0.93541   0.94677   0.95995   0.97010
 Alpha virt. eigenvalues --    0.97403   0.97906   0.98294   0.98698   0.99416
 Alpha virt. eigenvalues --    0.99987   1.00246   1.00530   1.00980   1.01960
 Alpha virt. eigenvalues --    1.02635   1.03194   1.03618   1.04266   1.04816
 Alpha virt. eigenvalues --    1.05477   1.05752   1.06020   1.06601   1.06752
 Alpha virt. eigenvalues --    1.07391   1.07602   1.08178   1.08468   1.08701
 Alpha virt. eigenvalues --    1.08864   1.09119   1.09304   1.10570   1.10865
 Alpha virt. eigenvalues --    1.11187   1.12074   1.12234   1.12798   1.13617
 Alpha virt. eigenvalues --    1.13698   1.14154   1.14420   1.14697   1.15260
 Alpha virt. eigenvalues --    1.15621   1.15830   1.16235   1.16589   1.16763
 Alpha virt. eigenvalues --    1.17943   1.18070   1.18324   1.18784   1.19399
 Alpha virt. eigenvalues --    1.19651   1.20185   1.20992   1.21591   1.22177
 Alpha virt. eigenvalues --    1.23257   1.24135   1.24595   1.25102   1.26443
 Alpha virt. eigenvalues --    1.26637   1.27198   1.28174   1.28508   1.29594
 Alpha virt. eigenvalues --    1.29961   1.30580   1.31975   1.32649   1.32900
 Alpha virt. eigenvalues --    1.33586   1.33719   1.34205   1.35154   1.35846
 Alpha virt. eigenvalues --    1.36721   1.37459   1.38552   1.39046   1.39604
 Alpha virt. eigenvalues --    1.40085   1.40467   1.41229   1.41633   1.42655
 Alpha virt. eigenvalues --    1.43108   1.43305   1.44499   1.45762   1.46298
 Alpha virt. eigenvalues --    1.47462   1.47931   1.48261   1.49344   1.49525
 Alpha virt. eigenvalues --    1.50105   1.51474   1.52073   1.52362   1.53350
 Alpha virt. eigenvalues --    1.53464   1.53683   1.54231   1.54536   1.55233
 Alpha virt. eigenvalues --    1.55649   1.56032   1.56239   1.57438   1.57670
 Alpha virt. eigenvalues --    1.58226   1.59441   1.59924   1.60312   1.61126
 Alpha virt. eigenvalues --    1.61525   1.62467   1.62884   1.63170   1.63569
 Alpha virt. eigenvalues --    1.63899   1.64227   1.64795   1.65138   1.65661
 Alpha virt. eigenvalues --    1.65959   1.66059   1.66836   1.67741   1.69115
 Alpha virt. eigenvalues --    1.69462   1.69948   1.70796   1.71332   1.71770
 Alpha virt. eigenvalues --    1.72105   1.72594   1.73271   1.74300   1.75359
 Alpha virt. eigenvalues --    1.75687   1.76250   1.76420   1.76921   1.78171
 Alpha virt. eigenvalues --    1.78603   1.78931   1.79940   1.80744   1.81106
 Alpha virt. eigenvalues --    1.82031   1.82059   1.82708   1.83368   1.83435
 Alpha virt. eigenvalues --    1.83823   1.84698   1.85274   1.85695   1.86394
 Alpha virt. eigenvalues --    1.86978   1.87701   1.87970   1.88273   1.88792
 Alpha virt. eigenvalues --    1.89360   1.91051   1.91867   1.92336   1.93326
 Alpha virt. eigenvalues --    1.94362   1.95133   1.95958   1.96469   1.97748
 Alpha virt. eigenvalues --    1.98298   1.98831   1.99190   1.99818   2.00780
 Alpha virt. eigenvalues --    2.00943   2.02043   2.02741   2.03018   2.03507
 Alpha virt. eigenvalues --    2.03920   2.04605   2.04778   2.06294   2.07244
 Alpha virt. eigenvalues --    2.07911   2.08604   2.09128   2.09974   2.10476
 Alpha virt. eigenvalues --    2.10959   2.11474   2.12272   2.12807   2.12936
 Alpha virt. eigenvalues --    2.13575   2.13885   2.14988   2.15195   2.15694
 Alpha virt. eigenvalues --    2.16391   2.16862   2.17233   2.18388   2.19039
 Alpha virt. eigenvalues --    2.19110   2.19743   2.20365   2.20850   2.22448
 Alpha virt. eigenvalues --    2.22655   2.23596   2.25000   2.25591   2.27381
 Alpha virt. eigenvalues --    2.27710   2.28423   2.28685   2.29461   2.29720
 Alpha virt. eigenvalues --    2.30126   2.31253   2.32361   2.32868   2.35280
 Alpha virt. eigenvalues --    2.36914   2.38146   2.38429   2.40210   2.43170
 Alpha virt. eigenvalues --    2.44504   2.45171   2.47550   2.48700   2.49569
 Alpha virt. eigenvalues --    2.49754   2.50425   2.51028   2.51237   2.51843
 Alpha virt. eigenvalues --    2.53356   2.53520   2.55027   2.55309   2.56464
 Alpha virt. eigenvalues --    2.57278   2.57569   2.58956   2.59731   2.60276
 Alpha virt. eigenvalues --    2.61006   2.61220   2.61783   2.62132   2.62568
 Alpha virt. eigenvalues --    2.63113   2.63660   2.64659   2.65081   2.66348
 Alpha virt. eigenvalues --    2.67802   2.69768   2.69915   2.70738   2.71792
 Alpha virt. eigenvalues --    2.74537   2.75285   2.75545   2.76121   2.76371
 Alpha virt. eigenvalues --    2.76941   2.78070   2.79132   2.80037   2.80926
 Alpha virt. eigenvalues --    2.81405   2.81809   2.82409   2.83091   2.83248
 Alpha virt. eigenvalues --    2.83828   2.84232   2.84989   2.85508   2.85686
 Alpha virt. eigenvalues --    2.88277   2.88476   2.90451   2.90931   2.91371
 Alpha virt. eigenvalues --    2.92685   2.93693   2.94291   2.95434   2.95958
 Alpha virt. eigenvalues --    2.96356   2.97665   2.98245   2.99043   2.99819
 Alpha virt. eigenvalues --    3.00332   3.01246   3.01475   3.02160   3.02939
 Alpha virt. eigenvalues --    3.03450   3.04415   3.04681   3.05440   3.06323
 Alpha virt. eigenvalues --    3.07137   3.07530   3.08233   3.08770   3.10516
 Alpha virt. eigenvalues --    3.11634   3.13680   3.14680   3.15927   3.16942
 Alpha virt. eigenvalues --    3.17461   3.18945   3.19861   3.20707   3.23030
 Alpha virt. eigenvalues --    3.23352   3.25445   3.26117   3.26513   3.27100
 Alpha virt. eigenvalues --    3.29226   3.30338   3.31199   3.31794   3.32410
 Alpha virt. eigenvalues --    3.32768   3.34543   3.37407   3.38556   3.39476
 Alpha virt. eigenvalues --    3.40088   3.41532   3.41818   3.46102   3.46199
 Alpha virt. eigenvalues --    3.46710   3.46919   3.47958   3.48250   3.49931
 Alpha virt. eigenvalues --    3.50964   3.52445   3.54062   3.54950   3.55838
 Alpha virt. eigenvalues --    3.57024   3.57902   3.58836   3.61558   3.62333
 Alpha virt. eigenvalues --    3.63853   3.66959   3.70243   3.71697   3.72747
 Alpha virt. eigenvalues --    3.74280   3.77194   3.77776   3.78923   3.81366
 Alpha virt. eigenvalues --    3.82437   3.82511   3.83119   3.83309   3.84483
 Alpha virt. eigenvalues --    3.84837   3.89668   3.92519   3.93532   3.96178
 Alpha virt. eigenvalues --    3.97283   4.02010   4.03502   4.04806   4.05089
 Alpha virt. eigenvalues --    4.06107   4.08884   4.11881   4.13706   4.16233
 Alpha virt. eigenvalues --    4.17207   4.18603   4.22474   4.25151   4.29358
 Alpha virt. eigenvalues --    4.33250   4.37333   4.39063   4.48090   4.52032
 Alpha virt. eigenvalues --    4.52914   4.62871   4.79763   4.97277   4.98690
 Alpha virt. eigenvalues --    4.98959   5.02099   5.09807   5.11661   5.15914
 Alpha virt. eigenvalues --    5.17541   5.17696   5.21191   5.23628   5.25349
 Alpha virt. eigenvalues --    5.37217   5.39128   5.41108   5.42421   5.50666
 Alpha virt. eigenvalues --    5.52085   5.85068   5.87971   5.88857   5.92347
 Alpha virt. eigenvalues --    5.94325   5.96920   8.10615   8.14701  17.37409
 Alpha virt. eigenvalues --   17.42958  17.57903  17.60826  17.67685  17.72591
 Alpha virt. eigenvalues --   23.60561  23.67292  23.81614  23.90301  23.92805
 Alpha virt. eigenvalues --   23.95128  23.96625  23.97502  23.98338  23.99223
 Alpha virt. eigenvalues --   23.99667  24.00129  24.01243  24.04777  24.05293
 Alpha virt. eigenvalues --   24.07660  24.08810  24.10956  24.11262  24.12028
 Alpha virt. eigenvalues --   24.13544  24.18455  24.22230  24.22931  24.26606
 Alpha virt. eigenvalues --   24.27398  35.67925  35.70763  50.04503  50.06263
 Alpha virt. eigenvalues --   50.14618  50.16462  50.18399  50.20024 189.27869
 Alpha virt. eigenvalues --  189.32591
  Beta  occ. eigenvalues --  -88.79982 -88.77874 -19.08606 -19.08011 -18.99558
  Beta  occ. eigenvalues --  -18.99368 -18.98959 -18.98663 -14.26706 -14.26223
  Beta  occ. eigenvalues --  -10.18115 -10.17844 -10.17602 -10.17465 -10.16369
  Beta  occ. eigenvalues --  -10.15750 -10.15396 -10.14744 -10.13113 -10.12382
  Beta  occ. eigenvalues --  -10.11604 -10.11588 -10.10885 -10.10878 -10.10466
  Beta  occ. eigenvalues --  -10.10224 -10.09914 -10.09517 -10.08943 -10.08260
  Beta  occ. eigenvalues --  -10.08083 -10.08046 -10.07994 -10.07969 -10.07592
  Beta  occ. eigenvalues --  -10.07538  -7.88537  -7.86443  -5.84845  -5.84466
  Beta  occ. eigenvalues --   -5.84102  -5.82766  -5.82379  -5.81972  -1.00239
  Beta  occ. eigenvalues --   -0.99522  -0.95864  -0.95439  -0.93842  -0.93329
  Beta  occ. eigenvalues --   -0.83954  -0.83364  -0.81009  -0.79336  -0.78313
  Beta  occ. eigenvalues --   -0.73497  -0.71022  -0.69461  -0.68158  -0.66566
  Beta  occ. eigenvalues --   -0.65446  -0.64932  -0.63702  -0.63401  -0.61739
  Beta  occ. eigenvalues --   -0.61235  -0.59711  -0.57553  -0.54984  -0.53538
  Beta  occ. eigenvalues --   -0.53334  -0.52047  -0.51259  -0.49658  -0.47989
  Beta  occ. eigenvalues --   -0.47213  -0.45645  -0.45437  -0.44922  -0.42701
  Beta  occ. eigenvalues --   -0.41617  -0.40732  -0.40544  -0.39805  -0.39477
  Beta  occ. eigenvalues --   -0.39043  -0.38243  -0.37802  -0.37639  -0.37294
  Beta  occ. eigenvalues --   -0.36782  -0.36670  -0.36462  -0.34778  -0.34160
  Beta  occ. eigenvalues --   -0.34035  -0.33573  -0.33024  -0.32793  -0.32530
  Beta  occ. eigenvalues --   -0.32272  -0.31978  -0.31172  -0.30429  -0.30344
  Beta  occ. eigenvalues --   -0.30121  -0.29864  -0.29407  -0.29219  -0.29014
  Beta  occ. eigenvalues --   -0.28544  -0.28335  -0.27717  -0.27122  -0.26694
  Beta  occ. eigenvalues --   -0.25947  -0.25401  -0.25011  -0.24491  -0.23516
  Beta  occ. eigenvalues --   -0.22099  -0.19714  -0.18570  -0.18417  -0.17457
  Beta  occ. eigenvalues --   -0.17442  -0.16997  -0.16625  -0.16254  -0.15678
  Beta  occ. eigenvalues --   -0.15123  -0.14191  -0.12644  -0.09417
  Beta virt. eigenvalues --    0.00024   0.03416   0.05852   0.06181   0.06871
  Beta virt. eigenvalues --    0.06955   0.07549   0.08235   0.08687   0.09048
  Beta virt. eigenvalues --    0.09095   0.09475   0.09901   0.10183   0.10376
  Beta virt. eigenvalues --    0.10702   0.11127   0.11403   0.11646   0.11920
  Beta virt. eigenvalues --    0.12286   0.12546   0.12646   0.12841   0.12865
  Beta virt. eigenvalues --    0.13286   0.13477   0.13805   0.14000   0.14078
  Beta virt. eigenvalues --    0.14492   0.14647   0.14798   0.15119   0.15424
  Beta virt. eigenvalues --    0.15439   0.15603   0.15862   0.16382   0.16882
  Beta virt. eigenvalues --    0.17160   0.17380   0.17687   0.17855   0.18128
  Beta virt. eigenvalues --    0.18507   0.18671   0.18896   0.19117   0.19392
  Beta virt. eigenvalues --    0.19638   0.19782   0.20166   0.20518   0.20572
  Beta virt. eigenvalues --    0.20812   0.21119   0.21392   0.21717   0.22048
  Beta virt. eigenvalues --    0.22138   0.22488   0.22636   0.23040   0.23089
  Beta virt. eigenvalues --    0.23541   0.23803   0.23964   0.24195   0.24263
  Beta virt. eigenvalues --    0.24450   0.24656   0.24895   0.25158   0.25564
  Beta virt. eigenvalues --    0.25630   0.25826   0.25977   0.26046   0.26163
  Beta virt. eigenvalues --    0.26597   0.26694   0.26950   0.27399   0.27576
  Beta virt. eigenvalues --    0.27696   0.27934   0.28113   0.28325   0.28365
  Beta virt. eigenvalues --    0.28774   0.29030   0.29478   0.29572   0.29798
  Beta virt. eigenvalues --    0.29845   0.30026   0.30222   0.30380   0.30568
  Beta virt. eigenvalues --    0.30894   0.31217   0.31465   0.31629   0.32258
  Beta virt. eigenvalues --    0.32373   0.32452   0.32745   0.32765   0.32907
  Beta virt. eigenvalues --    0.33109   0.33212   0.33531   0.33793   0.34005
  Beta virt. eigenvalues --    0.34076   0.34342   0.34645   0.34765   0.34914
  Beta virt. eigenvalues --    0.35331   0.35522   0.35683   0.35702   0.36097
  Beta virt. eigenvalues --    0.36253   0.36414   0.36570   0.36856   0.37038
  Beta virt. eigenvalues --    0.37273   0.37443   0.37582   0.37744   0.37964
  Beta virt. eigenvalues --    0.38262   0.38502   0.38697   0.38930   0.39004
  Beta virt. eigenvalues --    0.39249   0.39491   0.39820   0.39996   0.40180
  Beta virt. eigenvalues --    0.40439   0.40975   0.41147   0.41424   0.41837
  Beta virt. eigenvalues --    0.42005   0.42351   0.42478   0.42634   0.42838
  Beta virt. eigenvalues --    0.43112   0.43330   0.43391   0.43704   0.44131
  Beta virt. eigenvalues --    0.44482   0.44813   0.44982   0.45034   0.45500
  Beta virt. eigenvalues --    0.46118   0.46270   0.46860   0.47238   0.47508
  Beta virt. eigenvalues --    0.48048   0.48295   0.48813   0.49130   0.49486
  Beta virt. eigenvalues --    0.49676   0.50257   0.50500   0.50720   0.50934
  Beta virt. eigenvalues --    0.51359   0.52018   0.52180   0.52565   0.52801
  Beta virt. eigenvalues --    0.53361   0.53900   0.54064   0.54439   0.54661
  Beta virt. eigenvalues --    0.55189   0.55418   0.55654   0.55923   0.56265
  Beta virt. eigenvalues --    0.56643   0.57193   0.57488   0.58461   0.58979
  Beta virt. eigenvalues --    0.59786   0.59837   0.60282   0.61106   0.61123
  Beta virt. eigenvalues --    0.61949   0.62642   0.63202   0.63611   0.63646
  Beta virt. eigenvalues --    0.64396   0.64883   0.65105   0.65320   0.65587
  Beta virt. eigenvalues --    0.66157   0.66519   0.66739   0.66849   0.67187
  Beta virt. eigenvalues --    0.68180   0.68525   0.68785   0.69269   0.69447
  Beta virt. eigenvalues --    0.69714   0.69967   0.70783   0.71265   0.71511
  Beta virt. eigenvalues --    0.71777   0.71917   0.72595   0.72972   0.73228
  Beta virt. eigenvalues --    0.74076   0.74158   0.74354   0.74865   0.75098
  Beta virt. eigenvalues --    0.75512   0.75704   0.75876   0.76413   0.77029
  Beta virt. eigenvalues --    0.77205   0.77356   0.78121   0.78372   0.78763
  Beta virt. eigenvalues --    0.79330   0.79470   0.80095   0.80515   0.80842
  Beta virt. eigenvalues --    0.80922   0.81486   0.81686   0.82270   0.82778
  Beta virt. eigenvalues --    0.83111   0.83275   0.83620   0.84368   0.84531
  Beta virt. eigenvalues --    0.84704   0.85264   0.85329   0.85646   0.85918
  Beta virt. eigenvalues --    0.86306   0.86878   0.87001   0.87519   0.87732
  Beta virt. eigenvalues --    0.87968   0.88818   0.89137   0.89693   0.90068
  Beta virt. eigenvalues --    0.90499   0.90508   0.91356   0.91743   0.92003
  Beta virt. eigenvalues --    0.92608   0.93317   0.93610   0.94783   0.96066
  Beta virt. eigenvalues --    0.97025   0.97425   0.97975   0.98347   0.98719
  Beta virt. eigenvalues --    0.99494   1.00024   1.00282   1.00574   1.01053
  Beta virt. eigenvalues --    1.02030   1.02705   1.03296   1.03776   1.04339
  Beta virt. eigenvalues --    1.04976   1.05647   1.05851   1.06163   1.06755
  Beta virt. eigenvalues --    1.06851   1.07513   1.07747   1.08269   1.08545
  Beta virt. eigenvalues --    1.08806   1.08980   1.09193   1.09432   1.10635
  Beta virt. eigenvalues --    1.11090   1.11272   1.12177   1.12320   1.12875
  Beta virt. eigenvalues --    1.13670   1.13828   1.14281   1.14562   1.14803
  Beta virt. eigenvalues --    1.15332   1.15723   1.15930   1.16355   1.16734
  Beta virt. eigenvalues --    1.16914   1.18038   1.18257   1.18422   1.18902
  Beta virt. eigenvalues --    1.19612   1.19790   1.20311   1.21260   1.21765
  Beta virt. eigenvalues --    1.22303   1.23501   1.24418   1.24674   1.25352
  Beta virt. eigenvalues --    1.26499   1.26862   1.27506   1.28382   1.28660
  Beta virt. eigenvalues --    1.29669   1.30263   1.30765   1.32163   1.32825
  Beta virt. eigenvalues --    1.33040   1.33647   1.33799   1.34364   1.35238
  Beta virt. eigenvalues --    1.35960   1.36805   1.37542   1.38707   1.39246
  Beta virt. eigenvalues --    1.39660   1.40208   1.40529   1.41295   1.41766
  Beta virt. eigenvalues --    1.42719   1.43174   1.43367   1.44606   1.45816
  Beta virt. eigenvalues --    1.46406   1.47540   1.47948   1.48338   1.49453
  Beta virt. eigenvalues --    1.49533   1.50179   1.51516   1.52136   1.52407
  Beta virt. eigenvalues --    1.53424   1.53486   1.53755   1.54300   1.54703
  Beta virt. eigenvalues --    1.55295   1.55727   1.56157   1.56348   1.57490
  Beta virt. eigenvalues --    1.57791   1.58420   1.59516   1.60087   1.60384
  Beta virt. eigenvalues --    1.61181   1.61623   1.62484   1.62961   1.63248
  Beta virt. eigenvalues --    1.63744   1.64004   1.64318   1.64866   1.65217
  Beta virt. eigenvalues --    1.65765   1.66014   1.66098   1.66916   1.67870
  Beta virt. eigenvalues --    1.69235   1.69622   1.70063   1.70823   1.71443
  Beta virt. eigenvalues --    1.71780   1.72162   1.72639   1.73300   1.74323
  Beta virt. eigenvalues --    1.75486   1.75738   1.76281   1.76490   1.76955
  Beta virt. eigenvalues --    1.78242   1.78637   1.78966   1.80143   1.80867
  Beta virt. eigenvalues --    1.81232   1.82134   1.82251   1.82787   1.83474
  Beta virt. eigenvalues --    1.83494   1.83990   1.84825   1.85342   1.85758
  Beta virt. eigenvalues --    1.86469   1.87142   1.87761   1.88062   1.88365
  Beta virt. eigenvalues --    1.88885   1.89466   1.91172   1.91972   1.92372
  Beta virt. eigenvalues --    1.93396   1.94419   1.95195   1.96065   1.96630
  Beta virt. eigenvalues --    1.97814   1.98474   1.99137   1.99395   1.99909
  Beta virt. eigenvalues --    2.00964   2.01118   2.02172   2.02879   2.03080
  Beta virt. eigenvalues --    2.03611   2.04070   2.04750   2.04880   2.06458
  Beta virt. eigenvalues --    2.07431   2.07996   2.08779   2.09258   2.10171
  Beta virt. eigenvalues --    2.10670   2.11213   2.11605   2.12366   2.12897
  Beta virt. eigenvalues --    2.12995   2.13644   2.13947   2.15047   2.15254
  Beta virt. eigenvalues --    2.15766   2.16477   2.16930   2.17312   2.18527
  Beta virt. eigenvalues --    2.19115   2.19224   2.19768   2.20402   2.20971
  Beta virt. eigenvalues --    2.22519   2.22745   2.23653   2.25074   2.25670
  Beta virt. eigenvalues --    2.27425   2.27767   2.28611   2.28772   2.29612
  Beta virt. eigenvalues --    2.29787   2.30198   2.31384   2.32431   2.33018
  Beta virt. eigenvalues --    2.35346   2.37005   2.38352   2.38673   2.40366
  Beta virt. eigenvalues --    2.43298   2.44605   2.45385   2.47640   2.48789
  Beta virt. eigenvalues --    2.49681   2.49798   2.50448   2.51051   2.51351
  Beta virt. eigenvalues --    2.52008   2.53444   2.53527   2.55080   2.55374
  Beta virt. eigenvalues --    2.56479   2.57291   2.57616   2.59083   2.59740
  Beta virt. eigenvalues --    2.60332   2.61052   2.61241   2.61803   2.62142
  Beta virt. eigenvalues --    2.62590   2.63226   2.63685   2.64700   2.65135
  Beta virt. eigenvalues --    2.66372   2.67836   2.69821   2.69945   2.70796
  Beta virt. eigenvalues --    2.71807   2.74606   2.75294   2.75742   2.76167
  Beta virt. eigenvalues --    2.76423   2.77077   2.78115   2.79202   2.80109
  Beta virt. eigenvalues --    2.80992   2.81655   2.82002   2.82494   2.83178
  Beta virt. eigenvalues --    2.83412   2.84111   2.84337   2.85062   2.85544
  Beta virt. eigenvalues --    2.85777   2.88399   2.88798   2.90507   2.91218
  Beta virt. eigenvalues --    2.91418   2.92850   2.93766   2.94545   2.95608
  Beta virt. eigenvalues --    2.96067   2.96467   2.97939   2.98421   2.99352
  Beta virt. eigenvalues --    3.00203   3.00557   3.01517   3.01868   3.02457
  Beta virt. eigenvalues --    3.03272   3.03731   3.04746   3.04934   3.05632
  Beta virt. eigenvalues --    3.06697   3.07515   3.07846   3.08366   3.08968
  Beta virt. eigenvalues --    3.10928   3.11682   3.13713   3.15117   3.16010
  Beta virt. eigenvalues --    3.17101   3.17586   3.19328   3.20090   3.20844
  Beta virt. eigenvalues --    3.23076   3.23458   3.25601   3.26257   3.26649
  Beta virt. eigenvalues --    3.27259   3.29254   3.30443   3.31235   3.31841
  Beta virt. eigenvalues --    3.32414   3.32797   3.34582   3.37490   3.38613
  Beta virt. eigenvalues --    3.39538   3.40126   3.41619   3.41888   3.46237
  Beta virt. eigenvalues --    3.46561   3.47180   3.47369   3.48238   3.48516
  Beta virt. eigenvalues --    3.49985   3.51043   3.52536   3.54082   3.55030
  Beta virt. eigenvalues --    3.55932   3.57107   3.57979   3.58901   3.61659
  Beta virt. eigenvalues --    3.62403   3.63925   3.67012   3.70344   3.71779
  Beta virt. eigenvalues --    3.72821   3.74375   3.77244   3.77829   3.78997
  Beta virt. eigenvalues --    3.81424   3.82416   3.82584   3.83102   3.83312
  Beta virt. eigenvalues --    3.84487   3.84863   3.89673   3.92530   3.93608
  Beta virt. eigenvalues --    3.96213   3.97321   4.02173   4.03624   4.04703
  Beta virt. eigenvalues --    4.05247   4.05989   4.09039   4.11917   4.13839
  Beta virt. eigenvalues --    4.16309   4.17277   4.18616   4.22480   4.25332
  Beta virt. eigenvalues --    4.29409   4.33316   4.37523   4.39250   4.48288
  Beta virt. eigenvalues --    4.52193   4.53133   4.62981   4.79864   4.97415
  Beta virt. eigenvalues --    4.98829   4.99061   5.02104   5.09863   5.11628
  Beta virt. eigenvalues --    5.16623   5.18282   5.18420   5.22028   5.23739
  Beta virt. eigenvalues --    5.25468   5.37358   5.39278   5.41258   5.42584
  Beta virt. eigenvalues --    5.50673   5.52084   5.85077   5.88122   5.88867
  Beta virt. eigenvalues --    5.92509   5.94469   5.97080   8.10621   8.14724
  Beta virt. eigenvalues --   17.37421  17.43002  17.57906  17.60829  17.67697
  Beta virt. eigenvalues --   17.72596  23.60610  23.67346  23.81630  23.90340
  Beta virt. eigenvalues --   23.92901  23.95193  23.96692  23.97505  23.98351
  Beta virt. eigenvalues --   23.99252  23.99747  24.00188  24.01345  24.04800
  Beta virt. eigenvalues --   24.05331  24.07731  24.08883  24.10967  24.11336
  Beta virt. eigenvalues --   24.12073  24.13540  24.18573  24.22245  24.22958
  Beta virt. eigenvalues --   24.26700  24.27499  35.67876  35.70711  50.04514
  Beta virt. eigenvalues --   50.06256  50.14793  50.16646  50.18581  50.20213
  Beta virt. eigenvalues --  189.27872 189.32603
          Condensed to atoms (all electrons):
          Atomic-Atomic Spin Densities.
 Mulliken charges and spin densities:
               1          2
     1  C    0.242624   0.020587
     2  C   -0.136520   0.121827
     3  C    0.147891  -0.035451
     4  C    0.163057   0.093686
     5  C    0.193047   0.022794
     6  C   -0.395095   0.023785
     7  C    0.215056  -0.032791
     8  C    0.313514   0.129475
     9  C    0.475179   0.099921
    10  C   -0.432451   0.024831
    11  C    0.163690   0.023980
    12  C    0.127216   0.097104
    13  C   -0.477569   0.055565
    14  C   -0.582194   0.066888
    15  H    0.128227  -0.004523
    16  H    0.131202  -0.004003
    17  H    0.159210  -0.001636
    18  N   -0.128850  -0.020808
    19  N   -0.136395  -0.019250
    20  O   -0.348188   0.068398
    21  O   -0.336213   0.061356
    22  O   -0.341936   0.064864
    23  O   -0.280871   0.075844
    24  C   -0.192916   0.001337
    25  H    0.157652  -0.000961
    26  H    0.150209  -0.000884
    27  H    0.168570  -0.000339
    28  C   -0.191382   0.001095
    29  H    0.155025  -0.000816
    30  H    0.154151  -0.000844
    31  H    0.168592  -0.000305
    32  C    0.036059  -0.046083
    33  C   -0.475010   0.044855
    34  S   -0.617011   0.022433
    35  C   -0.180559  -0.019533
    36  H    0.130220  -0.003171
    37  C    0.724515   0.046272
    38  O   -0.131831  -0.001394
    39  C    0.802764  -0.017423
    40  C   -0.244568   0.000277
    41  C   -0.053183   0.023736
    42  S   -0.293717   0.002624
    43  H    0.146043   0.000002
    44  H    0.137587  -0.000260
    45  H    0.163682  -0.000181
    46  C   -0.610878  -0.010445
    47  O   -0.114177   0.002324
    48  C   -0.295093   0.025736
    49  H    0.115201   0.000496
    50  C   -0.242555  -0.000092
    51  H    0.139183  -0.001594
    52  H    0.130490   0.000332
    53  H    0.166142  -0.000009
    54  H    0.133161   0.000370
 Sum of Mulliken charges =  -1.00000   1.00000
 Mulliken charges and spin densities with hydrogens summed into heavy atoms:
               1          2
     1  C    0.242624   0.020587
     2  C   -0.136520   0.121827
     3  C    0.147891  -0.035451
     4  C    0.163057   0.093686
[...]
     9   Atom        0.004448      0.018854      0.026188
    10   Atom       -0.008949     -0.009244      0.022511
    11   Atom        0.003431     -0.004840      0.010211
    12   Atom       -0.003106     -0.004965      0.028576
    13   Atom       -0.003355     -0.000976      0.016904
    14   Atom        0.000550     -0.000847      0.016148
    15   Atom       -0.004266      0.000667     -0.000053
    16   Atom        0.004588     -0.000764     -0.000904
    17   Atom        0.002749      0.000202     -0.000752
    18   Atom        0.000902      0.006278     -0.015305
    19   Atom       -0.000341      0.000358     -0.010139
    20   Atom       -0.000852      0.002658      0.063248
    21   Atom       -0.000709     -0.003468      0.057336
    22   Atom       -0.005587     -0.026785      0.067699
    23   Atom       -0.017241     -0.047990      0.150927
    24   Atom        0.000196      0.000109     -0.000412
    25   Atom        0.000195     -0.000083     -0.001247
    26   Atom        0.000200      0.000164      0.000160
    27   Atom       -0.001139      0.000311     -0.000584
    28   Atom       -0.000118      0.000033     -0.000350
    29   Atom       -0.000634      0.000516     -0.000850
    30   Atom       -0.000803     -0.000319      0.000242
    31   Atom        0.000117     -0.000009     -0.000472
    32   Atom       -0.001365     -0.001479      0.016871
    33   Atom       -0.007044      0.007086     -0.026769
    34   Atom        0.012007     -0.005196     -0.049452
    35   Atom        0.001202     -0.001231      0.012009
    36   Atom        0.000760     -0.000594      0.000039
    37   Atom        0.001442     -0.004205     -0.025184
    38   Atom       -0.000486     -0.001778      0.007132
    39   Atom        0.001129     -0.000018      0.007794
    40   Atom       -0.000448     -0.000673     -0.000157
    41   Atom       -0.000429      0.001033     -0.013720
    42   Atom       -0.004902      0.002623     -0.010861
    43   Atom       -0.000276     -0.000292      0.000126
    44   Atom       -0.000452     -0.000636      0.000340
    45   Atom       -0.000780     -0.000614      0.000283
    46   Atom        0.000124     -0.000609      0.004197
    47   Atom       -0.000620      0.002919     -0.009656
    48   Atom       -0.000960      0.001838     -0.013067
    49   Atom       -0.000061     -0.000084      0.000131
    50   Atom        0.000328      0.000201      0.000357
    51   Atom       -0.000370     -0.000327     -0.000523
    52   Atom        0.000240      0.000203      0.000230
    53   Atom        0.000226      0.000161      0.000247
    54   Atom        0.000291      0.000067      0.000091
 --------------------------------------------------------


 ---------------------------------------------------------------------------------
              Anisotropic Spin Dipole Couplings in Principal Axis System
 ---------------------------------------------------------------------------------

       Atom             a.u.   MegaHertz   Gauss  10(-4) cm-1        Axes

              Baa    -0.0273    -3.659    -1.306    -1.221  0.9179 -0.3916  0.0633
     1 C(13)  Bbb    -0.0160    -2.153    -0.768    -0.718  0.3967  0.9066 -0.1437
              Bcc     0.0433     5.813     2.074     1.939 -0.0011  0.1570  0.9876
 
              Baa    -0.0790   -10.599    -3.782    -3.536  0.7948  0.6004 -0.0886
     2 C(13)  Bbb    -0.0740    -9.934    -3.545    -3.314 -0.6069  0.7870 -0.1106
              Bcc     0.1530    20.533     7.327     6.849  0.0033  0.1417  0.9899
 
              Baa    -0.0405    -5.430    -1.938    -1.811 -0.0031  0.1362  0.9907
     3 C(13)  Bbb     0.0182     2.446     0.873     0.816 -0.3068  0.9428 -0.1305
              Bcc     0.0222     2.984     1.065     0.995  0.9518  0.3044 -0.0389
 
              Baa    -0.0659    -8.838    -3.153    -2.948  0.9556 -0.2901  0.0510
     4 C(13)  Bbb    -0.0611    -8.197    -2.925    -2.734  0.2944  0.9458 -0.1370
              Bcc     0.1269    17.035     6.078     5.682 -0.0085  0.1459  0.9893
 
              Baa    -0.0270    -3.618    -1.291    -1.207  0.5617  0.8204 -0.1064
     5 C(13)  Bbb    -0.0170    -2.278    -0.813    -0.760  0.8272 -0.5555  0.0842
              Bcc     0.0439     5.896     2.104     1.967 -0.0100  0.1353  0.9908
 
              Baa    -0.0247    -3.313    -1.182    -1.105  0.7309  0.6820 -0.0264
     6 C(13)  Bbb    -0.0159    -2.136    -0.762    -0.713 -0.6823  0.7311 -0.0043
              Bcc     0.0406     5.449     1.944     1.818  0.0164  0.0212  0.9996
 
              Baa    -0.0372    -4.998    -1.783    -1.667  0.0106  0.1622  0.9867
     7 C(13)  Bbb     0.0161     2.158     0.770     0.720 -0.1123  0.9807 -0.1600
              Bcc     0.0212     2.840     1.014     0.947  0.9936  0.1091 -0.0286
 
              Baa    -0.0786   -10.549    -3.764    -3.519  0.9753 -0.2201  0.0206
     8 C(13)  Bbb    -0.0737    -9.887    -3.528    -3.298  0.2183  0.9439 -0.2479
              Bcc     0.1523    20.436     7.292     6.817  0.0351  0.2463  0.9686
 
              Baa    -0.0557    -7.477    -2.668    -2.494  0.9709 -0.2257 -0.0801
     9 C(13)  Bbb    -0.0502    -6.740    -2.405    -2.248  0.2068  0.9589 -0.1944
              Bcc     0.1059    14.217     5.073     4.742  0.1207  0.1722  0.9776
 
              Baa    -0.0308    -4.140    -1.477    -1.381  0.6294  0.7610 -0.1571
    10 C(13)  Bbb    -0.0197    -2.638    -0.941    -0.880  0.7608 -0.5624  0.3239
              Bcc     0.0505     6.778     2.418     2.261 -0.1581  0.3234  0.9329
 
              Baa    -0.0269    -3.608    -1.287    -1.203  0.8923 -0.4329  0.1281
    11 C(13)  Bbb    -0.0164    -2.205    -0.787    -0.736  0.4472  0.8865 -0.1193
              Bcc     0.0433     5.813     2.074     1.939 -0.0620  0.1637  0.9846
 
              Baa    -0.0670    -8.997    -3.210    -3.001  0.6695  0.7370 -0.0924
    12 C(13)  Bbb    -0.0624    -8.368    -2.986    -2.791  0.7423 -0.6592  0.1202
              Bcc     0.1294    17.365     6.196     5.792 -0.0277  0.1491  0.9884
 
              Baa    -0.0389    -5.220    -1.863    -1.741  0.7905  0.6060 -0.0882
    13 C(13)  Bbb    -0.0324    -4.346    -1.551    -1.450 -0.6122  0.7788 -0.1364
              Bcc     0.0713     9.566     3.413     3.191 -0.0140  0.1618  0.9867
 
              Baa    -0.0408    -5.481    -1.956    -1.828  0.9937 -0.1097  0.0229
    14 C(13)  Bbb    -0.0348    -4.673    -1.668    -1.559  0.1119  0.9829 -0.1460
              Bcc     0.0757    10.154     3.623     3.387 -0.0065  0.1476  0.9890
 
              Baa    -0.0043    -2.281    -0.814    -0.761  0.4381  0.8894 -0.1309
    15 H(1)   Bbb    -0.0024    -1.289    -0.460    -0.430 -0.0043  0.1477  0.9890
              Bcc     0.0067     3.570     1.274     1.191  0.8989 -0.4327  0.0685
 
              Baa    -0.0039    -2.075    -0.741    -0.692  0.8445 -0.5235  0.1133
    16 H(1)   Bbb    -0.0025    -1.340    -0.478    -0.447 -0.0252  0.1726  0.9847
              Bcc     0.0064     3.415     1.219     1.139  0.5350  0.8344 -0.1326
 
              Baa    -0.0032    -1.706    -0.609    -0.569 -0.3082  0.2311  0.9228
    17 H(1)   Bbb    -0.0017    -0.916    -0.327    -0.306  0.8396 -0.3900  0.3781
              Bcc     0.0049     2.622     0.936     0.875  0.4472  0.8914 -0.0738
 
              Baa    -0.0509    -1.964    -0.701    -0.655 -0.0836  0.2038  0.9754
    18 N(14)  Bbb     0.0249     0.960     0.343     0.320  0.9219  0.3874 -0.0020
              Bcc     0.0260     1.004     0.358     0.335 -0.3783  0.8991 -0.2203
 
              Baa    -0.0483    -1.861    -0.664    -0.621 -0.0043  0.1402  0.9901
    19 N(14)  Bbb     0.0234     0.902     0.322     0.301  0.9612  0.2736 -0.0346
              Bcc     0.0249     0.959     0.342     0.320 -0.2757  0.9516 -0.1360
 
              Baa    -0.1565    11.322     4.040     3.777  0.8711  0.4858 -0.0722
    20 O(17)  Bbb    -0.1536    11.117     3.967     3.708 -0.4911  0.8632 -0.1171
              Bcc     0.3101   -22.439    -8.007    -7.485  0.0054  0.1375  0.9905
 
              Baa    -0.1410    10.203     3.641     3.403  0.9975  0.0712 -0.0015
    21 O(17)  Bbb    -0.1379     9.977     3.560     3.328 -0.0707  0.9877 -0.1392
              Bcc     0.2789   -20.181    -7.201    -6.732 -0.0084  0.1389  0.9903
 
              Baa    -0.1433    10.371     3.701     3.460  0.9041  0.4272 -0.0114
    22 O(17)  Bbb    -0.1403    10.152     3.622     3.386 -0.4225  0.8895 -0.1740
              Bcc     0.2836   -20.523    -7.323    -6.846 -0.0642  0.1621  0.9847
 
              Baa    -0.1634    11.827     4.220     3.945  0.9802  0.1935  0.0415
    23 O(17)  Bbb    -0.1616    11.694     4.173     3.901 -0.1677  0.9237 -0.3445
              Bcc     0.3251   -23.521    -8.393    -7.846 -0.1050  0.3307  0.9379
 
              Baa    -0.0018    -0.241    -0.086    -0.080 -0.0533  0.1524  0.9869
    24 C(13)  Bbb     0.0007     0.093     0.033     0.031  0.8678 -0.4819  0.1213
              Bcc     0.0011     0.148     0.053     0.049  0.4941  0.8629 -0.1065
 
              Baa    -0.0015    -0.801    -0.286    -0.267 -0.0082  0.4388  0.8986
    25 H(1)   Bbb    -0.0002    -0.100    -0.036    -0.033  0.9935 -0.0987  0.0572
              Bcc     0.0017     0.900     0.321     0.300  0.1138  0.8932 -0.4351
 
              Baa    -0.0015    -0.794    -0.283    -0.265 -0.1308 -0.0408  0.9906
    26 H(1)   Bbb    -0.0003    -0.164    -0.059    -0.055  0.9865 -0.1050  0.1260
              Bcc     0.0018     0.958     0.342     0.319  0.0988  0.9936  0.0540
 
              Baa    -0.0016    -0.857    -0.306    -0.286 -0.0551  0.1790  0.9823
    27 H(1)   Bbb    -0.0005    -0.268    -0.096    -0.089  0.8446  0.5331 -0.0498
              Bcc     0.0021     1.125     0.401     0.375 -0.5326  0.8269 -0.1805
 
              Baa    -0.0017    -0.225    -0.080    -0.075 -0.0063  0.1400  0.9901
    28 C(13)  Bbb     0.0007     0.096     0.034     0.032  0.7143  0.6935 -0.0935
              Bcc     0.0010     0.129     0.046     0.043 -0.6998  0.7067 -0.1043
 
              Baa    -0.0014    -0.738    -0.263    -0.246 -0.1711  0.3198  0.9319
    29 H(1)   Bbb    -0.0002    -0.098    -0.035    -0.033  0.8411  0.5400 -0.0309
              Bcc     0.0016     0.837     0.298     0.279 -0.5131  0.7785 -0.3614
 
              Baa    -0.0014    -0.743    -0.265    -0.248  0.1722 -0.0402  0.9842
    30 H(1)   Bbb    -0.0002    -0.120    -0.043    -0.040  0.8354  0.5354 -0.1243
              Bcc     0.0016     0.863     0.308     0.288 -0.5220  0.8436  0.1258
 
              Baa    -0.0015    -0.826    -0.295    -0.276 -0.0061  0.1303  0.9915
    31 H(1)   Bbb    -0.0006    -0.304    -0.108    -0.101  0.9990 -0.0425  0.0118
              Bcc     0.0021     1.130     0.403     0.377  0.0437  0.9906 -0.1299
 
              Baa    -0.0281    -3.764    -1.343    -1.256  0.0141 -0.4859  0.8739
    32 C(13)  Bbb     0.0110     1.472     0.525     0.491  0.3320  0.8267  0.4543
              Bcc     0.0171     2.292     0.818     0.764  0.9432 -0.2837 -0.1730
 
              Baa    -0.0198    -2.660    -0.949    -0.887  0.2307  0.7657  0.6003
    33 C(13)  Bbb    -0.0166    -2.233    -0.797    -0.745  0.9542 -0.0572 -0.2937
              Bcc     0.0365     4.893     1.746     1.632  0.1905 -0.6406  0.7439
 
              Baa    -0.0390    -1.599    -0.571    -0.533  0.6867 -0.5901 -0.4245
    34 S(33)  Bbb    -0.0281    -1.153    -0.411    -0.385  0.7170  0.4538  0.5291
              Bcc     0.0671     2.752     0.982     0.918 -0.1195 -0.6677  0.7348
 
              Baa    -0.0181    -2.426    -0.866    -0.809  0.0609 -0.5407  0.8390
    35 C(13)  Bbb     0.0083     1.117     0.399     0.373 -0.2479  0.8060  0.5375
              Bcc     0.0098     1.309     0.467     0.437  0.9669  0.2407  0.0850
 
              Baa    -0.0012    -0.640    -0.228    -0.213  0.8176 -0.3429  0.4626
    36 H(1)   Bbb     0.0001     0.064     0.023     0.022 -0.3239  0.3905  0.8618
              Bcc     0.0011     0.576     0.205     0.192  0.4761  0.8544 -0.2082
 
              Baa    -0.0223    -2.992    -1.068    -0.998  0.2770  0.8576  0.4334
    37 C(13)  Bbb    -0.0203    -2.730    -0.974    -0.911  0.9583 -0.2795 -0.0595
              Bcc     0.0426     5.723     2.042     1.909 -0.0701 -0.4318  0.8993
 
              Baa    -0.0126     0.909     0.324     0.303  0.0713 -0.4342  0.8980
    38 O(17)  Bbb     0.0049    -0.354    -0.126    -0.118  0.5027  0.7932  0.3436
              Bcc     0.0077    -0.555    -0.198    -0.185  0.8615 -0.4270 -0.2748
 
              Baa    -0.0124    -1.658    -0.591    -0.553  0.0311 -0.5237  0.8514
    39 C(13)  Bbb     0.0048     0.642     0.229     0.214 -0.3679  0.7860  0.4969
              Bcc     0.0076     1.016     0.362     0.339  0.9294  0.3286  0.1682
 
              Baa    -0.0009    -0.116    -0.041    -0.039  0.5490  0.5257  0.6498
    40 C(13)  Bbb    -0.0000    -0.005    -0.002    -0.002 -0.0799  0.8068 -0.5853
              Bcc     0.0009     0.121     0.043     0.040  0.8320 -0.2694 -0.4850
 
              Baa    -0.0105    -1.403    -0.501    -0.468 -0.1639  0.8241  0.5422
    41 C(13)  Bbb    -0.0092    -1.235    -0.441    -0.412  0.9857  0.1580  0.0577
              Bcc     0.0197     2.638     0.941     0.880  0.0381 -0.5439  0.8383
 
              Baa    -0.0102    -0.417    -0.149    -0.139  0.5490  0.7336  0.4005
    42 S(33)  Bbb    -0.0052    -0.212    -0.076    -0.071  0.8018 -0.3269 -0.5003
              Bcc     0.0154     0.630     0.225     0.210  0.2361 -0.5958  0.7677
 
              Baa    -0.0003    -0.168    -0.060    -0.056  0.3890 -0.0534  0.9197
    43 H(1)   Bbb    -0.0003    -0.148    -0.053    -0.049  0.3676  0.9244 -0.1018
              Bcc     0.0006     0.316     0.113     0.105  0.8447 -0.3777 -0.3792
 
              Baa    -0.0005    -0.292    -0.104    -0.098  0.7139  0.3626  0.5990
    44 H(1)   Bbb    -0.0005    -0.248    -0.089    -0.083  0.0391  0.8335 -0.5511
              Bcc     0.0010     0.541     0.193     0.180  0.6991 -0.4168 -0.5809
 
              Baa    -0.0008    -0.403    -0.144    -0.135  0.5621  0.3687  0.7404
    45 H(1)   Bbb    -0.0006    -0.304    -0.109    -0.101  0.2335  0.7880 -0.5697
              Bcc     0.0013     0.708     0.252     0.236  0.7934 -0.4931 -0.3569
 
              Baa    -0.0065    -0.870    -0.311    -0.290  0.0580 -0.5272  0.8478
    46 C(13)  Bbb     0.0028     0.380     0.136     0.127  0.2750  0.8248  0.4941
              Bcc     0.0037     0.490     0.175     0.163  0.9597 -0.2045 -0.1928
 
              Baa    -0.0088     0.635     0.226     0.212  0.7314 -0.5592 -0.3905
    47 O(17)  Bbb    -0.0072     0.518     0.185     0.173  0.6712  0.6916  0.2667
              Bcc     0.0159    -1.153    -0.411    -0.385  0.1209 -0.4572  0.8811
 
              Baa    -0.0103    -1.386    -0.495    -0.462 -0.1156  0.8530  0.5090
    48 C(13)  Bbb    -0.0095    -1.269    -0.453    -0.423  0.9908  0.1356 -0.0023
              Bcc     0.0198     2.655     0.947     0.886  0.0710 -0.5040  0.8608
 
              Baa    -0.0004    -0.207    -0.074    -0.069  0.0482 -0.5047  0.8620
    49 H(1)   Bbb    -0.0001    -0.057    -0.020    -0.019  0.1608  0.8556  0.4920
              Bcc     0.0005     0.264     0.094     0.088  0.9858 -0.1149 -0.1224
 
              Baa    -0.0005    -0.065    -0.023    -0.022 -0.0263 -0.4863  0.8734
    50 C(13)  Bbb    -0.0002    -0.021    -0.007    -0.007  0.7913 -0.5440 -0.2790
              Bcc     0.0006     0.086     0.031     0.029  0.6108  0.6838  0.3991
 
              Baa    -0.0014    -0.760    -0.271    -0.254  0.1662  0.8602  0.4820
    51 H(1)   Bbb    -0.0001    -0.055    -0.020    -0.018  0.0643 -0.4973  0.8652
              Bcc     0.0015     0.815     0.291     0.272  0.9840 -0.1128 -0.1379
 
              Baa    -0.0003    -0.159    -0.057    -0.053 -0.0154 -0.6291  0.7772
    52 H(1)   Bbb    -0.0002    -0.089    -0.032    -0.030  0.7307 -0.5376 -0.4207
              Bcc     0.0005     0.248     0.088     0.083  0.6825  0.5614  0.4679
 
              Baa    -0.0004    -0.199    -0.071    -0.066 -0.1077 -0.4073  0.9069
    53 H(1)   Bbb    -0.0001    -0.049    -0.018    -0.016  0.7688 -0.6125 -0.1838
              Bcc     0.0005     0.248     0.089     0.083  0.6304  0.6774  0.3791
 
              Baa    -0.0003    -0.181    -0.065    -0.061 -0.0519 -0.1416  0.9886
    54 H(1)   Bbb    -0.0001    -0.069    -0.025    -0.023  0.7461 -0.6635 -0.0559
              Bcc     0.0005     0.251     0.089     0.084  0.6639  0.7346  0.1401
 

 ---------------------------------------------------------------------------------

 Unable to Open any file for archive entry.
 1\1\GINC-CX3-2-11\FOpt\UB3LYP\6-311+G(d,p)\C26H18N2O6S2(1-,2)\NS5018\0
 5-Oct-2021\0\\# opt=modredundant b3lyp/6-311+g(d,p)\\NDI_-40.pdb\\-1,2
 \C,-2.6532160159,-3.009987274,-0.40628864\C,-2.3137784689,-1.603714321
 3,-0.2098578282\C,-3.3329871335,-0.629105355,-0.0983038812\C,-4.696128
 7077,-0.9948685722,-0.1754953867\C,-5.0784242121,-2.3927040822,-0.3720
 200656\C,-0.9729148859,-1.2153592389,-0.1803966856\C,-2.9598108747,0.7
 426260248,0.1023337335\C,-1.5828476698,1.1149289697,0.1820781091\C,-0.
 5713562471,0.1113620266,-0.0119394869\C,-1.2683462634,2.4923506248,0.5
 653927384\C,-3.7006883914,3.1029614895,0.466452315\C,-4.0022475017,1.6
 970977162,0.2288619221\C,-5.3522343561,1.306022703,0.1384876636\C,-5.6
 983169188,-0.0142585926,-0.0604833743\H,-6.7332395463,-0.3248452788,-0
 .1261539617\H,-6.1060398862,2.0769866932,0.2362923365\H,-0.2316187324,
 -1.9859589651,-0.3478762795\N,-2.3434592776,3.4077721485,0.6288554724\
 N,-4.0229142102,-3.3203336872,-0.4700467721\O,-1.8235732544,-3.9141207
 848,-0.5148269241\O,-6.2487631102,-2.7700460346,-0.4495213924\O,-4.560
 9055537,3.9840427538,0.5439596264\O,-0.1464320456,2.917419019,0.846608
 1467\C,-1.9836069152,4.7863167746,0.9641010403\H,-1.536731493,4.828308
 4238,1.9594212881\H,-1.2467262408,5.1619437674,0.2524836207\H,-2.89220
 37072,5.3802742552,0.9286781908\C,-4.353995868,-4.7326260777,-0.662757
 6173\H,-3.9350672647,-5.0901685201,-1.605479356\H,-3.9215181241,-5.328
 6179559,0.1427053924\H,-5.4364653166,-4.8207696436,-0.6686659179\C,0.8
 684828043,0.3779298356,-0.1484426545\C,1.5185664354,1.3841087459,-0.82
 12215923\S,2.0238254342,-0.7442171071,0.5387498381\C,2.9252024255,1.25
 58914559,-0.7949862589\H,0.99306448,2.1942715426,-1.2991714114\C,3.397
 0827744,0.1505242619,-0.0999968563\O,3.8172980008,2.1067985959,-1.3877
 819559\C,4.7643020745,-0.2477919488,0.1106065132\C,3.3101351043,3.3310
 018799,-1.9033969873\C,5.2432117762,-1.3558213271,0.7972171214\S,6.131
 3722452,0.6739295718,-0.5105376486\H,4.1787828736,3.9009379308,-2.2326
 374028\H,2.6469659366,3.1572407989,-2.7580707495\H,2.7702211383,3.8902
 199143,-1.1329266206\C,6.6615945442,-1.4669837803,0.822771939\O,4.3576
 337305,-2.2135520598,1.3872215642\C,7.2737453195,-0.4418649459,0.15627
 87779\H,7.2013356289,-2.2658516548,1.3114511203\C,4.8589211789,-3.4323
 666984,1.9077753604\H,8.3311414718,-0.277326812,0.0183099167\H,5.54060
 8602,-3.2592258213,2.7492968365\H,3.9908956192,-3.9888766878,2.2589164
 319\H,5.3751685945,-4.013904697,1.1349766922\\Version=ES64L-G16RevC.01
 \State=2-A\HF=-2359.4289184\S2=0.758357\S2-1=0.\S2A=0.750062\RMSD=6.58
 2e-09\RMSF=2.040e-04\Dipole=4.4394117,-0.0669848,-0.1409602\Quadrupole
 =-36.9242372,6.2976629,30.6265743,-4.3408592,1.1099158,-12.6691477\PG=
 C01 [X(C26H18N2O6S2)]\\@
 The archive entry for this job was punched.


 I do not feel obliged to believe that the same God who
 has endowed us with sense, reason, and intellect has
 intended us to forgo their use.
                   --Galileo Galilei
 Job cpu time:       2 days 21 hours  0 minutes 47.8 seconds.
 Elapsed time:       0 days  8 hours 42 minutes 18.0 seconds.
 File lengths (MBytes):  RWF=    893 Int=      0 D2E=      0 Chk=     80 Scr=      1
 Normal termination of Gaussian 16 at Tue Oct  5 07:45:25 2021.
