 Entering Gaussian System, Link 0=g16
 Input=NDI_150.gjf
 Output=NDI_150.log
 Initial command:
 /apps/gaussian/g16-c01-avx/g16/l1.exe "/tmp/pbs.4643761[325].pbs/Gau-2794969.inp" -scrdir="/tmp/pbs.4643761[325].pbs/"
 Entering Link 1 = /apps/gaussian/g16-c01-avx/g16/l1.exe PID=   2794970.
  
 Copyright (c) 1988-2019, Gaussian, Inc.  All Rights Reserved.
  
 This is part of the Gaussian(R) 16 program.  It is based on
 the Gaussian(R) 09 system (copyright 2009, Gaussian, Inc.),
 the Gaussian(R) 03 system (copyright 2003, Gaussian, Inc.),
 the Gaussian(R) 98 system (copyright 1998, Gaussian, Inc.),
 the Gaussian(R) 94 system (copyright 1995, Gaussian, Inc.),
 the Gaussian 92(TM) system (copyright 1992, Gaussian, Inc.),
 the Gaussian 90(TM) system (copyright 1990, Gaussian, Inc.),
 the Gaussian 88(TM) system (copyright 1988, Gaussian, Inc.),
 the Gaussian 86(TM) system (copyright 1986, Carnegie Mellon
 University), and the Gaussian 82(TM) system (copyright 1983,
 Carnegie Mellon University). Gaussian is a federally registered
 trademark of Gaussian, Inc.
  
 This software contains proprietary and confidential information,
 including trade secrets, belonging to Gaussian, Inc.
  
 This software is provided under written license and may be
 used, copied, transmitted, or stored only in accord with that
 written license.
  
 The following legend is applicable only to US Government
 contracts under FAR:
  
                    RESTRICTED RIGHTS LEGEND
  
 Use, reproduction and disclosure by the US Government is
 subject to restrictions as set forth in subparagraphs (a)
 and (c) of the Commercial Computer Software - Restricted
 Rights clause in FAR 52.227-19.
  
 Gaussian, Inc.
 340 Quinnipiac St., Bldg. 40, Wallingford CT 06492
  
  
 ---------------------------------------------------------------
 Warning -- This program may not be used in any manner that
 competes with the business of Gaussian, Inc. or will provide
 assistance to any competitor of Gaussian, Inc.  The licensee
 of this program is prohibited from giving any competitor of
 Gaussian, Inc. access to this program.  By using this program,
 the user acknowledges that Gaussian, Inc. is engaged in the
 business of creating and licensing software in the field of
 computational chemistry and represents and warrants to the
 licensee that it is not a competitor of Gaussian, Inc. and that
 it will not use this program in any manner prohibited above.
 ---------------------------------------------------------------
  

 Cite this work as:
 Gaussian 16, Revision C.01,
 M. J. Frisch, G. W. Trucks, H. B. Schlegel, G. E. Scuseria, 
 M. A. Robb, J. R. Cheeseman, G. Scalmani, V. Barone, 
 G. A. Petersson, H. Nakatsuji, X. Li, M. Caricato, A. V. Marenich, 
 J. Bloino, B. G. Janesko, R. Gomperts, B. Mennucci, H. P. Hratchian, 
 J. V. Ortiz, A. F. Izmaylov, J. L. Sonnenberg, D. Williams-Young, 
 F. Ding, F. Lipparini, F. Egidi, J. Goings, B. Peng, A. Petrone, 
 T. Henderson, D. Ranasinghe, V. G. Zakrzewski, J. Gao, N. Rega, 
 G. Zheng, W. Liang, M. Hada, M. Ehara, K. Toyota, R. Fukuda, 
 J. Hasegawa, M. Ishida, T. Nakajima, Y. Honda, O. Kitao, H. Nakai, 
 T. Vreven, K. Throssell, J. A. Montgomery, Jr., J. E. Peralta, 
 F. Ogliaro, M. J. Bearpark, J. J. Heyd, E. N. Brothers, K. N. Kudin, 
 V. N. Staroverov, T. A. Keith, R. Kobayashi, J. Normand, 
 K. Raghavachari, A. P. Rendell, J. C. Burant, S. S. Iyengar, 
 J. Tomasi, M. Cossi, J. M. Millam, M. Klene, C. Adamo, R. Cammi, 
 J. W. Ochterski, R. L. Martin, K. Morokuma, O. Farkas, 
 J. B. Foresman, and D. J. Fox, Gaussian, Inc., Wallingford CT, 2019.
 
 ******************************************
 Gaussian 16:  ES64L-G16RevC.01  3-Jul-2019
                 5-Oct-2021 
 ******************************************
 %mem=10GB
 %nprocshared=8
 Will use up to    8 processors via shared memory.
 -------------------------------------
 # opt=modredundant b3lyp/6-311+g(d,p)
 -------------------------------------
 1/18=120,19=15,26=3,38=1/1,3;
 2/9=110,12=2,17=6,18=5,40=1/2;
 3/5=4,6=6,7=111,11=2,25=1,30=1,71=1,74=-5/1,2,3;
 4//1;
 5/5=2,38=5/2;
 6/7=2,8=2,9=2,10=2,28=1/1;
 7//1,2,3,16;
 1/18=20,19=15,26=3/3(2);
 2/9=110/2;
 99//99;
 2/9=110/2;
 3/5=4,6=6,7=111,11=2,25=1,30=1,71=1,74=-5/1,2,3;
 4/5=5,16=3,69=1/1;
 5/5=2,38=5/2;
 7//1,2,3,16;
 1/18=20,19=15,26=3/3(-5);
 2/9=110/2;
 6/7=2,8=2,9=2,10=2,19=2,28=1/1;
 99/9=1/99;
 -----------
 NDI_150.pdb
 -----------
 Symbolic Z-matrix:
 Charge = -1 Multiplicity = 2
 C                    -2.563    -2.994    -0.409 
 C                    -2.257    -1.551    -0.224 
 C                    -3.301    -0.607    -0.083 
 C                    -4.65     -1.024    -0.115 
 C                    -4.992    -2.459    -0.304 
 C                    -0.949    -1.137    -0.215 
 C                    -2.962     0.764     0.102 
 C                    -1.595     1.188     0.123 
 C                    -0.561     0.232    -0.072 
 C                    -1.328     2.616     0.446 
 C                    -3.777     3.115     0.508 
 C                    -4.035     1.679     0.268 
 C                    -5.356     1.252     0.23 
 C                    -5.672    -0.098     0.036 
 H                    -6.699    -0.442     0.008 
 H                    -6.133     1.997     0.361 
 H                    -0.19     -1.895    -0.369 
 N                    -2.432     3.476     0.608 
 N                    -3.916    -3.353    -0.438 
 O                    -1.695    -3.847    -0.532 
 O                    -6.149    -2.85     -0.34 
 O                    -4.676     3.938     0.629 
 O                    -0.212     3.097     0.596 
 C                    -2.111     4.875     0.912 
 H                    -1.54      4.931     1.84 
 H                    -1.5       5.299     0.111 
 H                    -3.05      5.414     1.003 
 C                    -4.206    -4.779    -0.625 
 H                    -3.759    -5.126    -1.559 
 H                    -3.775    -5.355     0.196 
 H                    -5.286    -4.897    -0.649 
 C                     0.876     0.482    -0.178 
 C                     1.958    -0.304     0.168 
 S                     1.426     2.08     -0.685 
 C                     3.197     0.351     0.026 
 H                     1.856    -1.323     0.504 
 C                     3.107     1.666    -0.442 
 O                     4.424    -0.171     0.296 
 C                     4.183     2.572    -0.728 
 C                     4.49     -1.554     0.632 
 C                     4.09      3.889    -1.172 
 S                     5.88      2.134    -0.553 
 H                     5.55     -1.789     0.728 
 H                     3.986    -1.755     1.585 
 H                     4.044    -2.175    -0.154 
 C                     5.347     4.529    -1.366 
 O                     2.863     4.435    -1.379 
 C                     6.394     3.699    -1.07 
 H                     5.469     5.549    -1.706 
 C                     2.799     5.794    -1.798 
 H                     7.45      3.926    -1.126 
 H                     3.288     5.933    -2.771 
 H                     1.74      6.031    -1.889 
 H                     3.26      6.46     -1.06 
 
 The following ModRedundant input section has been read:
 D       8       9      32      33 F                                           
 

 GradGradGradGradGradGradGradGradGradGradGradGradGradGradGradGradGradGrad
 Berny optimization.
 Initialization pass.
                           ----------------------------
                           !    Initial Parameters    !
                           ! (Angstroms and Degrees)  !
 --------------------------                            --------------------------
 ! Name  Definition              Value          Derivative Info.                !
 --------------------------------------------------------------------------------
 ! R1    R(1,2)                  1.4866         estimate D2E/DX2                !
 ! R2    R(1,19)                 1.4001         estimate D2E/DX2                !
 ! R3    R(1,20)                 1.2232         estimate D2E/DX2                !
 ! R4    R(2,3)                  1.4146         estimate D2E/DX2                !
 ! R5    R(2,6)                  1.372          estimate D2E/DX2                !
 ! R6    R(3,4)                  1.4123         estimate D2E/DX2                !
 ! R7    R(3,7)                  1.4244         estimate D2E/DX2                !
 ! R8    R(4,5)                  1.4872         estimate D2E/DX2                !
 ! R9    R(4,14)                 1.3874         estimate D2E/DX2                !
 ! R10   R(5,19)                 1.4053         estimate D2E/DX2                !
 ! R11   R(5,21)                 1.2218         estimate D2E/DX2                !
 ! R12   R(6,9)                  1.4301         estimate D2E/DX2                !
 ! R13   R(6,17)                 1.0837         estimate D2E/DX2                !
 ! R14   R(7,8)                  1.4314         estimate D2E/DX2                !
 ! R15   R(7,12)                 1.4199         estimate D2E/DX2                !
 ! R16   R(8,9)                  1.4217         estimate D2E/DX2                !
 ! R17   R(8,10)                 1.4882         estimate D2E/DX2                !
 ! R18   R(9,32)                 1.4624         estimate D2E/DX2                !
 ! R19   R(10,18)                1.4088         estimate D2E/DX2                !
 ! R20   R(10,23)                1.2245         estimate D2E/DX2                !
 ! R21   R(11,12)                1.4786         estimate D2E/DX2                !
 ! R22   R(11,18)                1.3962         estimate D2E/DX2                !
 ! R23   R(11,22)                1.2248         estimate D2E/DX2                !
 ! R24   R(12,13)                1.3888         estimate D2E/DX2                !
 ! R25   R(13,14)                1.4            estimate D2E/DX2                !
 ! R26   R(13,16)                1.0844         estimate D2E/DX2                !
 ! R27   R(14,15)                1.0834         estimate D2E/DX2                !
 ! R28   R(18,24)                1.4672         estimate D2E/DX2                !
 ! R29   R(19,28)                1.4672         estimate D2E/DX2                !
 ! R30   R(24,25)                1.091          estimate D2E/DX2                !
 ! R31   R(24,26)                1.093          estimate D2E/DX2                !
 ! R32   R(24,27)                1.0865         estimate D2E/DX2                !
 ! R33   R(28,29)                1.0921         estimate D2E/DX2                !
 ! R34   R(28,30)                1.0916         estimate D2E/DX2                !
 ! R35   R(28,31)                1.0867         estimate D2E/DX2                !
 ! R36   R(32,33)                1.3814         estimate D2E/DX2                !
 ! R37   R(32,34)                1.7644         estimate D2E/DX2                !
 ! R38   R(33,35)                1.4087         estimate D2E/DX2                !
 ! R39   R(33,36)                1.0778         estimate D2E/DX2                !
 ! R40   R(34,37)                1.7482         estimate D2E/DX2                !
 ! R41   R(35,37)                1.3987         estimate D2E/DX2                !
 ! R42   R(35,38)                1.3605         estimate D2E/DX2                !
 ! R43   R(37,39)                1.4354         estimate D2E/DX2                !
 ! R44   R(38,40)                1.4248         estimate D2E/DX2                !
 ! R45   R(39,41)                1.3929         estimate D2E/DX2                !
 ! R46   R(39,42)                1.7613         estimate D2E/DX2                !
 ! R47   R(40,43)                1.09           estimate D2E/DX2                !
 ! R48   R(40,44)                1.0966         estimate D2E/DX2                !
 ! R49   R(40,45)                1.0965         estimate D2E/DX2                !
 ! R50   R(41,46)                1.4238         estimate D2E/DX2                !
 ! R51   R(41,47)                1.3589         estimate D2E/DX2                !
 ! R52   R(42,48)                1.7265         estimate D2E/DX2                !
 ! R53   R(46,48)                1.3685         estimate D2E/DX2                !
 ! R54   R(46,49)                1.0821         estimate D2E/DX2                !
 ! R55   R(47,50)                1.4236         estimate D2E/DX2                !
 ! R56   R(48,51)                1.0816         estimate D2E/DX2                !
 ! R57   R(50,52)                1.0978         estimate D2E/DX2                !
 ! R58   R(50,53)                1.089          estimate D2E/DX2                !
 ! R59   R(50,54)                1.0958         estimate D2E/DX2                !
 ! A1    A(2,1,19)             116.767          estimate D2E/DX2                !
 ! A2    A(2,1,20)             122.9113         estimate D2E/DX2                !
 ! A3    A(19,1,20)            120.3217         estimate D2E/DX2                !
 ! A4    A(1,2,3)              120.5473         estimate D2E/DX2                !
 ! A5    A(1,2,6)              119.3369         estimate D2E/DX2                !
 ! A6    A(3,2,6)              120.1056         estimate D2E/DX2                !
 ! A7    A(2,3,4)              120.3743         estimate D2E/DX2                !
 ! A8    A(2,3,7)              118.662          estimate D2E/DX2                !
 ! A9    A(4,3,7)              120.9617         estimate D2E/DX2                !
 ! A10   A(3,4,5)              120.4909         estimate D2E/DX2                !
 ! A11   A(3,4,14)             120.2702         estimate D2E/DX2                !
 ! A12   A(5,4,14)             119.2382         estimate D2E/DX2                !
 ! A13   A(4,5,19)             116.7341         estimate D2E/DX2                !
 ! A14   A(4,5,21)             122.024          estimate D2E/DX2                !
 ! A15   A(19,5,21)            121.2418         estimate D2E/DX2                !
 ! A16   A(2,6,9)              123.2421         estimate D2E/DX2                !
 ! A17   A(2,6,17)             117.1119         estimate D2E/DX2                !
 ! A18   A(9,6,17)             119.589          estimate D2E/DX2                !
 ! A19   A(3,7,8)              120.9519         estimate D2E/DX2                !
 ! A20   A(3,7,12)             117.1037         estimate D2E/DX2                !
 ! A21   A(8,7,12)             121.944          estimate D2E/DX2                !
 ! A22   A(7,8,9)              119.5639         estimate D2E/DX2                !
 ! A23   A(7,8,10)             117.3064         estimate D2E/DX2                !
 ! A24   A(9,8,10)             122.9922         estimate D2E/DX2                !
 ! A25   A(6,9,8)              117.3944         estimate D2E/DX2                !
 ! A26   A(6,9,32)             115.0236         estimate D2E/DX2                !
 ! A27   A(8,9,32)             127.5648         estimate D2E/DX2                !
 ! A28   A(8,10,18)            118.042          estimate D2E/DX2                !
 ! A29   A(8,10,23)            124.5436         estimate D2E/DX2                !
 ! A30   A(18,10,23)           117.4097         estimate D2E/DX2                !
 ! A31   A(12,11,18)           115.5202         estimate D2E/DX2                !
 ! A32   A(12,11,22)           122.7205         estimate D2E/DX2                !
 ! A33   A(18,11,22)           121.7534         estimate D2E/DX2                !
 ! A34   A(7,12,11)            120.8614         estimate D2E/DX2                !
 ! A35   A(7,12,13)            121.162          estimate D2E/DX2                !
 ! A36   A(11,12,13)           117.9699         estimate D2E/DX2                !
 ! A37   A(12,13,14)           120.9948         estimate D2E/DX2                !
 ! A38   A(12,13,16)           117.8401         estimate D2E/DX2                !
 ! A39   A(14,13,16)           121.1642         estimate D2E/DX2                !
 ! A40   A(4,14,13)            119.5003         estimate D2E/DX2                !
 ! A41   A(4,14,15)            118.9169         estimate D2E/DX2                !
 ! A42   A(13,14,15)           121.5811         estimate D2E/DX2                !
 ! A43   A(10,18,11)           126.0753         estimate D2E/DX2                !
 ! A44   A(10,18,24)           115.7508         estimate D2E/DX2                !
 ! A45   A(11,18,24)           118.1737         estimate D2E/DX2                !
 ! A46   A(1,19,5)             125.0856         estimate D2E/DX2                !
 ! A47   A(1,19,28)            116.2868         estimate D2E/DX2                !
 ! A48   A(5,19,28)            118.6276         estimate D2E/DX2                !
 ! A49   A(18,24,25)           109.8574         estimate D2E/DX2                !
 ! A50   A(18,24,26)           109.8979         estimate D2E/DX2                !
 ! A51   A(18,24,27)           107.5355         estimate D2E/DX2                !
 ! A52   A(25,24,26)           108.1108         estimate D2E/DX2                !
 ! A53   A(25,24,27)           110.8301         estimate D2E/DX2                !
 ! A54   A(26,24,27)           110.6124         estimate D2E/DX2                !
 ! A55   A(19,28,29)           109.6906         estimate D2E/DX2                !
 ! A56   A(19,28,30)           109.8136         estimate D2E/DX2                !
 ! A57   A(19,28,31)           107.7461         estimate D2E/DX2                !
 ! A58   A(29,28,30)           108.2991         estimate D2E/DX2                !
 ! A59   A(29,28,31)           110.6959         estimate D2E/DX2                !
 ! A60   A(30,28,31)           110.5924         estimate D2E/DX2                !
 ! A61   A(9,32,33)            130.861          estimate D2E/DX2                !
 ! A62   A(9,32,34)            118.8129         estimate D2E/DX2                !
 ! A63   A(33,32,34)           110.0683         estimate D2E/DX2                !
 ! A64   A(32,33,35)           113.5228         estimate D2E/DX2                !
 ! A65   A(32,33,36)           122.8135         estimate D2E/DX2                !
 ! A66   A(35,33,36)           123.661          estimate D2E/DX2                !
 ! A67   A(32,34,37)            92.5973         estimate D2E/DX2                !
 ! A68   A(33,35,37)           114.4747         estimate D2E/DX2                !
 ! A69   A(33,35,38)           126.502          estimate D2E/DX2                !
 ! A70   A(37,35,38)           119.0233         estimate D2E/DX2                !
 ! A71   A(34,37,35)           109.331          estimate D2E/DX2                !
 ! A72   A(34,37,39)           122.931          estimate D2E/DX2                !
 ! A73   A(35,37,39)           127.7228         estimate D2E/DX2                !
 ! A74   A(35,38,40)           117.4531         estimate D2E/DX2                !
 ! A75   A(37,39,41)           127.6061         estimate D2E/DX2                !
 ! A76   A(37,39,42)           123.0573         estimate D2E/DX2                !
 ! A77   A(41,39,42)           109.3365         estimate D2E/DX2                !
 ! A78   A(38,40,43)           105.9681         estimate D2E/DX2                !
 ! A79   A(38,40,44)           111.1963         estimate D2E/DX2                !
 ! A80   A(38,40,45)           111.2139         estimate D2E/DX2                !
 ! A81   A(43,40,44)           109.3228         estimate D2E/DX2                !
 ! A82   A(43,40,45)           109.6691         estimate D2E/DX2                !
 ! A83   A(44,40,45)           109.4017         estimate D2E/DX2                !
 ! A84   A(39,41,46)           114.1719         estimate D2E/DX2                !
 ! A85   A(39,41,47)           119.2582         estimate D2E/DX2                !
 ! A86   A(46,41,47)           126.5697         estimate D2E/DX2                !
 ! A87   A(39,42,48)            91.815          estimate D2E/DX2                !
 ! A88   A(41,46,48)           111.9221         estimate D2E/DX2                !
 ! A89   A(41,46,49)           124.4756         estimate D2E/DX2                !
 ! A90   A(48,46,49)           123.6023         estimate D2E/DX2                !
 ! A91   A(41,47,50)           117.9704         estimate D2E/DX2                !
 ! A92   A(42,48,46)           112.7544         estimate D2E/DX2                !
 ! A93   A(42,48,51)           119.7642         estimate D2E/DX2                !
 ! A94   A(46,48,51)           127.4812         estimate D2E/DX2                !
 ! A95   A(47,50,52)           111.2058         estimate D2E/DX2                !
 ! A96   A(47,50,53)           106.026          estimate D2E/DX2                !
 ! A97   A(47,50,54)           111.2894         estimate D2E/DX2                !
 ! A98   A(52,50,53)           109.3625         estimate D2E/DX2                !
 ! A99   A(52,50,54)           109.4252         estimate D2E/DX2                !
 ! A100  A(53,50,54)           109.4584         estimate D2E/DX2                !
 ! D1    D(19,1,2,3)             0.1578         estimate D2E/DX2                !
 ! D2    D(19,1,2,6)          -178.6792         estimate D2E/DX2                !
 ! D3    D(20,1,2,3)          -179.8231         estimate D2E/DX2                !
 ! D4    D(20,1,2,6)             1.3399         estimate D2E/DX2                !
 ! D5    D(2,1,19,5)            -0.124          estimate D2E/DX2                !
 ! D6    D(2,1,19,28)          179.8267         estimate D2E/DX2                !
 ! D7    D(20,1,19,5)          179.8575         estimate D2E/DX2                !
 ! D8    D(20,1,19,28)          -0.1919         estimate D2E/DX2                !
 ! D9    D(1,2,3,4)              0.0571         estimate D2E/DX2                !
 ! D10   D(1,2,3,7)            179.5453         estimate D2E/DX2                !
 ! D11   D(6,2,3,4)            178.8851         estimate D2E/DX2                !
 ! D12   D(6,2,3,7)             -1.6266         estimate D2E/DX2                !
 ! D13   D(1,2,6,9)            178.625          estimate D2E/DX2                !
 ! D14   D(1,2,6,17)             1.3881         estimate D2E/DX2                !
 ! D15   D(3,2,6,9)             -0.2173         estimate D2E/DX2                !
 ! D16   D(3,2,6,17)          -177.4541         estimate D2E/DX2                !
 ! D17   D(2,3,4,5)             -0.3074         estimate D2E/DX2                !
 ! D18   D(2,3,4,14)           179.3968         estimate D2E/DX2                !
 ! D19   D(7,3,4,5)           -179.7837         estimate D2E/DX2                !
 ! D20   D(7,3,4,14)            -0.0795         estimate D2E/DX2                !
 ! D21   D(2,3,7,8)              1.0523         estimate D2E/DX2                !
 ! D22   D(2,3,7,12)          -178.712          estimate D2E/DX2                !
 ! D23   D(4,3,7,8)           -179.4626         estimate D2E/DX2                !
 ! D24   D(4,3,7,12)             0.7731         estimate D2E/DX2                !
 ! D25   D(3,4,5,19)             0.3343         estimate D2E/DX2                !
 ! D26   D(3,4,5,21)          -179.7799         estimate D2E/DX2                !
 ! D27   D(14,4,5,19)         -179.3729         estimate D2E/DX2                !
 ! D28   D(14,4,5,21)            0.5129         estimate D2E/DX2                !
 ! D29   D(3,4,14,13)           -0.4559         estimate D2E/DX2                !
 ! D30   D(3,4,14,15)         -179.9937         estimate D2E/DX2                !
 ! D31   D(5,4,14,13)          179.252          estimate D2E/DX2                !
 ! D32   D(5,4,14,15)           -0.2858         estimate D2E/DX2                !
 ! D33   D(4,5,19,1)            -0.1141         estimate D2E/DX2                !
 ! D34   D(4,5,19,28)          179.9364         estimate D2E/DX2                !
 ! D35   D(21,5,19,1)          179.9992         estimate D2E/DX2                !
 ! D36   D(21,5,19,28)           0.0496         estimate D2E/DX2                !
 ! D37   D(2,6,9,8)              2.5984         estimate D2E/DX2                !
 ! D38   D(2,6,9,32)          -176.0103         estimate D2E/DX2                !
 ! D39   D(17,6,9,8)           179.77           estimate D2E/DX2                !
 ! D40   D(17,6,9,32)            1.1613         estimate D2E/DX2                !
 ! D41   D(3,7,8,9)              1.3551         estimate D2E/DX2                !
 ! D42   D(3,7,8,10)          -174.5099         estimate D2E/DX2                !
 ! D43   D(12,7,8,9)          -178.8921         estimate D2E/DX2                !
 ! D44   D(12,7,8,10)            5.2428         estimate D2E/DX2                !
 ! D45   D(3,7,12,11)          178.0768         estimate D2E/DX2                !
 ! D46   D(3,7,12,13)           -0.9621         estimate D2E/DX2                !
 ! D47   D(8,7,12,11)           -1.685          estimate D2E/DX2                !
 ! D48   D(8,7,12,13)          179.2761         estimate D2E/DX2                !
 ! D49   D(7,8,9,6)             -3.0809         estimate D2E/DX2                !
 ! D50   D(7,8,9,32)           175.3285         estimate D2E/DX2                !
 ! D51   D(10,8,9,6)           172.5381         estimate D2E/DX2                !
 ! D52   D(10,8,9,32)           -9.0525         estimate D2E/DX2                !
 ! D53   D(7,8,10,18)           -4.7549         estimate D2E/DX2                !
 ! D54   D(7,8,10,23)          174.4235         estimate D2E/DX2                !
 ! D55   D(9,8,10,18)          179.5335         estimate D2E/DX2                !
 ! D56   D(9,8,10,23)           -1.2882         estimate D2E/DX2                !
 ! D57   D(6,9,32,33)          -31.5732         estimate D2E/DX2                !
 ! D58   D(6,9,32,34)          154.8993         estimate D2E/DX2                !
 ! D59   D(8,9,32,33)          149.9852         Frozen                          !
 ! D60   D(8,9,32,34)          -23.5423         estimate D2E/DX2                !
 ! D61   D(8,10,18,11)           0.7189         estimate D2E/DX2                !
 ! D62   D(8,10,18,24)        -179.4089         estimate D2E/DX2                !
 ! D63   D(23,10,18,11)       -178.5188         estimate D2E/DX2                !
 ! D64   D(23,10,18,24)          1.3535         estimate D2E/DX2                !
 ! D65   D(18,11,12,7)          -2.3856         estimate D2E/DX2                !
 ! D66   D(18,11,12,13)        176.6833         estimate D2E/DX2                !
 ! D67   D(22,11,12,7)         178.4862         estimate D2E/DX2                !
 ! D68   D(22,11,12,13)         -2.445          estimate D2E/DX2                !
 ! D69   D(12,11,18,10)          2.8444         estimate D2E/DX2                !
 ! D70   D(12,11,18,24)       -177.0251         estimate D2E/DX2                !
 ! D71   D(22,11,18,10)       -178.0181         estimate D2E/DX2                !
 ! D72   D(22,11,18,24)          2.1124         estimate D2E/DX2                !
 ! D73   D(7,12,13,14)           0.461          estimate D2E/DX2                !
 ! D74   D(7,12,13,16)        -179.8781         estimate D2E/DX2                !
 ! D75   D(11,12,13,14)       -178.6049         estimate D2E/DX2                !
 ! D76   D(11,12,13,16)          1.056          estimate D2E/DX2                !
 ! D77   D(12,13,14,4)           0.2708         estimate D2E/DX2                !
 ! D78   D(12,13,14,15)        179.7958         estimate D2E/DX2                !
 ! D79   D(16,13,14,4)        -179.3788         estimate D2E/DX2                !
 ! D80   D(16,13,14,15)          0.1463         estimate D2E/DX2                !
 ! D81   D(10,18,24,25)        -59.609          estimate D2E/DX2                !
 ! D82   D(10,18,24,26)         59.2209         estimate D2E/DX2                !
 ! D83   D(10,18,24,27)        179.6858         estimate D2E/DX2                !
 ! D84   D(11,18,24,25)        120.2739         estimate D2E/DX2                !
 ! D85   D(11,18,24,26)       -120.8962         estimate D2E/DX2                !
 ! D86   D(11,18,24,27)         -0.4313         estimate D2E/DX2                !
 ! D87   D(1,19,28,29)         -58.1407         estimate D2E/DX2                !
 ! D88   D(1,19,28,30)          60.7668         estimate D2E/DX2                !
 ! D89   D(1,19,28,31)        -178.7139         estimate D2E/DX2                !
 ! D90   D(5,19,28,29)         121.8132         estimate D2E/DX2                !
 ! D91   D(5,19,28,30)        -119.2792         estimate D2E/DX2                !
 ! D92   D(5,19,28,31)           1.2401         estimate D2E/DX2                !
 ! D93   D(9,32,33,35)        -174.2401         estimate D2E/DX2                !
 ! D94   D(9,32,33,36)           6.3388         estimate D2E/DX2                !
 ! D95   D(34,32,33,35)         -0.2762         estimate D2E/DX2                !
 ! D96   D(34,32,33,36)       -179.6973         estimate D2E/DX2                !
 ! D97   D(9,32,34,37)         175.3691         estimate D2E/DX2                !
 ! D98   D(33,32,34,37)          0.5768         estimate D2E/DX2                !
 ! D99   D(32,33,35,37)         -0.2854         estimate D2E/DX2                !
 ! D100  D(32,33,35,38)        179.7303         estimate D2E/DX2                !
 ! D101  D(36,33,35,37)        179.1301         estimate D2E/DX2                !
 ! D102  D(36,33,35,38)         -0.8542         estimate D2E/DX2                !
 ! D103  D(32,34,37,35)         -0.7211         estimate D2E/DX2                !
 ! D104  D(32,34,37,39)        177.9605         estimate D2E/DX2                !
 ! D105  D(33,35,37,34)          0.7071         estimate D2E/DX2                !
 ! D106  D(33,35,37,39)       -177.8938         estimate D2E/DX2                !
 ! D107  D(38,35,37,34)       -179.3073         estimate D2E/DX2                !
 ! D108  D(38,35,37,39)          2.0917         estimate D2E/DX2                !
 ! D109  D(33,35,38,40)          6.576          estimate D2E/DX2                !
 ! D110  D(37,35,38,40)       -173.4077         estimate D2E/DX2                !
 ! D111  D(34,37,39,41)          2.7866         estimate D2E/DX2                !
 ! D112  D(34,37,39,42)       -177.1739         estimate D2E/DX2                !
 ! D113  D(35,37,39,41)       -178.7863         estimate D2E/DX2                !
 ! D114  D(35,37,39,42)          1.2532         estimate D2E/DX2                !
 ! D115  D(35,38,40,43)        175.4498         estimate D2E/DX2                !
 ! D116  D(35,38,40,44)        -65.8576         estimate D2E/DX2                !
 ! D117  D(35,38,40,45)         56.3317         estimate D2E/DX2                !
 ! D118  D(37,39,41,46)       -179.9815         estimate D2E/DX2                !
 ! D119  D(37,39,41,47)         -0.1219         estimate D2E/DX2                !
 ! D120  D(42,39,41,46)         -0.0166         estimate D2E/DX2                !
 ! D121  D(42,39,41,47)        179.843          estimate D2E/DX2                !
 ! D122  D(37,39,42,48)        179.9782         estimate D2E/DX2                !
 ! D123  D(41,39,42,48)          0.0114         estimate D2E/DX2                !
 ! D124  D(39,41,46,48)          0.0144         estimate D2E/DX2                !
 ! D125  D(39,41,46,49)       -179.9617         estimate D2E/DX2                !
 ! D126  D(47,41,46,48)       -179.8331         estimate D2E/DX2                !
 ! D127  D(47,41,46,49)          0.1909         estimate D2E/DX2                !
 ! D128  D(39,41,47,50)        178.335          estimate D2E/DX2                !
 ! D129  D(46,41,47,50)         -1.8245         estimate D2E/DX2                !
 ! D130  D(39,42,48,46)         -0.0036         estimate D2E/DX2                !
 ! D131  D(39,42,48,51)        179.8362         estimate D2E/DX2                !
 ! D132  D(41,46,48,42)         -0.0051         estimate D2E/DX2                !
 ! D133  D(41,46,48,51)       -179.8299         estimate D2E/DX2                !
 ! D134  D(49,46,48,42)        179.9712         estimate D2E/DX2                !
 ! D135  D(49,46,48,51)          0.1464         estimate D2E/DX2                !
 ! D136  D(41,47,50,52)         62.046          estimate D2E/DX2                !
 ! D137  D(41,47,50,53)       -179.1739         estimate D2E/DX2                !
 ! D138  D(41,47,50,54)        -60.2333         estimate D2E/DX2                !
 --------------------------------------------------------------------------------
 Trust Radius=3.00D-01 FncErr=1.00D-07 GrdErr=1.00D-06 EigMax=2.50D+02 EigMin=1.00D-04
 Number of steps in this run=    307 maximum allowed number of steps=    324.
 GradGradGradGradGradGradGradGradGradGradGradGradGradGradGradGradGradGrad

 Stoichiometry    C26H18N2O6S2(1-,2)
 Framework group  C1[X(C26H18N2O6S2)]
 Deg. of freedom   156
 Full point group                 C1      NOp   1
 Largest Abelian subgroup         C1      NOp   1
 Largest concise Abelian subgroup C1      NOp   1
                         Standard orientation:                         
 ---------------------------------------------------------------------
 Center     Atomic      Atomic             Coordinates (Angstroms)
 Number     Number       Type             X           Y           Z
 ---------------------------------------------------------------------
      1          6           0        3.839606   -2.556227    0.309800
      2          6           0        2.952308   -1.378476    0.120818
      3          6           0        3.492210   -0.071887    0.073031
      4          6           0        4.883825    0.130996    0.203266
      5          6           0        5.799790   -1.024237    0.399112
      6          6           0        1.597402   -1.567464    0.016629
      7          6           0        2.606357    1.026752   -0.119439
      8          6           0        1.194825    0.821942   -0.240001
      9          6           0        0.665664   -0.493601   -0.137767
     10          6           0        0.357885    2.009172   -0.563758
     11          6           0        2.348882    3.515366   -0.430512
     12          6           0        3.186475    2.320797   -0.190300
     13          6           0        4.556845    2.502348   -0.056370
     14          6           0        5.412358    1.412343    0.143579
     15          1           0        6.483042    1.542709    0.246005
     16          1           0        4.941988    3.514208   -0.117358
     17          1           0        1.232605   -2.584339    0.101760
     18          7           0        0.989409    3.266782   -0.628969
     19          7           0        5.209935   -2.299194    0.438116
     20          8           0        3.419814   -3.704246    0.354386
     21          8           0        7.007213   -0.880686    0.518900
     22          8           0        2.809399    4.649582   -0.471113
     23          8           0       -0.844305    1.969547   -0.792857
     24          6           0        0.115224    4.403779   -0.938322
     25          1           0       -0.363440    4.250512   -1.906698
     26          1           0       -0.668699    4.487090   -0.181208
     27          1           0        0.732591    5.297788   -0.949676
     28          6           0        6.075365   -3.468591    0.628085
     29          1           0        5.763804   -4.015881    1.520260
     30          1           0        5.989040   -4.136284   -0.231166
     31          1           0        7.096268   -3.111480    0.733578
     32          6           0       -0.741698   -0.891136   -0.139396
     33          6           0       -1.353053   -2.049642   -0.577966
     34         16           0       -1.959575    0.290182    0.344771
     35          6           0       -2.759710   -1.998471   -0.523131
     36          1           0       -0.799351   -2.909354   -0.918509
     37          6           0       -3.277098   -0.795243   -0.032315
     38          8           0       -3.620466   -2.984754   -0.893616
     39          6           0       -4.654835   -0.454144    0.181930
     40          6           0       -3.060505   -4.244924   -1.251884
     41          6           0       -5.168859    0.753261    0.649077
     42         16           0       -5.980706   -1.571158   -0.128912
     43          1           0       -3.906217   -4.908455   -1.432267
     44          1           0       -2.459546   -4.166345   -2.165831
     45          1           0       -2.440957   -4.648437   -0.442136
     46          6           0       -6.588536    0.780818    0.754169
     47          8           0       -4.314465    1.764025    0.957070
     48          6           0       -7.152573   -0.404559    0.367561
     49          1           0       -7.160914    1.632648    1.097175
     50          6           0       -4.871138    2.997951    1.397614
     51          1           0       -8.204111   -0.656680    0.345105
     52          1           0       -5.433075    2.869021    2.331839
     53          1           0       -4.026871    3.663081    1.572962
     54          1           0       -5.526691    3.433419    0.635158
 ---------------------------------------------------------------------
 Rotational constants (GHZ):           0.1733376           0.0579876           0.0448045
 Standard basis: 6-311+G(d,p) (5D, 7F)
 There are   952 symmetry adapted cartesian basis functions of A   symmetry.
 There are   916 symmetry adapted basis functions of A   symmetry.
   916 basis functions,  1468 primitive gaussians,   952 cartesian basis functions
   135 alpha electrons      134 beta electrons
       nuclear repulsion energy      4120.8050607952 Hartrees.
 NAtoms=   54 NActive=   54 NUniq=   54 SFac= 1.00D+00 NAtFMM=   60 NAOKFM=F Big=F
 Integral buffers will be    131072 words long.
 Raffenetti 2 integral format.
 Two-electron integral symmetry is turned on.
 One-electron integrals computed using PRISM.
 NBasis=   916 RedAO= T EigKep=  1.45D-06  NBF=   916
 NBsUse=   901 1.00D-06 EigRej=  8.44D-07 NBFU=   901
 ExpMin= 4.05D-02 ExpMax= 9.34D+04 ExpMxC= 3.17D+03 IAcc=3 IRadAn=         5 AccDes= 0.00D+00
 Harris functional with IExCor=  402 and IRadAn=       5 diagonalized for initial guess.
 HarFok:  IExCor=  402 AccDes= 0.00D+00 IRadAn=         5 IDoV= 1 UseB2=F ITyADJ=14
 ICtDFT=  3500011 ScaDFX=  1.000000  1.000000  1.000000  1.000000
 FoFCou: FMM=F IPFlag=           0 FMFlag=      100000 FMFlg1=           0
         NFxFlg=           0 DoJE=T BraDBF=F KetDBF=T FulRan=T
         wScrn=  0.000000 ICntrl=       500 IOpCl=  0 I1Cent=   200000004 NGrid=           0
         NMat0=    1 NMatS0=      1 NMatT0=    0 NMatD0=    1 NMtDS0=    0 NMtDT0=    0
 Petite list used in FoFCou.
 Initial guess <Sx>= 0.0000 <Sy>= 0.0000 <Sz>= 0.5000 <S**2>= 0.7500 S= 0.5000
 Requested convergence on RMS density matrix=1.00D-08 within 128 cycles.
 Requested convergence on MAX density matrix=1.00D-06.
 Requested convergence on             energy=1.00D-06.
 No special actions if energy rises.
 Restarting incremental Fock formation.
 SCF Done:  E(UB3LYP) =  -2359.40048687     A.U. after   23 cycles
            NFock= 23  Conv=0.99D-08     -V/T= 2.0030
 <Sx>= 0.0000 <Sy>= 0.0000 <Sz>= 0.5000 <S**2>= 0.7591 S= 0.5045
 <L.S>=  0.00000000000    
 Annihilation of the first spin contaminant:
 S**2 before annihilation     0.7591,   after     0.7501

 **********************************************************************

            Population analysis using the SCF Density.

 **********************************************************************

 Orbital symmetries:
 Alpha Orbitals:
       Occupied  (A) (A) (A) (A) (A) (A) (A) (A) (A) (A) (A) (A)
                 (A) (A) (A) (A) (A) (A) (A) (A) (A) (A) (A) (A)
                 (A) (A) (A) (A) (A) (A) (A) (A) (A) (A) (A) (A)
                 (A) (A) (A) (A) (A) (A) (A) (A) (A) (A) (A) (A)
                 (A) (A) (A) (A) (A) (A) (A) (A) (A) (A) (A) (A)
                 (A) (A) (A) (A) (A) (A) (A) (A) (A) (A) (A) (A)
                 (A) (A) (A) (A) (A) (A) (A) (A) (A) (A) (A) (A)
                 (A) (A) (A) (A) (A) (A) (A) (A) (A) (A) (A) (A)
                 (A) (A) (A) (A) (A) (A) (A) (A) (A) (A) (A) (A)
                 (A) (A) (A) (A) (A) (A) (A) (A) (A) (A) (A) (A)
                 (A) (A) (A) (A) (A) (A) (A) (A) (A) (A) (A) (A)
                 (A) (A) (A)
       Virtual   (A) (A) (A) (A) (A) (A) (A) (A) (A) (A) (A) (A)
                 (A) (A) (A) (A) (A) (A) (A) (A) (A) (A) (A) (A)
                 (A) (A) (A) (A) (A) (A) (A) (A) (A) (A) (A) (A)
                 (A) (A) (A) (A) (A) (A) (A) (A) (A) (A) (A) (A)
                 (A) (A) (A) (A) (A) (A) (A) (A) (A) (A) (A) (A)
                 (A) (A) (A) (A) (A) (A) (A) (A) (A) (A) (A) (A)
                 (A) (A) (A) (A) (A) (A) (A) (A) (A) (A) (A) (A)
                 (A) (A) (A) (A) (A) (A) (A) (A) (A) (A) (A) (A)
                 (A) (A) (A) (A) (A) (A) (A) (A) (A) (A) (A) (A)
                 (A) (A) (A) (A) (A) (A) (A) (A) (A) (A) (A) (A)
                 (A) (A) (A) (A) (A) (A) (A) (A) (A) (A) (A) (A)
                 (A) (A) (A) (A) (A) (A) (A) (A) (A) (A) (A) (A)
                 (A) (A) (A) (A) (A) (A) (A) (A) (A) (A) (A) (A)
                 (A) (A) (A) (A) (A) (A) (A) (A) (A) (A) (A) (A)
                 (A) (A) (A) (A) (A) (A) (A) (A) (A) (A) (A) (A)
                 (A) (A) (A) (A) (A) (A) (A) (A) (A) (A) (A) (A)
                 (A) (A) (A) (A) (A) (A) (A) (A) (A) (A) (A) (A)
                 (A) (A) (A) (A) (A) (A) (A) (A) (A) (A) (A) (A)
                 (A) (A) (A) (A) (A) (A) (A) (A) (A) (A) (A) (A)
                 (A) (A) (A) (A) (A) (A) (A) (A) (A) (A) (A) (A)
                 (A) (A) (A) (A) (A) (A) (A) (A) (A) (A) (A) (A)
                 (A) (A) (A) (A) (A) (A) (A) (A) (A) (A) (A) (A)
                 (A) (A) (A) (A) (A) (A) (A) (A) (A) (A) (A) (A)
                 (A) (A) (A) (A) (A) (A) (A) (A) (A) (A) (A) (A)
                 (A) (A) (A) (A) (A) (A) (A) (A) (A) (A) (A) (A)
                 (A) (A) (A) (A) (A) (A) (A) (A) (A) (A) (A) (A)
                 (A) (A) (A) (A) (A) (A) (A) (A) (A) (A) (A) (A)
                 (A) (A) (A) (A) (A) (A) (A) (A) (A) (A) (A) (A)
                 (A) (A) (A) (A) (A) (A) (A) (A) (A) (A) (A) (A)
                 (A) (A) (A) (A) (A) (A) (A) (A) (A) (A) (A) (A)
                 (A) (A) (A) (A) (A) (A) (A) (A) (A) (A) (A) (A)
                 (A) (A) (A) (A) (A) (A) (A) (A) (A) (A) (A) (A)
                 (A) (A) (A) (A) (A) (A) (A) (A) (A) (A) (A) (A)
                 (A) (A) (A) (A) (A) (A) (A) (A) (A) (A) (A) (A)
                 (A) (A) (A) (A) (A) (A) (A) (A) (A) (A) (A) (A)
                 (A) (A) (A) (A) (A) (A) (A) (A) (A) (A) (A) (A)
                 (A) (A) (A) (A) (A) (A) (A) (A) (A) (A) (A) (A)
                 (A) (A) (A) (A) (A) (A) (A) (A) (A) (A) (A) (A)
                 (A) (A) (A) (A) (A) (A) (A) (A) (A) (A) (A) (A)
                 (A) (A) (A) (A) (A) (A) (A) (A) (A) (A) (A) (A)
                 (A) (A) (A) (A) (A) (A) (A) (A) (A) (A) (A) (A)
                 (A) (A) (A) (A) (A) (A) (A) (A) (A) (A) (A) (A)
                 (A) (A) (A) (A) (A) (A) (A) (A) (A) (A) (A) (A)
                 (A) (A) (A) (A) (A) (A) (A) (A) (A) (A) (A) (A)
                 (A) (A) (A) (A) (A) (A) (A) (A) (A) (A) (A) (A)
                 (A) (A) (A) (A) (A) (A) (A) (A) (A) (A) (A) (A)
                 (A) (A) (A) (A) (A) (A) (A) (A) (A) (A) (A) (A)
                 (A) (A) (A) (A) (A) (A) (A) (A) (A) (A) (A) (A)
                 (A) (A) (A) (A) (A) (A) (A) (A) (A) (A) (A) (A)
                 (A) (A) (A) (A) (A) (A) (A) (A) (A) (A) (A) (A)
                 (A) (A) (A) (A) (A) (A) (A) (A) (A) (A) (A) (A)
                 (A) (A) (A) (A) (A) (A) (A) (A) (A) (A) (A) (A)
                 (A) (A) (A) (A) (A) (A) (A) (A) (A) (A) (A) (A)
                 (A) (A) (A) (A) (A) (A) (A) (A) (A) (A) (A) (A)
                 (A) (A) (A) (A) (A) (A) (A) (A) (A) (A) (A) (A)
                 (A) (A) (A) (A) (A) (A) (A) (A) (A) (A) (A) (A)
                 (A) (A) (A) (A) (A) (A) (A) (A) (A) (A) (A) (A)
                 (A) (A) (A) (A) (A) (A) (A) (A) (A) (A) (A) (A)
                 (A) (A) (A) (A) (A) (A) (A) (A) (A) (A) (A) (A)
                 (A) (A) (A) (A) (A) (A) (A) (A) (A) (A) (A) (A)
                 (A) (A) (A) (A) (A) (A) (A) (A) (A) (A) (A) (A)
                 (A) (A) (A) (A) (A) (A) (A) (A) (A) (A) (A) (A)
                 (A) (A) (A) (A) (A) (A) (A) (A) (A) (A) (A) (A)
                 (A) (A) (A) (A) (A) (A) (A) (A) (A) (A)
 Beta  Orbitals:
       Occupied  (A) (A) (A) (A) (A) (A) (A) (A) (A) (A) (A) (A)
                 (A) (A) (A) (A) (A) (A) (A) (A) (A) (A) (A) (A)
                 (A) (A) (A) (A) (A) (A) (A) (A) (A) (A) (A) (A)
                 (A) (A) (A) (A) (A) (A) (A) (A) (A) (A) (A) (A)
                 (A) (A) (A) (A) (A) (A) (A) (A) (A) (A) (A) (A)
                 (A) (A) (A) (A) (A) (A) (A) (A) (A) (A) (A) (A)
                 (A) (A) (A) (A) (A) (A) (A) (A) (A) (A) (A) (A)
                 (A) (A) (A) (A) (A) (A) (A) (A) (A) (A) (A) (A)
                 (A) (A) (A) (A) (A) (A) (A) (A) (A) (A) (A) (A)
                 (A) (A) (A) (A) (A) (A) (A) (A) (A) (A) (A) (A)
                 (A) (A) (A) (A) (A) (A) (A) (A) (A) (A) (A) (A)
                 (A) (A)
       Virtual   (A) (A) (A) (A) (A) (A) (A) (A) (A) (A) (A) (A)
                 (A) (A) (A) (A) (A) (A) (A) (A) (A) (A) (A) (A)
                 (A) (A) (A) (A) (A) (A) (A) (A) (A) (A) (A) (A)
                 (A) (A) (A) (A) (A) (A) (A) (A) (A) (A) (A) (A)
                 (A) (A) (A) (A) (A) (A) (A) (A) (A) (A) (A) (A)
                 (A) (A) (A) (A) (A) (A) (A) (A) (A) (A) (A) (A)
                 (A) (A) (A) (A) (A) (A) (A) (A) (A) (A) (A) (A)
                 (A) (A) (A) (A) (A) (A) (A) (A) (A) (A) (A) (A)
                 (A) (A) (A) (A) (A) (A) (A) (A) (A) (A) (A) (A)
                 (A) (A) (A) (A) (A) (A) (A) (A) (A) (A) (A) (A)
                 (A) (A) (A) (A) (A) (A) (A) (A) (A) (A) (A) (A)
                 (A) (A) (A) (A) (A) (A) (A) (A) (A) (A) (A) (A)
                 (A) (A) (A) (A) (A) (A) (A) (A) (A) (A) (A) (A)
                 (A) (A) (A) (A) (A) (A) (A) (A) (A) (A) (A) (A)
                 (A) (A) (A) (A) (A) (A) (A) (A) (A) (A) (A) (A)
                 (A) (A) (A) (A) (A) (A) (A) (A) (A) (A) (A) (A)
                 (A) (A) (A) (A) (A) (A) (A) (A) (A) (A) (A) (A)
                 (A) (A) (A) (A) (A) (A) (A) (A) (A) (A) (A) (A)
                 (A) (A) (A) (A) (A) (A) (A) (A) (A) (A) (A) (A)
                 (A) (A) (A) (A) (A) (A) (A) (A) (A) (A) (A) (A)
                 (A) (A) (A) (A) (A) (A) (A) (A) (A) (A) (A) (A)
                 (A) (A) (A) (A) (A) (A) (A) (A) (A) (A) (A) (A)
                 (A) (A) (A) (A) (A) (A) (A) (A) (A) (A) (A) (A)
                 (A) (A) (A) (A) (A) (A) (A) (A) (A) (A) (A) (A)
                 (A) (A) (A) (A) (A) (A) (A) (A) (A) (A) (A) (A)
                 (A) (A) (A) (A) (A) (A) (A) (A) (A) (A) (A) (A)
                 (A) (A) (A) (A) (A) (A) (A) (A) (A) (A) (A) (A)
                 (A) (A) (A) (A) (A) (A) (A) (A) (A) (A) (A) (A)
                 (A) (A) (A) (A) (A) (A) (A) (A) (A) (A) (A) (A)
                 (A) (A) (A) (A) (A) (A) (A) (A) (A) (A) (A) (A)
                 (A) (A) (A) (A) (A) (A) (A) (A) (A) (A) (A) (A)
                 (A) (A) (A) (A) (A) (A) (A) (A) (A) (A) (A) (A)
                 (A) (A) (A) (A) (A) (A) (A) (A) (A) (A) (A) (A)
                 (A) (A) (A) (A) (A) (A) (A) (A) (A) (A) (A) (A)
                 (A) (A) (A) (A) (A) (A) (A) (A) (A) (A) (A) (A)
                 (A) (A) (A) (A) (A) (A) (A) (A) (A) (A) (A) (A)
                 (A) (A) (A) (A) (A) (A) (A) (A) (A) (A) (A) (A)
                 (A) (A) (A) (A) (A) (A) (A) (A) (A) (A) (A) (A)
                 (A) (A) (A) (A) (A) (A) (A) (A) (A) (A) (A) (A)
                 (A) (A) (A) (A) (A) (A) (A) (A) (A) (A) (A) (A)
                 (A) (A) (A) (A) (A) (A) (A) (A) (A) (A) (A) (A)
                 (A) (A) (A) (A) (A) (A) (A) (A) (A) (A) (A) (A)
                 (A) (A) (A) (A) (A) (A) (A) (A) (A) (A) (A) (A)
                 (A) (A) (A) (A) (A) (A) (A) (A) (A) (A) (A) (A)
                 (A) (A) (A) (A) (A) (A) (A) (A) (A) (A) (A) (A)
                 (A) (A) (A) (A) (A) (A) (A) (A) (A) (A) (A) (A)
                 (A) (A) (A) (A) (A) (A) (A) (A) (A) (A) (A) (A)
                 (A) (A) (A) (A) (A) (A) (A) (A) (A) (A) (A) (A)
                 (A) (A) (A) (A) (A) (A) (A) (A) (A) (A) (A) (A)
                 (A) (A) (A) (A) (A) (A) (A) (A) (A) (A) (A) (A)
                 (A) (A) (A) (A) (A) (A) (A) (A) (A) (A) (A) (A)
                 (A) (A) (A) (A) (A) (A) (A) (A) (A) (A) (A) (A)
                 (A) (A) (A) (A) (A) (A) (A) (A) (A) (A) (A) (A)
                 (A) (A) (A) (A) (A) (A) (A) (A) (A) (A) (A) (A)
                 (A) (A) (A) (A) (A) (A) (A) (A) (A) (A) (A) (A)
                 (A) (A) (A) (A) (A) (A) (A) (A) (A) (A) (A) (A)
                 (A) (A) (A) (A) (A) (A) (A) (A) (A) (A) (A) (A)
                 (A) (A) (A) (A) (A) (A) (A) (A) (A) (A) (A) (A)
                 (A) (A) (A) (A) (A) (A) (A) (A) (A) (A) (A) (A)
                 (A) (A) (A) (A) (A) (A) (A) (A) (A) (A) (A) (A)
                 (A) (A) (A) (A) (A) (A) (A) (A) (A) (A) (A) (A)
                 (A) (A) (A) (A) (A) (A) (A) (A) (A) (A) (A) (A)
                 (A) (A) (A) (A) (A) (A) (A) (A) (A) (A) (A) (A)
                 (A) (A) (A) (A) (A) (A) (A) (A) (A) (A) (A)
 The electronic state is 2-A.
 Alpha  occ. eigenvalues --  -88.79592 -88.76675 -19.08064 -19.07562 -18.99842
 Alpha  occ. eigenvalues --  -18.99744 -18.99162 -18.99158 -14.26792 -14.26305
 Alpha  occ. eigenvalues --  -10.18283 -10.18053 -10.17853 -10.17554 -10.15927
 Alpha  occ. eigenvalues --  -10.15405 -10.15371 -10.13941 -10.12568 -10.12087
 Alpha  occ. eigenvalues --  -10.11004 -10.10895 -10.10747 -10.10513 -10.10510
 Alpha  occ. eigenvalues --  -10.10382 -10.09926 -10.09463 -10.09058 -10.08491
 Alpha  occ. eigenvalues --  -10.08359 -10.08237 -10.08128 -10.08098 -10.07706
 Alpha  occ. eigenvalues --  -10.07651  -7.88152  -7.85216  -5.84456  -5.84078
 Alpha  occ. eigenvalues --   -5.83727  -5.81521  -5.81092  -5.80809  -0.99727
 Alpha  occ. eigenvalues --   -0.99089  -0.96232  -0.96132  -0.94294  -0.94019
 Alpha  occ. eigenvalues --   -0.84184  -0.83714  -0.80587  -0.79332  -0.77913
 Alpha  occ. eigenvalues --   -0.73766  -0.71359  -0.69244  -0.67785  -0.66234
 Alpha  occ. eigenvalues --   -0.65574  -0.65256  -0.63705  -0.63218  -0.61577
 Alpha  occ. eigenvalues --   -0.61221  -0.59776  -0.57845  -0.55031  -0.53974
 Alpha  occ. eigenvalues --   -0.53387  -0.52407  -0.50886  -0.49283  -0.47586
 Alpha  occ. eigenvalues --   -0.47278  -0.45707  -0.45329  -0.45037  -0.42870
 Alpha  occ. eigenvalues --   -0.41780  -0.40317  -0.39938  -0.39689  -0.39628
 Alpha  occ. eigenvalues --   -0.38810  -0.38579  -0.38248  -0.37665  -0.37276
 Alpha  occ. eigenvalues --   -0.36989  -0.36770  -0.36580  -0.35383  -0.34453
 Alpha  occ. eigenvalues --   -0.33908  -0.33563  -0.33272  -0.33010  -0.32552
 Alpha  occ. eigenvalues --   -0.32410  -0.32249  -0.31447  -0.30876  -0.30664
 Alpha  occ. eigenvalues --   -0.30499  -0.30056  -0.29923  -0.29699  -0.29389
 Alpha  occ. eigenvalues --   -0.28379  -0.28027  -0.27662  -0.27210  -0.27002
 Alpha  occ. eigenvalues --   -0.25598  -0.25175  -0.24899  -0.24392  -0.23077
 Alpha  occ. eigenvalues --   -0.21995  -0.19893  -0.19375  -0.18790  -0.18073
 Alpha  occ. eigenvalues --   -0.17894  -0.17384  -0.16851  -0.16529  -0.16324
 Alpha  occ. eigenvalues --   -0.15345  -0.14033  -0.11854  -0.09176  -0.04222
 Alpha virt. eigenvalues --    0.03281   0.05227   0.06043   0.06418   0.06998
 Alpha virt. eigenvalues --    0.07357   0.07586   0.08800   0.08967   0.09089
 Alpha virt. eigenvalues --    0.09616   0.10226   0.10407   0.10598   0.10756
 Alpha virt. eigenvalues --    0.11274   0.11496   0.11848   0.11982   0.12330
 Alpha virt. eigenvalues --    0.12493   0.12626   0.12873   0.12922   0.13071
 Alpha virt. eigenvalues --    0.13311   0.13583   0.13965   0.14198   0.14445
 Alpha virt. eigenvalues --    0.14674   0.15083   0.15322   0.15497   0.15701
 Alpha virt. eigenvalues --    0.15872   0.16230   0.16257   0.17014   0.17202
 Alpha virt. eigenvalues --    0.17522   0.17856   0.18110   0.18374   0.18453
 Alpha virt. eigenvalues --    0.18786   0.18853   0.19279   0.19405   0.19756
 Alpha virt. eigenvalues --    0.20063   0.20302   0.20679   0.20896   0.21170
 Alpha virt. eigenvalues --    0.21291   0.21575   0.21600   0.22113   0.22186
 Alpha virt. eigenvalues --    0.22424   0.22810   0.22952   0.23333   0.23653
 Alpha virt. eigenvalues --    0.23839   0.23995   0.24123   0.24291   0.24507
 Alpha virt. eigenvalues --    0.24813   0.25137   0.25346   0.25463   0.25685
 Alpha virt. eigenvalues --    0.26022   0.26216   0.26245   0.26421   0.26481
 Alpha virt. eigenvalues --    0.27116   0.27144   0.27407   0.27552   0.27735
 Alpha virt. eigenvalues --    0.28174   0.28380   0.28612   0.28693   0.28990
 Alpha virt. eigenvalues --    0.29213   0.29293   0.29467   0.29784   0.29858
 Alpha virt. eigenvalues --    0.30127   0.30422   0.30505   0.31016   0.31143
 Alpha virt. eigenvalues --    0.31403   0.31651   0.31782   0.31910   0.32327
 Alpha virt. eigenvalues --    0.32332   0.32647   0.32836   0.33047   0.33202
 Alpha virt. eigenvalues --    0.33397   0.33604   0.33781   0.34075   0.34100
 Alpha virt. eigenvalues --    0.34491   0.34567   0.34879   0.35102   0.35253
 Alpha virt. eigenvalues --    0.35427   0.35552   0.35741   0.36077   0.36158
 Alpha virt. eigenvalues --    0.36183   0.36585   0.36657   0.36934   0.37182
 Alpha virt. eigenvalues --    0.37305   0.37551   0.37840   0.37915   0.38250
 Alpha virt. eigenvalues --    0.38574   0.38896   0.39083   0.39160   0.39614
 Alpha virt. eigenvalues --    0.39958   0.40026   0.40395   0.40586   0.40777
 Alpha virt. eigenvalues --    0.41004   0.41092   0.41502   0.41748   0.41846
 Alpha virt. eigenvalues --    0.42200   0.42269   0.42633   0.42982   0.43083
 Alpha virt. eigenvalues --    0.43287   0.43834   0.43964   0.44043   0.44612
 Alpha virt. eigenvalues --    0.44781   0.44956   0.45389   0.45811   0.46393
 Alpha virt. eigenvalues --    0.46744   0.46916   0.47173   0.47480   0.47963
 Alpha virt. eigenvalues --    0.48450   0.48688   0.49156   0.49582   0.49798
 Alpha virt. eigenvalues --    0.50344   0.50721   0.51251   0.51415   0.52110
 Alpha virt. eigenvalues --    0.52132   0.52616   0.52815   0.53581   0.53715
 Alpha virt. eigenvalues --    0.53944   0.54239   0.54905   0.55071   0.55075
 Alpha virt. eigenvalues --    0.55339   0.55745   0.56385   0.56662   0.57035
 Alpha virt. eigenvalues --    0.57564   0.58076   0.58644   0.58990   0.59052
 Alpha virt. eigenvalues --    0.60102   0.60656   0.60729   0.61692   0.62446
 Alpha virt. eigenvalues --    0.62784   0.63353   0.63912   0.64011   0.64509
 Alpha virt. eigenvalues --    0.64935   0.65162   0.65324   0.65822   0.66450
 Alpha virt. eigenvalues --    0.66503   0.66967   0.67073   0.67623   0.68004
 Alpha virt. eigenvalues --    0.68507   0.68764   0.68998   0.69668   0.70127
 Alpha virt. eigenvalues --    0.70453   0.70718   0.71358   0.71663   0.71847
 Alpha virt. eigenvalues --    0.72261   0.72664   0.73065   0.73859   0.74136
 Alpha virt. eigenvalues --    0.74334   0.74439   0.74862   0.74995   0.75241
 Alpha virt. eigenvalues --    0.75652   0.75952   0.76381   0.76845   0.77344
 Alpha virt. eigenvalues --    0.77820   0.77911   0.78218   0.79058   0.79147
 Alpha virt. eigenvalues --    0.79507   0.79931   0.80424   0.80902   0.81130
 Alpha virt. eigenvalues --    0.81448   0.82050   0.82374   0.82501   0.82682
 Alpha virt. eigenvalues --    0.83049   0.83699   0.84416   0.84481   0.84826
 Alpha virt. eigenvalues --    0.84902   0.85310   0.85418   0.86034   0.86156
 Alpha virt. eigenvalues --    0.86340   0.86761   0.87294   0.87556   0.88127
 Alpha virt. eigenvalues --    0.88657   0.89254   0.89381   0.90343   0.90654
 Alpha virt. eigenvalues --    0.90886   0.91366   0.91837   0.92262   0.92790
 Alpha virt. eigenvalues --    0.93432   0.94162   0.95154   0.95735   0.96462
 Alpha virt. eigenvalues --    0.97532   0.98038   0.98531   0.99017   0.99886
 Alpha virt. eigenvalues --    1.00346   1.00903   1.01432   1.01748   1.02390
 Alpha virt. eigenvalues --    1.03136   1.03706   1.03739   1.04859   1.04977
 Alpha virt. eigenvalues --    1.05295   1.05931   1.06001   1.06668   1.06944
 Alpha virt. eigenvalues --    1.07081   1.07629   1.07967   1.08580   1.09116
 Alpha virt. eigenvalues --    1.09480   1.09538   1.10250   1.10474   1.10935
 Alpha virt. eigenvalues --    1.11661   1.12349   1.12803   1.13159   1.13309
 Alpha virt. eigenvalues --    1.13697   1.14060   1.14646   1.15101   1.15728
 Alpha virt. eigenvalues --    1.16125   1.16334   1.16487   1.16784   1.17506
 Alpha virt. eigenvalues --    1.17885   1.18457   1.18647   1.19120   1.19997
 Alpha virt. eigenvalues --    1.20561   1.20735   1.21714   1.21936   1.22837
 Alpha virt. eigenvalues --    1.23919   1.24405   1.24928   1.26113   1.26742
 Alpha virt. eigenvalues --    1.27146   1.27768   1.28325   1.29160   1.29745
 Alpha virt. eigenvalues --    1.30167   1.30976   1.31884   1.32177   1.33240
 Alpha virt. eigenvalues --    1.33484   1.34159   1.34888   1.35682   1.36832
 Alpha virt. eigenvalues --    1.37678   1.38286   1.38859   1.39095   1.39483
 Alpha virt. eigenvalues --    1.40040   1.41168   1.41452   1.42001   1.42324
 Alpha virt. eigenvalues --    1.43431   1.43655   1.44526   1.45954   1.46725
 Alpha virt. eigenvalues --    1.47313   1.48574   1.49172   1.49640   1.50089
 Alpha virt. eigenvalues --    1.50201   1.51029   1.52256   1.53118   1.53263
 Alpha virt. eigenvalues --    1.53628   1.53878   1.54403   1.55041   1.55325
 Alpha virt. eigenvalues --    1.55949   1.56568   1.56886   1.57459   1.57815
 Alpha virt. eigenvalues --    1.58321   1.59040   1.59948   1.60355   1.61369
 Alpha virt. eigenvalues --    1.61934   1.62666   1.62739   1.63035   1.63483
 Alpha virt. eigenvalues --    1.64446   1.64721   1.64943   1.65399   1.65657
 Alpha virt. eigenvalues --    1.65971   1.66883   1.66973   1.67731   1.68968
 Alpha virt. eigenvalues --    1.69435   1.69885   1.70788   1.71129   1.72085
 Alpha virt. eigenvalues --    1.72224   1.73159   1.73573   1.74588   1.75005
 Alpha virt. eigenvalues --    1.75369   1.76692   1.77066   1.77514   1.77858
 Alpha virt. eigenvalues --    1.78553   1.78600   1.79098   1.80076   1.80657
 Alpha virt. eigenvalues --    1.81495   1.82154   1.82376   1.83289   1.83871
 Alpha virt. eigenvalues --    1.84199   1.84776   1.86386   1.86570   1.86827
 Alpha virt. eigenvalues --    1.87192   1.87558   1.88348   1.88724   1.89636
 Alpha virt. eigenvalues --    1.90828   1.91368   1.92393   1.92848   1.94082
 Alpha virt. eigenvalues --    1.94206   1.95174   1.97326   1.97557   1.97825
 Alpha virt. eigenvalues --    1.98554   1.98831   1.99511   2.00014   2.00863
 Alpha virt. eigenvalues --    2.01140   2.02072   2.02846   2.03232   2.03251
 Alpha virt. eigenvalues --    2.04199   2.04441   2.05287   2.05702   2.07419
 Alpha virt. eigenvalues --    2.07649   2.08264   2.09561   2.09833   2.10673
 Alpha virt. eigenvalues --    2.11196   2.11727   2.12332   2.12880   2.13573
 Alpha virt. eigenvalues --    2.13885   2.14352   2.14899   2.15363   2.15652
 Alpha virt. eigenvalues --    2.16309   2.16641   2.18155   2.18978   2.19352
 Alpha virt. eigenvalues --    2.20164   2.20288   2.20827   2.21819   2.22327
 Alpha virt. eigenvalues --    2.23339   2.24037   2.25199   2.25571   2.26302
 Alpha virt. eigenvalues --    2.28087   2.28919   2.29208   2.29324   2.29930
 Alpha virt. eigenvalues --    2.31220   2.31901   2.32501   2.32879   2.34048
 Alpha virt. eigenvalues --    2.37110   2.38124   2.38294   2.40520   2.44377
 Alpha virt. eigenvalues --    2.44612   2.45827   2.47329   2.48274   2.49446
 Alpha virt. eigenvalues --    2.49908   2.50834   2.51003   2.51648   2.52196
 Alpha virt. eigenvalues --    2.52708   2.54196   2.55128   2.55705   2.56431
 Alpha virt. eigenvalues --    2.57287   2.58000   2.58856   2.60126   2.60323
 Alpha virt. eigenvalues --    2.60995   2.61433   2.61878   2.62291   2.62578
 Alpha virt. eigenvalues --    2.63020   2.63969   2.64622   2.66418   2.67423
 Alpha virt. eigenvalues --    2.68027   2.69641   2.69944   2.71308   2.72589
 Alpha virt. eigenvalues --    2.74661   2.75892   2.75991   2.76363   2.77131
 Alpha virt. eigenvalues --    2.77885   2.78349   2.79325   2.79732   2.80555
 Alpha virt. eigenvalues --    2.81433   2.81937   2.82270   2.82885   2.83181
 Alpha virt. eigenvalues --    2.83555   2.84309   2.84726   2.85529   2.86156
 Alpha virt. eigenvalues --    2.88505   2.88597   2.89389   2.90740   2.91760
 Alpha virt. eigenvalues --    2.92570   2.93270   2.94040   2.94835   2.95611
 Alpha virt. eigenvalues --    2.96110   2.97447   2.98114   2.98919   2.99214
 Alpha virt. eigenvalues --    3.00373   3.00600   3.01502   3.02176   3.02800
 Alpha virt. eigenvalues --    3.03694   3.04244   3.05175   3.05826   3.06268
 Alpha virt. eigenvalues --    3.06517   3.07393   3.08260   3.08894   3.10720
 Alpha virt. eigenvalues --    3.12280   3.13654   3.14051   3.14513   3.16387
 Alpha virt. eigenvalues --    3.17529   3.18902   3.19468   3.20481   3.22809
 Alpha virt. eigenvalues --    3.23664   3.25663   3.26152   3.26377   3.27219
 Alpha virt. eigenvalues --    3.29195   3.30173   3.31721   3.32327   3.32553
 Alpha virt. eigenvalues --    3.33058   3.34783   3.37425   3.39376   3.39868
 Alpha virt. eigenvalues --    3.40748   3.41542   3.42933   3.45403   3.46001
 Alpha virt. eigenvalues --    3.46557   3.46878   3.47443   3.49110   3.50260
 Alpha virt. eigenvalues --    3.51577   3.52742   3.54558   3.54709   3.55134
 Alpha virt. eigenvalues --    3.57052   3.57819   3.59849   3.61449   3.62167
 Alpha virt. eigenvalues --    3.64498   3.66504   3.70177   3.71611   3.72517
 Alpha virt. eigenvalues --    3.73968   3.76987   3.77844   3.78786   3.81743
 Alpha virt. eigenvalues --    3.82286   3.82409   3.83106   3.83952   3.84501
 Alpha virt. eigenvalues --    3.85472   3.89953   3.92934   3.93216   3.96147
 Alpha virt. eigenvalues --    3.97219   4.01874   4.03073   4.04599   4.05103
 Alpha virt. eigenvalues --    4.06423   4.09031   4.12340   4.13613   4.16680
 Alpha virt. eigenvalues --    4.17403   4.19116   4.23254   4.25490   4.30418
 Alpha virt. eigenvalues --    4.34401   4.37450   4.39065   4.47985   4.51870
 Alpha virt. eigenvalues --    4.53286   4.63427   4.81049   4.97261   4.98656
 Alpha virt. eigenvalues --    4.99083   5.02140   5.10829   5.11809   5.15850
 Alpha virt. eigenvalues --    5.17378   5.17956   5.21416   5.23454   5.25304
 Alpha virt. eigenvalues --    5.37025   5.39076   5.41412   5.45205   5.51359
 Alpha virt. eigenvalues --    5.52216   5.85522   5.88019   5.89304   5.92610
 Alpha virt. eigenvalues --    5.94036   5.97554   8.11577   8.18688  17.37908
 Alpha virt. eigenvalues --   17.47131  17.58748  17.61637  17.70203  17.74976
 Alpha virt. eigenvalues --   23.61074  23.67834  23.81847  23.90686  23.92506
 Alpha virt. eigenvalues --   23.94991  23.97209  23.98078  23.98355  23.99439
 Alpha virt. eigenvalues --   23.99737  24.00141  24.01250  24.04657  24.05374
 Alpha virt. eigenvalues --   24.07540  24.08710  24.11230  24.11799  24.12690
 Alpha virt. eigenvalues --   24.13650  24.18362  24.22619  24.23312  24.26535
 Alpha virt. eigenvalues --   24.27359  35.67907  35.70866  50.05100  50.06911
 Alpha virt. eigenvalues --   50.14532  50.16657  50.18237  50.19867 189.28974
 Alpha virt. eigenvalues --  189.36970
  Beta  occ. eigenvalues --  -88.79588 -88.76663 -19.08046 -19.07573 -18.99677
  Beta  occ. eigenvalues --  -18.99562 -18.98989 -18.98962 -14.26838 -14.26357
  Beta  occ. eigenvalues --  -10.18231 -10.18003 -10.17777 -10.17501 -10.15927
  Beta  occ. eigenvalues --  -10.15405 -10.15326 -10.13982 -10.12599 -10.12041
  Beta  occ. eigenvalues --  -10.11004 -10.10952 -10.10658 -10.10530 -10.10509
  Beta  occ. eigenvalues --  -10.10233 -10.09969 -10.09519 -10.08916 -10.08354
  Beta  occ. eigenvalues --  -10.08197 -10.08105 -10.08093 -10.08022 -10.07631
  Beta  occ. eigenvalues --  -10.07577  -7.88149  -7.85205  -5.84454  -5.84077
  Beta  occ. eigenvalues --   -5.83716  -5.81515  -5.81084  -5.80773  -0.99688
  Beta  occ. eigenvalues --   -0.99112  -0.96009  -0.95879  -0.93998  -0.93713
  Beta  occ. eigenvalues --   -0.84092  -0.83621  -0.80548  -0.79191  -0.77844
  Beta  occ. eigenvalues --   -0.73469  -0.71085  -0.69146  -0.67736  -0.66152
  Beta  occ. eigenvalues --   -0.65442  -0.64922  -0.63646  -0.63141  -0.61526
  Beta  occ. eigenvalues --   -0.61179  -0.59545  -0.57573  -0.54871  -0.53806
  Beta  occ. eigenvalues --   -0.53236  -0.52290  -0.50815  -0.49215  -0.47544
  Beta  occ. eigenvalues --   -0.47226  -0.45589  -0.45282  -0.44932  -0.42721
  Beta  occ. eigenvalues --   -0.41679  -0.40270  -0.39891  -0.39686  -0.39565
  Beta  occ. eigenvalues --   -0.38709  -0.38377  -0.38046  -0.37576  -0.37162
  Beta  occ. eigenvalues --   -0.36942  -0.36687  -0.36544  -0.35286  -0.34306
  Beta  occ. eigenvalues --   -0.33790  -0.33488  -0.33118  -0.32906  -0.32422
  Beta  occ. eigenvalues --   -0.32186  -0.32100  -0.31360  -0.30622  -0.30499
  Beta  occ. eigenvalues --   -0.30061  -0.29802  -0.29577  -0.29219  -0.29060
  Beta  occ. eigenvalues --   -0.28251  -0.27901  -0.27408  -0.27036  -0.26921
  Beta  occ. eigenvalues --   -0.25478  -0.25089  -0.24733  -0.24257  -0.22772
  Beta  occ. eigenvalues --   -0.21581  -0.19445  -0.18774  -0.18479  -0.17727
  Beta  occ. eigenvalues --   -0.17564  -0.17029  -0.16651  -0.16304  -0.16147
  Beta  occ. eigenvalues --   -0.14857  -0.12802  -0.11604  -0.08833
  Beta virt. eigenvalues --   -0.00068   0.03821   0.06038   0.06182   0.06877
  Beta virt. eigenvalues --    0.07004   0.07590   0.08112   0.08800   0.08975
  Beta virt. eigenvalues --    0.09097   0.09635   0.10272   0.10539   0.10641
  Beta virt. eigenvalues --    0.10771   0.11294   0.11497   0.11861   0.12013
  Beta virt. eigenvalues --    0.12404   0.12580   0.12678   0.12999   0.13121
  Beta virt. eigenvalues --    0.13302   0.13682   0.13820   0.14099   0.14241
  Beta virt. eigenvalues --    0.14646   0.14737   0.15136   0.15340   0.15516
  Beta virt. eigenvalues --    0.15717   0.15965   0.16260   0.16341   0.17096
  Beta virt. eigenvalues --    0.17318   0.17561   0.17869   0.18160   0.18433
  Beta virt. eigenvalues --    0.18507   0.18829   0.18878   0.19336   0.19449
  Beta virt. eigenvalues --    0.19796   0.20108   0.20323   0.20750   0.21131
  Beta virt. eigenvalues --    0.21232   0.21386   0.21613   0.21681   0.22218
  Beta virt. eigenvalues --    0.22278   0.22469   0.22846   0.23028   0.23407
  Beta virt. eigenvalues --    0.23733   0.23881   0.24132   0.24248   0.24424
  Beta virt. eigenvalues --    0.24584   0.24848   0.25166   0.25436   0.25501
  Beta virt. eigenvalues --    0.25729   0.26035   0.26243   0.26282   0.26492
  Beta virt. eigenvalues --    0.26515   0.27146   0.27186   0.27441   0.27577
  Beta virt. eigenvalues --    0.27788   0.28197   0.28400   0.28666   0.28725
  Beta virt. eigenvalues --    0.29015   0.29240   0.29345   0.29513   0.29815
  Beta virt. eigenvalues --    0.29895   0.30150   0.30454   0.30537   0.31049
  Beta virt. eigenvalues --    0.31173   0.31436   0.31738   0.31825   0.31969
  Beta virt. eigenvalues --    0.32360   0.32470   0.32711   0.32901   0.33108
  Beta virt. eigenvalues --    0.33259   0.33442   0.33735   0.33930   0.34118
  Beta virt. eigenvalues --    0.34258   0.34531   0.34631   0.34964   0.35158
  Beta virt. eigenvalues --    0.35300   0.35504   0.35608   0.35808   0.36113
  Beta virt. eigenvalues --    0.36191   0.36245   0.36638   0.36722   0.37000
  Beta virt. eigenvalues --    0.37213   0.37370   0.37603   0.37878   0.37965
  Beta virt. eigenvalues --    0.38311   0.38631   0.38945   0.39131   0.39240
  Beta virt. eigenvalues --    0.39666   0.40028   0.40065   0.40453   0.40620
  Beta virt. eigenvalues --    0.40815   0.41060   0.41164   0.41536   0.41801
  Beta virt. eigenvalues --    0.41896   0.42286   0.42312   0.42687   0.43005
  Beta virt. eigenvalues --    0.43198   0.43323   0.43882   0.44006   0.44075
  Beta virt. eigenvalues --    0.44696   0.44840   0.45035   0.45467   0.45870
  Beta virt. eigenvalues --    0.46449   0.46820   0.46963   0.47221   0.47526
  Beta virt. eigenvalues --    0.48050   0.48529   0.48739   0.49215   0.49652
  Beta virt. eigenvalues --    0.49861   0.50411   0.50793   0.51305   0.51450
  Beta virt. eigenvalues --    0.52154   0.52180   0.52656   0.52871   0.53629
  Beta virt. eigenvalues --    0.53744   0.54012   0.54288   0.54975   0.55107
  Beta virt. eigenvalues --    0.55126   0.55382   0.55776   0.56430   0.56697
  Beta virt. eigenvalues --    0.57080   0.57602   0.58123   0.58722   0.59047
  Beta virt. eigenvalues --    0.59089   0.60156   0.60757   0.60822   0.61761
  Beta virt. eigenvalues --    0.62518   0.62826   0.63422   0.63960   0.64063
  Beta virt. eigenvalues --    0.64560   0.64965   0.65248   0.65387   0.65872
  Beta virt. eigenvalues --    0.66582   0.66617   0.67036   0.67156   0.67704
  Beta virt. eigenvalues --    0.68075   0.68637   0.68857   0.69085   0.69728
  Beta virt. eigenvalues --    0.70173   0.70496   0.70765   0.71543   0.71824
  Beta virt. eigenvalues --    0.71929   0.72335   0.72732   0.73217   0.73968
  Beta virt. eigenvalues --    0.74318   0.74441   0.74501   0.74910   0.75085
  Beta virt. eigenvalues --    0.75343   0.75730   0.76034   0.76468   0.76927
  Beta virt. eigenvalues --    0.77420   0.77923   0.78029   0.78273   0.79139
  Beta virt. eigenvalues --    0.79242   0.79586   0.79976   0.80543   0.81003
  Beta virt. eigenvalues --    0.81299   0.81547   0.82132   0.82463   0.82628
  Beta virt. eigenvalues --    0.82828   0.83090   0.83922   0.84501   0.84621
  Beta virt. eigenvalues --    0.84908   0.84974   0.85382   0.85525   0.86110
  Beta virt. eigenvalues --    0.86226   0.86441   0.86819   0.87388   0.87607
  Beta virt. eigenvalues --    0.88184   0.88699   0.89307   0.89440   0.90404
  Beta virt. eigenvalues --    0.90724   0.90957   0.91422   0.91906   0.92316
  Beta virt. eigenvalues --    0.92834   0.93509   0.94304   0.95263   0.95822
  Beta virt. eigenvalues --    0.96501   0.97531   0.98111   0.98601   0.99056
  Beta virt. eigenvalues --    0.99918   1.00350   1.00979   1.01474   1.01794
  Beta virt. eigenvalues --    1.02472   1.03224   1.03819   1.03915   1.05009
  Beta virt. eigenvalues --    1.05106   1.05447   1.06072   1.06101   1.06759
  Beta virt. eigenvalues --    1.07019   1.07294   1.07744   1.08105   1.08686
  Beta virt. eigenvalues --    1.09173   1.09534   1.09621   1.10359   1.10603
  Beta virt. eigenvalues --    1.11017   1.11813   1.12410   1.12992   1.13212
  Beta virt. eigenvalues --    1.13428   1.13843   1.14118   1.14746   1.15206
  Beta virt. eigenvalues --    1.15882   1.16227   1.16462   1.16681   1.16890
  Beta virt. eigenvalues --    1.17601   1.18013   1.18566   1.18767   1.19355
  Beta virt. eigenvalues --    1.20205   1.20723   1.20865   1.21808   1.22124
  Beta virt. eigenvalues --    1.23016   1.24128   1.24564   1.25201   1.26367
  Beta virt. eigenvalues --    1.26832   1.27323   1.28004   1.28422   1.29378
  Beta virt. eigenvalues --    1.29972   1.30309   1.31189   1.32043   1.32421
  Beta virt. eigenvalues --    1.33350   1.33585   1.34210   1.34938   1.35807
  Beta virt. eigenvalues --    1.36933   1.37755   1.38359   1.39043   1.39203
  Beta virt. eigenvalues --    1.39610   1.40191   1.41275   1.41502   1.42077
  Beta virt. eigenvalues --    1.42400   1.43490   1.43731   1.44649   1.46057
  Beta virt. eigenvalues --    1.46794   1.47362   1.48644   1.49235   1.49697
  Beta virt. eigenvalues --    1.50111   1.50309   1.51052   1.52353   1.53205
  Beta virt. eigenvalues --    1.53319   1.53656   1.53957   1.54589   1.55091
  Beta virt. eigenvalues --    1.55394   1.56026   1.56706   1.56970   1.57564
  Beta virt. eigenvalues --    1.57908   1.58452   1.59115   1.60069   1.60442
  Beta virt. eigenvalues --    1.61481   1.61948   1.62737   1.62801   1.63113
  Beta virt. eigenvalues --    1.63703   1.64543   1.64787   1.65033   1.65483
  Beta virt. eigenvalues --    1.65730   1.66044   1.66954   1.67037   1.67854
  Beta virt. eigenvalues --    1.69064   1.69552   1.70024   1.70816   1.71186
  Beta virt. eigenvalues --    1.72122   1.72245   1.73238   1.73617   1.74603
  Beta virt. eigenvalues --    1.75066   1.75504   1.76719   1.77088   1.77577
  Beta virt. eigenvalues --    1.77919   1.78632   1.78716   1.79178   1.80268
  Beta virt. eigenvalues --    1.80791   1.81630   1.82287   1.82519   1.83356
  Beta virt. eigenvalues --    1.84053   1.84267   1.84836   1.86472   1.86642
  Beta virt. eigenvalues --    1.86921   1.87402   1.87647   1.88438   1.88825
  Beta virt. eigenvalues --    1.89708   1.90920   1.91492   1.92458   1.92895
  Beta virt. eigenvalues --    1.94132   1.94282   1.95241   1.97433   1.97621
  Beta virt. eigenvalues --    1.97933   1.98829   1.99138   1.99657   2.00146
  Beta virt. eigenvalues --    2.01079   2.01298   2.02165   2.02972   2.03296
  Beta virt. eigenvalues --    2.03377   2.04327   2.04588   2.05361   2.05855
  Beta virt. eigenvalues --    2.07660   2.07881   2.08509   2.09683   2.09862
  Beta virt. eigenvalues --    2.10797   2.11468   2.11837   2.12417   2.12978
  Beta virt. eigenvalues --    2.13656   2.13911   2.14434   2.14948   2.15409
  Beta virt. eigenvalues --    2.15763   2.16370   2.16715   2.18278   2.19080
  Beta virt. eigenvalues --    2.19384   2.20246   2.20381   2.20912   2.21894
  Beta virt. eigenvalues --    2.22397   2.23425   2.24102   2.25297   2.25678
  Beta virt. eigenvalues --    2.26362   2.28132   2.28999   2.29273   2.29658
  Beta virt. eigenvalues --    2.30015   2.31285   2.31960   2.32675   2.33023
  Beta virt. eigenvalues --    2.34110   2.37192   2.38285   2.38527   2.40655
  Beta virt. eigenvalues --    2.44515   2.44709   2.46013   2.47417   2.48437
  Beta virt. eigenvalues --    2.49569   2.49931   2.50843   2.51062   2.51703
  Beta virt. eigenvalues --    2.52283   2.52829   2.54205   2.55173   2.55758
  Beta virt. eigenvalues --    2.56459   2.57332   2.58012   2.59002   2.60149
  Beta virt. eigenvalues --    2.60392   2.61035   2.61442   2.61887   2.62317
  Beta virt. eigenvalues --    2.62591   2.63110   2.63986   2.64662   2.66453
  Beta virt. eigenvalues --    2.67463   2.68064   2.69699   2.69973   2.71369
  Beta virt. eigenvalues --    2.72610   2.74715   2.76002   2.76136   2.76452
  Beta virt. eigenvalues --    2.77187   2.77926   2.78392   2.79412   2.79784
  Beta virt. eigenvalues --    2.80958   2.81546   2.82021   2.82313   2.82982
  Beta virt. eigenvalues --    2.83511   2.83630   2.84473   2.84789   2.85599
  Beta virt. eigenvalues --    2.86205   2.88682   2.88860   2.89521   2.90947
  Beta virt. eigenvalues --    2.91785   2.92686   2.93409   2.94278   2.94947
  Beta virt. eigenvalues --    2.95846   2.96175   2.97626   2.98375   2.99102
  Beta virt. eigenvalues --    2.99517   3.00763   3.00892   3.01829   3.02664
  Beta virt. eigenvalues --    3.03060   3.03938   3.04598   3.05609   3.05965
  Beta virt. eigenvalues --    3.06363   3.06881   3.07759   3.08637   3.08987
  Beta virt. eigenvalues --    3.11162   3.12344   3.13678   3.14179   3.14957
  Beta virt. eigenvalues --    3.16416   3.17637   3.19431   3.19600   3.20606
  Beta virt. eigenvalues --    3.22935   3.23693   3.25904   3.26259   3.26460
  Beta virt. eigenvalues --    3.27344   3.29238   3.30249   3.31758   3.32371
  Beta virt. eigenvalues --    3.32598   3.33064   3.34826   3.37518   3.39410
  Beta virt. eigenvalues --    3.39953   3.40774   3.41613   3.43026   3.45433
  Beta virt. eigenvalues --    3.46450   3.47015   3.47327   3.47939   3.49145
  Beta virt. eigenvalues --    3.50368   3.51628   3.52821   3.54609   3.54786
  Beta virt. eigenvalues --    3.55196   3.57138   3.57930   3.59897   3.61553
  Beta virt. eigenvalues --    3.62266   3.64542   3.66558   3.70277   3.71694
  Beta virt. eigenvalues --    3.72591   3.74077   3.77037   3.77891   3.78854
  Beta virt. eigenvalues --    3.81796   3.82266   3.82478   3.83093   3.83957
  Beta virt. eigenvalues --    3.84501   3.85502   3.89966   3.92947   3.93291
  Beta virt. eigenvalues --    3.96180   3.97254   4.02025   4.03232   4.04480
  Beta virt. eigenvalues --    4.05260   4.06291   4.09188   4.12372   4.13743
  Beta virt. eigenvalues --    4.16784   4.17448   4.19132   4.23265   4.25670
  Beta virt. eigenvalues --    4.30457   4.34472   4.37643   4.39256   4.48179
  Beta virt. eigenvalues --    4.52035   4.53494   4.63535   4.81157   4.97391
  Beta virt. eigenvalues --    4.98799   4.99178   5.02146   5.10902   5.11765
  Beta virt. eigenvalues --    5.16558   5.18119   5.18674   5.22220   5.23565
  Beta virt. eigenvalues --    5.25421   5.37166   5.39226   5.41557   5.45368
  Beta virt. eigenvalues --    5.51357   5.52226   5.85533   5.88176   5.89308
  Beta virt. eigenvalues --    5.92771   5.94179   5.97716   8.11584   8.18710
  Beta virt. eigenvalues --   17.37922  17.47177  17.58750  17.61639  17.70215
  Beta virt. eigenvalues --   17.74982  23.61128  23.67885  23.81866  23.90743
  Beta virt. eigenvalues --   23.92586  23.95056  23.97281  23.98081  23.98369
  Beta virt. eigenvalues --   23.99497  23.99834  24.00165  24.01346  24.04678
  Beta virt. eigenvalues --   24.05413  24.07608  24.08789  24.11309  24.11820
  Beta virt. eigenvalues --   24.12721  24.13641  24.18474  24.22643  24.23341
  Beta virt. eigenvalues --   24.26630  24.27455  35.67858  35.70815  50.05116
  Beta virt. eigenvalues --   50.06903  50.14705  50.16840  50.18416  50.20051
  Beta virt. eigenvalues --  189.28977 189.36981
          Condensed to atoms (all electrons):
          Atomic-Atomic Spin Densities.
 Mulliken charges and spin densities:
               1          2
     1  C    0.315535   0.021664
     2  C   -0.117714   0.122214
     3  C    0.178272  -0.038436
     4  C    0.197959   0.094581
     5  C    0.199184   0.023642
     6  C   -0.104309   0.018567
     7  C    0.163503  -0.030806
     8  C    0.219167   0.114609
     9  C    0.131814   0.104965
    10  C   -0.314190   0.034965
    11  C    0.222340   0.026316
    12  C    0.155655   0.085382
    13  C   -0.480600   0.058953
    14  C   -0.592387   0.059205
    15  H    0.128196  -0.003967
    16  H    0.131281  -0.004121
    17  H    0.133949  -0.001644
    18  N   -0.108373  -0.022176
    19  N   -0.133774  -0.018959
    20  O   -0.353426   0.067682
    21  O   -0.336744   0.061226
    22  O   -0.342306   0.064878
    23  O   -0.206280   0.072227
    24  C   -0.188244   0.001398
    25  H    0.159635  -0.000963
    26  H    0.154370  -0.000946
    27  H    0.170517  -0.000345
    28  C   -0.194947   0.001167
    29  H    0.155093  -0.000803
    30  H    0.153638  -0.000839
    31  H    0.168877  -0.000302
    32  C    0.357580  -0.035621
    33  C   -0.670836   0.055544
    34  S   -0.750835   0.011557
    35  C   -0.346812  -0.025330
    36  H    0.118565  -0.002885
    37  C    0.685739   0.055968
    38  O   -0.142301  -0.001380
    39  C    0.880343  -0.020744
    40  C   -0.235357   0.000138
    41  C   -0.109902   0.029469
    42  S   -0.318716   0.002577
    43  H    0.147154   0.000001
    44  H    0.137282  -0.000316
    45  H    0.148164  -0.000287
    46  C   -0.565843  -0.013392
    47  O   -0.099511   0.003352
    48  C   -0.323138   0.032721
    49  H    0.113984   0.000625
    50  C   -0.256562  -0.000176
    51  H    0.137734  -0.002039
    52  H    0.128773   0.000478
    53  H    0.165811  -0.000008
    54  H    0.132993   0.000417
 Sum of Mulliken charges =  -1.00000   1.00000
 Mulliken charges and spin densities with hydrogens summed into heavy atoms:
               1          2
     1  C    0.315535   0.021664
     2  C   -0.117714   0.122214
     3  C    0.178272  -0.038436
     4  C    0.197959   0.094581
[...]
              Bcc     0.0226     3.027     1.080     1.010  0.9043  0.3896  0.1745
 
              Baa    -0.0830   -11.136    -3.973    -3.714  0.9705  0.0800  0.2274
     8 C(13)  Bbb    -0.0783   -10.503    -3.748    -3.503 -0.0225  0.9692 -0.2453
              Bcc     0.1613    21.639     7.721     7.218 -0.2400  0.2329  0.9424
 
              Baa    -0.0526    -7.055    -2.517    -2.353  0.9959  0.0252  0.0867
     9 C(13)  Bbb    -0.0471    -6.314    -2.253    -2.106 -0.0090  0.9830 -0.1832
              Bcc     0.0996    13.369     4.770     4.459 -0.0898  0.1817  0.9792
 
              Baa    -0.0283    -3.797    -1.355    -1.267  0.3744  0.9264 -0.0413
    10 C(13)  Bbb    -0.0177    -2.379    -0.849    -0.793  0.7509 -0.2767  0.5997
              Bcc     0.0460     6.176     2.204     2.060 -0.5441  0.2555  0.7992
 
              Baa    -0.0264    -3.548    -1.266    -1.184  0.9415 -0.1400  0.3066
    11 C(13)  Bbb    -0.0158    -2.117    -0.756    -0.706  0.1593  0.9865 -0.0390
              Bcc     0.0422     5.665     2.022     1.890 -0.2970  0.0856  0.9510
 
              Baa    -0.0710    -9.526    -3.399    -3.177  0.4283  0.9023  0.0493
    12 C(13)  Bbb    -0.0664    -8.904    -3.177    -2.970  0.8604 -0.4239  0.2828
              Bcc     0.1373    18.430     6.576     6.148 -0.2760  0.0788  0.9579
 
              Baa    -0.0365    -4.898    -1.748    -1.634  0.5613  0.8244  0.0726
    13 C(13)  Bbb    -0.0296    -3.969    -1.416    -1.324  0.7837 -0.5577  0.2734
              Bcc     0.0661     8.866     3.164     2.957 -0.2659  0.0966  0.9592
 
              Baa    -0.0442    -5.926    -2.114    -1.977  0.9532  0.1984  0.2282
    14 C(13)  Bbb    -0.0384    -5.157    -1.840    -1.720 -0.1722  0.9765 -0.1296
              Bcc     0.0826    11.083     3.955     3.697 -0.2486  0.0842  0.9649
 
              Baa    -0.0047    -2.515    -0.897    -0.839  0.1540  0.9871 -0.0435
    15 H(1)   Bbb    -0.0024    -1.266    -0.452    -0.422 -0.2452  0.0808  0.9661
              Bcc     0.0071     3.781     1.349     1.261  0.9571 -0.1381  0.2545
 
              Baa    -0.0036    -1.917    -0.684    -0.640  0.9144 -0.2427  0.3239
    16 H(1)   Bbb    -0.0026    -1.378    -0.492    -0.460 -0.3056  0.1108  0.9457
              Bcc     0.0062     3.296     1.176     1.099  0.2654  0.9637 -0.0271
 
              Baa    -0.0033    -1.747    -0.623    -0.583 -0.5255  0.0936  0.8456
    17 H(1)   Bbb    -0.0018    -0.968    -0.345    -0.323  0.8302 -0.1609  0.5337
              Bcc     0.0051     2.715     0.969     0.906  0.1860  0.9825  0.0069
 
              Baa    -0.0502    -1.935    -0.690    -0.645 -0.3640  0.1197  0.9237
    18 N(14)  Bbb     0.0243     0.938     0.335     0.313  0.7724  0.5930  0.2276
              Bcc     0.0258     0.997     0.356     0.332 -0.5205  0.7963 -0.3083
 
              Baa    -0.0487    -1.879    -0.670    -0.627 -0.2446  0.0757  0.9667
    19 N(14)  Bbb     0.0237     0.913     0.326     0.304  0.8209  0.5468  0.1649
              Bcc     0.0250     0.966     0.345     0.322 -0.5161  0.8338 -0.1959
 
              Baa    -0.1546    11.189     3.992     3.732  0.6809  0.7236  0.1127
    20 O(17)  Bbb    -0.1517    10.977     3.917     3.662  0.6943 -0.6868  0.2150
              Bcc     0.3063   -22.166    -7.909    -7.394 -0.2330  0.0681  0.9701
 
              Baa    -0.1413    10.225     3.649     3.411  0.9117  0.3560  0.2052
    21 O(17)  Bbb    -0.1381     9.989     3.564     3.332 -0.3288  0.9316 -0.1551
              Bcc     0.2794   -20.214    -7.213    -6.743 -0.2463  0.0739  0.9664
 
              Baa    -0.1443    10.438     3.725     3.482  0.7190  0.6720  0.1774
    22 O(17)  Bbb    -0.1414    10.233     3.651     3.413 -0.6235  0.7364 -0.2626
              Bcc     0.2857   -20.671    -7.376    -6.895 -0.3071  0.0782  0.9485
 
              Baa    -0.1637    11.848     4.228     3.952  0.7538  0.5954  0.2782
    23 O(17)  Bbb    -0.1623    11.744     4.191     3.917 -0.4417  0.7724 -0.4563
              Bcc     0.3260   -23.592    -8.418    -7.869 -0.4866  0.2211  0.8452
 
              Baa    -0.0018    -0.238    -0.085    -0.079 -0.3087  0.0743  0.9482
    24 C(13)  Bbb     0.0008     0.103     0.037     0.034  0.9413 -0.1191  0.3158
              Bcc     0.0010     0.135     0.048     0.045  0.1364  0.9901 -0.0332
 
              Baa    -0.0015    -0.779    -0.278    -0.260 -0.3714  0.3590  0.8562
    25 H(1)   Bbb    -0.0001    -0.042    -0.015    -0.014  0.9210  0.2594  0.2907
              Bcc     0.0015     0.821     0.293     0.274 -0.1178  0.8966 -0.4270
 
              Baa    -0.0015    -0.794    -0.283    -0.265 -0.3314 -0.1205  0.9358
    26 H(1)   Bbb    -0.0004    -0.208    -0.074    -0.069  0.9136  0.2067  0.3502
              Bcc     0.0019     1.002     0.357     0.334 -0.2356  0.9710  0.0416
 
              Baa    -0.0016    -0.843    -0.301    -0.281 -0.2878  0.0781  0.9545
    27 H(1)   Bbb    -0.0005    -0.266    -0.095    -0.089  0.6313  0.7649  0.1277
              Bcc     0.0021     1.110     0.396     0.370  0.7202 -0.6394  0.2694
 
              Baa    -0.0017    -0.226    -0.081    -0.076 -0.2451  0.0765  0.9665
    28 C(13)  Bbb     0.0007     0.097     0.035     0.033  0.5300  0.8453  0.0675
              Bcc     0.0010     0.129     0.046     0.043  0.8118 -0.5287  0.2478
 
              Baa    -0.0014    -0.739    -0.264    -0.246 -0.4426  0.1993  0.8743
    29 H(1)   Bbb    -0.0002    -0.103    -0.037    -0.035  0.6292  0.7637  0.1444
              Bcc     0.0016     0.842     0.301     0.281  0.6389 -0.6140  0.4634
 
              Baa    -0.0014    -0.740    -0.264    -0.247 -0.0243 -0.0450  0.9987
    30 H(1)   Bbb    -0.0002    -0.112    -0.040    -0.037  0.6500  0.7583  0.0500
              Bcc     0.0016     0.852     0.304     0.284  0.7596 -0.6503 -0.0108
 
              Baa    -0.0016    -0.829    -0.296    -0.277 -0.2430  0.0724  0.9673
    31 H(1)   Bbb    -0.0006    -0.310    -0.111    -0.103  0.9427  0.2525  0.2180
              Bcc     0.0021     1.140     0.407     0.380 -0.2285  0.9649 -0.1296
 
              Baa    -0.0255    -3.419    -1.220    -1.140  0.0494 -0.4972  0.8662
    32 C(13)  Bbb     0.0097     1.306     0.466     0.436 -0.2939  0.8216  0.4884
              Bcc     0.0157     2.113     0.754     0.705  0.9545  0.2787  0.1056
 
              Baa    -0.0203    -2.727    -0.973    -0.910 -0.2391  0.8137  0.5298
    33 C(13)  Bbb    -0.0173    -2.317    -0.827    -0.773  0.9691  0.2345  0.0771
              Bcc     0.0376     5.044     1.800     1.683  0.0615 -0.5319  0.8446
 
              Baa    -0.0301    -1.235    -0.441    -0.412  0.6046  0.7122  0.3568
    34 S(33)  Bbb    -0.0248    -1.017    -0.363    -0.339 -0.5104  0.0025  0.8599
              Bcc     0.0549     2.252     0.804     0.751 -0.6115  0.7020 -0.3650
 
              Baa    -0.0185    -2.479    -0.885    -0.827  0.1730 -0.5257  0.8329
    35 C(13)  Bbb     0.0082     1.095     0.391     0.365  0.1879  0.8477  0.4961
              Bcc     0.0103     1.384     0.494     0.462  0.9668 -0.0707 -0.2454
 
              Baa    -0.0021    -1.132    -0.404    -0.378 -0.3903 -0.4006  0.8290
    36 H(1)   Bbb     0.0001     0.057     0.020     0.019  0.8373  0.2200  0.5005
              Bcc     0.0020     1.075     0.384     0.359 -0.3829  0.8895  0.2496
 
              Baa    -0.0213    -2.857    -1.020    -0.953 -0.1302  0.8174  0.5611
    37 C(13)  Bbb    -0.0195    -2.610    -0.931    -0.871  0.9732  0.2136 -0.0854
              Bcc     0.0407     5.467     1.951     1.824  0.1897 -0.5350  0.8233
 
              Baa    -0.0122     0.880     0.314     0.294  0.1582 -0.5231  0.8375
    38 O(17)  Bbb     0.0052    -0.373    -0.133    -0.125 -0.5530  0.6557  0.5141
              Bcc     0.0070    -0.507    -0.181    -0.169  0.8181  0.5444  0.1855
 
              Baa    -0.0120    -1.616    -0.576    -0.539  0.1717 -0.5532  0.8151
    39 C(13)  Bbb     0.0046     0.621     0.221     0.207  0.3246  0.8130  0.4834
              Bcc     0.0074     0.995     0.355     0.332  0.9301 -0.1816 -0.3191
 
              Baa    -0.0006    -0.086    -0.031    -0.029 -0.6261  0.6537  0.4250
    40 C(13)  Bbb    -0.0002    -0.021    -0.008    -0.007  0.0572 -0.5051  0.8612
              Bcc     0.0008     0.107     0.038     0.036  0.7777  0.5635  0.2788
 
              Baa    -0.0102    -1.374    -0.490    -0.458  0.1025  0.8281  0.5511
    41 C(13)  Bbb    -0.0089    -1.197    -0.427    -0.399  0.9870 -0.0158 -0.1597
              Bcc     0.0192     2.571     0.917     0.858  0.1235 -0.5603  0.8190
 
              Baa    -0.0095    -0.391    -0.139    -0.130 -0.5511  0.6494  0.5239
    42 S(33)  Bbb    -0.0048    -0.196    -0.070    -0.065  0.8344  0.4258  0.3499
              Bcc     0.0143     0.587     0.209     0.196 -0.0042 -0.6301  0.7765
 
              Baa    -0.0003    -0.143    -0.051    -0.048 -0.2459 -0.0619  0.9673
    43 H(1)   Bbb    -0.0002    -0.121    -0.043    -0.040 -0.5403  0.8373 -0.0837
              Bcc     0.0005     0.265     0.094     0.088  0.8047  0.5432  0.2393
 
              Baa    -0.0005    -0.288    -0.103    -0.096 -0.5866  0.0665  0.8071
    44 H(1)   Bbb    -0.0004    -0.223    -0.079    -0.074 -0.4399  0.8107 -0.3864
              Bcc     0.0010     0.511     0.182     0.170  0.6800  0.5817  0.4463
 
              Baa    -0.0006    -0.296    -0.106    -0.099 -0.3646  0.0896  0.9269
    45 H(1)   Bbb    -0.0004    -0.208    -0.074    -0.069 -0.6366  0.7025 -0.3183
              Bcc     0.0009     0.504     0.180     0.168  0.6796  0.7061  0.1991
 
              Baa    -0.0063    -0.845    -0.302    -0.282  0.1257 -0.5531  0.8236
    46 C(13)  Bbb     0.0027     0.362     0.129     0.121 -0.2602  0.7827  0.5654
              Bcc     0.0036     0.484     0.173     0.161  0.9573  0.2854  0.0455
 
              Baa    -0.0087     0.632     0.225     0.211  0.6555  0.6655  0.3570
    47 O(17)  Bbb    -0.0072     0.521     0.186     0.174  0.7523 -0.6167 -0.2319
              Bcc     0.0159    -1.152    -0.411    -0.384 -0.0658 -0.4206  0.9049
 
              Baa    -0.0100    -1.337    -0.477    -0.446  0.0558  0.8477  0.5275
    48 C(13)  Bbb    -0.0091    -1.220    -0.435    -0.407  0.9908  0.0181 -0.1339
              Bcc     0.0191     2.557     0.912     0.853  0.1231 -0.5302  0.8389
 
              Baa    -0.0004    -0.208    -0.074    -0.069  0.1589 -0.5386  0.8274
    49 H(1)   Bbb    -0.0001    -0.071    -0.025    -0.024 -0.1580  0.8134  0.5598
              Bcc     0.0005     0.278     0.099     0.093  0.9746  0.2197 -0.0442
 
              Baa    -0.0005    -0.069    -0.025    -0.023  0.2060 -0.5098  0.8352
    50 C(13)  Bbb    -0.0002    -0.022    -0.008    -0.007  0.7277  0.6504  0.2176
              Bcc     0.0007     0.091     0.032     0.030  0.6542 -0.5630 -0.5050
 
              Baa    -0.0014    -0.740    -0.264    -0.247 -0.1814  0.8237  0.5373
    51 H(1)   Bbb    -0.0001    -0.055    -0.020    -0.018  0.1358 -0.5202  0.8432
              Bcc     0.0015     0.795     0.284     0.265  0.9740  0.2259 -0.0175
 
              Baa    -0.0003    -0.163    -0.058    -0.054  0.2115 -0.6282  0.7488
    52 H(1)   Bbb    -0.0002    -0.091    -0.032    -0.030  0.6784  0.6458  0.3503
              Bcc     0.0005     0.254     0.091     0.085  0.7036 -0.4339 -0.5627
 
              Baa    -0.0004    -0.218    -0.078    -0.073  0.2813 -0.4474  0.8489
    53 H(1)   Bbb    -0.0001    -0.069    -0.025    -0.023  0.6626  0.7304  0.1655
              Bcc     0.0005     0.287     0.102     0.096  0.6941 -0.5160 -0.5019
 
              Baa    -0.0004    -0.199    -0.071    -0.066  0.2263 -0.1195  0.9667
    54 H(1)   Bbb    -0.0001    -0.075    -0.027    -0.025  0.6045  0.7955 -0.0432
              Bcc     0.0005     0.273     0.097     0.091  0.7638 -0.5941 -0.2522
 

 ---------------------------------------------------------------------------------

 Unable to Open any file for archive entry.
 1\1\GINC-CX3-7-0\FOpt\UB3LYP\6-311+G(d,p)\C26H18N2O6S2(1-,2)\NS5018\06
 -Oct-2021\0\\# opt=modredundant b3lyp/6-311+g(d,p)\\NDI_150.pdb\\-1,2\
 C,-2.3909415607,-2.8454452113,-0.5665767045\C,-2.1726071414,-1.4438275
 558,-0.225127336\C,-3.2681590308,-0.5537573314,-0.1248129166\C,-4.5896
 651115,-0.9961822262,-0.357838929\C,-4.8500632805,-2.3913286368,-0.708
 1348585\C,-0.8693225386,-0.967775117,-0.0555449292\C,-3.0164427525,0.8
 132051723,0.2296423855\C,-1.6848048356,1.2595001505,0.4707789862\C,-0.
 5873473065,0.3600416531,0.2691817507\C,-1.5049254331,2.5834247272,1.06
 49782837\C,-3.9391475895,3.0796427943,0.7400137708\C,-4.1274447906,1.6
 874949468,0.3458185108\C,-5.43291275,1.2223814703,0.095789844\C,-5.664
 5844517,-0.0935843468,-0.2501017446\H,-6.665552603,-0.4607814765,-0.43
 77186468\H,-6.2466194319,1.9304094164,0.1904058409\H,-0.0600683024,-1.
 6596997911,-0.2467342948\N,-2.6269893973,3.44073044,1.0753585222\N,-3.
 7234507605,-3.2355411697,-0.7863829592\O,-1.4913002671,-3.6822734001,-
 0.6683184093\O,-5.9779433458,-2.8369732936,-0.9258868119\O,-4.85661702
 91,3.9011893886,0.8084386652\O,-0.4576902543,2.9919682601,1.5657906156
 \C,-2.3939957414,4.7908272436,1.589829093\H,-2.1921332227,4.762065719,
 2.6636039153\H,-1.5226316368,5.2225074383,1.0977002686\H,-3.2874486075
 ,5.3770954808,1.3949050397\C,-3.9330887876,-4.6427501477,-1.1285664374
 \H,-3.3933903026,-4.8888046686,-2.0450488512\H,-3.5474734942,-5.281337
 3147,-0.3317194759\H,-5.0002469666,-4.7955468287,-1.2604270214\C,0.835
 4040988,0.7378417357,0.2292669392\C,1.8915353042,-0.0634660203,0.61229
 2886\S,1.4171785793,2.1401283936,-0.6279475114\C,3.1539636508,0.458783
 2879,0.2476567167\H,1.7475098435,-0.9859258474,1.1553211411\C,3.099447
 1664,1.6570918756,-0.4490668691\O,4.370444697,-0.1019097424,0.53067398
 15\C,4.2004527132,2.4517053203,-0.9306073523\C,4.3785559316,-1.3379834
 169,1.2285209172\C,4.1563854187,3.6440220748,-1.6400889958\S,5.8848227
 808,2.0030981298,-0.672147573\H,5.4270421114,-1.6119436969,1.343392693
 6\H,3.9179894267,-1.2394802684,2.2176855845\H,3.8584128087,-2.11855133
 51,0.6626749767\C,5.4317872018,4.1898908599,-1.9578748075\O,2.94686917
 97,4.172298354,-1.9947164664\C,6.457514609,3.4125809089,-1.4971917787\
 H,5.5804044411,5.1110130131,-2.5037564355\C,2.9108391397,5.529396963,-
 2.4032494106\H,7.5180633258,3.5834988762,-1.5986620762\H,3.4259331747,
 5.6749054973,-3.3605546753\H,1.8575430114,5.7797609232,-2.52381375\H,3
 .3569101095,6.1843683284,-1.6461033009\\Version=ES64L-G16RevC.01\State
 =2-A\HF=-2359.4267369\S2=0.758277\S2-1=0.\S2A=0.750061\RMSD=3.570e-09\
 RMSF=4.280e-04\Dipole=4.2242346,1.2893755,-0.4277927\Quadrupole=-33.42
 17436,6.231351,27.1903927,-10.4762699,1.5961791,-14.9327239\PG=C01 [X(
 C26H18N2O6S2)]\\@
 The archive entry for this job was punched.


                                                                                    A
                                                                                  AA
                                                                                 AAA
                                                                                AAAA
                                                                               AAAAA
                                                                              AAAAAA   KKKKKKKK
                                                                             AAAAAAA   KKKKKKKK
                                                                            AAAAAAAA   KKKKKKKK
                                       ZZZZZZZZZZZZZZZZZZZZ                AAAA  AAA   KKKKKKKK
                                       ZZZZZZZZZZZZZZZZZZZ                AAAA   AAA   KKKKKKKK          K
                                       ZZZZZZZZZZZZZZZZZZ                AAAA    AAA   KKKKKKKK         KKK
                                       ZZZZZZZZZZZZZZZZZ                AAAA     AAA   KKKKKKKK        KKKKK
                                       ZZZZZZZZZZZZZZZZ                AAAA      AAA   KKKKKKKK       KKKKKKK
                                                ZZZZZZ                AAAA       AAA   KKKKKKKK      KKKKKKK
                                               ZZZZZZ                AAAA        AAA   KKKKKKKK     KKKKKKK
                                              ZZZZZZ                AAAA         AAA   KKKKKKKK    KKKKKKK
                                             ZZZZZZ                AAAA          AAA   KKKKKKKK   KKKKKKK
                                            ZZZZZZ                AAAAAAAAAAAAAAAAAA   KKKKKKKK  KKKKKKK
                                           ZZZZZZ                AAAAAAAAAAAAAAAAAAA   KKKKKKKK KKKKKKK
                                          ZZZZZZ                AAAAAAAAAAAAAAAAAAAA   KKKKKKKKKKKKKKK
                                         ZZZZZZ                AAAAAAAAAAAAAAAAAAAAA   KKKKKKKKKKKKKK
                                        ZZZZZZ                AAAAAA        AAAAAAAA   KKKKKKKKKKKKK
                                       ZZZZZZ                AAAAAA         AAAAAAAA   KKKKKKKKKKKK
                                      ZZZZZZ                AAAAAA          AAAAAAAA   KKKKKKKKKKK
                                     ZZZZZZ                AAAAAA           AAAAAAAA   KKKKKKKKKKKK
                                    ZZZZZZ                AAAAAA            AAAAAAAA   KKKKKKKKKKKKK
                                   ZZZZZZ                AAAAAA             AAAAAAAA   KKKKKKKKKKKKKK
                                  ZZZZZZ                AAAAAA              AAAAAAAA   KKKKKKKKKKKKKKK
                                 ZZZZZZ                AAAAAA               AAAAAAAA   KKKKK KKKKKKKKKK
                                ZZZZZZ                AAAAAA                AAAAAAAA   KKKKK  KKKKKKKKKK
                               ZZZZZZ                AAAAAA                            KKKKK   KKKKKKKKKK
                              ZZZZZZ                AAAAAA                             KKKKK    KKKKKKKKKK
                             ZZZZZZ                                                    KKKKK     KKKKKKKKKK
                            ZZZZZZ                                                     KKKKK      KKKKKKKKKK
                           ZZZZZZ                                                      KKKKK       KKKKKKKKKK
                          ZZZZZZ                                                       KKKKK        KKKKKKKKKK
                         ZZZZZZZZZZZZZZZZZZZZZZZZZZZZZZZZZZZZZZZZ                      KKKKK         KKKKKKKKKK
                        ZZZZZZZZZZZZZZZZZZZZZZZZZZZZZZZZZZZZZZZZZ                      KKKKK          KKKKKKKKKK
                       ZZZZZZZZZZZZZZZZZZZZZZZZZZZZZZZZZZZZZZZZZZ                      KKKKK           KKKKKKKKKK
                       ZZZZZZZZZZZZZZZZZZZZZZZZZZZZZZZZZZZZZZZZZZ                      KKKKK            KKKKKKKKKK
                       ZZZZZZZZZZZZZZZZZZZZZZZZZZZZZZZZZZZZZZZZZZ                      KKKKK             KKKKKKKKKK
                       ZZZZZZZZZZZZZZZZZZZZZZZZZZZZZZZZZZZZZZZZZZ                      KKKKK              KKKKKKKKKK
                       ZZZZZZZZZZZZZZZZZZZZZZZZZZZZZZZZZZZZZZZZZZ                      KKKKK               KKKKKKKKKK
                       ZZZZZZZZZZZZZZZZZZZZZZZZZZZZZZZZZZZZZZZZZZ                      KKKKK                KKKKKKKKKK
                       ZZZZZZZZZZZZZZZZZZZZZZZZZZZZZZZZZZZZZZZZZZ                      KKKKK
                                                                                       KKKKK
                                                                                          (J.P.)
 Job cpu time:       7 days  8 hours 17 minutes 17.1 seconds.
 Elapsed time:       0 days 22 hours 14 minutes 23.3 seconds.
 File lengths (MBytes):  RWF=    893 Int=      0 D2E=      0 Chk=     99 Scr=      1
 Normal termination of Gaussian 16 at Wed Oct  6 04:30:39 2021.
